Membrane in water
40344
    1TMC1    C1    1   0.334   4.688  10.956 -0.3774 -0.9238  0.3161
    1TMC1    C2    2   0.423   0.053  10.987  0.1526  0.2244  0.0609
    1TMC1    C3    3   0.410   0.166  10.912 -0.4133  0.0707 -0.4762
    1TMC1    C4    4   0.236   4.696  10.858 -0.0444  0.8145  0.1036
    1TMC1    C5    5   0.240   0.069  10.774 -0.7915 -0.0190 -0.5518
    1TMC1    C6    6   0.318   0.175  10.808 -0.5638 -0.1486 -0.3001
    1TMC1     C    7   0.346   4.566  11.032  0.3939  0.4451  0.0401
    1TMC1     O    8   0.257   4.481  11.027  0.4755 -0.2679 -0.5472
    1TMC1     H    9   0.490   0.036  11.070 -1.1812 -1.3884  0.8204
    1TMC1    H1   10   0.154   4.626  10.857  0.9257 -0.3301 -2.4092
    1TMC1    H2   11   0.324   0.264  10.746  0.2374 -1.7993 -2.5987
    1TMC1    C7   12   0.134   0.099  10.681 -0.7071 -0.6237 -0.9775
    1TMC1    C8   13   0.501   0.276  10.940  0.5840 -0.1157 -0.1074
    1TMC1    O1   14   0.116   0.203  10.619  0.3882 -0.2131 -0.4109
    1TMC1    O2   15   0.602   0.266  11.006  0.1105 -0.2833 -0.1649
    1TMC1    O3   16   0.078   4.719  10.641 -0.0985 -0.2109 -0.2910
    1TMC1    H3   17   0.131   4.649  10.685 -1.3047 -1.3184 -0.5803
    1TMC1    O5   18   0.424   0.389  10.939  0.1817  0.6606 -0.1307
    1TMC1    H5   19   0.337   0.383  10.894  0.1033  0.8100  0.0009
    2MPD2     C   20   0.579   4.227  11.314  0.0801  0.2395 -0.1640
    2MPD2    C1   21   0.448   4.266  11.313  0.5844  0.4582 -0.7832
    2MPD2    C2   22   0.412   4.375  11.241  0.0264  0.1460  0.4540
    2MPD2    C3   23   0.509   4.441  11.161 -0.3407  0.6817  0.0100
    2MPD2    C4   24   0.642   4.409  11.171 -0.6468  0.2627  0.1839
    2MPD2    C5   25   0.673   4.292  11.233 -0.3276 -0.9252  0.0191
    2MPD2     H   26   0.309   4.407  11.236  0.2827  1.1202  1.3983
    2MPD2    H1   27   0.728   4.455  11.123  0.6534 -2.0679  0.2403
    2MPD2    H2   28   0.604   4.133  11.362  1.0494  1.1592  1.1508
    2MPD2    H3   29   0.776   4.258  11.230  0.0715  0.1483  1.1007
    2MPD2     N   30   0.471   4.543  11.077 -0.0714  0.4082 -0.4317
    2MPD2    H5   31   0.544   4.611  11.057  0.4194 -0.2518 -0.9166
    2MPD2    N1   32   0.339   4.204  11.382 -0.0371  0.1489 -0.1519
    2MPD2    H7   33   0.247   4.248  11.381 -0.9545 -1.8566 -4.3413
    3TMC1    C1   34   3.303   0.783  10.966 -0.5153  0.4620  0.4138
    3TMC1    C2   35   3.201   0.706  11.004 -0.2204 -0.9821 -0.3552
    3TMC1    C3   36   3.082   0.718  10.951  0.8551  0.2793  0.1796
    3TMC1    C4   37   3.291   0.876  10.864  0.1504  0.3793  0.0706
    3TMC1    C5   38   3.166   0.882  10.804 -0.3942 -0.3169  0.5264
    3TMC1    C6   39   3.057   0.816  10.851  0.3287  0.5972 -0.3504
    3TMC1     C   40   3.421   0.780  11.047  0.1247 -0.3655 -0.6772
    3TMC1     O   41   3.432   0.700  11.138  0.4137 -0.8185  0.1569
    3TMC1     H   42   3.215   0.630  11.081  0.0165  0.7177  1.2912
    3TMC1    H1   43   3.380   0.922  10.823  0.2832 -0.1867 -0.2774
    3TMC1    H2   44   2.956   0.838  10.819 -0.1316 -1.1983 -0.1626
    3TMC1    C7   45   3.154   0.983  10.702 -0.1795 -0.5814  0.0660
    3TMC1    C8   46   2.959   0.654  11.007  0.1920 -0.0277 -0.3851
    3TMC1    O1   47   3.060   0.983  10.625 -0.0844  0.1950 -0.4583
    3TMC1    O2   48   2.845   0.699  10.999  0.2482  0.3928 -0.4213
    3TMC1    O3   49   3.203   1.091  10.768 -0.0312  0.3017 -0.1520
    3TMC1    H3   50   3.257   1.074  10.849  1.1046 -0.6286 -1.1129
    3TMC1    O5   51   2.987   0.526  11.028  0.1805 -0.2938 -0.1836
    3TMC1    H5   52   3.075   0.502  11.062 -0.7071 -0.4983  1.9682
    4MPD2     C   53   3.888   0.957  11.195  0.3605  0.1876  0.4768
    4MPD2    C1   54   3.839   1.032  11.093  0.3152  0.1395  0.0217
    4MPD2    C2   55   3.715   1.003  11.035 -0.0240 -0.0037 -0.2442
    4MPD2    C3   56   3.640   0.896  11.084 -0.2394  0.5079  0.1274
    4MPD2    C4   57   3.690   0.830  11.190 -0.2768  0.4091  0.1649
    4MPD2    C5   58   3.814   0.858  11.249  0.1834 -0.2126 -0.0095
    4MPD2     H   59   3.683   1.055  10.945  1.7388 -1.0351 -1.4766
    4MPD2    H1   60   3.637   0.757  11.249 -1.3995 -0.0081 -1.3568
    4MPD2    H2   61   3.988   0.959  11.237  0.1215 -0.4023  1.0746
    4MPD2    H3   62   3.852   0.791  11.325 -0.6226 -0.9732 -0.2677
    4MPD2     N   63   3.515   0.873  11.016 -0.1533  0.4149  0.2448
    4MPD2    H5   64   3.500   0.925  10.930  0.0764  1.1852  0.6704
    4MPD2    N1   65   3.907   1.145  11.041 -0.1431  0.2873  0.3197
    4MPD2    H7   66   3.853   1.189  10.968 -0.4724  1.3241  1.1848
    5TCq1    O1   67   0.073   2.831  11.250  0.0523  0.7260 -0.0799
    5TCq1    C1   68   0.050   2.700  11.272  0.0031  0.4643 -0.3871
    5TCq1    O2   69   0.127   2.608  11.243  0.0104  0.4179  0.2472
    5TCq1    C2   70   4.646   2.690  11.265 -0.5770  0.0552 -0.2660
    5TCq1    C3   71   4.575   2.795  11.313  0.6192 -0.2078 -0.5338
    5TCq1    C4   72   4.443   2.798  11.278 -0.0292 -0.1035 -1.1803
    5TCq1    C5   73   4.384   2.706  11.195 -0.9202 -0.2274 -0.0555
    5TCq1    C6   74   4.456   2.594  11.166 -0.3399 -0.6766 -0.1279
    5TCq1    C7   75   4.587   2.590  11.196  0.0966 -0.1078  1.2082
    5TCq1    C8   76   4.390   2.480  11.101 -0.1078  0.5144  0.2444
    5TCq1    O4   77   4.446   2.371  11.104 -0.0279  0.2722  0.2490
    5TCq1    C9   78   4.375   2.912  11.322  0.1894 -0.2819 -0.2800
    5TCq1    O5   79   4.248   2.904  11.318 -0.3076 -0.1758  0.3480
    5TCq1    O6   80   4.449   3.011  11.340 -0.4603  0.2373 -0.2331
    5TCq1    H1   81   4.735   2.890  11.260  0.9278  1.7450  0.7237
    5TCq1    H2   82   4.618   2.878  11.368 -1.0765  0.4494 -0.2055
    5TCq1    H3   83   4.279   2.724  11.176 -0.6802  0.4525 -0.7379
    5TCq1    H4   84   4.646   2.503  11.168 -0.7128 -0.0517 -0.6491
    6MPD2     C   85   4.087   2.500  10.900 -0.0238 -0.1286 -0.8746
    6MPD2    C1   86   4.201   2.435  10.944  0.4942  0.0443 -0.2199
    6MPD2    C2   87   4.246   2.314  10.884  0.0472 -0.1118  0.3057
    6MPD2    C3   88   4.166   2.254  10.789  0.1647 -0.2126  0.3990
    6MPD2    C4   89   4.054   2.323  10.749  0.1589 -0.2216  0.1449
    6MPD2    C5   90   4.020   2.446  10.794 -0.4041 -0.4814 -0.7235
    6MPD2     H   91   4.343   2.278  10.918 -0.2935 -0.8964  0.4346
    6MPD2    H1   92   3.999   2.287  10.662 -0.7113 -0.1530  0.6675
    6MPD2    H2   93   4.055   2.601  10.920 -0.1844 -0.1483 -1.0286
    6MPD2    H3   94   3.934   2.496  10.751  0.5454  4.1871  2.7885
    6MPD2     N   95   4.211   2.142  10.718  0.3393 -0.7582  0.3672
    6MPD2    H5   96   4.309   2.124  10.733  0.6174 -0.6673 -1.3363
    6MPD2    N1   97   4.268   2.507  11.044  0.1621 -0.0613  0.7212
    6MPD2    H7   98   4.216   2.587  11.078 -1.0025 -0.7437  0.5722
    7TCq1    O1   99   2.062   1.869  12.771  0.0651  0.6080 -0.5667
    7TCq1    C1  100   2.112   1.836  12.894 -0.2943 -0.4923  0.0151
    7TCq1    O2  101   2.082   1.876  13.004  0.3545 -0.1834  0.0265
    7TCq1    C2  102   2.195   1.719  12.876 -0.2089  0.6409  0.0212
    7TCq1    C3  103   2.141   1.610  12.809  0.2111 -1.2248  0.0502
    7TCq1    C4  104   2.193   1.486  12.840 -0.3791  0.1505 -0.1659
    7TCq1    C5  105   2.301   1.475  12.924 -0.7005  0.1326 -0.0063
    7TCq1    C6  106   2.355   1.582  12.990 -0.4380 -0.0154  0.1210
    7TCq1    C7  107   2.303   1.707  12.960 -0.0761 -0.3557 -0.3567
    7TCq1    C8  108   2.465   1.557  13.074  0.0671 -0.1494 -0.4393
    7TCq1    O4  109   2.511   1.445  13.076  0.2956 -0.0508 -0.3045
    7TCq1    C9  110   2.126   1.371  12.789 -0.7221 -0.1316 -0.3703
    7TCq1    O5  111   2.185   1.260  12.787 -0.2393  0.7034 -0.1653
    7TCq1    O6  112   2.011   1.396  12.741 -0.5514  0.0176 -0.6417
    7TCq1    H1  113   2.102   1.811  12.704  0.3399  3.4164 -2.8495
    7TCq1    H2  114   2.049   1.622  12.754  1.2790  0.4363 -1.4018
    7TCq1    H3  115   2.345   1.377  12.944  1.4423  0.7040 -1.8840
    7TCq1    H4  116   2.322   1.791  13.026 -0.0540 -0.9739  0.4172
    8MPD2     C  117   2.924   1.779  13.217  0.5774 -0.3145  0.2661
    8MPD2    C1  118   2.893   1.651  13.178  0.3014 -0.0575 -0.0788
    8MPD2    C2  119   2.757   1.608  13.158  0.0531  0.4777  0.0880
    8MPD2    C3  120   2.655   1.697  13.166 -0.6420 -0.1210  0.0281
    8MPD2    C4  121   2.683   1.824  13.208 -0.4110 -0.0523 -0.0362
    8MPD2    C5  122   2.821   1.862  13.237  0.7420  0.0395 -0.4151
    8MPD2     H  123   2.741   1.506  13.124 -0.8310  1.1036 -1.4173
    8MPD2    H1  124   2.605   1.899  13.217 -0.8916 -0.6441  0.7051
    8MPD2    H2  125   3.025   1.816  13.233  0.0789  1.2228 -0.1637
    8MPD2    H3  126   2.841   1.959  13.280 -0.5728  0.4478 -0.7450
    8MPD2     N  127   2.522   1.675  13.119  0.0463  0.6548  0.7059
    8MPD2    H5  128   2.463   1.757  13.129 -1.2968 -0.2282  0.0177
    8MPD2    N1  129   2.980   1.550  13.167 -0.0543 -0.1703  0.2334
    8MPD2    H7  130   2.944   1.455  13.159 -2.3486  0.5839  1.8947
    9TMC1    C1  131   4.248   0.746  10.591  0.0803  0.3920  0.3014
    9TMC1    C2  132   4.190   0.861  10.552 -0.0645  0.9097 -0.0386
    9TMC1    C3  133   4.053   0.850  10.538  0.6048  0.9235 -0.6260
    9TMC1    C4  134   4.176   0.628  10.603 -0.0187 -0.5665  0.1662
    9TMC1    C5  135   4.046   0.626  10.574  0.7581  0.3657  0.1549
    9TMC1    C6  136   3.978   0.738  10.543 -0.4032  0.3316  0.9107
    9TMC1     C  137   4.380   0.766  10.654 -0.2361 -0.0171 -0.3836
    9TMC1     O  138   4.457   0.845  10.607  0.0859  0.6834  0.2305
    9TMC1     H  139   4.242   0.956  10.556 -1.1964  1.5473 -0.6939
    9TMC1    H1  140   4.231   0.541  10.636  1.3782  0.5642  0.8212
    9TMC1    H2  141   3.871   0.730  10.523 -0.1820 -1.0393  0.2537
    9TMC1    C7  142   3.977   0.502  10.542  0.5462  0.1207  0.1602
    9TMC1    C8  143   3.987   0.977  10.521  0.0631 -0.6427  0.3724
    9TMC1    O1  144   3.869   0.503  10.478 -0.9178  0.3072  0.3386
    9TMC1    O2  145   4.014   1.075  10.454  0.0549 -0.1580  0.1190
    9TMC1    O3  146   4.027   0.399  10.605  0.4087 -0.3251 -0.0073
    9TMC1    H3  147   4.098   0.428  10.667  0.7353 -0.7895 -0.1603
    9TMC1    O5  148   3.906   0.980  10.630 -0.0225  0.5226  0.8277
    9TMC1    H5  149   3.910   0.898  10.684  2.0097  0.6734  0.9127
   10MPD2     C  150   4.610   0.779  10.846 -0.8384  0.6089  0.5866
   10MPD2    C1  151   4.493   0.699  10.863 -0.6974 -0.7676  0.5710
   10MPD2    C2  152   4.483   0.632  10.982  0.0587 -0.4481  0.1938
   10MPD2    C3  153   4.575   0.645  11.081 -0.1761  0.4651 -0.8559
   10MPD2    C4  154   4.685   0.726  11.061 -0.0463 -0.3862 -0.4222
   10MPD2    C5  155   4.690   0.806  10.954  0.1214 -0.5697  0.6163
   10MPD2     H  156   4.396   0.569  10.996  0.5419 -1.7450 -2.6442
   10MPD2    H1  157   0.027   0.740  11.131  0.9980 -0.7492 -1.5734
   10MPD2    H2  158   4.628   0.835  10.756 -0.1001 -2.4961 -1.1941
   10MPD2    H3  159   0.026   0.883  10.945 -0.9377  0.4043 -0.0612
   10MPD2     N  160   4.582   0.557  11.195 -0.2022  0.3705  0.1426
   10MPD2    H5  161   4.660   0.578  11.256 -0.6971 -0.2105  0.9775
   10MPD2    N1  162   4.389   0.689  10.768 -0.9193 -0.2680  0.5582
   10MPD2    H7  163   4.309   0.629  10.788 -2.8627  2.1360 -0.0869
   11TCq1    O1  164   0.456   0.505  14.285  0.0314  0.0037 -0.2505
   11TCq1    C1  165   0.502   0.628  14.291 -0.0027  0.2823 -0.4378
   11TCq1    O2  166   0.436   0.723  14.330 -0.0655  0.0964  0.1489
   11TCq1    C2  167   0.598   0.650  14.181 -0.8158 -0.3444  0.2341
   11TCq1    C3  168   0.697   0.560  14.155  0.0395  0.7216 -0.0906
   11TCq1    C4  169   0.774   0.583  14.045 -0.3838  0.9256  0.1468
   11TCq1    C5  170   0.737   0.670  13.947 -0.4814  0.7234  0.4430
   11TCq1    C6  171   0.621   0.744  13.965 -0.1180  0.0370 -0.3146
   11TCq1    C7  172   0.555   0.736  14.082 -0.0461  0.5166  0.6548
   11TCq1    C8  173   0.549   0.792  13.846  0.3136  0.5126 -0.6024
   11TCq1    O4  174   0.464   0.880  13.850 -0.7341 -0.7388 -0.1611
   11TCq1    C9  175   0.881   0.483  14.019 -0.0978 -0.0649 -0.3151
   11TCq1    O5  176   0.920   0.484  13.897  0.1024  0.3060  0.0993
   11TCq1    O6  177   0.937   0.426  14.119  0.2627  0.1447 -0.3874
   11TCq1    H1  178   0.518   0.465  14.220  1.1567 -0.1539  0.9306
   11TCq1    H2  179   0.729   0.482  14.223  2.4289  2.4494  0.7721
   11TCq1    H3  180   0.801   0.674  13.859 -0.0446 -0.1100  0.7181
   11TCq1    H4  181   0.473   0.803  14.102  0.3641  1.2071  0.0181
   12MPD2     C  182   0.440   0.823  13.570 -0.9941 -0.3354  0.7498
   12MPD2    C1  183   0.525   0.716  13.610  0.1465  0.2690  0.5317
   12MPD2    C2  184   0.563   0.615  13.524  0.0879 -0.1052  0.0613
   12MPD2    C3  185   0.498   0.599  13.403  0.6283 -0.2770 -0.6394
   12MPD2    C4  186   0.400   0.695  13.367 -0.2385 -0.8354  0.0122
   12MPD2    C5  187   0.385   0.808  13.443  0.3141  0.3863  0.6613
   12MPD2     H  188   0.643   0.551  13.561  0.5752  0.9132  0.7608
   12MPD2    H1  189   0.348   0.689  13.271 -0.3979 -0.9411  0.1048
   12MPD2    H2  190   0.399   0.899  13.636 -1.5970  0.1448 -0.1864
   12MPD2    H3  191   0.316   0.883  13.406 -1.6521 -1.3502  0.8462
   12MPD2     N  192   0.529   0.494  13.312  0.1849 -0.0311 -0.4106
   12MPD2    H5  193   0.475   0.499  13.226  0.1217  0.0081 -0.3686
   12MPD2    N1  194   0.588   0.710  13.738  0.1726  0.2001 -0.0543
   12MPD2    H7  195   0.650   0.633  13.760 -0.4778  0.0965  1.4272
   13TCq1    O1  196   0.756   4.573  11.400  0.5900  0.1029 -0.2016
   13TCq1    C1  197   0.690   4.533  11.510  0.6664  0.5369 -0.2955
   13TCq1    O2  198   0.722   4.445  11.586  0.2190  0.1857  0.1017
   13TCq1    C2  199   0.607   4.641  11.548 -0.3442  0.2275  0.1292
   13TCq1    C3  200   0.627   4.723  11.659 -0.6888  0.1272 -0.8153
   13TCq1    C4  201   0.548   0.091  11.676 -0.3595  0.4765 -0.1293
   13TCq1    C5  202   0.444   0.114  11.586 -0.8800  0.3196  0.3553
   13TCq1    C6  203   0.428   0.027  11.481 -0.4017  0.3219  0.3272
   13TCq1    C7  204   0.508   4.665  11.455 -0.1565 -0.2441 -0.4965
   13TCq1    C8  205   0.330   0.065  11.379 -0.0851  0.5593 -0.5852
   13TCq1    O4  206   0.296   4.719  11.299 -0.0957 -0.1166  0.6582
   13TCq1    C9  207   0.568   0.173  11.790  0.1399  0.3519  0.1432
   13TCq1    O5  208   0.672   0.149  11.860 -0.1529 -0.1016  0.0978
   13TCq1    O6  209   0.474   0.256  11.820  0.2678 -0.2402 -0.1046
   13TCq1    H1  210   0.730   4.665  11.377  0.0261  0.4444  1.7577
   13TCq1    H2  211   0.704   4.694  11.729 -1.8976  0.9084  0.8386
   13TCq1    H3  212   0.370   0.188  11.615 -2.2342 -1.8147  2.2370
   13TCq1    H4  213   0.483   4.595  11.376 -2.7012  1.1417 -0.8977
   14MPD2     C  214   0.261   0.399  11.284 -0.6698  0.6947  1.0624
   14MPD2    C1  215   0.241   0.269  11.280 -0.2670 -0.1845  0.7022
   14MPD2    C2  216   0.147   0.211  11.196 -0.6757 -0.1900 -0.1714
   14MPD2    C3  217   0.092   0.275  11.095  0.5654 -0.3646  0.4884
   14MPD2    C4  218   0.110   0.412  11.097 -0.2758 -0.0988 -0.1094
   14MPD2    C5  219   0.200   0.468  11.184  0.7753 -0.3116  0.2892
   14MPD2     H  220   0.126   0.105  11.197  0.2777 -0.3858 -1.6193
   14MPD2    H1  221   0.070   0.483  11.026  0.3540 -1.0969 -1.4675
   14MPD2    H2  222   0.311   0.459  11.360  1.8606 -0.5017  0.3349
   14MPD2    H3  223   0.215   0.575  11.178 -0.4780 -0.0883  1.1828
   14MPD2     N  224   4.737   0.207  11.017  0.6274 -0.4493  0.6269
   14MPD2    H5  225   4.705   0.118  11.052  0.9198 -1.0328 -0.5994
   14MPD2    N1  226   0.316   0.201  11.375 -0.0764  0.6489  0.2609
   14MPD2    H7  227   0.366   0.248  11.450 -0.4343  1.1136  0.2065
   15TCq1    O1  228   3.498   3.003   2.269 -0.7895  0.3438 -0.4191
   15TCq1    C1  229   3.531   2.964   2.151  1.2696  0.0871 -0.4928
   15TCq1    O2  230   3.528   2.849   2.111 -0.0017  0.1226 -0.7098
   15TCq1    C2  231   3.528   3.077   2.063  0.4330  0.1517 -0.7423
   15TCq1    C3  232   3.508   3.207   2.102  0.2824 -0.6489 -0.5627
   15TCq1    C4  233   3.449   3.294   2.015 -0.5019 -0.4283 -0.6767
   15TCq1    C5  234   3.410   3.266   1.890  0.6361  0.4047  0.4079
   15TCq1    C6  235   3.433   3.135   1.849  0.7118 -0.1048  0.7421
   15TCq1    C7  236   3.501   3.044   1.934  0.4618 -0.4510 -0.0670
   15TCq1    C8  237   3.364   3.083   1.734 -0.4110  0.3230  0.4938
   15TCq1    O4  238   3.390   2.965   1.701  0.6691 -0.2020 -0.0102
   15TCq1    C9  239   3.433   3.431   2.058  0.5961 -1.2388 -0.1899
   15TCq1    O5  240   3.493   3.469   2.157 -0.3348  0.2655  0.0865
   15TCq1    O6  241   3.365   3.503   1.986 -0.6339  0.2434  0.5448
   15TCq1    H1  242   3.473   3.097   2.276 -1.4351  0.0488  1.2146
   15TCq1    H2  243   3.537   3.242   2.200 -3.0553 -0.7446  0.4401
   15TCq1    H3  244   3.360   3.343   1.833  3.6043  2.8586  1.0700
   15TCq1    H4  245   3.495   2.938   1.912 -1.2368 -0.1374 -1.1734
   16MPD2     C  246   3.034   3.205   1.648  0.3450 -1.0225  0.1636
   16MPD2    C1  247   3.147   3.132   1.627  0.2207 -0.2003  0.3273
   16MPD2    C2  248   3.154   3.037   1.533  0.4503 -0.1694 -0.2712
   16MPD2    C3  249   3.050   3.015   1.443  0.8363  0.7062 -0.0159
   16MPD2    C4  250   2.926   3.075   1.472  0.6659  0.4514 -0.3714
   16MPD2    C5  251   2.927   3.162   1.574 -0.0614  0.6162 -0.6314
   16MPD2     H  252   3.250   2.991   1.515  0.0422 -0.6310 -1.2727
   16MPD2    H1  253   2.830   3.048   1.429  1.4601  1.9066 -3.0716
   16MPD2    H2  254   3.017   3.275   1.728 -0.7457  0.3452 -1.2688
   16MPD2    H3  255   2.828   3.187   1.610 -2.1272 -3.7438 -3.2462
   16MPD2     N  256   3.059   2.913   1.347  0.1182 -0.3973  0.3756
   16MPD2    H5  257   3.139   2.852   1.358  0.9922  0.2770 -2.0357
   16MPD2    N1  258   3.254   3.168   1.708  0.2163 -0.4128  0.2348
   16MPD2    H7  259   3.237   3.239   1.779  2.4425  0.6383 -0.2887
   17TMC1    C1  260   0.224   3.696  11.666 -0.4861  0.2911 -0.1614
   17TMC1    C2  261   0.155   3.618  11.756  0.7797  1.0052 -0.0115
   17TMC1    C3  262   0.227   3.580  11.873  0.1989  0.5771  0.1850
   17TMC1    C4  263   0.354   3.736  11.688  0.2106  0.1713 -0.0087
   17TMC1    C5  264   0.414   3.702  11.807 -0.3229  0.0126 -0.2581
   17TMC1    C6  265   0.355   3.620  11.902 -0.6484 -0.1818  0.0143
   17TMC1     C  266   0.138   3.746  11.557 -0.1052  0.0827 -0.0368
   17TMC1     O  267   0.017   3.745  11.559  0.6069  0.2338 -1.0872
   17TMC1     H  268   0.058   3.577  11.732  1.5039 -0.8543  0.2395
   17TMC1    H1  269   0.400   3.799  11.613  1.2054 -1.3737 -0.6900
   17TMC1    H2  270   0.398   3.591  11.998 -0.5199  0.2161  0.0785
   17TMC1    C7  271   0.525   3.787  11.840  1.1832 -0.4652 -0.0938
   17TMC1    C8  272   0.151   3.517  11.987  0.4778 -0.1113  0.5831
   17TMC1    O1  273   0.526   3.899  11.800 -0.6872 -0.6048  0.8875
   17TMC1    O2  274   0.194   3.446  12.079  0.0258 -0.2831  0.0819
   17TMC1    O3  275   0.588   3.741  11.953 -0.3799 -0.0450 -0.3061
   17TMC1    H3  276   0.588   3.642  11.953  1.1663 -0.0590 -1.5541
   17TMC1    O5  277   0.020   3.536  11.962  0.0471 -0.2557  0.0842
   17TMC1    H5  278   0.001   3.615  11.907 -1.9683  0.3260  1.6095
   18MPD2     C  279   0.018   3.838  11.293 -0.8640  0.7697  0.6125
   18MPD2    C1  280   0.154   3.831  11.325 -0.1811 -1.0528  0.5008
   18MPD2    C2  281   0.247   3.885  11.238  0.3738  0.2511  0.2376
   18MPD2    C3  282   0.203   3.942  11.120 -0.3840 -0.1810  0.0973
   18MPD2    C4  283   0.072   3.954  11.088 -0.3829  0.5783 -0.0118
   18MPD2    C5  284   4.725   3.894  11.169 -0.2890 -0.4149 -0.2297
   18MPD2     H  285   0.353   3.893  11.260  0.1127 -0.4542  1.7266
   18MPD2    H1  286   0.052   3.999  10.992 -0.1455  0.5718 -0.0655
   18MPD2    H2  287   4.679   3.795  11.353 -1.4373  0.7758 -0.1319
   18MPD2    H3  288   4.621   3.908  11.142 -0.0753 -0.1286 -0.9001
   18MPD2     N  289   0.286   4.014  11.034  0.5493  0.0302 -0.5958
   18MPD2    H5  290   0.247   4.076  10.963 -0.4329 -0.1069 -0.1754
   18MPD2    N1  291   0.211   3.782  11.446  0.1474 -0.5976  0.0475
   18MPD2    H7  292   0.312   3.773  11.453 -0.0827 -2.3491  1.0537
   19TMC2    C1  293   1.511   0.456  14.123  0.2416  0.2787  0.3972
   19TMC2    C2  294   1.417   0.549  14.166 -0.6161 -0.1748  0.0037
   19TMC2    C3  295   1.288   0.507  14.193  0.1947  0.3386  0.4808
   19TMC2    C4  296   1.466   0.332  14.087 -0.0620  0.3779 -0.3140
   19TMC2    C5  297   1.333   0.291  14.111  0.1645  0.2553 -0.5824
   19TMC2    C6  298   1.245   0.378  14.166 -0.6065  0.0026  0.2272
   19TMC2     C  299   1.644   0.507  14.087  0.1832  0.3962  0.2697
   19TMC2     O  300   1.648   0.631  14.069  0.3798  0.6983  0.7927
   19TMC2     H  301   1.448   0.649  14.194  0.4241 -0.1239 -1.3348
   19TMC2    H1  302   1.537   0.263  14.044 -2.7995 -2.0777 -0.8796
   19TMC2    H2  303   1.140   0.356  14.183 -0.6754  1.9524  2.2912
   19TMC2    C7  304   1.281   0.173  14.050 -0.8454  0.1157 -0.2095
   19TMC2    C8  305   1.218   0.586  14.290 -0.4714 -0.1391  1.0472
   19TMC2    O1  306   1.361   0.084  14.029  0.2209 -0.0292  0.4049
   19TMC2    O2  307   1.264   0.669  14.366  0.2003  0.2543  0.9103
   19TMC2    O5  308   1.090   0.589  14.247 -0.3077 -0.2378 -0.0988
   19TMC2    H5  309   1.053   0.508  14.206  0.5922 -1.1103  0.8151
   20MPD2     C  310   1.905   0.527  13.947 -0.4468  0.1862 -0.4765
   20MPD2    C1  311   1.872   0.433  14.038 -0.3359 -0.9123 -0.1726
   20MPD2    C2  312   1.973   0.353  14.083 -0.2788  0.1255 -0.0316
   20MPD2    C3  313   2.100   0.360  14.032 -0.8545  0.3316 -0.3374
   20MPD2    C4  314   2.135   0.451  13.931  0.2912 -0.7178  0.5719
   20MPD2    C5  315   2.029   0.532  13.880 -0.4461 -0.6405 -0.8874
   20MPD2     H  316   1.944   0.285  14.162 -0.5216  0.0404 -0.1928
   20MPD2    H1  317   2.235   0.466  13.891  0.4238  1.2208  1.6622
   20MPD2    H2  318   1.835   0.599  13.906  2.5175  2.7781 -0.9350
   20MPD2    H3  319   2.048   0.603  13.801 -2.6380  3.4101  2.2075
   20MPD2     N  320   2.208   0.277  14.079  0.1970  0.3927  0.0350
   20MPD2    H5  321   2.303   0.299  14.049  0.0738  0.6155 -0.1967
   20MPD2    N1  322   1.743   0.410  14.091  0.6020 -0.4278 -0.3003
   20MPD2    H7  323   1.714   0.332  14.149  0.1113 -1.0371 -1.3624
   21TMC2    C1  324   3.932   0.304  14.836 -0.0730  0.4924  0.8086
   21TMC2    C2  325   3.980   0.230  14.946  0.4531  0.2402  0.4953
   21TMC2    C3  326   3.911   0.254  15.060  0.1400 -0.0282  0.2633
   21TMC2    C4  327   3.825   0.396  14.835 -0.2021  0.4110  0.2037
   21TMC2    C5  328   3.760   0.399  14.951 -0.7466 -0.1583 -0.2199
   21TMC2    C6  329   3.805   0.332  15.067  0.0954 -0.2975 -1.0354
   21TMC2     C  330   4.026   0.319  14.731  0.1419 -1.1127 -0.6521
   21TMC2     O  331   4.133   0.265  14.748  0.8921  0.0785  0.0937
   21TMC2     H  332   4.053   0.152  14.931  0.2587  0.0943  0.3007
   21TMC2    H1  333   3.785   0.451  14.750  0.5708  1.7264  0.7061
   21TMC2    H2  334   3.766   0.350  15.167  3.1514 -3.0279  0.6326
   21TMC2    C7  335   3.678   0.512  14.984  0.5520  0.0829  0.1337
   21TMC2    C8  336   3.943   0.170  15.176 -0.2783 -0.4498  0.4230
   21TMC2    O1  337   3.599   0.505  15.081  0.0207 -0.3893  0.3322
   21TMC2    O2  338   3.861   0.120  15.248  0.1662  0.1284 -0.1164
   21TMC2    O5  339   4.066   0.123  15.157 -0.4527 -0.0414 -0.1611
   21TMC2    H5  340   4.128   0.192  15.124  0.0455 -0.2463  0.3469
   22MPD2     C  341   4.135   0.595  14.312 -0.5582 -0.2683 -0.2604
   22MPD2    C1  342   4.228   0.550  14.409  0.1290  0.2012 -0.0464
   22MPD2    C2  343   4.173   0.470  14.506  0.2303  0.4933 -0.1657
   22MPD2    C3  344   4.043   0.428  14.511 -0.1883 -0.1505 -1.1976
   22MPD2    C4  345   3.960   0.479  14.414  0.6876  0.2086 -0.8721
   22MPD2    C5  346   4.006   0.557  14.314 -0.1740  0.0278 -0.0326
   22MPD2     H  347   4.237   0.440  14.588 -2.6831  2.0838  2.6551
   22MPD2    H1  348   3.855   0.456  14.408  0.7576  0.2720 -2.2340
   22MPD2    H2  349   4.168   0.661  14.232  1.1398 -1.1648 -0.3045
   22MPD2    H3  350   3.947   0.596  14.232 -0.3029 -0.0137  0.0389
   22MPD2     N  351   3.973   0.360  14.610  0.4536 -0.2749  0.6181
   22MPD2    H5  352   3.872   0.360  14.604  0.5142 -1.7580 -0.5241
   22MPD2    N1  353   4.365   0.583  14.405 -0.1715  0.1117  0.1427
   22MPD2    H7  354   4.406   0.531  14.482 -0.6329 -0.8400 -0.2661
   23TMC2    C1  355   0.825   1.482  14.636  0.3030 -0.9084 -1.0688
   23TMC2    C2  356   0.784   1.610  14.608 -0.1870 -0.2733 -0.0876
   23TMC2    C3  357   0.681   1.627  14.519  0.0814 -0.0442 -0.1007
   23TMC2    C4  358   0.754   1.376  14.584  0.0805  0.1284 -0.6645
   23TMC2    C5  359   0.653   1.393  14.491  0.2267  0.5700 -0.3607
   23TMC2    C6  360   0.615   1.522  14.470 -0.0843  0.9790  0.3427
   23TMC2     C  361   0.921   1.458  14.738 -0.2253 -0.1835  0.1434
   23TMC2     O  362   0.920   1.350  14.788 -0.9709 -0.5566 -0.0001
   23TMC2     H  363   0.807   1.694  14.672 -1.3387 -0.2384  0.2772
   23TMC2    H1  364   0.787   1.276  14.609 -2.9026 -0.6926  0.0419
   23TMC2    H2  365   0.534   1.538  14.400 -0.2088 -0.8249  0.0746
   23TMC2    C7  366   0.568   1.277  14.453 -0.1490  0.2251 -0.2668
   23TMC2    C8  367   0.630   1.753  14.495 -0.0517 -0.1144 -0.2767
   23TMC2    O1  368   0.608   1.167  14.481  0.2840  0.7541  0.2430
   23TMC2    O2  369   0.512   1.782  14.468  0.1554  0.1702  0.1507
   23TMC2    O5  370   0.734   1.832  14.487  0.2833 -0.0701  0.1033
   23TMC2    H5  371   0.819   1.782  14.488 -1.4622 -3.0042  1.6880
   24MPD2     C  372   1.340   1.639  14.982  0.3647 -0.2262  0.1900
   24MPD2    C1  373   1.271   1.520  15.004 -0.6741 -0.7707 -0.9706
   24MPD2    C2  374   1.158   1.495  14.932  0.5099 -0.5305 -0.2341
   24MPD2    C3  375   1.115   1.582  14.828  0.0027 -0.1817  0.3487
   24MPD2    C4  376   1.182   1.705  14.814 -0.0585  0.5251 -0.4475
   24MPD2    C5  377   1.299   1.727  14.886  0.3006 -0.1710 -0.3333
   24MPD2     H  378   1.106   1.402  14.953 -0.3544  0.3402  1.4816
   24MPD2    H1  379   1.145   1.775  14.740 -0.8525  1.5392  0.9129
   24MPD2    H2  380   1.422   1.672  15.045 -0.1988  0.3657  0.6125
   24MPD2    H3  381   1.345   1.825  14.885  0.6004 -0.3120 -0.3256
   24MPD2     N  382   1.007   1.563  14.742 -0.7104 -0.7317  0.1086
   24MPD2    H5  383   0.986   1.637  14.676  0.3820 -1.1839 -0.7364
   24MPD2    N1  384   1.299   1.432  15.119  0.3427 -0.4865 -0.0027
   24MPD2    H7  385   1.233   1.358  15.137  1.3251 -1.4863 -0.4814
   25TMC2    C1  386   3.921   4.052  11.094  0.0265  0.2718 -0.4881
   25TMC2    C2  387   3.903   4.187  11.083 -0.2120 -0.1228  0.2270
   25TMC2    C3  388   3.950   4.266  11.185 -0.7277  0.2130  0.6750
   25TMC2    C4  389   3.971   3.992  11.207  1.2106  0.8722 -0.1999
   25TMC2    C5  390   4.017   4.077  11.301 -0.0213 -0.2446 -0.2472
   25TMC2    C6  391   4.010   4.215  11.292 -0.9019 -0.8692  0.3103
   25TMC2     C  392   3.856   3.977  10.989  0.9636  0.6268  0.3497
   25TMC2     O  393   3.828   4.039  10.888  0.5854 -0.0132 -0.5876
   25TMC2     H  394   3.850   4.229  10.998  1.3583 -1.9832 -1.6707
   25TMC2    H1  395   3.966   3.886  11.229  0.5654  1.2850  1.6651
   25TMC2    H2  396   4.038   4.272  11.380  0.0575 -0.9472  0.0477
   25TMC2    C7  397   4.055   4.021  11.438 -0.2650 -0.3548 -0.2644
   25TMC2    C8  398   3.875   4.388  11.201  0.0397  0.4836 -0.1568
   25TMC2    O1  399   4.064   4.098  11.533  0.4634 -0.0031  0.3615
   25TMC2    O2  400   3.756   4.406  11.176 -0.1716  0.1474  0.0458
   25TMC2    O5  401   3.930   4.461  11.299 -0.0807  0.0516  0.9812
   25TMC2    H5  402   4.024   4.468  11.272 -0.4420  3.7176  0.6499
   26MPD2     C  403   3.598   3.585  10.807 -0.2895  0.0351  0.8325
   26MPD2    C1  404   3.670   3.534  10.911  0.1700  0.0291 -0.1366
   26MPD2    C2  405   3.758   3.620  10.973 -0.3128  0.0516  0.1090
   26MPD2    C3  406   3.763   3.754  10.947  0.2841  0.0354 -0.3515
   26MPD2    C4  407   3.666   3.802  10.860  0.2668  0.4832 -0.0345
   26MPD2    C5  408   3.585   3.720  10.788  0.2745 -0.4154 -0.0067
   26MPD2     H  409   3.837   3.587  11.039  0.6575 -1.7431 -1.9440
   26MPD2    H1  410   3.658   3.906  10.830 -0.1337  0.3221 -0.4916
   26MPD2    H2  411   3.536   3.520  10.746  0.1196 -0.2439  0.7166
   26MPD2    H3  412   3.513   3.753  10.713  1.3583 -0.6576 -1.1570
   26MPD2     N  413   3.848   3.846  11.018 -0.3727  0.2798 -0.0392
   26MPD2    H5  414   3.897   3.810  11.099  2.1965  0.6900 -1.3838
   26MPD2    N1  415   3.668   3.397  10.935  0.1568 -0.1840 -0.3368
   26MPD2    H7  416   3.605   3.340  10.880 -1.2239  1.5562 -0.5459
   27TMC2    C1  417   3.634   1.153  11.892  0.3472  0.3617  0.1289
   27TMC2    C2  418   3.516   1.216  11.869 -0.3772 -0.1609  0.2958
   27TMC2    C3  419   3.525   1.338  11.805  0.1060  0.3806 -0.7679
   27TMC2    C4  420   3.756   1.208  11.859 -0.1430  0.0837  0.2206
   27TMC2    C5  421   3.758   1.336  11.795 -0.0871  0.1938 -0.2011
   27TMC2    C6  422   3.641   1.407  11.772 -0.9304  0.0775 -0.0541
   27TMC2     C  423   3.635   1.042  11.986  0.2045  0.5142 -0.1122
   27TMC2     O  424   3.717   0.952  11.978  0.0808  0.1768 -0.1365
   27TMC2     H  425   3.422   1.167  11.888 -0.3652 -0.2841  0.0436
   27TMC2    H1  426   3.845   1.147  11.869 -0.5451 -0.7364 -1.2069
   27TMC2    H2  427   3.638   1.502  11.720 -0.7288  1.3827  2.3022
   27TMC2    C7  428   3.886   1.400  11.770 -1.3404 -0.2062  0.0253
   27TMC2    C8  429   3.413   1.425  11.777 -0.3468  0.7315  0.3863
   27TMC2    O1  430   3.891   1.487  11.687 -0.1757  0.7416  0.1786
   27TMC2    O2  431   3.398   1.494  11.680  0.3100 -0.1595  0.2624
   27TMC2    O5  432   3.364   1.451  11.899 -0.1600 -0.1813 -0.0411
   27TMC2    H5  433   3.399   1.401  11.976  0.4850 -1.0336 -0.8988
   28MPD2     C  434   3.423   0.818  12.391  0.6141 -0.2684  0.4014
   28MPD2    C1  435   3.367   0.939  12.383  0.7361 -0.1589 -0.3370
   28MPD2    C2  436   3.403   1.014  12.272 -0.7361 -0.4763 -0.1007
   28MPD2    C3  437   3.513   0.983  12.192  0.5240 -0.3264  0.5836
   28MPD2    C4  438   3.585   0.868  12.222 -0.5109  0.2434 -0.5777
   28MPD2    C5  439   3.531   0.784  12.315  0.3822 -0.2879 -0.2207
   28MPD2     H  440   3.344   1.102  12.247  0.2440  0.5737  1.3169
   28MPD2    H1  441   3.680   0.840  12.178 -0.1422 -0.7194  0.8450
   28MPD2    H2  442   3.394   0.752  12.472  0.7885  0.0530  0.7277
   28MPD2    H3  443   3.579   0.691  12.342  0.5025 -0.1941 -0.1099
   28MPD2     N  444   3.538   1.066  12.082  0.0672  0.1185  0.1624
   28MPD2    H5  445   3.481   1.149  12.072  2.1661  1.4683 -0.5427
   28MPD2    N1  446   3.247   0.964  12.452  0.3146  0.1571  0.4796
   28MPD2    H7  447   3.212   0.895  12.518 -1.1427  1.1412  0.7357
   29TMC2    C1  448   3.408   3.306  14.217  0.1228  0.1909  0.4512
   29TMC2    C2  449   3.295   3.286  14.298 -0.6604  0.0272 -0.4737
   29TMC2    C3  450   3.259   3.385  14.390 -0.3122  0.3804  0.1173
   29TMC2    C4  451   3.481   3.426  14.223 -0.7670  0.6928  0.3687
   29TMC2    C5  452   3.445   3.517  14.314  0.0013  0.3777 -0.2110
   29TMC2    C6  453   3.325   3.504  14.392 -0.6289  0.0159  0.0708
   29TMC2     C  454   3.423   3.215  14.108  0.0919  0.7691 -0.6238
   29TMC2     O  455   3.529   3.161  14.080  0.1739 -0.1676  0.1086
   29TMC2     H  456   3.233   3.198  14.288 -3.5286  2.1774 -1.4636
   29TMC2    H1  457   3.567   3.428  14.157 -1.8787  1.3945 -1.0686
   29TMC2    H2  458   3.315   3.568  14.479  0.5900  1.8883 -1.1754
   29TMC2    C7  459   3.514   3.647  14.317 -0.4057 -0.5126  0.1303
   29TMC2    C8  460   3.151   3.380  14.486  0.1216 -0.2447  0.9589
   29TMC2    O1  461   3.451   3.732  14.379 -0.4575  0.1119  0.9410
   29TMC2    O2  462   3.169   3.422  14.598 -0.0788 -0.0618 -0.0876
   29TMC2    O5  463   3.098   3.258  14.458 -0.2729 -0.1031 -0.0852
   29TMC2    H5  464   3.083   3.247  14.362 -1.3662  0.5282  0.0087
   30MPD2     C  465   3.128   2.928  13.775 -0.7536 -0.4619  0.2669
   30MPD2    C1  466   3.242   2.888  13.847 -0.0169 -0.2005 -0.1856
   30MPD2    C2  467   3.304   2.982  13.932  0.5316 -0.1650 -0.0532
   30MPD2    C3  468   3.258   3.116  13.944  0.0383  0.4574  0.1222
   30MPD2    C4  469   3.138   3.151  13.876  0.5054  0.9433  0.4487
   30MPD2    C5  470   3.083   3.062  13.789 -0.1750 -0.5064 -0.1236
   30MPD2     H  471   3.391   2.946  13.985  2.0468 -0.6361 -2.9142
   30MPD2    H1  472   3.102   3.253  13.879 -1.3568  0.3883 -3.6767
   30MPD2    H2  473   3.065   2.865  13.714 -0.5033  0.1090 -0.5792
   30MPD2    H3  474   2.999   3.096  13.730  0.8113  1.6032 -0.3180
   30MPD2     N  475   3.303   3.214  14.036 -0.2964  0.5901  0.0928
   30MPD2    H5  476   3.237   3.287  14.063 -0.9008 -0.6258  1.9473
   30MPD2    N1  477   3.272   2.748  13.864 -0.3370  0.6227  0.7463
   30MPD2    H7  478   3.331   2.724  13.943  0.5592  0.8342  0.1488
   31TMC2    C1  479   0.795   2.241  14.986 -0.2428 -0.1343  0.7071
   31TMC2    C2  480   0.669   2.281  14.943  0.3027 -0.2685 -0.3558
   31TMC2    C3  481   0.566   2.242  15.022  0.2123  0.3802 -0.8153
   31TMC2    C4  482   0.810   2.172  15.101  0.5398 -0.8605 -0.1023
   31TMC2    C5  483   0.708   2.160  15.182  0.7613  0.8835 -0.0519
   31TMC2    C6  484   0.575   2.185  15.143  0.6788 -0.5805  0.2745
   31TMC2     C  485   0.902   2.284  14.903 -0.7610 -0.1570 -0.6281
   31TMC2     O  486   0.873   2.364  14.811 -0.2006  0.2785 -0.0708
   31TMC2     H  487   0.636   2.311  14.844 -1.5698 -2.4314 -0.3930
   31TMC2    H1  488   0.909   2.153  15.140  1.0405  1.1355 -0.3645
   31TMC2    H2  489   0.493   2.169  15.212 -1.0832  0.4909 -1.6028
   31TMC2    C7  490   0.744   2.120  15.314 -0.1837  0.4516 -0.7013
   31TMC2    C8  491   0.445   2.291  14.976 -0.1510 -0.3063 -0.2943
   31TMC2    O1  492   0.850   2.054  15.327  0.4505 -0.3568 -1.0499
   31TMC2    O2  493   0.445   2.407  14.937 -0.4952  0.3560 -0.6543
   31TMC2    O5  494   0.337   2.210  15.003 -0.4416  0.5675 -0.3459
   31TMC2    H5  495   0.374   2.120  15.019 -2.4756 -0.8074 -3.5259
   32MPD2     C  496   1.363   2.183  14.676 -0.6740  0.1924 -0.3273
   32MPD2    C1  497   1.260   2.259  14.639 -0.0500 -0.0579  0.3623
   32MPD2    C2  498   1.145   2.282  14.714  0.1376  0.9045  0.2241
   32MPD2    C3  499   1.135   2.209  14.834  0.0512  0.9414 -0.5091
   32MPD2    C4  500   1.244   2.138  14.876 -0.0461 -0.0961 -0.1923
   32MPD2    C5  501   1.355   2.124  14.797 -0.8842 -0.6545  0.7548
   32MPD2     H  502   1.067   2.350  14.681  1.6123  3.1752  1.5004
   32MPD2    H1  503   1.252   2.086  14.970  1.7517 -2.9884 -1.9362
   32MPD2    H2  504   1.454   2.172  14.618 -0.9504  1.2134 -0.9454
   32MPD2    H3  505   1.428   2.048  14.824  0.3160 -0.7789 -2.8899
   32MPD2     N  506   1.014   2.200  14.916  0.0247  0.2829  0.4705
   32MPD2    H5  507   1.018   2.130  14.990  2.3575  1.4761  1.4696
   32MPD2    N1  508   1.286   2.319  14.510 -0.9557 -0.2233  0.5478
   32MPD2    H7  509   1.381   2.310  14.475 -0.7178 -0.1334  1.1618
   33TMC2    C1  510   0.246   0.106  10.325 -0.0747 -0.2554  0.2617
   33TMC2    C2  511   0.116   0.065  10.312 -0.7399 -0.7184  0.1674
   33TMC2    C3  512   0.034   0.163  10.279 -0.1010 -0.2870 -0.4000
   33TMC2    C4  513   0.289   0.221  10.279 -0.1308  0.1422 -0.0054
   33TMC2    C5  514   0.197   0.320  10.242 -0.3536  0.2033  0.5574
   33TMC2    C6  515   0.067   0.293  10.250  0.2558  0.1552  0.4716
   33TMC2     C  516   0.325   0.021  10.408 -0.3785  0.8000  0.4800
   33TMC2     O  517   0.276   4.649  10.424 -0.0479  0.3659 -0.1293
   33TMC2     H  518   0.078   4.705  10.327 -1.9726 -0.3500 -0.4306
   33TMC2    H1  519   0.396   0.236  10.286 -0.6932  4.3522 -0.7264
   33TMC2    H2  520   4.735   0.374  10.247  1.0593  0.8203 -1.2316
   33TMC2    C7  521   0.256   0.445  10.189 -0.0130 -1.0619 -0.1742
   33TMC2    C8  522   4.633   0.149  10.316  0.1537 -0.7353  0.0596
   33TMC2    O1  523   0.378   0.457  10.186 -0.2325 -0.1608 -0.3137
   33TMC2    O2  524   4.590   0.052  10.376 -0.2253  0.5325 -0.5729
   33TMC2    O5  525   4.571   0.213  10.215  0.5501 -0.6752  0.2577
   33TMC2    H5  526   4.624   0.266  10.152  1.7436 -1.1872  0.8300
   34MPD2     C  527   0.690   4.696  10.768 -0.2719 -0.6272 -0.0698
   34MPD2    C1  528   0.598   4.605  10.727 -0.1498  0.0655 -0.2650
   34MPD2    C2  529   0.510   4.644  10.626 -0.0438 -0.3466 -0.4138
   34MPD2    C3  530   0.515   0.032  10.568 -0.1641 -0.3409  0.0519
   34MPD2    C4  531   0.615   0.118  10.617  0.2682  0.4560  0.2357
   34MPD2    C5  532   0.695   0.080  10.716  0.3169  0.0217 -0.3263
   34MPD2     H  533   0.433   4.577  10.591  0.8866 -2.3454  1.3679
   34MPD2    H1  534   0.622   0.219  10.577  0.8669  0.5667  0.6225
   34MPD2    H2  535   0.760   4.675  10.848  0.9985  1.6676 -0.5973
   34MPD2    H3  536   0.760   0.157  10.757  1.2682  0.3311 -2.4160
   34MPD2     N  537   0.429   0.090  10.472  0.7105  0.0886 -0.0123
   34MPD2    H5  538   0.440   0.188  10.450  2.6463 -0.3003 -0.7494
   34MPD2    N1  539   0.600   4.467  10.778 -0.4532  0.2930  0.6206
   34MPD2    H7  540   0.685   4.442  10.827 -0.6053 -0.1395  0.6666
   35TMC2    C1  541   2.167   1.620  11.516  0.2735  0.5726  0.0581
   35TMC2    C2  542   2.157   1.715  11.426  0.3618  0.1327 -0.4058
   35TMC2    C3  543   2.059   1.700  11.328 -0.1276  0.2353 -0.3329
   35TMC2    C4  544   2.097   1.497  11.507  0.5023  0.1607 -0.0118
   35TMC2    C5  545   1.995   1.496  11.414 -0.4092  0.3138 -1.1058
   35TMC2    C6  546   1.973   1.599  11.326 -0.1510 -0.1763  0.2489
   35TMC2     C  547   2.267   1.649  11.619  0.1442  0.2534 -0.3965
   35TMC2     O  548   2.359   1.723  11.592 -0.2374  0.6338 -0.1407
   35TMC2     H  549   2.210   1.809  11.437  1.5016 -0.4048 -1.3414
   35TMC2    H1  550   2.099   1.426  11.588  2.7060  1.8041  1.3760
   35TMC2    H2  551   1.886   1.596  11.261  0.2150 -2.1961 -0.1658
   35TMC2    C7  552   1.919   1.377  11.393  0.2602  0.7758  0.4324
   35TMC2    C8  553   2.013   1.818  11.257  0.3660 -0.9828  0.3032
   35TMC2    O1  554   1.910   1.304  11.489 -0.0024 -0.3150 -0.0328
   35TMC2    O2  555   1.904   1.819  11.203  0.2944 -0.8233 -0.0560
   35TMC2    O5  556   2.110   1.899  11.230 -0.5629 -0.0212 -0.7003
   35TMC2    H5  557   2.196   1.852  11.235 -1.9082 -2.2983  0.9354
   36MPD2     C  558   2.510   1.483  12.045  0.5006 -0.4149 -0.3654
   36MPD2    C1  559   2.384   1.416  12.037  0.1162  0.1681 -0.2566
   36MPD2    C2  560   2.297   1.444  11.932 -0.4027  0.5866 -0.0079
   36MPD2    C3  561   2.341   1.535  11.829  0.3737  0.6694  0.4207
   36MPD2    C4  562   2.469   1.591  11.837 -0.4153  0.5333  0.6021
   36MPD2    C5  563   2.561   1.558  11.938  0.6483 -0.4516  0.3680
   36MPD2     H  564   2.199   1.397  11.927  0.1780 -0.6816  0.2992
   36MPD2    H1  565   2.518   1.650  11.760 -0.6662  0.6229  0.5107
   36MPD2    H2  566   2.567   1.475  12.137  1.1983 -0.6190 -0.8151
   36MPD2    H3  567   2.657   1.603  11.960 -0.5941  0.4433  3.9402
   36MPD2     N  568   2.246   1.572  11.730  0.1427 -0.3579  0.4442
   36MPD2    H5  569   2.157   1.525  11.739  0.8033 -1.1284  2.7813
   36MPD2    N1  570   2.350   1.325  12.144  0.3371  0.1410 -0.0326
   36MPD2    H7  571   2.417   1.315  12.220  1.3332 -0.0276 -0.9321
   37TMC2    C1  572   3.783   2.113  11.369  0.5011  0.0331 -0.8345
   37TMC2    C2  573   3.651   2.094  11.332 -0.2072 -0.8575 -0.3914
   37TMC2    C3  574   3.626   2.075  11.202 -0.5065  0.4883 -0.3098
   37TMC2    C4  575   3.880   2.123  11.270  0.3708 -0.5528 -0.4853
   37TMC2    C5  576   3.850   2.085  11.138 -0.9125  0.4847 -0.3534
   37TMC2    C6  577   3.722   2.063  11.103  0.3229  0.5226 -0.1715
   37TMC2     C  578   3.811   2.109  11.510 -0.0966  0.1306  0.0474
   37TMC2     O  579   3.728   2.137  11.596 -0.0932 -0.2985  0.4552
   37TMC2     H  580   3.575   2.098  11.409  1.0991 -2.5249  0.9793
   37TMC2    H1  581   3.985   2.119  11.300  0.4280  2.4369 -0.2931
   37TMC2    H2  582   3.704   2.056  10.997  0.9379  0.1766 -0.2548
   37TMC2    C7  583   3.967   2.036  11.062 -0.9872 -0.1306 -0.4879
   37TMC2    C8  584   3.488   2.096  11.156  0.7533 -0.2812 -0.0147
   37TMC2    O1  585   4.078   2.068  11.097 -0.1997 -0.4131  0.2645
   37TMC2    O2  586   3.404   2.168  11.203 -0.3789  0.5541  0.5899
   37TMC2    O5  587   3.474   2.040  11.030  0.0848 -0.1556 -0.4116
   37TMC2    H5  588   3.529   1.964  11.003  0.2499  0.1667 -0.9844
   38MPD2     C  589   4.159   2.009  11.885  0.1914 -0.5835 -0.1668
   38MPD2    C1  590   4.199   1.949  11.770 -0.4931  0.2394 -0.2311
   38MPD2    C2  591   4.125   1.970  11.650 -0.4308 -0.2332 -0.0126
   38MPD2    C3  592   4.005   2.040  11.652  0.0962 -0.3752  0.0567
   38MPD2    C4  593   3.975   2.099  11.770 -0.0594 -0.3113 -0.1995
   38MPD2    C5  594   4.045   2.080  11.885 -0.4802  0.0163 -0.2088
   38MPD2     H  595   4.165   1.935  11.555 -0.0192  1.3567 -0.4200
   38MPD2    H1  596   3.892   2.170  11.776 -0.2495 -0.5998  0.6880
   38MPD2    H2  597   4.211   2.010  11.980 -0.8394  2.2067  0.3633
   38MPD2    H3  598   4.009   2.128  11.975 -1.5410  1.2378 -1.2729
   38MPD2     N  599   3.933   2.045  11.529  0.2560 -0.2584 -0.1156
   38MPD2    H5  600   3.989   2.003  11.456 -1.2499 -0.3959 -1.1843
   38MPD2    N1  601   4.322   1.875  11.755  0.2451  0.0693  0.0523
   38MPD2    H7  602   4.352   1.851  11.661 -0.8063 -0.8154 -0.0512
   39TMC2    C1  603   3.123   2.280   1.666  0.5503 -0.4915  0.0959
   39TMC2    C2  604   3.115   2.157   1.731 -0.3617  0.2185  0.1386
   39TMC2    C3  605   3.222   2.120   1.812  0.1165 -0.2090  0.0835
   39TMC2    C4  606   3.236   2.358   1.669  0.0016 -0.3203 -0.1480
   39TMC2    C5  607   3.341   2.307   1.739 -0.0400  0.1775  0.7694
   39TMC2    C6  608   3.338   2.191   1.814 -0.2847  0.2651 -0.1952
   39TMC2     C  609   3.030   2.317   1.561 -0.0315 -0.0976 -0.1304
   39TMC2     O  610   3.019   2.436   1.533  0.2143  0.3307 -0.4921
   39TMC2     H  611   3.025   2.096   1.731 -1.5215  1.9441  2.3952
   39TMC2    H1  612   3.248   2.435   1.594 -1.2107 -1.3805 -1.4258
   39TMC2    H2  613   3.426   2.159   1.870 -0.1213  0.1693 -0.5047
   39TMC2    C7  614   3.478   2.351   1.702 -0.7340  1.0320 -0.2419
   39TMC2    C8  615   3.225   1.978   1.839  0.4771  0.2860 -0.4253
   39TMC2    O1  616   3.562   2.262   1.705 -0.1176  0.2037  0.5607
   39TMC2    O2  617   3.322   1.911   1.820  0.3041 -0.3298  0.8357
   39TMC2    O5  618   3.154   1.968   1.948  0.0529  0.0914 -0.2597
   39TMC2    H5  619   3.099   2.049   1.954  0.8896  0.5720  0.8088
   40MPD2     C  620   2.847   2.052   1.366  0.1959 -0.0498 -0.3548
   40MPD2    C1  621   2.883   2.184   1.402  0.5965 -0.0320  0.0310
   40MPD2    C2  622   2.824   2.288   1.332  0.1798 -0.1747  0.5619
   40MPD2    C3  623   2.734   2.262   1.227  0.2089 -0.6884 -0.5883
   40MPD2    C4  624   2.696   2.126   1.200  0.7296 -0.2198  0.1823
   40MPD2    C5  625   2.755   2.023   1.270  0.1118 -0.1023 -0.2153
   40MPD2     H  626   2.855   2.390   1.350 -3.4949  1.0039  0.1357
   40MPD2    H1  627   2.631   2.104   1.116  1.6836  1.0077 -0.8768
   40MPD2    H2  628   2.903   1.964   1.396 -0.2534  1.1569  3.9962
   40MPD2    H3  629   2.726   1.921   1.251  0.6543 -0.6847  2.1039
   40MPD2     N  630   2.672   2.361   1.152  0.8919  0.4693  0.2992
   40MPD2    H5  631   2.629   2.332   1.064  0.0490  2.4721  0.0485
   40MPD2    N1  632   2.980   2.201   1.503  0.4126 -0.0291  0.3287
   40MPD2    H7  633   3.008   2.111   1.541  1.5135 -0.0645 -0.5528
   41TMC2    C1  634   1.813   1.486  13.678 -0.0344  0.0382 -0.1296
   41TMC2    C2  635   1.875   1.588  13.734  0.1151  0.4258  0.1370
   41TMC2    C3  636   1.907   1.695  13.658  0.0773  0.2988  0.7058
   41TMC2    C4  637   1.747   1.489  13.557  0.2607  0.0887 -0.0615
   41TMC2    C5  638   1.784   1.592  13.480 -0.0736 -0.2621  0.1542
   41TMC2    C6  639   1.855   1.704  13.534 -0.4240 -0.2132 -0.1161
   41TMC2     C  640   1.814   1.363  13.744 -0.3202 -0.5239 -0.7355
   41TMC2     O  641   1.741   1.276  13.695  0.1765 -0.0723 -0.3110
   41TMC2     H  642   1.922   1.569  13.830  0.5247  0.4101 -0.0680
   41TMC2    H1  643   1.707   1.399  13.511 -2.6736  2.6369 -2.4580
   41TMC2    H2  644   1.887   1.781  13.464  2.1417 -1.2692 -0.0931
   41TMC2    C7  645   1.700   1.611  13.365  0.1971  0.5250 -0.0476
   41TMC2    C8  646   1.949   1.815  13.730  0.4578 -0.2934  0.2672
   41TMC2    O1  647   1.672   1.725  13.340  0.0730 -0.6328 -0.0691
   41TMC2    O2  648   1.938   1.805  13.853  0.6319  0.4500  0.3822
   41TMC2    O5  649   2.069   1.832  13.674 -0.0542  0.2144 -0.1347
   41TMC2    H5  650   2.064   1.855  13.578 -0.3655 -0.1355 -0.2012
   42MPD2     C  651   1.811   1.148  13.943  0.1630 -0.4708  0.1649
   42MPD2    C1  652   1.893   1.255  13.950 -0.3931 -0.1420 -0.3683
   42MPD2    C2  653   1.974   1.278  14.063 -0.1572  0.2791  0.2062
   42MPD2    C3  654   1.956   1.198  14.169  0.3110 -0.2458  0.0973
   42MPD2    C4  655   1.869   1.093  14.155 -0.4500 -0.1753 -0.1759
   42MPD2    C5  656   1.801   1.064  14.045  0.9116 -0.1227  0.6134
   42MPD2     H  657   2.038   1.365  14.065  1.4744 -0.9101 -0.3505
   42MPD2    H1  658   1.848   1.026  14.237  2.3209 -0.9971 -0.1410
   42MPD2    H2  659   1.766   1.110  13.852  0.5877  1.7461 -0.9521
   42MPD2    H3  660   1.748   0.969  14.041  3.1683 -1.3767  0.5473
   42MPD2     N  661   2.022   1.207  14.295  0.1143  0.2127  0.8990
   42MPD2    H5  662   2.007   1.134  14.365  2.0096  0.4009  1.5075
   42MPD2    N1  663   1.899   1.351  13.850  0.7113 -0.7940  0.3010
   42MPD2    H7  664   1.957   1.434  13.862  1.9770 -1.4426 -1.2258
   43TMC2    C1  665   3.106   4.055   0.939 -0.2982  0.4147  0.0792
   43TMC2    C2  666   2.985   4.111   0.907  0.6771 -0.1838 -0.6430
   43TMC2    C3  667   2.964   4.249   0.937 -0.1351  0.6996  0.3923
   43TMC2    C4  668   3.209   4.132   0.995  0.1145 -0.8239 -0.0522
   43TMC2    C5  669   3.188   4.263   1.021 -0.2154  0.8609  0.4423
   43TMC2    C6  670   3.065   4.324   0.995 -0.7880  0.2911 -0.5128
   43TMC2     C  671   3.148   3.925   0.886  0.1617  0.5990  0.2661
   43TMC2     O  672   3.269   3.900   0.891  0.0418  0.2852  0.1815
   43TMC2     H  673   2.908   4.055   0.855 -2.0373  2.5738  0.3904
   43TMC2    H1  674   3.300   4.088   1.034  0.0101 -1.0537 -0.0646
   43TMC2    H2  675   3.041   4.429   0.996 -0.4561  0.3807 -1.8233
   43TMC2    C7  676   3.302   4.344   1.049 -0.3149  0.3753  0.2555
   43TMC2    C8  677   2.846   4.320   0.875  0.2803  0.3632  0.1798
   43TMC2    O1  678   3.417   4.291   1.044 -0.3437  0.3471  0.2301
   43TMC2    O2  679   2.814   4.436   0.896 -0.1805  0.0483  0.6211
   43TMC2    O5  680   2.847   4.265   0.749 -0.0529 -0.2114 -0.5675
   43TMC2    H5  681   2.899   4.185   0.727  0.6046  0.7371 -2.4879
   44MPD2     C  682   3.096   3.467   0.674  0.5834  0.2913  0.2566
   44MPD2    C1  683   3.206   3.523   0.739  0.2845  0.2694  0.6718
   44MPD2    C2  684   3.187   3.650   0.784  0.3388 -0.4680 -0.5404
   44MPD2    C3  685   3.069   3.723   0.771  0.3618  0.1894  0.0538
   44MPD2    C4  686   2.969   3.667   0.700 -0.3720 -0.1998 -0.2777
   44MPD2    C5  687   2.981   3.539   0.649  0.2714  1.4704  0.0576
   44MPD2     H  688   3.274   3.697   0.829  0.4970  0.4317 -1.7755
   44MPD2    H1  689   2.882   3.726   0.672 -0.6745  0.1093  1.3089
   44MPD2    H2  690   3.101   3.363   0.644  2.8925  0.0853  1.3540
   44MPD2    H3  691   2.896   3.498   0.597  0.1945 -0.1004  1.4353
   44MPD2     N  692   3.048   3.850   0.827  0.4414  0.0250  0.6580
   44MPD2    H5  693   2.955   3.890   0.826  1.4487  2.3066 -1.3696
   44MPD2    N1  694   3.329   3.463   0.757 -0.4478 -0.6794  0.2734
   44MPD2    H7  695   3.399   3.511   0.811 -0.7195 -1.0174  0.9309
   45TMC2    C1  696   3.699   1.277   9.814 -0.7805 -0.6239 -0.4726
   45TMC2    C2  697   3.811   1.207   9.789 -0.0810  0.1400  0.2280
   45TMC2    C3  698   3.924   1.285   9.787  0.0470  0.8497 -0.3486
   45TMC2    C4  699   3.690   1.409   9.849  0.5680  0.5804  0.0783
   45TMC2    C5  700   3.802   1.485   9.834  0.1283 -0.3377  0.1043
   45TMC2    C6  701   3.920   1.422   9.803 -0.7449  0.2829 -0.0960
   45TMC2     C  702   3.580   1.198   9.827  0.7071  0.3853 -0.2149
   45TMC2     O  703   3.593   1.078   9.850  0.1651  0.3220  0.9165
   45TMC2     H  704   3.802   1.102   9.766 -0.2977  0.3837 -0.7903
   45TMC2    H1  705   3.601   1.459   9.886  0.9683  0.4848  1.1648
   45TMC2    H2  706   4.011   1.478   9.788 -0.8091  0.1416 -1.0659
   45TMC2    C7  707   3.803   1.634   9.854  0.4777 -0.3086 -0.1858
   45TMC2    C8  708   4.042   1.210   9.735  0.5223 -0.0012  0.1407
   45TMC2    O1  709   3.713   1.674   9.929 -0.3584  0.7199 -0.2093
   45TMC2    O2  710   4.075   1.105   9.794  0.4205 -0.5884  0.1339
   45TMC2    O5  711   4.135   1.298   9.683  0.1107  0.3283  0.0640
   45TMC2    H5  712   4.087   1.374   9.643  0.1390  0.9079  1.1271
   46MPD2     C  713   3.299   1.093   9.808 -0.4253 -0.1204  0.1588
   46MPD2    C1  714   3.336   1.216   9.765  0.4617  0.2504 -0.3002
   46MPD2    C2  715   3.236   1.299   9.722  0.4746  0.1560 -0.4764
   46MPD2    C3  716   3.107   1.260   9.701 -0.6843  0.1802  0.8276
   46MPD2    C4  717   3.069   1.128   9.737 -0.0237 -0.2915 -0.5561
   46MPD2    C5  718   3.170   1.049   9.790  0.3833 -0.0016  0.7520
   46MPD2     H  719   3.261   1.400   9.694  1.5946 -0.1162 -0.4787
   46MPD2    H1  720   2.970   1.091   9.714 -0.1227 -0.5657  0.3102
   46MPD2    H2  721   3.370   1.028   9.857  0.8509 -0.0986 -1.6761
   46MPD2    H3  722   3.148   0.947   9.818  1.1228 -0.8568 -1.7815
   46MPD2     N  723   3.016   1.354   9.651  0.8028 -0.0037 -0.2462
   46MPD2    H5  724   3.051   1.448   9.633  0.2427  0.4176  0.8745
   46MPD2    N1  725   3.464   1.267   9.791  1.4950  0.4734  0.5120
   46MPD2    H7  726   3.485   1.360   9.758  0.0319  0.5934 -0.0553
   47TMC2    C1  727   1.576   2.382   8.708 -0.2539  0.5251 -0.0823
   47TMC2    C2  728   1.599   2.397   8.571 -0.0436 -0.1546  0.1446
   47TMC2    C3  729   1.507   2.457   8.489  1.1286 -0.1022 -0.1312
   47TMC2    C4  730   1.463   2.431   8.760 -0.2475 -0.2504 -0.1302
   47TMC2    C5  731   1.379   2.506   8.677  0.3192 -0.3985  0.6908
   47TMC2    C6  732   1.396   2.517   8.546  0.0665  0.1832 -0.2173
   47TMC2     C  733   1.677   2.346   8.796 -0.2112 -0.1145  0.5764
   47TMC2     O  734   1.794   2.352   8.759 -0.2398  0.3204 -0.3389
   47TMC2     H  735   1.700   2.384   8.535  0.2881 -1.8957  1.7412
   47TMC2    H1  736   1.451   2.442   8.868  0.2731  0.0464 -0.1058
   47TMC2    H2  737   1.344   2.589   8.484 -0.9640 -0.8296 -0.5111
   47TMC2    C7  738   1.259   2.551   8.743  0.4969 -0.7809  0.0828
   47TMC2    C8  739   1.545   2.477   8.351  0.6714 -0.5956 -0.2768
   47TMC2    O1  740   1.251   2.534   8.862 -0.1633 -0.4835 -0.3115
   47TMC2    O2  741   1.658   2.481   8.323 -0.1090 -0.1670  0.0699
   47TMC2    O5  742   1.437   2.469   8.275  0.3859 -0.5205  0.6166
   47TMC2    H5  743   1.361   2.442   8.330  0.2695 -2.1744 -0.3562
   48MPD2     C  744   1.822   2.273   9.059 -0.3068 -0.2615 -0.5065
   48MPD2    C1  745   1.685   2.242   9.027 -0.1118 -0.2859 -0.1100
   48MPD2    C2  746   1.617   2.159   9.113  0.7199 -0.0894  0.3702
   48MPD2    C3  747   1.666   2.116   9.229 -0.2701 -0.0140  0.3324
   48MPD2    C4  748   1.798   2.151   9.259  0.0395 -1.0832 -0.3136
   48MPD2    C5  749   1.876   2.223   9.172  0.1013 -0.0641 -0.2071
   48MPD2     H  750   1.515   2.133   9.087  0.7290  0.7160 -0.4563
   48MPD2    H1  751   1.845   2.102   9.344 -2.4214  0.9564  2.2239
   48MPD2    H2  752   1.900   2.317   8.999 -1.2348  1.9318 -0.1147
   48MPD2    H3  753   1.980   2.242   9.197 -0.4166  1.0589  1.0783
   48MPD2     N  754   1.582   2.036   9.310 -0.0778 -0.0524 -0.3394
   48MPD2    H5  755   1.485   2.026   9.282 -0.3819  1.4877  0.1219
   48MPD2    N1  756   1.621   2.294   8.911  0.3148 -0.6286  0.6079
   48MPD2    H7  757   1.524   2.269   8.901  0.5858 -1.8378  1.0396
   49TMC2    C1  758   4.553   4.188  10.331  0.3942 -0.6292 -0.3447
   49TMC2    C2  759   4.685   4.220  10.321  0.1100 -0.1820 -0.2432
   49TMC2    C3  760   0.012   4.178  10.215 -0.7011  1.0271  0.4171
   49TMC2    C4  761   4.483   4.110  10.236  0.0150 -0.1753 -0.6749
   49TMC2    C5  762   4.565   4.055  10.145  1.4010  0.1203  0.6261
   49TMC2    C6  763   4.694   4.094  10.132  0.8971 -0.4402 -0.2193
   49TMC2     C  764   4.470   4.235  10.446 -0.0434 -0.3980  0.2993
   49TMC2     O  765   4.526   4.275  10.544  0.0648  0.3406  0.1773
   49TMC2     H  766   4.735   4.276  10.400 -1.3821 -0.2115  0.7170
   49TMC2    H1  767   4.388   4.063  10.256 -1.0730  1.6045 -1.6654
   49TMC2    H2  768   0.014   4.053  10.052  1.7351 -0.1468  0.2579
   49TMC2    C7  769   4.524   3.958  10.047  0.0268  0.0320  0.0446
   49TMC2    C8  770   0.144   4.226  10.183 -0.4878 -0.4135  0.1400
   49TMC2    O1  771   4.593   3.957   9.946  0.2391 -0.0740  0.1282
   49TMC2    O2  772   0.230   4.157  10.126 -0.3742 -0.2359  0.4965
   49TMC2    O5  773   0.166   4.353  10.228 -0.2532 -0.1660  0.3092
   49TMC2    H5  774   0.100   4.397  10.287  1.5005  2.0830  0.5938
   50MPD2     C  775   4.253   4.209  10.640 -0.2035 -0.0918 -0.4541
   50MPD2    C1  776   4.238   4.244  10.511  0.4223 -0.3804 -0.0187
   50MPD2    C2  777   4.104   4.264  10.473  0.7618 -0.6598 -0.4556
   50MPD2    C3  778   4.000   4.256  10.568 -0.4690 -0.4086 -0.5874
   50MPD2    C4  779   4.024   4.223  10.700  0.1365  0.2770 -0.2852
   50MPD2    C5  780   4.154   4.206  10.729 -0.5178 -0.9636  0.3975
   50MPD2     H  781   4.083   4.310  10.377 -1.4540 -0.5140  0.0973
   50MPD2    H1  782   3.943   4.223  10.771  1.9099  0.6411  1.7252
   50MPD2    H2  783   4.347   4.177  10.684 -0.9296  1.4702  2.2599
   50MPD2    H3  784   4.176   4.173  10.830 -1.3605  0.9950  1.2107
   50MPD2     N  785   3.872   4.289  10.534  0.4914 -0.4189 -0.5699
   50MPD2    H5  786   3.801   4.298  10.607  0.5996  1.0241 -0.6413
   50MPD2    N1  787   4.337   4.237  10.414 -0.6530  0.7723  0.4489
   50MPD2    H7  788   4.305   4.228  10.318 -1.6164  1.0515  0.7470
   51TMC2    C1  789   1.510   1.764   1.636 -0.2813  0.0994 -1.0950
   51TMC2    C2  790   1.556   1.644   1.684  0.0828  0.3930  0.4574
   51TMC2    C3  791   1.687   1.635   1.725 -0.5507  0.3605  0.2841
   51TMC2    C4  792   1.596   1.868   1.610 -0.5592 -0.2671  0.2993
   51TMC2    C5  793   1.720   1.853   1.656  0.3800  0.0173 -0.0716
   51TMC2    C6  794   1.774   1.737   1.711  0.7714 -0.2237  0.6885
   51TMC2     C  795   1.396   1.751   1.547  0.1944 -0.1479  0.9651
   51TMC2     O  796   1.343   1.856   1.515  0.2293 -0.4294  0.3356
   51TMC2     H  797   1.488   1.560   1.689 -0.5153  0.7938 -0.8164
   51TMC2    H1  798   1.563   1.959   1.561 -2.4647 -1.2878 -0.2829
   51TMC2    H2  799   1.878   1.726   1.737  0.7799  0.8870  1.1219
   51TMC2    C7  800   1.791   1.979   1.666  0.5323 -0.2474  0.4217
   51TMC2    C8  801   1.738   1.502   1.726  0.2330  0.3991  0.2462
   51TMC2    O1  802   1.756   2.087   1.623 -0.5713  0.0084  0.1552
   51TMC2    O2  803   1.669   1.414   1.670  0.0136  0.2538  0.1094
   51TMC2    O5  804   1.844   1.491   1.812  0.1797 -0.6757  0.3806
   51TMC2    H5  805   1.871   1.577   1.851 -0.5149 -0.8578  1.2650
   52MPD2     C  806   1.109   1.525   1.187  0.1036  0.2219  0.1328
   52MPD2    C1  807   1.088   1.635   1.264 -0.9022 -0.0929  0.1500
   52MPD2    C2  808   1.177   1.669   1.364 -0.3254 -0.4896 -0.2041
   52MPD2    C3  809   1.294   1.599   1.381  0.2683  0.4880 -0.0846
   52MPD2    C4  810   1.316   1.487   1.303 -0.0817  0.4660  0.4139
   52MPD2    C5  811   1.218   1.451   1.217 -0.7426 -1.2104  0.1841
   52MPD2     H  812   1.155   1.757   1.423 -1.7034  0.0209 -1.4513
   52MPD2    H1  813   1.403   1.425   1.320 -0.8685 -1.4306 -2.5070
   52MPD2    H2  814   1.046   1.496   1.104  2.1834 -1.3790 -0.8743
   52MPD2    H3  815   1.244   1.365   1.156 -0.1663 -0.3057 -0.8425
   52MPD2     N  816   1.382   1.629   1.487 -0.4365  0.0459 -0.2486
   52MPD2    H5  817   1.454   1.559   1.500 -0.8694 -0.3237  0.1547
   52MPD2    N1  818   0.981   1.725   1.244 -0.0865  0.3527  0.0446
   52MPD2    H7  819   0.951   1.777   1.327  1.4106  2.6636 -0.8474
   53TMC2    C1  820   4.609   1.736  10.862  0.0758 -0.0054 -0.3644
   53TMC2    C2  821   4.709   1.674  10.793 -0.0914 -0.1040 -0.2111
   53TMC2    C3  822   0.090   1.680  10.847 -0.1534 -0.4533 -0.1955
   53TMC2    C4  823   4.621   1.803  10.984  0.4639 -0.6694 -0.0756
   53TMC2    C5  824   0.008   1.812  11.028  0.0731  0.1375  0.5692
   53TMC2    C6  825   0.117   1.751  10.964  0.3841 -0.4243  0.1974
   53TMC2     C  826   4.478   1.709  10.803  0.0712 -0.0817  0.3148
   53TMC2     O  827   4.465   1.611  10.729 -0.9189  0.1037 -0.3403
   53TMC2     H  828   4.694   1.627  10.696  0.4310 -0.8100  0.0552
   53TMC2    H1  829   4.537   1.841  11.042  0.5593  0.0906 -0.4357
   53TMC2    H2  830   0.220   1.756  10.998 -0.1201 -0.4476  1.7282
   53TMC2    C7  831   0.025   1.867  11.155  0.2578 -0.2392 -0.6195
   53TMC2    C8  832   0.199   1.626  10.767 -0.1019 -0.7991 -0.1063
   53TMC2    O1  833   4.682   1.949  11.193 -0.1366  0.5234 -0.2975
   53TMC2    O2  834   0.315   1.656  10.771 -0.4285 -0.3634  0.0381
   53TMC2    O5  835   0.148   1.506  10.729  0.8971 -0.1020  0.0207
   53TMC2    H5  836   0.066   1.487  10.779  1.2108 -0.2982  0.4642
   54MPD2     C  837   4.177   1.673  10.776  1.2121 -0.2799 -0.9441
   54MPD2    C1  838   4.235   1.775  10.845 -0.0091  0.4532 -0.5392
   54MPD2    C2  839   4.153   1.867  10.909 -0.8009 -0.9011  0.5400
   54MPD2    C3  840   4.018   1.860  10.898 -0.6860 -0.1284  0.3794
   54MPD2    C4  841   3.963   1.768  10.817  0.4962  0.5418  0.3772
   54MPD2    C5  842   4.042   1.670  10.760 -0.3837  0.5901 -0.5955
   54MPD2     H  843   4.203   1.945  10.965 -2.0831  0.0033  0.4045
   54MPD2    H1  844   3.856   1.750  10.815  0.7606 -1.0950  0.5248
   54MPD2    H2  845   4.238   1.595  10.732  0.0466 -0.7826 -1.6548
   54MPD2    H3  846   4.004   1.586  10.703 -0.1512 -0.6717  1.1014
   54MPD2     N  847   3.931   1.937  10.976  0.6762  0.3264  0.3211
   54MPD2    H5  848   3.831   1.922  10.966  0.8615  0.4304 -1.7499
   54MPD2    N1  849   4.379   1.786  10.859  0.0794 -0.5146  0.2103
   54MPD2    H7  850   4.414   1.866  10.912  0.0838 -1.2022  1.2406
   55TMC2    C1  851   1.482   3.868  17.556  0.6562 -0.4888 -0.7647
   55TMC2    C2  852   1.419   3.820  17.446  0.2377 -0.5592  0.3771
   55TMC2    C3  853   1.376   3.696  17.448 -0.1429  0.3716 -0.7040
   55TMC2    C4  854   1.503   3.796  17.673 -1.1802 -0.0494 -0.1023
   55TMC2    C5  855   1.451   3.667  17.670 -0.1107  0.2538 -0.1613
   55TMC2    C6  856   1.402   3.611  17.555 -0.6351 -0.3389  0.9683
   55TMC2     C  857   1.470   4.012  17.584 -0.0836 -0.4889  0.5498
   55TMC2     O  858   1.480   4.045  17.700  0.5881  0.3341  0.4264
   55TMC2     H  859   1.394   3.885  17.362  4.9649 -0.6284 -1.1203
   55TMC2    H1  860   1.558   3.831   0.002 -1.2236  1.5912 -0.7315
   55TMC2    H2  861   1.377   3.505  17.562  0.2723 -0.7392 -1.7328
   55TMC2    C7  862   1.498   3.583   0.018  0.6682 -0.2351  0.1898
   55TMC2    C8  863   1.368   3.636  17.319 -0.3966  0.2798 -0.0715
   55TMC2    O1  864   1.527   3.468  17.746 -0.2078 -0.3173  0.6145
   55TMC2    O2  865   1.344   3.703  17.220 -0.0548 -0.0283 -0.2383
   55TMC2    O5  866   1.482   3.562  17.330 -0.4313  0.3984 -0.0713
   55TMC2    H5  867   1.488   3.497  17.403 -0.5080 -1.0326 -1.3341
   56MPD2     C  868   1.453   4.303  17.379 -0.6952  0.0554 -0.9653
   56MPD2    C1  869   1.429   4.231  17.489  0.6682  0.4267  0.0870
   56MPD2    C2  870   1.374   4.286  17.602  0.1350 -0.0599 -0.1120
   56MPD2    C3  871   1.344   4.419  17.605 -0.2896 -0.4779  0.2092
   56MPD2    C4  872   1.385   4.498  17.500 -0.2445 -0.3649  0.3081
   56MPD2    C5  873   1.446   4.438  17.388 -0.4789 -0.4711 -0.5989
   56MPD2     H  874   1.321   4.219  17.669 -2.0607  2.2898  0.5028
   56MPD2    H1  875   1.381   4.606  17.494 -1.4273 -0.3616  1.1773
   56MPD2    H2  876   1.507   4.265  17.294  0.7005 -1.0381  0.4148
   56MPD2    H3  877   1.492   4.496  17.309 -2.0862  2.6674  0.7651
   56MPD2     N  878   1.278   4.459  17.723  0.4229 -0.6329  0.8612
   56MPD2    H5  879   1.278   4.388   0.039  1.5644 -2.0346 -0.5061
   56MPD2    N1  880   1.451   4.092  17.478 -0.0511 -0.3418  0.5873
   56MPD2    H7  881   1.488   4.053  17.392 -0.4770  0.7799 -0.1094
   57TMC2    C1  882   4.739   0.396  13.077  0.0427 -0.2794  0.8120
   57TMC2    C2  883   4.684   0.335  12.959 -0.0418  0.0802  0.7356
   57TMC2    C3  884   0.023   0.339  12.840  0.0790  0.3260  0.2474
   57TMC2    C4  885   0.124   0.453  13.071 -0.1491  0.3556 -0.8737
   57TMC2    C5  886   0.200   0.445  12.957 -0.4669  0.1405 -0.3407
   57TMC2    C6  887   0.150   0.391  12.842 -0.0280  0.1166  0.1861
   57TMC2     C  888   4.687   0.375  13.210 -0.1872  0.1532  0.4921
   57TMC2     O  889   4.592   0.435  13.254  0.2345 -0.0312 -0.3159
   57TMC2     H  890   4.585   0.291  12.947 -0.4318  1.0444  0.4619
   57TMC2    H1  891   0.167   0.510  13.152  1.6741 -2.9695  0.4805
   57TMC2    H2  892   0.217   0.371  12.758 -1.5625 -1.2210 -0.7259
   57TMC2    C7  893   0.332   0.493  12.967 -0.5461 -0.2285  0.0308
   57TMC2    C8  894   4.702   0.290  12.717  0.4675  0.2238  0.1760
   57TMC2    O1  895   0.355   0.566  13.063  0.6902  0.3247  0.5066
   57TMC2    O2  896   4.614   0.202  12.717 -0.0447  0.1495 -0.6490
   57TMC2    O5  897   0.021   0.347  12.608  0.4490  0.2622 -0.1071
   57TMC2    H5  898   0.074   0.425  12.634 -0.9814  1.6424 -1.2927
   58MPD2     C  899   0.048   0.220  13.704  0.1628  0.1123 -0.6957
   58MPD2    C1  900   4.708   0.322  13.649 -0.1374  0.1655  0.4874
   58MPD2    C2  901   4.699   0.339  13.513  0.0046 -0.1608 -0.5355
   58MPD2    C3  902   0.034   0.272  13.423 -0.1117  0.4625 -0.0757
   58MPD2    C4  903   0.113   0.176  13.471 -0.1380  0.1074 -0.0900
   58MPD2    C5  904   0.121   0.156  13.607  0.1976  0.3831 -1.1130
   58MPD2     H  905   4.636   0.424  13.490  3.6422  2.4889 -0.7612
   58MPD2    H1  906   0.177   0.105  13.419  0.1236  0.2255  0.0737
   58MPD2    H2  907   0.059   0.202  13.810 -1.2988 -1.0549 -0.7531
   58MPD2    H3  908   0.199   0.081  13.619 -0.4296 -0.2354 -0.9105
   58MPD2     N  909   0.038   0.299  13.288 -0.3833  0.0497  0.4724
   58MPD2    H5  910   0.119   0.264  13.238 -0.3540  1.3406 -0.3790
   58MPD2    N1  911   4.634   0.407  13.731  0.4523 -0.7625 -0.5274
   58MPD2    H7  912   4.582   0.478  13.680  1.6245  1.3190  1.1879
   59TMC2    C1  913   3.138   0.579  12.744  0.1143  0.4801 -0.3921
   59TMC2    C2  914   3.144   0.494  12.855 -0.8646  0.0614  0.1370
   59TMC2    C3  915   3.061   0.385  12.863  0.3871 -0.0209  0.2284
   59TMC2    C4  916   3.039   0.568  12.654  0.7058 -0.0735  0.6636
   59TMC2    C5  917   2.960   0.457  12.660 -0.6333  0.6783  0.3336
   59TMC2    C6  918   2.970   0.365  12.766  0.1981  0.4767 -0.4435
   59TMC2     C  919   3.218   0.709  12.748  0.6121  0.5236 -0.4071
   59TMC2     O  920   3.201   0.784  12.654 -0.6562  0.7197  0.6066
   59TMC2     H  921   3.215   0.514  12.935 -0.9429 -2.4136  0.8198
   59TMC2    H1  922   3.016   0.640  12.576 -0.8751  0.0371  1.2289
   59TMC2    H2  923   2.899   0.283  12.772 -0.1530  0.7405 -0.9689
   59TMC2    C7  924   2.880   0.415  12.544  0.0350  0.0705 -0.8372
   59TMC2    C8  925   3.089   0.291  12.966 -0.1526  0.0700  0.1942
   59TMC2    O1  926   2.842   0.298  12.540  0.1868  0.5174 -0.3966
   59TMC2    O2  927   3.169   0.305  13.060  0.0420  0.5511  0.3841
   59TMC2    O5  928   2.970   0.223  12.985  0.2892 -0.2616  0.4620
   59TMC2    H5  929   2.911   0.237  12.907  1.5484 -1.1523 -0.6428
   60MPD2     C  930   3.355   0.969  12.819  1.1469 -0.0498  0.3875
   60MPD2    C1  931   3.346   0.858  12.903  0.7768 -0.3869 -0.2431
   60MPD2    C2  932   3.415   0.861  13.019  0.5704 -0.1131 -0.4095
   60MPD2    C3  933   3.486   0.979  13.059  0.3342 -0.5008 -0.1257
   60MPD2    C4  934   3.476   1.095  12.976 -0.0591 -0.0148  0.6799
   60MPD2    C5  935   3.410   1.091  12.853 -0.2964  0.2960 -0.1353
   60MPD2     H  936   3.428   0.769  13.076 -0.6860  0.7649  1.2977
   60MPD2    H1  937   3.534   1.184  12.998 -0.0305 -0.1083  0.9750
   60MPD2    H2  938   3.314   0.962  12.719  0.2226  0.2684  0.7504
   60MPD2    H3  939   3.397   1.174  12.785 -1.1031  0.2566 -0.0334
   60MPD2     N  940   3.575   0.993  13.167 -0.5443  0.4150 -0.5182
   60MPD2    H5  941   3.631   1.078  13.165 -0.4696  0.4316  2.6004
   60MPD2    N1  942   3.287   0.734  12.864 -0.3052 -0.2378  0.1692
   60MPD2    H7  943   3.302   0.661  12.934  0.5560  0.3890  0.6427
   61TMC2    C1  944   2.559   1.457  14.919 -0.2366 -0.2638 -0.5888
   61TMC2    C2  945   2.477   1.372  14.989 -0.1653 -0.3037 -0.6789
   61TMC2    C3  946   2.429   1.413  15.109  0.0108 -0.9233  0.7139
   61TMC2    C4  947   2.601   1.583  14.964 -0.0726 -0.4889 -0.1907
   61TMC2    C5  948   2.539   1.620  15.086 -0.0690 -0.5436 -0.2228
   61TMC2    C6  949   2.456   1.538  15.162 -0.0483 -0.6269 -0.3492
   61TMC2     C  950   2.555   1.426  14.768  0.0179  0.1728  0.9818
   61TMC2     O  951   2.541   1.312  14.728  0.2627 -0.2653  0.4116
   61TMC2     H  952   2.443   1.291  14.927  1.6013 -0.0267 -1.9973
   61TMC2    H1  953   2.671   1.649  14.915  0.1518  0.6641  1.6947
   61TMC2    H2  954   2.423   1.562  15.263 -0.2273 -2.1811 -0.0307
   61TMC2    C7  955   2.526   1.769  15.106 -0.7319 -0.4915 -0.2124
   61TMC2    C8  956   2.383   1.300  15.198 -0.0464 -0.2970 -0.5028
   61TMC2    O1  957   2.558   1.832  15.006  0.8277  0.1915 -0.2300
   61TMC2    O2  958   2.399   1.180  15.187 -0.1859 -0.1415 -0.3427
   61TMC2    O5  959   2.310   1.363  15.294  0.8616 -0.5580 -0.5091
   61TMC2    H5  960   2.292   1.459  15.283  0.5782 -0.5047  0.4033
   62MPD2     C  961   2.553   1.428  14.471 -0.0189 -0.5856 -0.3205
   62MPD2    C1  962   2.608   1.529  14.549 -0.0097  0.1220  0.1672
   62MPD2    C2  963   2.678   1.635  14.499 -0.6294  0.0614 -0.5131
   62MPD2    C3  964   2.698   1.639  14.358  0.3291 -0.1873 -0.3247
   62MPD2    C4  965   2.635   1.546  14.282 -0.0346 -0.8222 -0.0501
   62MPD2    C5  966   2.560   1.442  14.337  0.3235  0.1836  0.2204
   62MPD2     H  967   2.717   1.715  14.562 -1.2149 -1.9799  2.4714
   62MPD2    H1  968   2.641   1.547  14.174 -0.0708  2.0796 -0.0386
   62MPD2    H2  969   2.493   1.346  14.509 -0.1447  0.4699  1.7961
   62MPD2    H3  970   2.507   1.371  14.275  3.6245 -1.3612 -0.8304
   62MPD2     N  971   2.752   1.749  14.280 -0.1879  0.2540  0.0755
   62MPD2    H5  972   2.754   1.748  14.178  0.9749  1.8073  0.0667
   62MPD2    N1  973   2.585   1.534  14.690  0.2887  0.4906  0.6637
   62MPD2    H7  974   2.617   1.614  14.743  1.3523 -1.0065  2.2661
   63TMC2    C1  975   1.098   2.206  10.329  0.1432  0.2700  0.0348
   63TMC2    C2  976   1.156   2.330  10.337  0.0755  0.0707 -0.3436
   63TMC2    C3  977   1.177   2.389  10.221  0.8655  0.0662  0.5222
   63TMC2    C4  978   1.056   2.151  10.216 -0.8658  0.6940 -0.5415
   63TMC2    C5  979   1.065   2.227  10.102  0.6889  0.0623  0.5722
   63TMC2    C6  980   1.137   2.343  10.105 -0.5651  0.0384 -0.2874
   63TMC2     C  981   1.107   2.131  10.456  0.4626  0.4035  0.7614
   63TMC2     O  982   1.100   2.187  10.566  0.1885 -0.5392 -0.8499
   63TMC2     H  983   1.205   2.362  10.428 -0.9588 -0.6066  0.4483
   63TMC2    H1  984   0.992   2.065  10.230  1.8311 -1.4696 -1.5334
   63TMC2    H2  985   1.136   2.412  10.022 -2.4404  0.5496  0.1622
   63TMC2    C7  986   0.986   2.195   9.987  0.1326 -0.6633 -0.1012
   63TMC2    C8  987   1.268   2.510  10.221 -0.1958  0.4072  0.5482
   63TMC2    O1  988   0.889   2.124  10.004 -0.0568 -0.5042 -0.1734
   63TMC2    O2  989   1.313   2.566  10.122 -0.2933 -0.1809 -0.2855
   63TMC2    O5  990   1.237   2.574  10.331  0.3418 -0.0708  0.1082
   63TMC2    H5  991   1.157   2.548  10.380 -1.2667  1.4585 -1.7096
   64MPD2     C  992   1.028   1.656  10.644  0.1882 -0.4067  0.7926
   64MPD2    C1  993   1.079   1.644  10.517 -0.2860  0.1799 -0.1901
   64MPD2    C2  994   1.113   1.758  10.451 -0.0751 -0.0534 -0.0420
   64MPD2    C3  995   1.086   1.887  10.504 -0.7435 -0.4729  0.3086
   64MPD2    C4  996   1.028   1.894  10.634 -0.0650 -0.0779 -0.1153
   64MPD2    C5  997   1.007   1.778  10.705  0.3083 -0.3747 -0.3013
   64MPD2     H  998   1.168   1.743  10.359 -1.9568  2.4055 -1.5532
   64MPD2    H1  999   1.004   1.994  10.669  3.3047  0.3031  1.1116
   64MPD2    H2 1000   1.009   1.570  10.708 -0.5430  0.6992  2.0828
   64MPD2    H3 1001   0.974   1.786  10.808 -0.7072  2.1835 -0.8304
   64MPD2     N 1002   1.118   1.999  10.427 -0.2204 -0.6403  0.3093
   64MPD2    H5 1003   1.162   1.993  10.336 -0.2571 -0.3334  0.2710
   64MPD2    N1 1004   1.132   1.525  10.468  0.0081 -0.1926  0.6849
   64MPD2    H7 1005   1.195   1.525  10.388 -2.1717 -1.9053 -1.0384
   65TMC2    C1 1006   2.834   1.953  15.509  0.4294 -0.2561 -0.1826
   65TMC2    C2 1007   2.764   1.998  15.394 -0.5396 -0.1420 -0.0123
   65TMC2    C3 1008   2.798   2.125  15.354  0.2567  0.3442 -0.4833
   65TMC2    C4 1009   2.890   2.032  15.598  0.1445  0.3616  0.4599
   65TMC2    C5 1010   2.901   2.165  15.556  0.5782 -0.6514 -0.2592
   65TMC2    C6 1011   2.867   2.205  15.430 -0.5245  0.3858  0.1888
   65TMC2     C 1012   2.795   1.827  15.561  0.0648  0.3037 -0.2802
   65TMC2     O 1013   2.796   1.829  15.683 -0.3784 -0.0427  0.4426
   65TMC2     H 1014   2.723   1.934  15.317 -0.8675  1.8083 -1.4586
   65TMC2    H1 1015   2.941   1.994  15.686  1.1550  2.1472  0.6519
   65TMC2    H2 1016   2.891   2.306  15.398 -0.0569  0.5131  0.9411
   65TMC2    C7 1017   2.967   2.260  15.642 -0.6414 -0.7457  0.4753
   65TMC2    C8 1018   2.789   2.149  15.213  0.7456 -0.4695 -0.1151
   65TMC2    O1 1019   3.042   2.342  15.597 -0.4829  0.3226 -0.2423
   65TMC2    O2 1020   2.783   2.059  15.130 -0.0229  0.2831 -0.1024
   65TMC2    O5 1021   2.746   2.283  15.198 -0.2142 -0.0910  0.0801
   65TMC2    H5 1022   2.718   2.324  15.283 -0.2719  2.0743 -0.9728
   66MPD2     C 1023   2.631   1.596  15.622 -0.4495  0.0629 -0.5007
   66MPD2    C1 1024   2.699   1.611  15.502 -0.4363 -0.0130 -0.0215
   66MPD2    C2 1025   2.708   1.504  15.414  0.3429  0.0244 -0.2236
   66MPD2    C3 1026   2.649   1.376  15.453 -0.0321 -0.1090 -0.2683
   66MPD2    C4 1027   2.585   1.368  15.577 -0.4950  0.2747 -0.4244
   66MPD2    C5 1028   2.581   1.474  15.660  1.2112  0.9093 -0.1185
   66MPD2     H 1029   2.753   1.517  15.316 -0.5620  1.5211 -0.4593
   66MPD2    H1 1030   2.553   1.270  15.611  1.4393 -0.4621 -0.6767
   66MPD2    H2 1031   2.607   1.675  15.691 -0.6766 -1.0762  0.7140
   66MPD2    H3 1032   2.543   1.460  15.761 -0.8155 -0.2623 -1.0334
   66MPD2     N 1033   2.667   1.262  15.373 -0.5599  0.3175  0.0389
   66MPD2    H5 1034   2.625   1.172  15.395 -0.6612  0.1658 -0.7830
   66MPD2    N1 1035   2.756   1.735  15.466  0.5548 -0.2809  0.1443
   66MPD2    H7 1036   2.788   1.747  15.371 -0.7872 -1.5404 -0.4640
   67TMC2    C1 1037   3.451   0.838  14.202  0.2771 -0.2825 -0.8119
   67TMC2    C2 1038   3.400   0.957  14.237 -0.4415  0.6645 -0.1344
   67TMC2    C3 1039   3.387   0.988  14.373 -0.1487 -0.1690 -0.0052
   67TMC2    C4 1040   3.477   0.742  14.296 -0.6576  0.6219  0.8240
   67TMC2    C5 1041   3.441   0.771  14.425 -0.5222 -0.2017 -0.1125
   67TMC2    C6 1042   3.395   0.893  14.469 -0.1043  0.8484  0.5176
   67TMC2     C 1043   3.380   0.777  14.096 -0.2191 -0.2705  0.0094
   67TMC2     O 1044   3.305   0.684  14.123  0.2205  0.2627 -0.3477
   67TMC2     H 1045   3.376   1.026  14.157 -1.3774  0.5780  0.0659
   67TMC2    H1 1046   3.509   0.641  14.273 -0.5993  0.7401  0.3959
   67TMC2    H2 1047   3.370   0.907  14.573  0.0707 -1.5811  0.8792
   67TMC2    C7 1048   3.441   0.659  14.519  0.6439  0.0124  0.0983
   67TMC2    C8 1049   3.314   1.107  14.413  0.0113  0.3810  1.7808
   67TMC2    O1 1050   3.520   0.568  14.487  0.0450  0.2916 -0.2813
   67TMC2    O2 1051   3.348   1.180  14.507  0.0871  1.0244  0.0010
   67TMC2    O5 1052   3.181   1.068  14.402  0.1320 -0.7492  0.1801
   67TMC2    H5 1053   3.161   0.998  14.336 -0.0386 -0.1338 -0.4098
   68MPD2     C 1054   3.384   0.847  13.729  0.3312 -0.6956 -0.0216
   68MPD2    C1 1055   3.335   0.793  13.846 -0.4267 -0.9755  0.0286
   68MPD2    C2 1056   3.219   0.713  13.837  0.1828  0.5039 -0.1652
   68MPD2    C3 1057   3.156   0.694  13.721 -0.4390  0.0320 -0.3144
   68MPD2    C4 1058   3.213   0.746  13.609 -0.3229 -0.5465  0.7478
   68MPD2    C5 1059   3.324   0.822  13.614 -0.7725  0.5910 -0.2408
   68MPD2     H 1060   3.159   0.698  13.926 -0.6770 -1.1231 -1.0090
   68MPD2    H1 1061   3.163   0.731  13.514  1.3266 -1.5596  0.0521
   68MPD2    H2 1062   3.464   0.920  13.739  1.6429 -2.0848 -0.4918
   68MPD2    H3 1063   3.352   0.876  13.525 -1.6616  0.9645 -0.2971
   68MPD2     N 1064   3.030   0.625  13.717 -0.1953 -0.6740  0.3147
   68MPD2    H5 1065   2.969   0.621  13.635  1.5189 -4.1040 -0.7722
   68MPD2    N1 1066   3.397   0.832  13.972 -0.6121 -0.7484 -0.1142
   68MPD2    H7 1067   3.471   0.901  13.965 -0.4619 -0.8875  0.1018
   69TMC2    C1 1068   0.134   2.440  12.291  0.7759 -0.0517  0.6766
   69TMC2    C2 1069   0.085   2.546  12.359 -0.4725  0.2729 -0.2090
   69TMC2    C3 1070   0.014   2.637  12.285  0.2061 -0.1844  0.4206
   69TMC2    C4 1071   0.118   2.425  12.155 -0.5294 -0.0259  0.1938
   69TMC2    C5 1072   0.066   2.527  12.093 -0.3996 -0.8564  0.6183
   69TMC2    C6 1073   4.730   2.625  12.154  1.0499  0.1852  0.2370
   69TMC2     C 1074   0.198   2.337  12.369 -0.3290 -0.4749 -0.3745
   69TMC2     O 1075   0.168   2.344  12.485 -0.0138  0.0766  0.0233
   69TMC2     H 1076   0.113   2.560  12.463  0.3815 -0.6688 -0.3188
   69TMC2    H1 1077   0.159   2.337  12.106  0.3035 -0.2289  1.2314
   69TMC2    H2 1078   4.686   2.705  12.096 -0.8125 -1.3310 -0.4296
   69TMC2    C7 1079   0.075   2.520  11.943  0.7674  0.0736  0.2494
   69TMC2    C8 1080   4.710   2.761  12.346  0.4529 -0.2958  0.0626
   69TMC2    O1 1081   0.154   2.450  11.888  0.4029  0.0693  0.4528
   69TMC2    O2 1082   0.053   2.815  12.417  0.7134  0.2071 -0.0271
   69TMC2    O5 1083   4.603   2.813  12.280 -0.1509 -0.2566  0.7288
   69TMC2    H5 1084   4.544   2.748  12.237 -0.5212 -0.6695  1.8617
   70MPD2     C 1085   0.419   2.053  12.297 -0.3809 -0.0004 -0.2783
   70MPD2    C1 1086   0.336   2.132  12.372 -0.7764  0.0008  0.6784
   70MPD2    C2 1087   0.324   2.104  12.512  0.4027 -0.3349 -0.2455
   70MPD2    C3 1088   0.386   2.001  12.566 -1.4849 -0.4219  0.0515
   70MPD2    C4 1089   0.473   1.924  12.493  0.6654  0.8798  0.2130
   70MPD2    C5 1090   0.493   1.952  12.360 -0.1159  0.4352  0.6618
   70MPD2     H 1091   0.240   2.150  12.563  0.8079  2.6857 -2.2752
   70MPD2    H1 1092   0.519   1.832  12.526  0.1559  0.6245  0.2061
   70MPD2    H2 1093   0.446   2.069  12.194  0.3725  2.0640  0.2246
   70MPD2    H3 1094   0.564   1.890  12.307 -3.7436  0.0379 -3.7211
   70MPD2     N 1095   0.374   1.958  12.699 -0.0503  0.4773  0.4735
   70MPD2    H5 1096   0.428   1.877  12.730 -0.9167  0.6456  2.3688
   70MPD2    N1 1097   0.269   2.240  12.307  0.1269  0.3121 -0.3771
   70MPD2    H7 1098   0.280   2.244  12.206  0.6562  0.5782 -0.3144
   71TMC2    C1 1099   2.307   2.074   1.251  0.2504 -0.8389  0.1533
   71TMC2    C2 1100   2.389   2.160   1.323 -0.6003  0.0445  0.5267
   71TMC2    C3 1101   2.410   2.126   1.455  0.5819 -0.0726  0.5911
   71TMC2    C4 1102   2.230   1.974   1.308 -0.2076  0.2021  0.1716
   71TMC2    C5 1103   2.247   1.955   1.441  0.1694  0.4537  0.3436
   71TMC2    C6 1104   2.342   2.020   1.515  0.4176 -1.1981 -0.0386
   71TMC2     C 1105   2.305   2.084   1.110  0.6922 -0.1287 -0.1399
   71TMC2     O 1106   2.404   2.134   1.056 -0.0829 -0.3380  1.0520
   71TMC2     H 1107   2.448   2.245   1.291 -0.5879 -0.1525  0.0289
   71TMC2    H1 1108   2.182   1.897   1.250 -0.7697  1.9059 -1.6247
   71TMC2    H2 1109   2.346   2.000   1.621  0.1793 -0.5407  0.0985
   71TMC2    C7 1110   2.158   1.849   1.495  0.3917  0.9151  0.0023
   71TMC2    C8 1111   2.466   2.230   1.532  0.3736 -0.0196 -0.1726
   71TMC2    O1 1112   2.191   1.784   1.591  0.3275  0.4181 -0.1614
   71TMC2    O2 1113   2.481   2.346   1.499 -0.2893  0.0307  0.1049
   71TMC2    O5 1114   2.554   2.164   1.610  0.5266  0.6243 -0.6104
   71TMC2    H5 1115   2.555   2.068   1.589 -1.5882  0.9609 -2.2434
   72MPD2     C 1116   2.038   2.036   0.683  0.0085 -0.1669  0.0128
   72MPD2    C1 1117   2.173   2.070   0.703  0.0619 -0.0831 -0.6534
   72MPD2    C2 1118   2.217   2.070   0.830 -0.0975 -0.0283 -0.3788
   72MPD2    C3 1119   2.131   2.055   0.941  0.1907  0.3038 -0.1776
   72MPD2    C4 1120   1.996   2.022   0.920  0.0270 -0.5190  0.5033
   72MPD2    C5 1121   1.949   2.020   0.790  0.2595 -0.5061  1.1777
   72MPD2     H 1122   2.325   2.082   0.838 -0.1172 -0.2660  0.2362
   72MPD2    H1 1123   1.933   1.996   1.003  0.4110 -1.1600  0.5919
   72MPD2    H2 1124   2.002   2.037   0.581  0.7909 -0.1672 -0.2639
   72MPD2    H3 1125   1.845   1.998   0.770  1.3201 -2.6399 -2.1258
   72MPD2     N 1126   2.179   2.055   1.071 -0.0439  0.5411  0.4160
   72MPD2    H5 1127   2.116   2.057   1.151 -0.6335  2.6180 -0.0968
   72MPD2    N1 1128   2.269   2.096   0.603  0.1275  0.3493 -0.4836
   72MPD2    H7 1129   2.360   2.124   0.638  0.0933  0.5048 -0.5222
   73TMC2    C1 1130   1.649   4.283  14.029  0.6197  0.0941 -0.2629
   73TMC2    C2 1131   1.629   4.269  14.161  0.0765  0.1969  0.8159
   73TMC2    C3 1132   1.603   4.146  14.219  0.0265 -0.1502 -0.3118
   73TMC2    C4 1133   1.679   4.169  13.955 -0.5292 -0.5152  0.1367
   73TMC2    C5 1134   1.680   4.045  14.024  0.5058 -0.3453  0.2812
   73TMC2    C6 1135   1.631   4.035  14.149  0.6802  0.0086  0.2132
   73TMC2     C 1136   1.750   4.376  13.998  0.3179 -0.0317  0.1262
   73TMC2     O 1137   1.861   4.323  13.985 -0.1663  0.5482 -0.0567
   73TMC2     H 1138   1.634   4.353  14.230  1.6452  0.6755  0.1109
   73TMC2    H1 1139   1.704   4.179  13.850  1.7794  0.4344  0.7748
   73TMC2    H2 1140   1.617   3.937  14.195  1.2246  0.5811  1.6006
   73TMC2    C7 1141   1.800   3.961  13.997  0.2108  0.5450 -0.5820
   73TMC2    C8 1142   1.636   4.135  14.358 -0.0605  0.3971  1.0237
   73TMC2    O1 1143   1.814   3.848  14.042 -0.2266  0.3452  0.4234
   73TMC2    O2 1144   1.677   4.024  14.396  0.1592  0.6144 -0.3068
   73TMC2    O5 1145   1.557   4.220  14.419  0.8069  0.5385  0.3443
   73TMC2    H5 1146   1.501   4.275  14.361  0.3854  1.6328  1.7747
   74MPD2     C 1147   1.947   0.079  13.848 -0.3734 -0.5635  0.1797
   74MPD2    C1 1148   1.994   4.692  13.834 -0.5174 -0.1262  0.0385
   74MPD2    C2 1149   1.909   4.597  13.884 -0.6586  0.6189  0.2781
   74MPD2    C3 1150   1.780   4.614  13.933  0.0902 -0.4997  0.1164
   74MPD2    C4 1151   1.736   0.002  13.942 -0.3010  0.0943 -0.2500
   74MPD2    C5 1152   1.820   0.097  13.899 -0.2772  0.3573 -0.0532
   74MPD2     H 1153   1.946   4.495  13.887  0.8782  1.1931  0.5094
   74MPD2    H1 1154   1.634   0.028  13.968 -0.7030 -0.0008 -1.7025
   74MPD2    H2 1155   2.012   0.163  13.825 -2.4876  1.5119  1.8297
   74MPD2    H3 1156   1.792   0.200  13.915  1.9595  1.3023 -2.2187
   74MPD2     N 1157   1.701   4.506  13.984  0.3228 -0.2338 -0.3582
   74MPD2    H5 1158   1.605   4.524  14.012  0.9107 -2.2301  2.9657
   74MPD2    N1 1159   2.128   4.666  13.793 -0.0875  0.0500 -0.2296
   74MPD2    H7 1160   2.186   4.735  13.747 -0.9459  0.5091 -0.6014
   75TMC2    C1 1161   2.833   0.518  13.801  0.4474  0.0194  0.5229
   75TMC2    C2 1162   2.784   0.422  13.887 -1.1905  0.0945 -0.1266
   75TMC2    C3 1163   2.652   0.412  13.910  0.1299  0.1934 -0.3027
   75TMC2    C4 1164   2.754   0.614  13.744  0.0547  0.2210 -1.1411
   75TMC2    C5 1165   2.619   0.600  13.781  0.2375  0.6517  0.3664
   75TMC2    C6 1166   2.570   0.499  13.851  0.0735 -0.0994 -0.4166
   75TMC2     C 1167   2.976   0.552  13.817 -0.2208 -0.5761  0.2997
   75TMC2     O 1168   3.031   0.500  13.914 -0.5529 -0.2713 -0.0526
   75TMC2     H 1169   2.862   0.361  13.931 -1.4757 -0.5211 -0.4780
   75TMC2    H1 1170   2.793   0.692  13.681  1.3980 -1.0570 -1.8981
   75TMC2    H2 1171   2.468   0.503  13.885 -0.2679  0.0206 -1.4459
   75TMC2    C7 1172   2.530   0.699  13.724 -0.1168 -0.1704  0.3915
   75TMC2    C8 1173   2.604   0.276  13.923 -0.0379  0.4307  0.0143
   75TMC2    O1 1174   2.411   0.663  13.725  0.3404  0.0306  0.4031
   75TMC2    O2 1175   2.482   0.274  13.915  0.0039 -0.5678 -0.2459
   75TMC2    O5 1176   2.677   0.209  13.835  0.4038  0.4570  0.4735
   75TMC2    H5 1177   2.772   0.234  13.835  0.3004  0.8474 -1.7122
   76TMC2    C1 1178   0.832   1.589  11.889  0.3325  0.3513 -0.8887
   76TMC2    C2 1179   0.748   1.525  11.976  0.5058 -0.3101  0.3947
   76TMC2    C3 1180   0.804   1.465  12.089  1.0255  0.0330  0.6520
   76TMC2    C4 1181   0.966   1.561  11.884  0.0217  0.6719 -0.6774
   76TMC2    C5 1182   1.011   1.471  11.981 -0.0120  0.5018  0.5559
   76TMC2    C6 1183   0.930   1.432  12.087 -0.5290 -0.8458  0.5134
   76TMC2     C 1184   0.781   1.692  11.796 -0.0347  0.2221 -0.1832
   76TMC2     O 1185   0.673   1.743  11.823  0.3811 -0.3964  0.0663
   76TMC2     H 1186   0.642   1.547  11.985  0.3962 -0.7418  0.1513
   76TMC2    H1 1187   1.042   1.612  11.826  2.2146 -0.2189  1.4199
   76TMC2    H2 1188   0.970   1.404  12.183 -0.6319 -0.9898  0.5144
   76TMC2    C7 1189   1.156   1.445  11.982 -0.4192 -0.4804  0.1185
   76TMC2    C8 1190   0.736   1.445  12.214  0.1086  0.0075 -0.1760
   76TMC2    O1 1191   1.222   1.507  11.896  0.2083  0.5176 -0.2939
   76TMC2    O2 1192   0.756   1.355  12.292  0.2102 -0.4533  0.5644
   76TMC2    O5 1193   0.701   1.572  12.258 -0.0919  0.4730 -0.0204
   76TMC2    H5 1194   0.724   1.648  12.200  0.8933 -0.4554 -0.8484
   77MPD2     C 1195   0.787   1.917  11.330  0.1285  0.5385  0.0547
   77MPD2    C1 1196   0.696   1.936  11.428  0.4312 -0.4831  0.1336
   77MPD2    C2 1197   0.714   1.872  11.553 -0.3015 -0.2383  0.7723
   77MPD2    C3 1198   0.821   1.784  11.566  0.2517 -0.2123 -0.1255
   77MPD2    C4 1199   0.912   1.767  11.462 -0.0087  0.2752  0.4603
   77MPD2    C5 1200   0.891   1.835  11.344  0.0864 -1.0816  0.3841
   77MPD2     H 1201   0.643   1.885  11.634 -0.1760  0.8676  0.7059
   77MPD2    H1 1202   1.000   1.705  11.476 -0.6411 -0.9460 -0.9173
   77MPD2    H2 1203   0.777   1.956  11.229  2.3580  0.5137 -0.1657
   77MPD2    H3 1204   0.962   1.833  11.262 -0.5057  1.5007 -0.1938
   77MPD2     N 1205   0.863   1.710  11.686  0.5429  0.8773 -0.3741
   77MPD2    H5 1206   0.939   1.644  11.677 -0.9270 -0.7174 -0.8967
   77MPD2    N1 1207   0.577   2.012  11.411  0.1126  0.1162 -0.5719
   77MPD2    H7 1208   0.519   2.027  11.493 -0.3619 -0.8257 -0.7445
   78TMC2    C1 1209   2.144   1.230   1.190  0.7915  0.1778  0.0648
   78TMC2    C2 1210   2.118   1.359   1.188  1.2657  0.3470 -0.0445
   78TMC2    C3 1211   2.215   1.453   1.176 -0.2948  0.1250  0.5372
   78TMC2    C4 1212   2.275   1.187   1.179 -0.8849  0.6293  0.0799
   78TMC2    C5 1213   2.370   1.283   1.167  0.1251 -0.2960  0.6688
   78TMC2    C6 1214   2.345   1.417   1.159  0.3111 -0.2398 -0.0681
   78TMC2     C 1215   2.040   1.140   1.236 -0.5108  0.0771 -0.4968
   78TMC2     O 1216   1.923   1.177   1.223  0.4446  0.8429 -0.4474
   78TMC2     H 1217   2.019   1.398   1.211  1.8483  1.5128  0.4710
   78TMC2    H1 1218   2.295   1.080   1.176  1.9224  1.1845 -0.2015
   78TMC2    H2 1219   2.429   1.485   1.143 -1.7223  1.9721 -1.3063
   78TMC2    C7 1220   2.513   1.251   1.158  0.3012  0.0646  0.0199
   78TMC2    C8 1221   2.169   1.589   1.152  0.1458  0.7113  0.2325
   78TMC2    O1 1222   2.579   1.341   1.107  0.3681  0.0744 -0.1297
   78TMC2    O2 1223   2.084   1.603   1.064 -0.1817 -0.6015 -0.7643
   78TMC2    O5 1224   2.271   1.679   1.166  0.0065 -0.0376  0.5351
   78TMC2    H5 1225   2.323   1.665   1.247 -1.5349 -1.4884  1.2688
   79MPD1     C 1226   1.871   0.698   1.434 -0.4135  0.2521 -0.5530
   79MPD1    C1 1227   1.798   0.791   1.360 -0.0969 -0.0964  0.4073
   79MPD1    C2 1228   1.871   0.896   1.303  0.4304  0.4682 -0.7234
   79MPD1    C3 1229   2.009   0.907   1.325  0.6414  0.3237 -0.4810
   79MPD1    C4 1230   2.075   0.813   1.389 -0.3211 -0.2829 -1.5312
   79MPD1    C5 1231   2.005   0.711   1.443 -0.3642  0.7945  0.2019
   79MPD1     H 1232   1.811   0.971   1.252 -0.3478  1.6765  1.9578
   79MPD1    H1 1233   2.181   0.825   1.403 -0.1431 -2.7320 -0.7767
   79MPD1    H2 1234   1.825   0.611   1.479 -0.4564 -1.3208 -3.6734
   79MPD1    H3 1235   2.051   0.626   1.492 -2.8128 -0.4726  0.2652
   79MPD1     N 1236   2.087   1.015   1.271  0.0623  0.3392 -0.0164
   79MPD1    H5 1237   2.186   1.007   1.291  0.1424  1.4738  0.0791
   79MPD1    N1 1238   1.658   0.802   1.364 -0.1425 -0.0417  0.0657
   79MPD1    H6 1239   1.615   0.843   1.281 -1.5578  2.9104  2.2786
   79MPD1    H7 1240   1.627   0.704   1.366  0.4593 -0.2321  0.0736
   80TMC2    C1 1241   4.421   1.013  11.142  0.6751 -0.7217  0.5788
   80TMC2    C2 1242   4.343   0.988  11.032 -0.9129 -0.1794  0.6582
   80TMC2    C3 1243   4.245   0.896  11.049 -0.3529  0.3795 -0.4535
   80TMC2    C4 1244   4.402   0.950  11.260  0.1796  0.1605 -0.2265
   80TMC2    C5 1245   4.300   0.856  11.272  0.6492  0.8057  0.1548
   80TMC2    C6 1246   4.227   0.827  11.162  0.1207  0.2775  0.1187
   80TMC2     C 1247   4.535   1.102  11.118 -0.1349  0.9884 -0.3006
   80TMC2     O 1248   4.581   1.115  11.005  0.3063 -0.2911 -0.1938
   80TMC2     H 1249   4.364   1.035  10.937 -2.3081 -0.6728  0.1038
   80TMC2    H1 1250   4.458   0.980  11.348 -0.0756 -0.0526  0.0106
   80TMC2    H2 1251   4.139   0.764  11.169  1.1568 -1.3089 -1.0063
   80TMC2    C7 1252   4.301   0.744  11.371  0.0570 -0.4173  0.1029
   80TMC2    C8 1253   4.183   0.834  10.934 -0.8175  0.0864 -0.4278
   80TMC2    O1 1254   4.236   0.642  11.355  0.1546  0.3485 -0.2471
   80TMC2    O2 1255   4.124   0.725  10.940  0.3515 -0.4505  0.4519
   80TMC2    O5 1256   4.154   0.928  10.852 -0.5470 -0.1344 -0.0725
   80TMC2    H5 1257   4.187   1.019  10.863 -1.7252  0.2664  0.1413
   81MPD2     C 1258   0.039   1.260  11.165  0.1987  0.4364  0.0287
   81MPD2    C1 1259   4.662   1.268  11.239  0.3466 -0.1743  1.8651
   81MPD2    C2 1260   4.653   1.367  11.334 -0.3086  0.4035 -0.1524
   81MPD2    C3 1261   0.016   1.463  11.349 -0.3164  0.6639 -0.8121
   81MPD2    C4 1262   0.129   1.450  11.277 -0.1464  0.1510 -0.0384
   81MPD2    C5 1263   0.145   1.348  11.186  0.3208 -0.1574 -0.2406
   81MPD2     H 1264   4.568   1.367  11.402  0.7817  1.3160  1.2034
   81MPD2    H1 1265   0.216   1.515  11.284  0.9589 -1.3591  0.2243
   81MPD2    H2 1266   0.043   1.184  11.089 -0.1195  1.4221 -0.9819
   81MPD2    H3 1267   0.238   1.340  11.130  0.6858 -1.7550  0.6169
   81MPD2     N 1268   0.011   1.574  11.440 -0.3301  1.1218 -0.1286
   81MPD2    H5 1269   0.101   1.615  11.463 -0.3720  1.2730 -0.2288
   81MPD2    N1 1270   4.552   1.181  11.225 -0.1907  0.0135 -0.4925
   81MPD2    H7 1271   4.478   1.190  11.294  0.4324  1.9194 -0.0527
   82TMC2    C1 1272   2.980   0.276  10.822 -0.0221  0.2234 -0.3423
   82TMC2    C2 1273   3.114   0.267  10.795 -0.3291 -0.0398  0.5292
   82TMC2    C3 1274   3.180   0.173  10.871 -0.1823  0.0533 -0.2763
   82TMC2    C4 1275   2.914   0.193  10.909  0.1335  0.0775  0.9368
   82TMC2    C5 1276   2.989   0.108  10.982 -0.7379  0.2160  1.2709
   82TMC2    C6 1277   3.121   0.104  10.973  0.2310 -0.4333  0.3937
   82TMC2     C 1278   2.898   0.368  10.751 -1.0831  0.0773  0.4277
   82TMC2     O 1279   2.779   0.340  10.746 -0.0625 -0.0547  0.2037
   82TMC2     H 1280   3.159   0.314  10.709  0.0231 -1.5364 -0.1037
   82TMC2    H1 1281   2.807   0.203  10.922 -0.1922 -0.3877 -1.4720
   82TMC2    H2 1282   3.181   0.023  11.012 -0.2277 -1.6125 -1.3658
   82TMC2    C7 1283   2.917   0.008  11.049 -0.1520  0.0099  0.0647
   82TMC2    C8 1284   3.316   0.145  10.833 -0.1258 -0.5455  0.1049
   82TMC2    O1 1285   2.973   4.693  11.139 -0.0121 -0.1498  0.1599
   82TMC2    O2 1286   3.411   0.143  10.909  0.0139 -0.2702  0.0400
   82TMC2    O5 1287   3.320   0.110  10.703 -0.0124 -0.0345  0.1690
   82TMC2    H5 1288   3.231   0.106  10.662 -0.1385  3.0374  0.1810
   83MPD2     C 1289   2.803   0.753  10.414  0.5813 -0.3563  0.9478
   83MPD2    C1 1290   2.721   0.649  10.463  0.2583  0.1846 -0.0891
   83MPD2    C2 1291   2.775   0.557  10.555  0.2645 -0.1104 -0.2365
   83MPD2    C3 1292   2.912   0.567  10.596  0.4141  0.0916 -0.7986
   83MPD2    C4 1293   2.992   0.671  10.548  0.2538 -0.4508  0.8181
   83MPD2    C5 1294   2.932   0.762  10.459  0.2413 -0.8140  0.2219
   83MPD2     H 1295   2.704   0.485  10.592  1.7602 -2.0522 -1.1449
   83MPD2    H1 1296   3.097   0.683  10.571  0.5549  0.1459 -0.9322
   83MPD2    H2 1297   2.774   0.830  10.343 -0.8636 -2.4007 -0.6651
   83MPD2    H3 1298   2.992   0.847  10.428 -2.9653  1.0062 -0.9430
   83MPD2     N 1299   2.969   0.471  10.688  0.2454  0.5542  0.9274
   83MPD2    H5 1300   3.066   0.467  10.717  0.7801 -0.5705 -1.0463
   83MPD2    N1 1301   2.596   0.639  10.403 -0.2559  0.2967 -0.0180
   83MPD2    H7 1302   2.571   0.703  10.329 -1.6730 -0.7277 -0.4310
   84TMC2    C1 1303   3.480   4.419  10.499  0.4466 -1.2267 -0.3472
   84TMC2    C2 1304   3.419   4.431  10.379 -0.1574  0.2296  0.1438
   84TMC2    C3 1305   3.499   4.411  10.272  0.0756 -0.5508  0.4943
   84TMC2    C4 1306   3.612   4.374  10.518  0.1516 -0.8017  0.2414
   84TMC2    C5 1307   3.687   4.360  10.402 -0.2510  0.2638 -0.3364
   84TMC2    C6 1308   3.635   4.391  10.280  0.3263 -0.5758  0.5007
   84TMC2     C 1309   3.379   4.418  10.607  0.4452  0.1085 -0.0155
   84TMC2     O 1310   3.278   4.490  10.597 -0.2887  0.0643 -0.7206
   84TMC2     H 1311   3.311   4.433  10.368 -0.1490 -0.7201 -0.1758
   84TMC2    H1 1312   3.652   4.369  10.619 -1.5129  1.4634  1.0305
   84TMC2    H2 1313   3.688   4.362  10.190 -0.8605  2.2845 -1.1202
   84TMC2    C7 1314   3.825   4.316  10.409 -0.1712 -0.0811  0.7277
   84TMC2    C8 1315   3.448   4.425  10.137  0.5252 -0.3937 -0.7678
   84TMC2    O1 1316   3.875   4.321  10.301  0.0739  0.2127 -0.2356
   84TMC2    O2 1317   3.507   4.493  10.052 -0.6546  0.0688  0.1045
   84TMC2    O5 1318   3.312   4.399  10.133 -0.2412  0.2194 -0.5059
   84TMC2    H5 1319   3.271   4.348  10.206  1.1478  1.4034  1.0886
   85TMC2    C1 1320   0.496   2.764  15.779 -0.2569  0.1329 -0.5990
   85TMC2    C2 1321   0.365   2.802  15.786  0.0988  0.1666  0.1646
   85TMC2    C3 1322   0.330   2.887  15.680  0.4685 -0.6085  0.0393
   85TMC2    C4 1323   0.583   2.816  15.683  0.0478 -0.4316 -0.4135
   85TMC2    C5 1324   0.541   2.911  15.592 -0.2084  0.3486 -0.9771
   85TMC2    C6 1325   0.413   2.948  15.592  0.1257 -0.2548 -0.4406
   85TMC2     C 1326   0.551   2.670  15.869 -0.3058  0.1566 -0.3840
   85TMC2     O 1327   0.669   2.677  15.893 -0.2557 -0.0361 -0.0662
   85TMC2     H 1328   0.289   2.755  15.848  0.5154 -0.3760  0.2620
   85TMC2    H1 1329   0.687   2.785  15.677  0.4710  0.7643  0.6043
   85TMC2    H2 1330   0.370   3.012  15.516 -1.9003  0.6491  1.4627
   85TMC2    C7 1331   0.600   2.905  15.465 -0.5396 -0.0147  0.2720
   85TMC2    C8 1332   0.198   2.934  15.682  0.6461 -0.0958 -0.3082
   85TMC2    O1 1333   0.643   2.798  15.429 -0.2007 -0.2401  0.2906
   85TMC2    O2 1334   0.180   3.054  15.664 -0.4007  0.5054 -0.5323
   85TMC2    O5 1335   0.114   2.839  15.725 -0.4085  0.1653  0.1918
   85TMC2    H5 1336   0.153   2.749  15.729 -1.2095 -0.1188  1.7111
   86MPD2     C 1337   0.532   2.265  16.186 -0.3006 -0.4416  1.0778
   86MPD2    C1 1338   0.421   2.257  16.100  0.2934 -0.0211  0.1772
   86MPD2    C2 1339   0.399   2.358  16.010 -0.1433  0.0879 -0.1175
   86MPD2    C3 1340   0.481   2.472  16.002  0.0358  0.2224  0.0575
   86MPD2    C4 1341   0.592   2.479  16.087 -0.0800  0.0296  0.3495
   86MPD2    C5 1342   0.618   2.376  16.177  0.6189  1.2120 -0.5783
   86MPD2     H 1343   0.323   2.344  15.933 -0.5233 -1.3264  0.5097
   86MPD2    H1 1344   0.676   2.547  16.084  0.6735 -0.8963  0.1983
   86MPD2    H2 1345   0.556   2.198  16.269 -0.0378 -0.6767  0.8114
   86MPD2    H3 1346   0.707   2.369  16.239  0.7250  3.3464 -0.4975
   86MPD2     N 1347   0.461   2.574  15.904 -0.1597  0.5272 -0.0146
   86MPD2    H5 1348   0.376   2.570  15.848  1.5225 -0.4804 -2.4682
   86MPD2    N1 1349   0.337   2.146  16.089 -0.4519  0.0479  0.2357
   86MPD2    H7 1350   0.273   2.139  16.010 -0.7563 -0.5310  0.5331
   87TMC2    C1 1351   2.901   0.749   0.720  1.2002  0.2429 -0.6829
   87TMC2    C2 1352   3.002   0.833   0.735 -0.2720 -0.1637 -0.2520
   87TMC2    C3 1353   2.983   0.953   0.805  0.1586 -0.5787  0.6107
   87TMC2    C4 1354   2.783   0.778   0.773 -0.3506 -0.2679 -0.3225
   87TMC2    C5 1355   2.759   0.897   0.831 -0.9826 -0.0645  0.4666
   87TMC2    C6 1356   2.858   0.989   0.849 -0.7213 -0.0563  0.1621
   87TMC2     C 1357   2.926   0.616   0.662 -0.0744  0.7638  0.4471
   87TMC2     O 1358   2.845   0.524   0.673  0.3119 -0.1536 -0.8737
   87TMC2     H 1359   3.103   0.800   0.714 -0.3938  0.2042 -1.4177
   87TMC2    H1 1360   2.700   0.716   0.742 -0.0149 -0.6293 -0.4930
   87TMC2    H2 1361   2.843   1.086   0.894  1.5417  0.0069  0.7764
   87TMC2    C7 1362   2.620   0.941   0.856 -0.1944 -0.0830  0.5899
   87TMC2    C8 1363   3.095   1.038   0.814 -0.0090  0.2690  0.6222
   87TMC2    O1 1364   2.611   1.060   0.876  0.4060 -0.1087 -0.9375
   87TMC2    O2 1365   3.204   0.982   0.824  0.2899 -0.1851  0.3826
   87TMC2    O5 1366   3.080   1.133   0.720 -0.1406 -0.2232  0.3055
   87TMC2    H5 1367   2.992   1.175   0.720 -0.6181 -1.2559  1.8451
   88MPD2     C 1368   2.308   0.777   0.902  0.2268 -0.1767 -0.5038
   88MPD2    C1 1369   2.391   0.883   0.852  0.4654 -0.0664 -0.4606
   88MPD2    C2 1370   2.335   1.011   0.831  0.1609  0.1337  0.1483
   88MPD2    C3 1371   2.200   1.033   0.856 -0.0024 -0.6026 -0.0286
   88MPD2    C4 1372   2.119   0.931   0.908  0.7264  0.1969  0.0311
   88MPD2    C5 1373   2.174   0.807   0.928 -1.0272  0.3297  0.3769
   88MPD2     H 1374   2.398   1.091   0.792  1.9878  0.2702  3.4038
   88MPD2    H1 1375   2.012   0.934   0.922  0.7330  0.3450  0.0528
   88MPD2    H2 1376   2.349   0.678   0.919 -2.2745 -0.7798  2.0477
   88MPD2    H3 1377   2.113   0.730   0.973 -0.9296 -1.1337 -2.0001
   88MPD2     N 1378   2.133   1.156   0.842  0.0381 -0.1381  0.3554
   88MPD2    H5 1379   2.033   1.159   0.860  0.4897 -0.5174  3.0085
   88MPD2    N1 1380   2.523   0.851   0.839 -0.0274 -0.2197  0.7682
   88MPD2    H7 1381   2.547   0.752   0.844 -2.5517 -0.8954 -0.4281
   89TMC2    C1 1382   3.755   3.144   1.684  0.1122 -0.3384  0.2879
   89TMC2    C2 1383   3.817   3.224   1.779  0.1870 -0.4105  0.8723
   89TMC2    C3 1384   3.772   3.349   1.787  0.2305  0.3033 -0.3250
   89TMC2    C4 1385   3.656   3.181   1.597  0.1073 -0.5298  0.4459
   89TMC2    C5 1386   3.648   3.318   1.588 -0.3567 -0.1168 -0.3907
   89TMC2    C6 1387   3.694   3.401   1.688 -0.3190  0.1671 -0.2295
   89TMC2     C 1388   3.801   3.008   1.696  0.8034  0.0760 -0.1461
   89TMC2     O 1389   3.914   2.989   1.742 -0.2420  0.6338 -0.4849
   89TMC2     H 1390   3.878   3.174   1.853  2.5732  3.0566  1.2558
   89TMC2    H1 1391   3.644   3.112   1.514  0.6693  0.3492 -0.3742
   89TMC2    H2 1392   3.674   3.507   1.697  0.1939  0.1887  0.7433
   89TMC2    C7 1393   3.575   3.378   1.477  0.4122  0.2959  0.1757
   89TMC2    C8 1394   3.793   3.428   1.909 -0.6098  0.6065 -0.7827
   89TMC2    O1 1395   3.495   3.307   1.421  0.6618  0.8241 -0.1857
   89TMC2    O2 1396   3.740   3.536   1.925  0.3066  0.3479 -0.3666
   89TMC2    O5 1397   3.923   3.419   1.934 -0.2194  0.4040 -0.0819
   89TMC2    H5 1398   3.973   3.350   1.885  0.5027 -1.0964  2.7599
   90MPD2     C 1399   3.737   2.496   1.698 -0.6233  0.0931 -0.9738
   90MPD2    C1 1400   3.617   2.558   1.661 -0.4815  0.2773 -0.4980
   90MPD2    C2 1401   3.609   2.699   1.651 -0.8494 -1.1362  0.1764
   90MPD2    C3 1402   3.725   2.773   1.670  0.4387 -1.1360 -0.6722
   90MPD2    C4 1403   3.845   2.705   1.689 -0.0786 -0.0440 -0.7312
   90MPD2    C5 1404   3.850   2.576   1.712  0.1339 -0.3619  0.7296
   90MPD2     H 1405   3.511   2.745   1.645 -1.8308 -3.2715 -0.2927
   90MPD2    H1 1406   3.941   2.757   1.687 -0.8333  1.3937  0.0236
   90MPD2    H2 1407   3.750   2.388   1.701  0.5480  0.2253 -1.2812
   90MPD2    H3 1408   3.946   2.527   1.728 -0.2523 -0.2588  3.4328
   90MPD2     N 1409   3.707   2.913   1.663  0.3257  0.2234  0.3501
   90MPD2    H5 1410   3.612   2.940   1.637  0.7339  0.8694 -0.4875
   90MPD2    N1 1411   3.494   2.489   1.674  0.0279  0.1887 -0.1612
   90MPD2    H7 1412   3.411   2.546   1.662  0.0867  0.5681  1.2410
   91TMC2    C1 1413   0.035   3.715  16.166 -0.5769 -0.1115  0.6274
   91TMC2    C2 1414   0.090   3.788  16.265  0.2608 -0.1486 -0.1899
   91TMC2    C3 1415   0.009   3.819  16.365 -0.0950  0.0739  0.1908
   91TMC2    C4 1416   4.642   3.687  16.158 -0.1634 -0.3064  0.6955
   91TMC2    C5 1417   4.564   3.724  16.262  0.1790  0.0606  0.1821
   91TMC2    C6 1418   4.616   3.786  16.370 -0.0168  0.0795 -0.0598
   91TMC2     C 1419   0.109   3.670  16.046 -0.0765  0.3107  0.3300
   91TMC2     O 1420   0.037   3.655  15.952  0.4939  0.1372 -0.1982
   91TMC2     H 1421   0.193   3.823  16.265  0.5059 -0.8468 -2.5095
   91TMC2    H1 1422   4.604   3.628  16.076 -0.2032 -0.2753  0.6917
   91TMC2    H2 1423   4.567   3.797  16.465 -1.5142 -1.0349 -0.7069
   91TMC2    C7 1424   4.418   3.705  16.251 -0.5307 -0.1241  0.8741
   91TMC2    C8 1425   0.066   3.882  16.478  0.1528 -0.0180 -0.1989
   91TMC2    O1 1426   4.359   3.691  16.355 -0.5512 -0.5563 -0.3366
   91TMC2    O2 1427   0.106   3.819  16.576 -0.1456 -0.8651 -0.0519
   91TMC2    O5 1428   4.732   3.993  16.486  0.0341  0.1366 -0.0446
   91TMC2    H5 1429   4.714   4.022  16.395 -0.8495 -0.5504 -0.0884
   92MPD2     C 1430   0.292   3.661  15.829  0.0366  0.4768  0.9063
   92MPD2    C1 1431   0.335   3.642  15.955 -0.0324 -0.4787  0.2832
   92MPD2    C2 1432   0.467   3.614  15.977  0.4166 -0.1876  0.0315
   92MPD2    C3 1433   0.558   3.587  15.876  0.1266  0.3655 -0.0399
   92MPD2    C4 1434   0.511   3.599  15.752 -0.3105 -0.0537  0.3065
   92MPD2    C5 1435   0.382   3.640  15.728  0.5304 -0.2397  0.4955
   92MPD2     H 1436   0.498   3.603  16.080  0.9383 -0.1967 -0.1248
   92MPD2    H1 1437   0.572   3.599  15.662  0.1870 -0.6945  0.6393
   92MPD2    H2 1438   0.192   3.687  15.795  1.2661  0.6727 -2.5701
   92MPD2    H3 1439   0.343   3.648  15.627  1.0345  0.4784  0.3511
   92MPD2     N 1440   0.690   3.548  15.913 -0.1566 -0.0246  0.6005
   92MPD2    H5 1441   0.710   3.553  16.012  2.6803  1.4071 -0.0356
   92MPD2    N1 1442   0.245   3.655  16.059  0.3889 -0.4485  0.1837
   92MPD2    H7 1443   0.286   3.662  16.152 -0.5202 -0.3537  0.5764
   93TMC2    C1 1444   2.439   3.623  14.183 -0.4192 -0.3378 -0.0767
   93TMC2    C2 1445   2.369   3.675  14.292 -0.7716  0.2382 -0.0041
   93TMC2    C3 1446   2.437   3.765  14.366  1.0969 -0.6770  0.5113
   93TMC2    C4 1447   2.565   3.654  14.145  0.0871  0.5392 -0.4598
   93TMC2    C5 1448   2.623   3.755  14.221  0.5250  0.7028  1.0829
   93TMC2    C6 1449   2.557   3.818  14.327  0.5446 -0.5977 -0.9587
   93TMC2     C 1450   2.363   3.533  14.102 -0.4107  0.6954  0.9263
   93TMC2     O 1451   2.422   3.456  14.028  0.0294  0.0662  0.9202
   93TMC2     H 1452   2.279   3.622  14.321  0.7437 -1.2416  1.9419
   93TMC2    H1 1453   2.620   3.599  14.069 -0.4486 -0.4574 -0.1131
   93TMC2    H2 1454   2.613   3.894  14.380 -3.0150  0.1232  1.7013
   93TMC2    C7 1455   2.761   3.793  14.185  0.3556  0.0981 -0.8562
   93TMC2    C8 1456   2.399   3.782  14.504  0.0578 -0.6877  0.6137
   93TMC2    O1 1457   2.819   3.723  14.101 -0.1963  0.2041 -0.4027
   93TMC2    O2 1458   2.480   3.827  14.584  0.2258  0.2199  0.4180
   93TMC2    O5 1459   2.265   3.805  14.504 -0.1099  0.3875 -0.6617
   93TMC2    H5 1460   2.222   3.799  14.416 -1.0603 -0.2545 -0.1529
   94MPD2     C 1461   2.164   3.371  13.952  0.0222  0.7553 -0.5361
   94MPD2    C1 1462   2.142   3.491  14.015 -0.3453  0.6033  0.2848
   94MPD2    C2 1463   2.015   3.552  14.001  0.1713 -0.3784 -0.4612
   94MPD2    C3 1464   1.921   3.498  13.924  0.3247 -0.4339 -0.4294
   94MPD2    C4 1465   1.940   3.369  13.872  0.3241 -0.1434 -0.0336
   94MPD2    C5 1466   2.065   3.314  13.878 -0.2668  0.1685  0.0658
   94MPD2     H 1467   1.988   3.649  14.040 -3.2991 -1.4958 -0.1003
   94MPD2    H1 1468   1.866   3.316  13.812 -0.8204  1.9179 -0.4275
   94MPD2    H2 1469   2.257   3.315  13.957 -0.1624  0.5829  0.8826
   94MPD2    H3 1470   2.088   3.212  13.849  1.9609 -0.5060  4.1898
   94MPD2     N 1471   1.801   3.573  13.904  0.0345 -0.0660  0.2397
   94MPD2    H5 1472   1.789   3.666  13.941 -2.0523  0.0974 -0.8394
   94MPD2    N1 1473   2.234   3.563  14.099  0.0125  0.6169  0.4387
   94MPD2    H7 1474   2.205   3.649  14.144  1.3138  0.3766  1.7645
   95TMC2    C1 1475   2.441   0.664  16.022  0.0166 -0.0359  0.4902
   95TMC2    C2 1476   2.415   0.532  16.049 -0.5956  0.2151  0.4086
   95TMC2    C3 1477   2.449   0.486  16.170  0.2268  0.2179  0.0277
   95TMC2    C4 1478   2.493   0.746  16.116 -1.4261  0.4816  0.5104
   95TMC2    C5 1479   2.505   0.697  16.242  0.2224  0.3569  0.3253
   95TMC2    C6 1480   2.497   0.561  16.273  0.0914 -0.0864  0.7422
   95TMC2     C 1481   2.449   0.714  15.884  0.4415  0.7757  0.0956
   95TMC2     O 1482   2.540   0.792  15.862  0.0656 -0.1682 -0.1455
   95TMC2     H 1483   2.367   0.464  15.979  0.8914 -1.4869  1.0459
   95TMC2    H1 1484   2.517   0.848  16.090 -2.2228 -0.3131 -3.3025
   95TMC2    H2 1485   2.535   0.527  16.368 -2.3321 -0.9423  1.4086
   95TMC2    C7 1486   2.539   0.794  16.339 -0.4021  0.6135 -0.1567
   95TMC2    C8 1487   2.425   0.341  16.192 -0.1699 -0.3692  0.4438
   95TMC2    O1 1488   2.585   0.903  16.303 -0.3292 -0.1333 -0.3250
   95TMC2    O2 1489   2.408   0.256  16.100 -0.2564  0.3721 -0.4520
   95TMC2    O5 1490   2.384   0.323  16.317  0.3859 -0.0054 -0.2837
   95TMC2    H5 1491   2.393   0.402  16.374  0.9467  1.1377 -1.9692
   96MPD2     C 1492   2.473   0.554  15.396  0.2268  0.5565  0.2211
   96MPD2    C1 1493   2.522   0.666  15.453 -1.0449  0.0871  0.2599
   96MPD2    C2 1494   2.492   0.696  15.580 -0.5121 -0.1280  0.3448
   96MPD2    C3 1495   2.404   0.619  15.657  0.0671 -0.1184  0.5089
   96MPD2    C4 1496   2.354   0.505  15.598 -0.3562 -0.0371 -0.5200
   96MPD2    C5 1497   2.384   0.484  15.465 -0.2638  0.7059  0.3976
   96MPD2     H 1498   2.532   0.784  15.629  0.1387 -0.6391  0.7539
   96MPD2    H1 1499   2.295   0.430  15.649 -0.8677  0.7660  0.0820
   96MPD2    H2 1500   2.506   0.519  15.299 -2.4373  0.5799 -0.6840
   96MPD2    H3 1501   2.327   0.399  15.429 -2.1276  1.3954  1.7120
   96MPD2     N 1502   2.388   0.628  15.797 -0.4334 -0.4615 -0.5283
   96MPD2    H5 1503   2.327   0.560  15.841  0.5642 -0.9710  0.0722
   96MPD2    N1 1504   2.607   0.768  15.391  0.4130  0.5807  0.3591
   96MPD2    H7 1505   2.645   0.851  15.436 -3.3765  2.3789  0.2031
   97TMC2    C1 1506   4.592   2.992  17.606 -0.0175  1.2206  0.1351
   97TMC2    C2 1507   4.534   2.999  17.478 -0.1628 -0.2140  0.4203
   97TMC2    C3 1508   4.571   3.113  17.405 -0.2654 -0.3584 -0.1960
   97TMC2    C4 1509   4.664   3.094  17.661  0.0099  0.0389 -0.0483
   97TMC2    C5 1510   4.684   3.201  17.586 -0.2263  0.5481  0.3250
   97TMC2    C6 1511   4.641   3.218  17.454 -0.4236  0.2102 -0.3509
   97TMC2     C 1512   4.579   2.876  17.684  0.0573 -0.3702 -0.0691
   97TMC2     O 1513   4.590   2.895   0.047 -0.1105 -0.3034 -0.5756
   97TMC2     H 1514   4.452   2.939  17.440  0.1598 -0.9306  0.8607
   97TMC2    H1 1515   4.716   3.081  17.756 -0.4209  0.0305  0.1873
   97TMC2    H2 1516   4.657   3.298  17.383  0.2072 -0.7045 -1.2441
   97TMC2    C7 1517   4.728   3.318  17.654  0.6057 -0.6683 -0.2639
   97TMC2    C8 1518   4.493   3.138  17.283 -0.5263  0.0731  0.5636
   97TMC2    O1 1519   0.062   3.293  17.746 -0.4501 -0.2538  0.1207
   97TMC2    O2 1520   4.475   3.250  17.241  0.3063 -0.1163 -0.0257
   97TMC2    O5 1521   4.480   3.025  17.210  0.6774  0.1488  0.3414
   97TMC2    H5 1522   4.516   2.944  17.252  1.5853  0.0797 -0.5551
   98MPD2     C 1523   4.571   2.373  17.743 -0.5761  0.6011 -0.5796
   98MPD2    C1 1524   4.545   2.475   0.077 -0.4140  0.2489  0.3991
   98MPD2    C2 1525   4.532   2.603   0.029 -0.4539  0.2591 -0.0260
   98MPD2    C3 1526   4.546   2.634  17.651 -0.1909 -0.0608  0.3939
   98MPD2    C4 1527   4.551   2.532  17.561  0.2374  0.6326  0.4161
   98MPD2    C5 1528   4.564   2.402  17.612  0.0072 -0.1880 -0.7274
   98MPD2     H 1529   4.546   2.684   0.099  2.8621 -1.8256  1.7264
   98MPD2    H1 1530   4.559   2.556  17.455  2.4292  1.3750  0.7570
   98MPD2    H2 1531   4.591   2.275   0.027 -3.1492  1.0647  1.8276
   98MPD2    H3 1532   4.574   2.323  17.539  0.6909 -0.5218 -0.2769
   98MPD2     N 1533   4.560   2.768  17.604 -0.4989 -0.0385  0.4247
   98MPD2    H5 1534   4.558   2.785  17.504  0.9127  0.6932  0.5251
   98MPD2    N1 1535   4.546   2.443   0.212 -0.7360 -0.0662 -0.4898
   98MPD2    H7 1536   4.580   2.349   0.231  2.2160  1.1337  0.1354
   99TMC2    C1 1537   3.388   0.418   1.272 -0.2048  0.2191 -0.0419
   99TMC2    C2 1538   3.448   0.535   1.240 -0.3899  0.0447  0.0660
   99TMC2    C3 1539   3.392   0.653   1.283 -0.0848 -0.7758  0.2440
   99TMC2    C4 1540   3.268   0.413   1.341  0.4514  0.5375  0.1601
   99TMC2    C5 1541   3.213   0.527   1.377  1.0668  0.2515 -0.1662
   99TMC2    C6 1542   3.278   0.648   1.354 -0.6246  0.7675 -0.2059
   99TMC2     C 1543   3.455   0.295   1.225 -0.5429  1.5428  0.3185
   99TMC2     O 1544   3.577   0.303   1.210 -0.2372  0.0028  1.2945
   99TMC2     H 1545   3.539   0.531   1.180  0.1670  2.3132  0.7838
   99TMC2    H1 1546   3.216   0.321   1.365  0.7098  0.6611  1.1705
   99TMC2    H2 1547   3.242   0.744   1.389 -0.3791  0.4362  0.9651
   99TMC2    C7 1548   3.064   0.544   1.386 -0.1753  0.3712 -0.2824
   99TMC2    C8 1549   3.466   0.772   1.285 -0.9512 -0.0614 -0.2874
   99TMC2    O1 1550   3.025   0.649   1.434  0.5251 -0.4390 -0.1883
   99TMC2    O2 1551   3.434   0.865   1.359 -0.1794 -0.0646 -0.4406
   99TMC2    O5 1552   3.507   0.783   1.158 -0.0571 -0.0273 -0.4609
   99TMC2    H5 1553   3.527   0.704   1.104 -0.6268  0.4798 -1.4179
  100MPD2     C 1554   3.551   0.032   1.130 -0.0027 -0.7398 -0.2449
  100MPD2    C1 1555   3.417   0.066   1.138 -0.6584 -0.1486 -0.4834
  100MPD2    C2 1556   3.329   4.706   1.108 -0.1384 -0.1647  0.2447
  100MPD2    C3 1557   3.374   4.577   1.078 -0.0466 -0.5189 -0.2712
  100MPD2    C4 1558   3.507   4.557   1.053 -0.0748  0.1101  0.2328
  100MPD2    C5 1559   3.595   4.647   1.093  0.2922  1.0069 -0.0520
  100MPD2     H 1560   3.224   4.729   1.120 -0.3180 -1.1999  0.6837
  100MPD2    H1 1561   3.548   4.462   1.019  1.2680  0.2090  1.5465
  100MPD2    H2 1562   3.631   0.104   1.143  1.2304 -2.4463  1.5913
  100MPD2    H3 1563   3.702   4.631   1.088  0.2765  1.0237 -0.4758
  100MPD2     N 1564   3.276   4.472   1.076 -0.2561  0.4673 -0.5844
  100MPD2    H5 1565   3.178   4.491   1.095 -0.2700 -0.4518  0.2676
  100MPD2    N1 1566   3.367   0.195   1.185  0.7653  0.5102  0.3138
  100MPD2    H7 1567   3.267   0.212   1.189  0.6593  0.0559 -0.5111
  101TMC2    C1 1568   4.091   1.807  12.834 -0.4897 -0.3564  0.0472
  101TMC2    C2 1569   3.968   1.832  12.768 -0.3792 -0.2588 -0.1222
  101TMC2    C3 1570   3.972   1.896  12.646  0.4940  0.0538 -0.6825
  101TMC2    C4 1571   4.206   1.839  12.763  0.8546 -0.6552  0.1197
  101TMC2    C5 1572   4.199   1.908  12.644  0.4413 -0.1678 -0.2224
  101TMC2    C6 1573   4.083   1.923  12.573 -0.0716 -0.1775  0.8930
  101TMC2     C 1574   4.077   1.699  12.929 -0.5642 -0.1903  0.1221
  101TMC2     O 1575   3.974   1.682  12.992  0.1213 -0.0921 -0.0191
  101TMC2     H 1576   3.875   1.804  12.816 -0.5466 -0.2746 -0.4584
  101TMC2    H1 1577   4.300   1.812  12.809  1.0767 -0.5154 -0.2552
  101TMC2    H2 1578   4.074   1.976  12.479  0.3230 -1.1335  0.3154
  101TMC2    C7 1579   4.319   1.926  12.559 -0.3350  0.1722  0.0112
  101TMC2    C8 1580   3.848   1.931  12.581  0.6146  0.0263 -0.8008
  101TMC2    O1 1581   4.296   1.955  12.442  0.5782 -0.1501 -0.1729
  101TMC2    O2 1582   3.837   2.001  12.481  0.6785  0.0134 -0.1338
  101TMC2    O5 1583   3.753   1.828  12.605 -0.1638  0.3470  0.6248
  101TMC2    H5 1584   3.796   1.747  12.639  1.1405  1.1024  0.7902
  102MPD2     C 1585   4.293   1.403  12.907 -0.3728  0.2785 -0.0427
  102MPD2    C1 1586   4.195   1.482  12.968  0.3850  0.6768 -0.3972
  102MPD2    C2 1587   4.117   1.432  13.073 -0.2277 -0.0516  1.0129
  102MPD2    C3 1588   4.125   1.292  13.098 -0.6532 -0.0721 -0.2960
  102MPD2    C4 1589   4.229   1.220  13.045  0.3079  0.4996  0.7156
  102MPD2    C5 1590   4.318   1.278  12.955 -0.2322  0.7690 -0.2436
  102MPD2     H 1591   4.055   1.489  13.140 -1.1101 -0.6163  0.6788
  102MPD2    H1 1592   4.252   1.122  13.087 -3.5399 -0.9058 -0.4016
  102MPD2    H2 1593   4.358   1.456  12.838 -1.6433 -1.1369 -2.3224
  102MPD2    H3 1594   4.398   1.215  12.918 -1.9204 -2.5309  1.6836
  102MPD2     N 1595   4.035   1.232  13.189  0.1929 -0.2019 -0.8401
  102MPD2    H5 1596   3.962   1.293  13.226 -0.3084 -0.8170 -0.8196
  102MPD2    N1 1597   4.189   1.615  12.917  0.4160 -0.2258  0.2788
  102MPD2    H7 1598   4.258   1.636  12.846 -0.7004  1.5664 -0.2767
  103TMC2    C1 1599   1.564   1.086  12.585 -0.1378 -0.1438  0.4055
  103TMC2    C2 1600   1.677   1.011  12.555  0.7491  0.4807 -0.4706
  103TMC2    C3 1601   1.751   0.971  12.656 -0.5349  0.4242  0.0740
  103TMC2    C4 1602   1.516   1.099  12.713 -0.1465 -0.6233  0.2355
  103TMC2    C5 1603   1.598   1.052  12.812  0.0353 -0.5702  0.1773
  103TMC2    C6 1604   1.717   0.993  12.787 -0.7598  0.0669 -0.6584
  103TMC2     C 1605   1.475   1.125  12.472 -0.0641  0.4707  0.5444
  103TMC2     O 1606   1.352   1.137  12.483  0.5481  0.3540 -0.7979
  103TMC2     H 1607   1.695   0.995  12.449  1.8249 -0.1405 -0.1934
  103TMC2    H1 1608   1.432   1.166  12.721  2.1199  2.1476  0.6578
  103TMC2    H2 1609   1.783   0.978  12.873 -0.1803  0.3334 -1.0540
  103TMC2    C7 1610   1.589   1.126  12.934 -0.2799 -0.5602  0.0428
  103TMC2    C8 1611   1.877   0.898  12.632 -0.4155  0.0902 -0.2151
  103TMC2    O1 1612   1.680   1.101  13.015  0.0379 -0.1654  0.2452
  103TMC2    O2 1613   1.895   0.830  12.532 -0.0628 -0.3982  0.0122
  103TMC2    O5 1614   1.965   0.911  12.736  0.1669 -0.4942 -0.1801
  103TMC2    H5 1615   1.953   0.983  12.800 -1.6586 -0.0876 -0.9755
  104MPD2     C 1616   1.607   1.266  12.157  0.4357  0.4746 -0.0384
  104MPD2    C1 1617   1.507   1.225  12.241 -0.4354 -0.1464 -0.2018
  104MPD2    C2 1618   1.377   1.259  12.217  0.2066 -0.5851 -0.3291
  104MPD2    C3 1619   1.340   1.333  12.102  0.5354 -0.1171 -0.1710
  104MPD2    C4 1620   1.445   1.379  12.025  0.2863  1.1352 -0.0934
  104MPD2    C5 1621   1.579   1.353  12.052  0.0732 -0.7272 -0.1877
  104MPD2     H 1622   1.307   1.246  12.298 -0.7354  2.3661 -0.6843
  104MPD2    H1 1623   1.438   1.451  11.944  1.0849  0.6536 -0.5904
  104MPD2    H2 1624   1.708   1.250  12.192  0.4055  0.0306 -0.1528
  104MPD2    H3 1625   1.652   1.405  11.991 -2.5429  4.6409  1.2201
  104MPD2     N 1626   1.202   1.371  12.088  0.4136 -0.7636 -0.2769
  104MPD2    H5 1627   1.132   1.321  12.141  0.9408 -1.5985 -0.3667
  104MPD2    N1 1628   1.555   1.171  12.363  0.4482 -0.0324  0.0888
  104MPD2    H7 1629   1.653   1.173  12.387  0.5825  1.1354 -0.5428
  105TMC2    C1 1630   3.077   4.454   0.324  0.3925 -0.2630 -0.1648
  105TMC2    C2 1631   3.112   4.410   0.446 -0.6674 -0.6739  0.2146
  105TMC2    C3 1632   3.142   4.506   0.541 -0.2862 -0.9405 -0.4269
  105TMC2    C4 1633   3.052   4.583   0.290 -0.2697 -0.0776 -0.3645
  105TMC2    C5 1634   3.076   4.674   0.389 -0.1761 -0.9099  0.7071
  105TMC2    C6 1635   3.127   4.641   0.509 -0.0356  0.7553  0.6076
  105TMC2     C 1636   3.120   4.369   0.215  0.7173  0.2801 -0.6897
  105TMC2     O 1637   3.141   4.250   0.241 -0.5974  0.7428  0.0325
  105TMC2     H 1638   3.137   4.307   0.466 -1.1055 -1.3701 -2.7208
  105TMC2    H1 1639   3.016   4.623   0.197 -1.5023 -1.8966 -0.6717
  105TMC2    H2 1640   3.179   4.713   0.571  1.6645  0.8311 -0.9305
  105TMC2    C7 1641   3.101   0.067   0.344 -0.2288 -0.3003  0.6024
  105TMC2    C8 1642   3.219   4.453   0.657 -0.2511 -0.0695 -0.7307
  105TMC2    O1 1643   3.106   0.081   0.222 -0.0745 -0.0835  0.0038
  105TMC2    O2 1644   3.268   4.339   0.657  0.2488 -0.5655  0.2292
  105TMC2    O5 1645   3.205   4.533   0.764 -0.0804 -0.2633 -0.7957
  105TMC2    H5 1646   3.156   4.617   0.758  1.4881  0.5705 -1.8710
  106MPD2     C 1647   3.304   4.331  17.496 -0.3758  0.3761  0.6346
  106MPD2    C1 1648   3.312   4.460  17.533  0.5989 -1.3804 -0.2645
  106MPD2    C2 1649   3.254   4.504  17.653 -0.5039  0.2318  0.0023
  106MPD2    C3 1650   3.206   4.411  17.745  0.4718  0.3405  0.4479
  106MPD2    C4 1651   3.212   4.276  17.712  0.0060 -0.6120 -0.3049
  106MPD2    C5 1652   3.238   4.243  17.580 -0.1780 -0.3482  0.3765
  106MPD2     H 1653   3.269   4.606  17.687  4.1666 -0.0755 -1.0412
  106MPD2    H1 1654   3.174   4.195   0.017  0.4349 -0.8979 -0.4118
  106MPD2    H2 1655   3.321   4.290  17.397  2.6490 -1.1499  1.7532
  106MPD2    H3 1656   3.223   4.144  17.540  1.4773 -0.7249  0.7287
  106MPD2     N 1657   3.157   4.452   0.111 -0.1197 -0.3872  0.5241
  106MPD2    H5 1658   3.153   4.552   0.129 -1.4110 -0.0731 -1.6214
  106MPD2    N1 1659   3.373   4.561  17.452  0.4708  0.5636 -0.4787
  106MPD2    H7 1660   3.354   4.656  17.482 -0.7539  0.4618 -0.8978
  107TMC2    C1 1661   3.685   4.202  11.496  0.0600 -0.4599 -0.2662
  107TMC2    C2 1662   3.701   4.079  11.552  0.2519 -0.3646 -0.5669
  107TMC2    C3 1663   3.676   3.975  11.469  0.3410  0.3284 -0.3465
  107TMC2    C4 1664   3.646   4.214  11.370  0.3103 -0.0536 -0.2135
  107TMC2    C5 1665   3.620   4.101  11.295 -0.0706  0.2168 -0.5062
  107TMC2    C6 1666   3.650   3.979  11.342  0.1491 -0.1033  0.2681
  107TMC2     C 1667   3.684   4.319  11.577 -0.1945 -0.7374 -0.3002
  107TMC2     O 1668   3.680   4.303  11.697  0.0331  0.4522  0.2260
  107TMC2     H 1669   3.719   4.060  11.657  0.0007  0.0236 -0.4514
  107TMC2    H1 1670   3.620   4.314  11.335  1.9606 -0.0794 -1.5241
  107TMC2    H2 1671   3.616   3.888  11.293 -1.5216  0.5039  0.2875
  107TMC2    C7 1672   3.549   4.117  11.174 -0.5346  0.6190  0.1857
  107TMC2    C8 1673   3.679   3.847  11.539  0.5958  0.2722  0.3019
  107TMC2    O1 1674   3.552   4.032  11.084 -0.2544 -0.1368 -0.3905
  107TMC2    O2 1675   3.754   3.818  11.631 -0.7038  0.2400  0.0186
  107TMC2    O5 1676   3.551   3.818  11.536  0.4929 -0.4017 -0.5217
  107TMC2    H5 1677   3.499   3.871  11.471  0.6091 -0.2627 -0.5011
  108MPD2     C 1678   3.706   4.663  11.453 -0.1712 -0.0697  0.6075
  108MPD2    C1 1679   3.690   4.567  11.549  0.6903  0.1864  0.3886
  108MPD2    C2 1680   3.656   4.602  11.680 -0.3514 -0.0336 -0.5459
  108MPD2    C3 1681   3.622   4.728  11.712  0.3434  0.0302  0.9262
  108MPD2    C4 1682   3.628   0.087  11.610 -0.0501  0.7759 -0.7664
  108MPD2    C5 1683   3.672   0.050  11.485 -0.1739 -0.0354  0.5085
  108MPD2     H 1684   3.644   4.538  11.766 -0.9621  2.6898  1.4088
  108MPD2    H1 1685   3.607   0.190  11.635 -1.6266  0.5263 -1.0294
  108MPD2    H2 1686   3.740   4.633  11.354  2.4592 -0.0209  1.4937
  108MPD2    H3 1687   3.679   0.131  11.413 -1.7440  0.5428  1.0125
  108MPD2     N 1688   3.570   0.035  11.833 -0.7131  0.7029 -0.7135
  108MPD2    H5 1689   3.531   0.129  11.839  1.3204  1.4322  1.2564
  108MPD2    N1 1690   3.705   4.433  11.502  0.3472 -0.0968 -0.2167
  108MPD2    H7 1691   3.720   4.425  11.402 -1.6871 -1.3348 -0.4098
  109TMC2    C1 1692   3.555   1.906   0.204  0.1097 -0.4373 -0.0763
  109TMC2    C2 1693   3.528   1.986   0.089  0.4421  0.1546 -0.0101
  109TMC2    C3 1694   3.584   2.115   0.084 -0.0215 -0.0420  1.1741
  109TMC2    C4 1695   3.642   1.948   0.297  0.0017  0.2664  0.0459
  109TMC2    C5 1696   3.689   2.074   0.285 -0.0423  0.3605 -0.0267
  109TMC2    C6 1697   3.661   2.163   0.189  0.0835 -0.4215 -0.4519
  109TMC2     C 1698   3.503   1.777   0.207  0.0296 -0.0002 -0.7136
  109TMC2     O 1699   3.496   1.725   0.095  0.3197 -0.3740  0.2552
  109TMC2     H 1700   3.461   1.943   0.015  0.5393 -1.5945  0.9422
  109TMC2    H1 1701   3.678   1.881   0.375  3.3174 -0.6583 -2.3060
  109TMC2    H2 1702   3.708   2.260   0.176  0.6125 -0.3406  2.0578
  109TMC2    C7 1703   3.801   2.107   0.372 -0.3193 -0.7035 -0.2611
  109TMC2    C8 1704   3.540   2.222  17.748  0.4370  0.0242  0.0563
  109TMC2    O1 1705   3.871   2.201   0.330 -0.0569  0.4699 -0.2928
  109TMC2    O2 1706   3.538   2.345   0.007 -0.1486  0.1407 -0.3568
  109TMC2    O5 1707   3.502   2.157  17.638  0.6169 -0.3510  0.3618
  109TMC2    H5 1708   3.539   2.066  17.639  0.7252 -0.3227 -1.3123
  110MPD2     C 1709   3.231   1.417   0.447 -0.7226  0.1691 -0.3722
  110MPD2    C1 1710   3.298   1.487   0.542 -0.2935  0.4225  0.0084
  110MPD2    C2 1711   3.389   1.582   0.498 -0.0481  0.3151  0.1982
  110MPD2    C3 1712   3.413   1.603   0.363 -0.3017  0.4300 -1.2343
  110MPD2    C4 1713   3.357   1.523   0.269 -0.0769 -0.2776 -0.5957
  110MPD2    C5 1714   3.270   1.428   0.315  0.1004 -0.4337 -0.5338
  110MPD2     H 1715   3.423   1.657   0.568 -0.5740  1.6329 -0.9331
  110MPD2    H1 1716   3.362   1.535   0.161 -2.6996 -0.6239 -0.7666
  110MPD2    H2 1717   3.153   1.348   0.475  0.9771 -1.4122  0.5021
  110MPD2    H3 1718   3.226   1.380   0.229 -1.9679  0.7652 -0.1359
  110MPD2     N 1719   3.482   1.721   0.334 -0.1077  0.5402  0.1520
  110MPD2    H5 1720   3.486   1.779   0.418 -2.3607  1.7254 -0.5784
  110MPD2    N1 1721   3.273   1.455   0.678 -0.4156  0.5556 -0.1096
  110MPD2    H7 1722   3.200   1.387   0.699 -0.5752  0.7682  0.0287
  111TMC2    C1 1723   3.553   2.390  11.742 -0.6563  0.3109  0.4378
  111TMC2    C2 1724   3.503   2.394  11.873 -0.1711 -0.3221  0.3380
  111TMC2    C3 1725   3.605   2.419  11.966  0.9599  0.1998  0.3159
  111TMC2    C4 1726   3.679   2.425  11.700 -0.4898  0.6195 -0.2303
  111TMC2    C5 1727   3.775   2.442  11.797 -0.5164 -0.5290  0.4885
  111TMC2    C6 1728   3.741   2.433  11.932 -0.0071 -0.0830  0.4557
  111TMC2     C 1729   3.471   2.333  11.633  0.3109  0.3412 -0.5209
  111TMC2     O 1730   3.468   2.385  11.524 -0.3677 -0.1409 -0.1011
  111TMC2     H 1731   3.400   2.370  11.894 -0.1393 -1.2481 -0.5722
  111TMC2    H1 1732   3.695   2.426  11.593  1.5089 -1.9655  0.0282
  111TMC2    H2 1733   3.812   2.447  12.012  1.0302  0.5796 -0.5766
  111TMC2    C7 1734   3.913   2.466  11.760 -0.2207  0.2342  0.4670
  111TMC2    C8 1735   3.588   2.396  12.105  0.1573  0.4489  0.1176
  111TMC2    O1 1736   3.993   2.497  11.850  0.3763 -0.5846 -0.1102
  111TMC2    O2 1737   3.647   2.303  12.158  0.2626 -0.1079 -0.3587
  111TMC2    O5 1738   3.452   2.416  12.120  0.1306  0.5107 -0.0974
  111TMC2    H5 1739   3.422   2.492  12.066 -0.8925 -0.6171 -1.1333
  112MPD2     C 1740   3.089   2.010  11.522 -0.1405  0.4435  0.1593
  112MPD2    C1 1741   3.162   2.096  11.442  0.3924 -0.3432 -0.4300
  112MPD2    C2 1742   3.265   2.173  11.490 -0.0744 -0.1397 -0.0864
  112MPD2    C3 1743   3.294   2.159  11.625 -0.8325  0.3000  0.4532
  112MPD2    C4 1744   3.228   2.073  11.701 -0.1923 -0.2573  0.1486
  112MPD2    C5 1745   3.123   2.000  11.651  0.7159  0.2791  0.4897
  112MPD2     H 1746   3.319   2.246  11.430  0.6529 -0.5947  0.0098
  112MPD2    H1 1747   3.255   2.057  11.805 -0.5241 -2.1246 -0.0602
  112MPD2    H2 1748   3.001   1.959  11.486  0.0651  0.6179 -0.5826
  112MPD2    H3 1749   3.087   1.923  11.718  1.8360 -0.3842  0.3318
  112MPD2     N 1750   3.397   2.226  11.684  0.1711  0.6820  0.0005
  112MPD2    H5 1751   3.413   2.208  11.782  0.8985 -2.0284 -0.6121
  112MPD2    N1 1752   3.138   2.112  11.303  0.0905  0.3928  0.3283
  112MPD2    H7 1753   3.213   2.151  11.247 -0.3730 -0.3796 -0.8309
  113TMC2    C1 1754   1.973   4.484   0.437 -0.0352 -0.0810  0.4083
  113TMC2    C2 1755   1.953   4.568   0.325 -0.9758  0.2810 -0.0307
  113TMC2    C3 1756   1.879   4.518   0.219 -0.0966 -0.0552 -0.3888
  113TMC2    C4 1757   1.908   4.358   0.453 -0.5374 -0.8544 -1.0835
  113TMC2    C5 1758   1.854   4.315   0.336 -0.6881  0.0919 -0.8125
  113TMC2    C6 1759   1.830   4.390   0.224  0.1758  0.1052  0.2326
  113TMC2     C 1760   2.049   4.543   0.550 -0.1549 -0.9900  0.5838
  113TMC2     O 1761   2.064   4.664   0.544  0.3884  0.2429  0.0077
  113TMC2     H 1762   2.017   4.655   0.318 -0.2801 -0.3082 -0.9576
  113TMC2    H1 1763   1.912   4.302   0.545 -0.8095  1.6997  0.4818
  113TMC2    H2 1764   1.787   4.353   0.132  0.3859  0.9102 -0.1837
  113TMC2    C7 1765   1.828   4.174   0.315  0.0698 -0.8505  0.2519
  113TMC2    C8 1766   1.855   4.603   0.109  0.3653 -0.1888  0.0820
  113TMC2    O1 1767   1.770   4.144   0.209  0.4544 -0.6918  0.3966
  113TMC2    O2 1768   1.837   4.567  17.750 -0.0146  0.3313 -0.1426
  113TMC2    O5 1769   1.787   4.697   0.175  0.3519 -1.0248 -0.2541
  113TMC2    H5 1770   1.795   4.684   0.272  2.4023 -2.0957 -0.5854
  114MPD2     C 1771   2.453   4.540   0.870  0.1855  0.1718 -0.3318
  114MPD2    C1 1772   2.373   4.643   0.825  0.2897  0.0870  0.4851
  114MPD2    C2 1773   2.258   4.616   0.750  0.8944  0.0982 -0.2597
  114MPD2    C3 1774   2.221   4.488   0.722 -0.4939  1.0438  0.1291
  114MPD2    C4 1775   2.294   4.391   0.774  0.0924 -0.7214  0.4766
  114MPD2    C5 1776   2.410   4.418   0.844  0.1392  0.6185  0.1582
  114MPD2     H 1777   2.198   4.698   0.713 -1.3352 -1.1667  0.5202
  114MPD2    H1 1778   2.268   4.289   0.751  0.2011 -0.9921  1.5400
  114MPD2    H2 1779   2.539   4.546   0.936 -0.0148  0.0100 -0.0607
  114MPD2    H3 1780   2.477   4.339   0.876 -2.0750 -0.3379  2.3974
  114MPD2     N 1781   2.122   4.454   0.628 -0.0508  0.7933  0.4993
  114MPD2    H5 1782   2.119   4.354   0.611 -3.1090  0.6850  1.7267
  114MPD2    N1 1783   2.398   0.038   0.863  0.1008  0.0815  0.8003
  114MPD2    H7 1784   2.324   0.097   0.826 -0.3104  0.6222  2.4953
  115TMC2    C1 1785   3.001   2.465   0.303  0.1156 -0.1183 -0.2074
  115TMC2    C2 1786   3.093   2.475   0.401  0.0506  0.3963  0.1888
  115TMC2    C3 1787   3.168   2.589   0.413  0.1002 -0.4840 -0.1631
  115TMC2    C4 1788   2.976   2.562   0.217 -0.0655 -0.9367 -0.2908
  115TMC2    C5 1789   3.066   2.668   0.219  0.0768 -0.8055 -1.0423
  115TMC2    C6 1790   3.160   2.690   0.319  0.1162  0.8204 -0.3288
  115TMC2     C 1791   2.945   2.336   0.254  0.5659  0.1223  0.5418
  115TMC2     O 1792   2.950   2.317   0.131  0.0429  0.2256  0.1632
  115TMC2     H 1793   3.121   2.386   0.457 -0.4091 -1.6635 -2.8209
  115TMC2    H1 1794   2.907   2.564   0.134 -0.8421  0.9275  0.4031
  115TMC2    H2 1795   3.217   2.780   0.340 -0.9573  1.2767  0.6157
  115TMC2    C7 1796   3.035   2.771   0.123 -0.1413 -0.0489 -0.4166
  115TMC2    C8 1797   3.223   2.624   0.542 -0.1379  0.7389 -0.1310
  115TMC2    O1 1798   2.916   2.777   0.098 -0.0672 -0.1546  0.4178
  115TMC2    O2 1799   3.299   2.718   0.551 -0.1197 -0.4415 -0.0318
  115TMC2    O5 1800   3.189   2.540   0.646  0.7981 -0.3119  0.6937
  115TMC2    H5 1801   3.131   2.463   0.626 -1.8147  2.1240 -1.1092
  116MPD2     C 1802   2.672   1.918   0.331  0.5049 -0.4526 -0.2952
  116MPD2    C1 1803   2.741   1.955   0.219  0.0885  0.0384 -0.3262
  116MPD2    C2 1804   2.815   2.067   0.229  0.4112 -0.5623  0.5454
  116MPD2    C3 1805   2.818   2.143   0.343 -0.8524  0.2544 -0.1413
  116MPD2    C4 1806   2.753   2.103   0.456 -0.2258 -0.5234  0.7446
  116MPD2    C5 1807   2.676   1.990   0.445 -0.3492 -0.0891 -1.0964
  116MPD2     H 1808   2.873   2.089   0.141  3.4794 -0.9227  2.4803
  116MPD2    H1 1809   2.756   2.148   0.555 -2.1696 -1.1311  1.0756
  116MPD2    H2 1810   2.601   1.837   0.321 -0.6653  0.3013  1.7757
  116MPD2    H3 1811   2.618   1.970   0.534  0.7508  1.2641 -0.0848
  116MPD2     N 1812   2.887   2.258   0.355  0.2370 -0.0408 -0.7526
  116MPD2    H5 1813   2.900   2.296   0.448  1.5763  1.8554 -1.7136
  116MPD2    N1 1814   2.728   1.882   0.101  0.5187 -0.0563  0.1808
  116MPD2    H7 1815   2.665   1.802   0.104 -2.3387  2.1766 -0.4481
  117TMC2    C1 1816   1.097   4.150  13.642  0.5693 -0.5814 -0.1909
  117TMC2    C2 1817   1.183   4.046  13.691 -0.1606 -0.4421  0.1976
  117TMC2    C3 1818   1.250   4.070  13.807 -0.7682 -0.5698 -0.1358
  117TMC2    C4 1819   1.074   4.262  13.713 -0.0538  0.5099  0.1841
  117TMC2    C5 1820   1.151   4.281  13.820  0.3188 -0.7180  0.4260
  117TMC2    C6 1821   1.249   4.193  13.864 -0.3180 -0.7162  0.1559
  117TMC2     C 1822   1.032   4.133  13.514 -0.2065 -0.4604 -0.7567
  117TMC2     O 1823   0.994   4.019  13.491  0.7436  0.5207  0.3176
  117TMC2     H 1824   1.180   3.954  13.634 -0.3638  0.1691 -0.7709
  117TMC2    H1 1825   0.994   4.327  13.678 -1.7401 -0.9723  1.2522
  117TMC2    H2 1826   1.290   4.213  13.962 -1.3839  0.3118  0.3921
  117TMC2    C7 1827   1.151   4.412  13.893  0.5395 -0.2292  0.1521
  117TMC2    C8 1828   1.261   3.959  13.896  0.9357  0.0163  0.2545
  117TMC2    O1 1829   1.234   4.431  13.979 -0.0994  0.1660  0.6267
  117TMC2    O2 1830   1.349   3.947  13.983  0.1148 -0.1011 -0.5344
  117TMC2    O5 1831   1.141   3.888  13.895 -0.3698 -0.3324  0.2758
  117TMC2    H5 1832   1.064   3.933  13.853 -0.5186  0.2496  1.1729
  118MPD2     C 1833   0.888   4.669  13.829 -0.0881  0.7209 -0.4942
  118MPD2    C1 1834   1.007   4.624  13.876 -0.7242  0.2239 -0.4699
  118MPD2    C2 1835   1.088   4.712  13.947 -0.2207  0.1776 -0.5675
  118MPD2    C3 1836   1.060   0.102  13.959 -0.1459 -0.5106 -0.1958
  118MPD2    C4 1837   0.929   0.140  13.919 -0.2134 -0.0245 -0.3514
  118MPD2    C5 1838   0.840   0.059  13.851  0.6331 -0.3038  0.1518
  118MPD2     H 1839   1.186   4.671  13.970 -0.2556 -0.5310 -1.6646
  118MPD2    H1 1840   0.904   0.245  13.910 -0.3160  0.0453  0.7592
  118MPD2    H2 1841   0.825   4.610  13.764 -0.7323  0.7253  0.1201
  118MPD2    H3 1842   0.750   0.091  13.801  0.5423  0.0685  0.5560
  118MPD2     N 1843   1.149   0.196  14.007  0.3021 -0.2704  0.0693
  118MPD2    H5 1844   1.109   0.289  14.009  0.2363 -0.2441 -2.5897
  118MPD2    N1 1845   1.033   4.483  13.862 -0.1207 -0.8318 -0.6752
  118MPD2    H7 1846   0.963   4.433  13.807 -0.1636 -2.4532  0.8264
  119TMC2    C1 1847   4.241   0.478  13.356  0.0106  1.0661  0.1199
  119TMC2    C2 1848   4.296   0.433  13.236 -0.5755 -0.3948  0.1807
  119TMC2    C3 1849   4.252   0.312  13.191 -0.2719 -0.0298 -0.1402
  119TMC2    C4 1850   4.151   0.406  13.415  0.2422  0.1129 -0.0417
  119TMC2    C5 1851   4.104   0.291  13.359 -0.4993  0.3537 -0.0523
  119TMC2    C6 1852   4.151   0.237  13.244  0.2970  0.0690 -0.1657
  119TMC2     C 1853   4.311   0.578  13.440 -0.3652  0.4701 -0.9614
  119TMC2     O 1854   4.252   0.610  13.539 -0.5149 -0.3975  0.2842
  119TMC2     H 1855   4.375   0.488  13.186 -1.5257 -0.1231 -1.0066
  119TMC2    H1 1856   4.108   0.443  13.508 -1.2257  0.2946 -0.7894
  119TMC2    H2 1857   4.110   0.143  13.209  1.7142 -0.4066 -0.5285
  119TMC2    C7 1858   3.993   0.225  13.427  0.1285  0.1820  0.9392
  119TMC2    C8 1859   4.308   0.254  13.074  0.6275 -0.0014 -0.0153
  119TMC2    O1 1860   3.915   0.157  13.363  0.2784 -0.3343 -0.4480
  119TMC2    O2 1861   4.295   0.137  13.040  0.3099  0.3145  0.1084
  119TMC2    O5 1862   4.332   0.354  12.985 -0.0385 -0.4365 -0.1033
  119TMC2    H5 1863   4.316   0.445  13.018 -0.4511 -0.2772 -0.7461
  120MPD2     C 1864   0.006   0.837  13.583  0.0481 -0.1901  0.8201
  120MPD2    C1 1865   4.621   0.824  13.641  0.4658  0.4753  0.6190
  120MPD2    C2 1866   4.518   0.761  13.575 -0.1562 -0.0592  0.2195
  120MPD2    C3 1867   4.529   0.699  13.456 -0.3767 -0.3686  0.1029
  120MPD2    C4 1868   4.657   0.713  13.398 -0.0133  0.8066  0.3416
  120MPD2    C5 1869   0.021   0.784  13.455 -0.2993 -0.0191 -0.2832
  120MPD2     H 1870   4.417   0.763  13.616 -1.6026 -1.6880 -3.2352
  120MPD2    H1 1871   4.667   0.661  13.303 -1.7882 -1.4114  1.3780
  120MPD2    H2 1872   0.088   0.887  13.632  0.8354  0.7858 -1.4835
  120MPD2    H3 1873   0.116   0.792  13.404  0.5712 -1.1205  1.1894
  120MPD2     N 1874   4.431   0.625  13.387 -0.1361  0.5550 -0.4025
  120MPD2    H5 1875   4.454   0.584  13.297 -1.3617  0.1466 -0.5265
  120MPD2    N1 1876   4.594   0.888  13.760 -0.1741 -0.3045 -0.0537
  120MPD2    H7 1877   4.661   0.952  13.802 -0.2605  0.7083 -1.4541
  121TMC2    C1 1878   1.258   2.254  14.055  0.2342  0.3840 -0.0775
  121TMC2    C2 1879   1.212   2.137  14.102  0.1631 -1.0339  0.0244
  121TMC2    C3 1880   1.080   2.119  14.116 -0.2128 -0.6094 -0.8311
  121TMC2    C4 1881   1.174   2.350  14.008 -0.5179 -0.8222  0.3365
  121TMC2    C5 1882   1.046   2.318  14.004  0.0146  0.4481 -0.6418
  121TMC2    C6 1883   0.992   2.200  14.050  0.4179 -0.4276  0.5121
  121TMC2     C 1884   1.403   2.267  14.037  0.2392  0.7724  0.2673
  121TMC2     O 1885   1.469   2.216  14.127 -0.0254 -0.2587  0.1663
  121TMC2     H 1886   1.274   2.062  14.148 -0.1324 -0.6403  1.0831
  121TMC2    H1 1887   1.205   2.449  13.979 -2.5620  0.1337  1.4578
  121TMC2    H2 1888   0.885   2.179  14.051  0.7530 -2.1787 -0.6354
  121TMC2    C7 1889   0.959   2.425  13.943  0.1488 -0.3627 -0.8030
  121TMC2    C8 1890   1.029   1.992  14.159  1.0961 -0.6519 -0.5690
  121TMC2    O1 1891   1.011   2.495  13.856  0.0840 -0.1439 -0.4629
  121TMC2    O2 1892   0.918   1.958  14.121 -0.6151 -0.0642  0.3907
  121TMC2    O5 1893   1.126   1.915  14.209  0.0640 -0.4927  0.0180
  121TMC2    H5 1894   1.184   1.970  14.265 -0.0523  1.2670 -1.6070
  122MPD2     C 1895   1.663   2.414  13.990  1.1569  0.6084  0.4035
  122MPD2    C1 1896   1.568   2.387  13.897  0.6764  0.1007  0.1177
  122MPD2    C2 1897   1.599   2.410  13.762 -0.2047 -0.0868 -0.2038
  122MPD2    C3 1898   1.724   2.469  13.732 -0.1910 -0.0012 -0.0335
  122MPD2    C4 1899   1.814   2.499  13.833 -0.7268  0.5588  0.0438
  122MPD2    C5 1900   1.786   2.467  13.961  1.0982 -0.6312  1.0208
  122MPD2     H 1901   1.520   2.390  13.691  1.1632 -0.3648 -1.6358
  122MPD2    H1 1902   1.919   2.521  13.815 -0.5127  1.1435  1.9788
  122MPD2    H2 1903   1.619   2.404  14.089 -1.2041  2.4907 -0.4440
  122MPD2    H3 1904   1.857   2.485  14.041  0.9937 -1.5982  1.3317
  122MPD2     N 1905   1.768   2.498  13.600  0.0399  0.1243 -0.0611
  122MPD2    H5 1906   1.857   2.543  13.581 -0.8506  3.0855  2.7348
  122MPD2    N1 1907   1.438   2.339  13.923 -0.2118 -0.3259  0.4384
  122MPD2    H7 1908   1.363   2.366  13.860 -1.6206  1.0866  2.7561
  123TMC2    C1 1909   4.193   4.564  10.694  0.1660 -0.1353  0.3545
  123TMC2    C2 1910   4.298   4.528  10.770  0.6978  1.1072  1.0196
  123TMC2    C3 1911   4.424   4.538  10.719  0.2667 -0.3767  0.1450
  123TMC2    C4 1912   4.209   4.597  10.566 -0.1013  0.0315 -0.0934
  123TMC2    C5 1913   4.332   4.597  10.506 -0.2916  0.9006 -0.0663
  123TMC2    C6 1914   4.447   4.570  10.583 -0.4671 -0.3167  0.4889
  123TMC2     C 1915   4.067   4.565  10.755  0.1733  0.7112 -1.0876
  123TMC2     O 1916   4.062   4.526  10.870 -0.1614  0.5192  0.4541
  123TMC2     H 1917   4.281   4.472  10.862 -1.8323 -0.4901 -0.3953
  123TMC2    H1 1918   4.119   4.614  10.508 -0.7244  2.7128  1.6378
  123TMC2    H2 1919   4.551   4.576  10.552 -0.4712 -0.7990  0.3856
  123TMC2    C7 1920   4.334   4.574  10.364 -0.3795 -1.2774 -0.7790
  123TMC2    C8 1921   4.530   4.508  10.812  0.0941  0.1475 -0.0555
  123TMC2    O1 1922   4.225   4.542  10.320  0.0730 -0.1578 -0.4812
  123TMC2    O2 1923   4.520   4.545  10.928  0.8303  0.4174 -0.1498
  123TMC2    O5 1924   4.566   4.386  10.775 -0.3094 -0.1504  0.3946
  123TMC2    H5 1925   4.532   4.358  10.688 -0.4568  1.0265  0.0811
  124MPD2     C 1926   3.567   4.650  10.755  0.2393 -0.4719  0.1542
  124MPD2    C1 1927   3.616   4.706  10.640 -0.3285  0.2590 -0.0324
  124MPD2    C2 1928   3.749   4.692  10.620  0.2558  0.1503 -0.3264
  124MPD2    C3 1929   3.835   4.623  10.705 -0.0294 -0.2683  0.5948
  124MPD2    C4 1930   3.782   4.571  10.819 -0.3729  0.7172  0.4773
  124MPD2    C5 1931   3.649   4.593  10.839  0.3092  0.0808  0.1914
  124MPD2     H 1932   3.803   4.730  10.534  0.5822 -0.0514 -0.2054
  124MPD2    H1 1933   3.827   4.509  10.896 -1.9059 -0.4151  0.4634
  124MPD2    H2 1934   3.459   4.655  10.765  0.0870 -0.0595 -1.7398
  124MPD2    H3 1935   3.615   4.543  10.929  1.5500  1.3443  1.3701
  124MPD2     N 1936   3.971   4.616  10.672  0.0572  0.2228 -0.4282
  124MPD2    H5 1937   3.990   4.677  10.593  1.2842  0.5886  0.1503
  124MPD2    N1 1938   3.524   0.016  10.541 -0.2763  0.3360  0.3624
  124MPD2    H7 1939   3.430   0.032  10.575 -0.2047  1.7371 -0.0901
  125TMC2    C1 1940   0.598   2.966   9.309  0.3086 -0.2639 -0.9257
  125TMC2    C2 1941   0.622   2.844   9.369 -0.2484 -0.3833 -0.2185
  125TMC2    C3 1942   0.702   2.747   9.322 -0.1207 -0.0969 -1.0064
  125TMC2    C4 1943   0.662   2.997   9.193 -0.0947  0.3137 -0.0331
  125TMC2    C5 1944   0.746   2.898   9.144 -0.6787  0.4376  0.3934
  125TMC2    C6 1945   0.768   2.772   9.207 -0.4013 -0.0347  0.7950
  125TMC2     C 1946   0.491   3.048   9.365  0.7772 -0.5925  0.2624
  125TMC2     O 1947   0.435   3.007   9.466 -0.6019 -0.3905  0.0098
  125TMC2     H 1948   0.575   2.830   9.466  1.1314  0.7715  0.6148
  125TMC2    H1 1949   0.632   3.086   9.138 -2.7339  2.2249  4.4532
  125TMC2    H2 1950   0.834   2.699   9.162 -0.8607  0.7594 -1.1706
  125TMC2    C7 1951   0.796   2.914   9.012  0.3893  0.2827  0.0262
  125TMC2    C8 1952   0.670   2.608   9.348  0.2158  0.2254 -0.1834
  125TMC2    O1 1953   0.747   3.005   8.946  0.3872 -0.2531  0.4170
  125TMC2    O2 1954   0.745   2.514   9.308  0.1537  0.6834 -0.0534
  125TMC2    O5 1955   0.532   2.605   9.341  0.2767  0.3220 -0.2939
  125TMC2    H5 1956   0.489   2.693   9.342 -0.6073 -0.0951 -0.7082
  126MPD1     C 1957   0.242   3.505   9.427  0.2215  0.1361 -0.6057
  126MPD1    C1 1958   0.280   3.491   9.292  0.3233 -0.1344  0.0157
  126MPD1    C2 1959   0.359   3.383   9.251 -0.6518 -0.7925 -0.2628
  126MPD1    C3 1960   0.379   3.278   9.331  1.0813  1.0409 -0.0113
  126MPD1    C4 1961   0.328   3.287   9.460  0.0741 -1.0085  0.2428
  126MPD1    C5 1962   0.269   3.399   9.508 -0.0842  0.4068 -0.0698
  126MPD1     H 1963   0.404   3.386   9.152  1.0104  2.3849  0.5723
  126MPD1    H1 1964   0.347   3.203   9.526 -0.5165 -0.2689  1.3465
  126MPD1    H2 1965   0.204   3.599   9.467 -4.1559 -2.6214  1.6932
  126MPD1    H3 1966   0.246   3.403   9.613  1.4919  3.2097  0.1704
  126MPD1     N 1967   0.458   3.168   9.290 -0.0736 -0.4281 -0.0164
  126MPD1    H5 1968   0.504   3.185   9.201  0.8473  2.0230  0.9119
  126MPD1    N1 1969   0.270   3.608   9.206 -0.3805  0.1169 -0.4419
  126MPD1    H6 1970   0.188   3.667   9.217 -1.1314 -1.0939  0.4453
  126MPD1    H7 1971   0.273   3.586   9.106  0.9933  2.3366 -0.8880
  127TMC2    C1 1972   0.838   1.161   9.919  0.5624  0.4226  0.1651
  127TMC2    C2 1973   0.904   1.116  10.032  0.4149  0.6073  0.0330
  127TMC2    C3 1974   0.830   1.039  10.118 -0.0695 -0.2606 -0.2902
  127TMC2    C4 1975   0.703   1.137   9.890  0.3984  0.4268  0.2253
  127TMC2    C5 1976   0.639   1.054   9.988 -0.2969  0.9006 -0.0956
  127TMC2    C6 1977   0.697   1.017  10.103 -0.0003 -0.4748 -0.1937
  127TMC2     C 1978   0.923   1.241   9.824  0.2530 -0.1578  0.8165
  127TMC2     O 1979   1.039   1.259   9.858 -0.0536 -0.7758 -0.3443
  127TMC2     H 1980   1.007   1.146  10.048  0.9400 -0.2470 -1.7689
  127TMC2    H1 1981   0.643   1.183   9.813  0.8136 -1.3021 -1.1187
  127TMC2    H2 1982   0.643   0.970  10.185 -0.6945  0.5690 -0.0569
  127TMC2    C7 1983   0.500   1.021   9.958 -0.2010 -0.3978  0.6160
  127TMC2    C8 1984   0.899   0.995  10.241 -0.5157 -0.1234 -0.3859
  127TMC2    O1 1985   0.446   1.093   9.878  0.4023 -0.1524  0.3675
  127TMC2    O2 1986   1.010   0.933  10.237 -0.0239  0.1394 -0.0521
  127TMC2    O5 1987   0.832   1.017  10.351  0.2784 -0.3660  0.2973
  127TMC2    H5 1988   0.754   1.073  10.333  1.3505  0.9170 -0.4046
  128MPD2     C 1989   0.852   1.349   9.477  0.1653  1.1962  0.0679
  128MPD2    C1 1990   0.921   1.341   9.598  0.2643  0.8824  0.2753
  128MPD2    C2 1991   1.045   1.408   9.610  0.4655 -0.6396  0.0636
  128MPD2    C3 1992   1.090   1.484   9.504 -0.2272  0.4477  0.1845
  128MPD2    C4 1993   1.027   1.485   9.383 -0.1256  0.5498 -0.0731
  128MPD2    C5 1994   0.914   1.410   9.370 -0.1897 -0.9743  0.3743
  128MPD2     H 1995   1.111   1.400   9.697  0.6734 -1.7681 -0.1961
  128MPD2    H1 1996   1.059   1.539   9.295  1.9267 -0.8461 -0.1783
  128MPD2    H2 1997   0.765   1.287   9.457  1.3525 -0.6795  0.8299
  128MPD2    H3 1998   0.860   1.411   9.277 -0.7029  0.6518  0.6871
  128MPD2     N 1999   1.205   1.565   9.532  0.9370 -0.2716 -0.1777
  128MPD2    H5 2000   1.228   1.574   9.630  0.9406  0.2125 -0.2254
  128MPD2    N1 2001   0.863   1.264   9.707  0.0571 -0.5787 -0.5354
  128MPD2    H7 2002   0.772   1.222   9.691  0.0226 -1.2128  1.3538
  129TMC2    C1 2003   0.250   1.212   1.645 -0.2245  0.2923  0.7427
  129TMC2    C2 2004   0.380   1.203   1.679 -0.0052 -0.0927 -0.0975
  129TMC2    C3 2005   0.432   1.077   1.672 -0.9012 -0.1997  0.0974
  129TMC2    C4 2006   0.168   1.107   1.630 -0.7675 -0.5744  0.2182
  129TMC2    C5 2007   0.222   0.978   1.642  0.4458  0.3740  0.1192
  129TMC2    C6 2008   0.360   0.964   1.650  0.3904  0.2713  0.2312
  129TMC2     C 2009   0.202   1.348   1.620  0.1949 -0.1267  0.6489
  129TMC2     O 2010   0.083   1.371   1.614 -0.1671  0.3821  0.1790
  129TMC2     H 2011   0.451   1.283   1.695 -0.3748  0.1285  0.4403
  129TMC2    H1 2012   0.061   1.117   1.614 -0.5839  0.3661 -0.4047
  129TMC2    H2 2013   0.413   0.872   1.627  0.9252  0.6241  0.0424
  129TMC2    C7 2014   0.134   0.865   1.607 -0.2470  0.5735 -0.4702
  129TMC2    C8 2015   0.578   1.071   1.685 -0.1692 -0.2369  0.7043
  129TMC2    O1 2016   0.019   0.893   1.583 -0.2193  0.2886  0.1596
  129TMC2    O2 2017   0.643   0.980   1.635  0.1496 -0.4640  0.1440
  129TMC2    O5 2018   0.602   1.127   1.809  0.4000 -0.1392 -0.2624
  129TMC2    H5 2019   0.524   1.179   1.837  1.4927  0.4772  1.5984
  130MPD2     C 2020   0.172   1.640   1.566  1.0274  0.4135  0.0194
  130MPD2    C1 2021   0.281   1.560   1.532  0.0291 -0.8991 -0.3034
  130MPD2    C2 2022   0.382   1.621   1.466 -0.7540 -0.0727  0.3715
  130MPD2    C3 2023   0.375   1.749   1.417  0.6848 -0.2066 -0.6165
  130MPD2    C4 2024   0.263   1.822   1.447 -0.7801  0.5395 -0.2910
  130MPD2    C5 2025   0.157   1.766   1.513  0.3234 -0.4374  0.5819
  130MPD2     H 2026   0.471   1.561   1.451 -1.8079 -2.3133  3.0247
  130MPD2    H1 2027   0.250   1.925   1.414 -0.6486  0.4438 -0.6453
  130MPD2    H2 2028   0.088   1.605   1.624  1.6685  0.6189  1.0724
  130MPD2    H3 2029   0.063   1.815   1.534  1.6840  3.0528 -1.6565
  130MPD2     N 2030   0.491   1.798   1.351  0.1788  0.4091  0.2006
  130MPD2    H5 2031   0.560   1.729   1.322 -0.0329  0.5085 -0.5312
  130MPD2    N1 2032   0.299   1.427   1.566 -0.0378 -0.2227  0.1323
  130MPD2    H7 2033   0.394   1.391   1.561 -0.8827 -2.1785 -1.5959
  131TMC2    C1 2034   3.635   1.056  10.217  0.2867 -0.2830 -0.5399
  131TMC2    C2 2035   3.539   1.144  10.174 -0.2854 -0.4245  0.2301
  131TMC2    C3 2036   3.576   1.275  10.176  0.1458  0.2152  0.3185
  131TMC2    C4 2037   3.763   1.094  10.253  0.4882 -0.4068 -0.3412
  131TMC2    C5 2038   3.799   1.226  10.242  0.2186  0.6487 -0.3117
  131TMC2    C6 2039   3.703   1.320  10.212  0.4428 -1.1507 -0.2853
  131TMC2     C 2040   3.608   0.913  10.193 -0.5277  0.2412  0.2331
  131TMC2     O 2041   3.661   0.833  10.269  0.1610  0.2449 -0.4622
  131TMC2     H 2042   3.445   1.108  10.133 -0.1721  0.0422 -0.4267
  131TMC2    H1 2043   3.837   1.016  10.268  1.6635  0.6904 -0.3946
  131TMC2    H2 2044   3.725   1.426  10.211  0.3091 -1.1061  1.2461
  131TMC2    C7 2045   3.930   1.254  10.191 -0.3646 -0.1264  0.1265
  131TMC2    C8 2046   3.474   1.374  10.157  0.5936  0.1170  0.7884
  131TMC2    O1 2047   3.977   1.159  10.130 -0.2123  0.7389  0.2425
  131TMC2    O2 2048   3.481   1.493  10.187 -0.3584 -0.0466 -0.2442
  131TMC2    O5 2049   3.391   1.325  10.063 -0.9390  0.0393  0.1750
  131TMC2    H5 2050   3.330   1.399  10.042 -1.5658 -0.9433 -1.5968
  132MPD2     C 2051   3.462   0.783   9.885  0.5387  0.5319  0.3512
  132MPD2    C1 2052   3.511   0.768  10.008  0.4035 -0.8956  0.3641
  132MPD2    C2 2053   3.500   0.649  10.078  0.1525  0.1627  0.2634
  132MPD2    C3 2054   3.446   0.537  10.018 -0.0853  1.4781  0.4791
  132MPD2    C4 2055   3.379   0.565   9.892  0.0908 -0.9818  0.7311
  132MPD2    C5 2056   3.398   0.682   9.820 -0.5107  0.5436  0.2730
  132MPD2     H 2057   3.533   0.641  10.181 -0.1192 -1.0246  0.2607
  132MPD2    H1 2058   3.356   0.484   9.825  0.6356 -0.5489  0.0176
  132MPD2    H2 2059   3.484   0.873   9.830  3.4225 -0.0454  0.5585
  132MPD2    H3 2060   3.392   0.677   9.711 -2.7251 -0.4166  0.4453
  132MPD2     N 2061   3.448   0.415  10.089  0.5587 -0.9231 -0.7680
  132MPD2    H5 2062   3.496   0.413  10.178  0.4488  2.5073 -0.6411
  132MPD2    N1 2063   3.562   0.887  10.064  0.3033 -0.1699 -0.4405
  132MPD2    H7 2064   3.547   0.963   9.997  2.7570 -0.2384 -1.0815
  133TMC2    C1 2065   3.440   2.227   9.624  0.1345 -0.1061  0.2885
  133TMC2    C2 2066   3.466   2.346   9.681 -0.1821 -0.2026  0.0003
  133TMC2    C3 2067   3.592   2.386   9.698  0.3868 -0.2397  0.4979
  133TMC2    C4 2068   3.537   2.147   9.571  0.8083  0.1887 -0.7429
  133TMC2    C5 2069   3.672   2.186   9.593  0.7066  0.6870  0.1869
  133TMC2    C6 2070   3.704   2.312   9.651  0.0676 -0.1644 -0.1983
  133TMC2     C 2071   3.305   2.175   9.627  0.3501  0.1357  0.9421
  133TMC2     O 2072   3.292   2.066   9.575 -0.3698 -0.6347 -0.3272
  133TMC2     H 2073   3.382   2.408   9.710  0.4456  0.2188  0.9256
  133TMC2    H1 2074   3.512   2.047   9.536 -0.7995  0.5372 -0.5725
  133TMC2    H2 2075   3.804   2.352   9.659  1.0696 -2.4097 -1.5925
  133TMC2    C7 2076   3.772   2.130   9.509  1.1060 -0.5774 -0.1611
  133TMC2    C8 2077   3.628   2.514   9.757  0.8594  0.3904  0.2354
  133TMC2    O1 2078   3.843   2.205   9.449  0.1568  0.1175 -0.4161
  133TMC2    O2 2079   3.710   2.583   9.704 -0.3836 -0.3513 -0.4188
  133TMC2    O5 2080   3.537   2.549   9.847  0.3085  0.5005  0.2327
  133TMC2    H5 2081   3.497   2.464   9.876  3.4115 -0.9859  0.1588
  134MPD2     C 2082   2.994   2.286   9.787  0.1794 -0.2330 -0.6113
  134MPD2    C1 2083   3.077   2.196   9.735 -0.2376 -0.5098 -0.4324
  134MPD2    C2 2084   3.028   2.073   9.706  0.0771  0.2192 -0.5711
  134MPD2    C3 2085   2.895   2.038   9.735 -0.0659 -0.5256  0.5312
  134MPD2    C4 2086   2.809   2.135   9.775 -0.2377  0.0043  1.3739
  134MPD2    C5 2087   2.863   2.253   9.809 -0.6029 -0.7674  0.6154
  134MPD2     H 2088   3.100   2.005   9.662  0.5366  0.3997 -0.1003
  134MPD2    H1 2089   2.706   2.107   9.795 -0.4331 -1.0725 -1.1377
  134MPD2    H2 2090   3.016   2.391   9.805 -1.1588  0.4810 -3.2647
  134MPD2    H3 2091   2.788   2.330   9.825  0.3826  0.2055  0.5978
  134MPD2     N 2092   2.840   1.910   9.711  0.2662  0.0343  0.0078
  134MPD2    H5 2093   2.739   1.908   9.701 -0.1151 -3.0120  4.2928
  134MPD2    N1 2094   3.215   2.245   9.702  0.5754 -0.0213 -0.1913
  134MPD2    H7 2095   3.236   2.344   9.712 -0.7858 -0.1443  3.6931
  135TMC2    C1 2096   0.610   3.099   9.813  0.1365 -0.1247 -0.0067
  135TMC2    C2 2097   0.572   3.123   9.942  0.1527  0.6280 -0.1920
  135TMC2    C3 2098   0.540   3.020  10.022  0.2674 -0.1498 -0.2644
  135TMC2    C4 2099   0.613   2.968   9.766  0.1577 -1.0424  0.2389
  135TMC2    C5 2100   0.585   2.864   9.850  0.8434  1.0136 -0.9122
  135TMC2    C6 2101   0.545   2.887   9.977  0.1413  0.0666 -0.6034
  135TMC2     C 2102   0.634   3.212   9.724 -0.0534  0.0137  0.0755
  135TMC2     O 2103   0.590   3.318   9.763 -0.0266 -0.0900 -0.5260
  135TMC2     H 2104   0.575   3.224   9.982 -0.6299  1.2106 -1.6223
  135TMC2    H1 2105   0.623   2.942   9.661  1.7113  0.5169  0.0021
  135TMC2    H2 2106   0.507   2.806  10.039  2.1440 -0.1465  0.3312
  135TMC2    C7 2107   0.578   2.726   9.792  0.4021  0.9937 -0.7305
  135TMC2    C8 2108   0.451   3.058  10.123  0.4216 -0.1501  0.1836
  135TMC2    O1 2109   0.656   2.715   9.698 -0.3006 -0.3896  0.8192
  135TMC2    O2 2110   0.466   3.158  10.186  0.1907  0.5167 -0.1921
  135TMC2    O5 2111   0.351   2.964  10.119  0.0505 -0.0195 -0.4544
  135TMC2    H5 2112   0.340   2.938  10.025  1.3657 -0.7330 -0.4103
  136MPD2     C 2113   0.662   3.407   9.499 -0.0981 -0.4208 -0.3425
  136MPD2    C1 2114   0.713   3.279   9.495 -0.1422 -1.1812 -0.1917
  136MPD2    C2 2115   0.783   3.239   9.389 -0.0790 -0.4299  0.4522
  136MPD2    C3 2116   0.817   3.327   9.287  0.4861  0.6445 -0.1336
  136MPD2    C4 2117   0.765   3.456   9.288  0.2441 -0.6715 -0.1635
  136MPD2    C5 2118   0.690   3.492   9.398 -0.3856  0.1187 -0.8200
  136MPD2     H 2119   0.814   3.136   9.402 -0.3443 -0.6814 -0.9306
  136MPD2    H1 2120   0.790   3.529   9.211 -0.9589  0.4129  0.4685
  136MPD2    H2 2121   0.610   3.441   9.588 -1.0148 -0.3747 -0.9049
  136MPD2    H3 2122   0.643   3.589   9.405 -1.5478 -0.5009  0.1220
  136MPD2     N 2123   0.906   3.306   9.181 -0.2005  0.0350 -0.2332
  136MPD2    H5 2124   0.917   3.386   9.120 -0.2312 -0.8115 -1.3568
  136MPD2    N1 2125   0.706   3.194   9.608 -0.3924  0.2578 -0.2834
  136MPD2    H7 2126   0.747   3.102   9.596  2.3036  1.1903  1.9497
  137TMC2    C1 2127   0.195   2.104   9.266  0.3545  0.0067 -0.4554
  137TMC2    C2 2128   0.295   2.153   9.189 -0.2254 -0.0152  0.8546
  137TMC2    C3 2129   0.317   2.285   9.194  0.2065 -0.1794  0.1304
  137TMC2    C4 2130   0.112   2.176   9.347  0.0030  0.5181  0.6697
  137TMC2    C5 2131   0.136   2.312   9.348 -0.4860  0.5018  0.5447
  137TMC2    C6 2132   0.238   2.363   9.271 -0.5942 -0.2410  0.4663
  137TMC2     C 2133   0.161   1.966   9.247  0.3211  0.0657 -0.0760
  137TMC2     O 2134   0.107   1.924   9.353 -0.4773  0.1279 -0.0841
  137TMC2     H 2135   0.348   2.089   9.119  1.4679  1.9493  0.3407
  137TMC2    H1 2136   0.027   2.135   9.402  0.1463  1.2731  1.4650
  137TMC2    H2 2137   0.273   2.465   9.283 -0.8778 -0.1764  0.7553
  137TMC2    C7 2138   0.053   2.408   9.417 -0.0094 -0.0725 -0.0705
  137TMC2    C8 2139   0.427   2.346   9.129 -0.1905  0.0950  0.2624
  137TMC2    O1 2140   0.068   2.527   9.394  0.1747 -0.2785  0.4545
  137TMC2    O2 2141   0.520   2.277   9.091  0.0443 -0.4131  0.5545
  137TMC2    O5 2142   0.382   2.461   9.066  0.3055  0.2463  0.0211
  137TMC2    H5 2143   0.296   2.494   9.099  0.2280 -2.3738  2.4090
  138MPD2     C 2144   0.105   1.769   8.939 -0.4503  0.2302  0.4325
  138MPD2    C1 2145   0.118   1.803   9.073 -0.2326 -0.1496  0.6557
  138MPD2    C2 2146   0.086   1.702   9.160 -0.4469 -0.1033  0.3779
  138MPD2    C3 2147   0.047   1.579   9.118 -0.0241 -0.1306  0.4490
  138MPD2    C4 2148   0.052   1.542   8.984 -0.7300  0.8045  0.2249
  138MPD2    C5 2149   0.082   1.639   8.892  0.1725  0.2574  0.4672
  138MPD2     H 2150   0.097   1.725   9.265 -0.9125  0.0795  0.3843
  138MPD2    H1 2151   0.014   1.447   8.947  0.5242  0.4201 -0.0712
  138MPD2    H2 2152   0.132   1.835   8.857  0.1529 -0.2969  0.1936
  138MPD2    H3 2153   0.089   1.616   8.787 -2.9679  0.9395  0.1028
  138MPD2     N 2154   0.010   1.488   9.218  0.3825  0.2073 -0.6762
  138MPD2    H5 2155   0.009   1.521   9.314 -0.6409  2.1360 -1.3365
  138MPD2    N1 2156   0.164   1.927   9.115  0.2226  0.2783 -0.7200
  138MPD2    H7 2157   0.191   1.998   9.047  0.9812 -2.4275 -3.2135
  139TMC2    C1 2158   1.257   0.751  13.870 -0.4069  0.0435 -0.4451
  139TMC2    C2 2159   1.328   0.803  13.980 -0.2779  0.1630  0.3392
  139TMC2    C3 2160   1.259   0.881  14.073 -0.3435  0.2509 -0.0801
  139TMC2    C4 2161   1.129   0.788  13.850  0.2810 -0.1469  0.2192
  139TMC2    C5 2162   1.078   0.883  13.932 -0.9088 -0.7297  0.3698
  139TMC2    C6 2163   1.135   0.929  14.050  0.3098 -0.6325  0.0095
  139TMC2     C 2164   1.315   0.631  13.814 -0.5050 -0.0947 -0.2998
  139TMC2     O 2165   1.438   0.623  13.817  0.4648  0.1537 -0.7836
  139TMC2     H 2166   1.435   0.791  13.996 -0.4167 -0.4891  0.7956
  139TMC2    H1 2167   1.069   0.755  13.766 -0.7533  1.4910  0.3081
  139TMC2    H2 2168   1.101   1.013  14.109  0.8201 -0.6102  0.2718
  139TMC2    C7 2169   0.964   0.962  13.894 -0.3183  0.2098 -0.1475
  139TMC2    C8 2170   1.334   0.926  14.188  0.0462 -0.0661 -0.1596
  139TMC2    O1 2171   0.925   1.028  13.991  0.2615 -0.5165  0.1927
  139TMC2    O2 2172   1.455   0.953  14.189 -0.5734  0.6576 -0.3723
  139TMC2    O5 2173   1.248   0.973  14.282 -0.1563 -0.0973 -0.8992
  139TMC2    H5 2174   1.162   0.928  14.292  0.2819 -1.1536 -1.9660
  140MPD2     C 2175   1.144   0.322  13.702 -0.0234  0.5593 -0.5192
  140MPD2    C1 2176   1.244   0.409  13.724  0.2615 -0.5064 -0.6524
  140MPD2    C2 2177   1.372   0.359  13.705 -0.0015 -0.7432  0.2097
  140MPD2    C3 2178   1.397   0.229  13.666 -0.0554 -0.0394  0.2070
  140MPD2    C4 2179   1.295   0.144  13.648  0.6365 -0.2262 -0.0180
  140MPD2    C5 2180   1.173   0.189  13.665 -0.5897  0.3390  0.2166
  140MPD2     H 2181   1.461   0.422  13.701 -0.5031  0.0397  1.6651
  140MPD2    H1 2182   1.304   0.040  13.618 -0.8740  0.0866 -1.5420
  140MPD2    H2 2183   1.041   0.353  13.719 -0.6600 -1.1265 -1.2987
  140MPD2    H3 2184   1.092   0.118  13.652  0.4769 -0.7519 -0.5511
  140MPD2     N 2185   1.532   0.200  13.638  0.1119  0.0674 -0.4978
  140MPD2    H5 2186   1.602   0.270  13.660 -1.5052  1.3206  0.6937
  140MPD2    N1 2187   1.216   0.539  13.779  0.3385  0.9616  0.7757
  140MPD2    H7 2188   1.119   0.559  13.803 -0.1965 -0.9045  0.1955
  141TMC2    C1 2189   2.153   1.294  14.466  0.4003  1.0676  0.0845
  141TMC2    C2 2190   2.091   1.206  14.551 -0.0922 -0.2740  0.0174
  141TMC2    C3 2191   2.082   1.247  14.679 -0.9731 -0.0655 -0.1820
  141TMC2    C4 2192   2.200   1.420  14.501  0.2852 -0.4526  0.4336
  141TMC2    C5 2193   2.181   1.459  14.629 -0.1945  0.2995  0.1457
  141TMC2    C6 2194   2.131   1.369  14.719  0.4012  0.0493 -0.2459
  141TMC2     C 2195   2.118   1.290  14.329 -0.4382 -0.2790  0.3282
  141TMC2     O 2196   2.182   1.360  14.256  0.1832 -0.3544  0.1548
  141TMC2     H 2197   2.074   1.101  14.526 -0.1110 -0.3179  0.2132
  141TMC2    H1 2198   2.260   1.474  14.428 -0.2586  1.8258  1.6575
  141TMC2    H2 2199   2.113   1.395  14.823  0.0282  0.5497 -0.4372
  141TMC2    C7 2200   2.208   1.592  14.672  0.4205  0.4890 -0.0503
  141TMC2    C8 2201   2.025   1.159  14.783 -0.1803  0.6539  0.7102
  141TMC2    O1 2202   2.208   1.605  14.795  0.5197  0.2766 -0.0854
  141TMC2    O2 2203   2.064   1.171  14.896 -0.4888 -0.1136  0.0965
  141TMC2    O5 2204   1.956   1.060  14.730 -0.2304 -0.0616 -0.0332
  141TMC2    H5 2205   1.901   1.079  14.651  1.7978  0.8976 -1.2301
  142TMC2    C1 2206   3.985   4.045   9.818  0.9612 -1.0225 -0.1887
  142TMC2    C2 2207   4.036   3.981   9.711 -0.1866  0.1408  0.7741
  142TMC2    C3 2208   4.178   3.973   9.710 -0.2569 -0.4527  0.1748
  142TMC2    C4 2209   4.055   4.137   9.892  0.3910 -0.0662 -0.0613
  142TMC2    C5 2210   4.190   4.147   9.875 -0.0145 -0.3116  0.0022
  142TMC2    C6 2211   4.257   4.063   9.785 -0.3773 -0.0805  0.8662
  142TMC2     C 2212   3.846   4.038   9.830  0.3972  0.1563 -0.8427
  142TMC2     O 2213   3.779   4.008   9.731  0.6176 -0.5846  0.0160
  142TMC2     H 2214   3.965   3.931   9.646  0.0525 -2.4634  2.5173
  142TMC2    H1 2215   4.005   4.209   9.956 -2.2929 -1.8148 -0.1890
  142TMC2    H2 2216   4.365   4.066   9.782 -0.3916 -2.3529 -2.3324
  142TMC2    C7 2217   4.267   4.206   9.978  0.5239  0.3294 -0.3129
  142TMC2    C8 2218   4.241   3.922   9.593  0.1520 -0.4754 -0.5944
  142TMC2    O1 2219   4.215   4.233  10.086  0.2233 -0.5799 -0.2369
  142TMC2    O2 2220   4.344   3.971   9.550  0.1130 -0.0778  0.9480
  142TMC2    O5 2221   4.154   3.855   9.515  0.3010  0.0850  0.0480
  142TMC2    H5 2222   4.075   3.819   9.561 -0.2645  0.7397 -0.4097
  143MPD2     C 2223   3.404   4.101  10.108  0.7919 -0.1623 -0.1338
  143MPD2    C1 2224   3.417   4.085   9.969 -0.1103  0.1760  0.5566
  143MPD2    C2 2225   3.554   4.079   9.918  1.2090  0.6795  0.0555
  143MPD2    C3 2226   3.665   4.055  10.005  0.1648  0.6043 -0.2956
  143MPD2    C4 2227   3.645   4.064  10.141  0.3675  0.1891  0.4940
  143MPD2    C5 2228   3.515   4.084  10.187 -0.0395 -1.2546 -1.2729
  143MPD2     H 2229   3.588   4.072   9.815  0.7932  1.6942 -0.1541
  143MPD2    H1 2230   3.727   4.046  10.209  0.4684 -1.7962 -0.1559
  143MPD2    H2 2231   3.308   4.127  10.153  0.0980  2.3662 -3.0027
  143MPD2    H3 2232   3.502   4.087  10.294  0.1351  0.5529 -1.3001
  143MPD2     N 2233   3.800   4.037   9.957  0.3178  0.3346  0.1588
  143MPD2    H5 2234   3.872   4.038  10.029  0.7488  0.0228 -0.2653
  143MPD2    N1 2235   3.306   4.092   9.890  0.6200 -0.1777 -0.2047
  143MPD2    H7 2236   3.216   4.111   9.933 -0.0515 -1.1687 -1.1532
  144TMC2    C1 2237   2.708   3.490   0.942 -0.0288 -0.3581  0.1774
  144TMC2    C2 2238   2.780   3.373   0.927 -0.1318  0.4250  0.0708
  144TMC2    C3 2239   2.905   3.364   0.982 -0.3883  0.3537 -0.1325
  144TMC2    C4 2240   2.756   3.600   1.001  0.0216 -0.5280 -0.2620
  144TMC2    C5 2241   2.887   3.592   1.042  0.3055  0.0375 -0.5248
  144TMC2    C6 2242   2.962   3.475   1.042 -0.0732  0.2668  0.2969
  144TMC2     C 2243   2.624   3.505   0.826  0.3276  0.3796 -0.3404
  144TMC2     O 2244   2.617   3.408   0.755 -0.3106 -0.7273 -0.3944
  144TMC2     H 2245   2.734   3.284   0.885  1.0729 -0.2228  0.0985
  144TMC2    H1 2246   2.697   3.689   1.023 -0.5047 -1.1058  0.6369
  144TMC2    H2 2247   3.065   3.482   1.075  0.3880 -0.5381 -0.9890
  144TMC2    C7 2248   2.954   3.696   1.125  0.3239  0.1805  0.2837
  144TMC2    C8 2249   2.972   3.239   0.954  0.0578 -1.1954  0.1584
  144TMC2    O1 2250   3.076   3.681   1.154 -0.0143  0.7097 -0.4037
  144TMC2    O2 2251   2.961   3.177   0.844  0.5663  0.4374 -0.9145
  144TMC2    O5 2252   3.071   3.226   1.049 -0.4203 -0.0039 -0.6107
  144TMC2    H5 2253   3.058   3.279   1.131  0.5633 -1.3142  0.3901
  145MPD2     C 2254   2.261   3.735   0.546 -0.1116  1.4113  0.5691
  145MPD2    C1 2255   2.332   3.616   0.523  0.4063 -0.5920 -0.3721
  145MPD2    C2 2256   2.430   3.575   0.615 -0.0420  0.1143 -0.5296
  145MPD2    C3 2257   2.452   3.651   0.729 -0.3006  0.1574 -0.0748
  145MPD2    C4 2258   2.395   3.775   0.754  0.0921  1.1482 -0.3903
  145MPD2    C5 2259   2.306   3.815   0.654  0.9494  0.7066 -0.1665
  145MPD2     H 2260   2.464   3.472   0.616  0.6254  0.3394  0.3620
  145MPD2    H1 2261   2.409   3.837   0.842  0.4863  0.0600  0.3178
  145MPD2    H2 2262   2.174   3.758   0.487  1.0435  0.1347 -1.6249
  145MPD2    H3 2263   2.243   3.902   0.669  2.1444  1.3956  0.8935
  145MPD2     N 2264   2.540   3.615   0.828  0.0147 -0.7306 -0.6306
  145MPD2    H5 2265   2.557   3.675   0.908 -0.0299 -0.0752 -1.1161
  145MPD2    N1 2266   2.303   3.516   0.426  0.1128  0.1354 -0.2283
  145MPD2    H7 2267   2.347   3.425   0.434  1.0230  0.5679 -0.2666
  146TMC2    C1 2268   3.250   2.982  12.679  0.3134  0.1073 -0.1871
  146TMC2    C2 2269   3.179   2.860  12.704  0.1226 -0.0412  0.4925
  146TMC2    C3 2270   3.182   2.758  12.615  0.3538  0.3968 -0.4702
  146TMC2    C4 2271   3.332   2.983  12.566  0.1885 -0.4484  0.0510
  146TMC2    C5 2272   3.327   2.874  12.485  0.6933  0.4447  0.4128
  146TMC2    C6 2273   3.253   2.761  12.504 -0.2817 -0.2335  0.4090
  146TMC2     C 2274   3.294   3.058  12.784 -0.5136  0.2431  0.2893
  146TMC2     O 2275   3.302   3.177  12.770  0.2235 -0.0033  0.0102
  146TMC2     H 2276   3.127   2.850  12.799  2.0132 -0.8134  1.4396
  146TMC2    H1 2277   3.387   3.074  12.542 -0.2912  0.0101  0.6674
  146TMC2    H2 2278   3.255   2.679  12.433 -2.9235  1.4136 -1.5688
  146TMC2    C7 2279   3.427   2.879  12.375  0.2737 -0.8965 -0.6255
  146TMC2    C8 2280   3.089   2.646  12.621 -0.3939 -0.0261 -0.0366
  146TMC2    O1 2281   3.418   2.975  12.301  0.2060  0.1021  0.8634
  146TMC2    O2 2282   3.104   2.545  12.555  0.4837  0.3295 -0.2889
  146TMC2    O5 2283   2.979   2.683  12.693 -0.5263  0.1635 -0.0341
  146TMC2    H5 2284   2.994   2.777  12.718 -2.9373  1.3104 -2.8984
  147MPD2     C 2285   3.833   2.677  12.147 -0.6958  0.5951 -1.0185
  147MPD2    C1 2286   3.805   2.605  12.258 -0.6563 -0.7484  0.5983
  147MPD2    C2 2287   3.682   2.625  12.321  0.1929 -0.4465 -0.2524
  147MPD2    C3 2288   3.609   2.736  12.284  1.3611  0.6079  0.0988
  147MPD2    C4 2289   3.639   2.812  12.167  0.3455 -0.3298 -0.4008
  147MPD2    C5 2290   3.751   2.773  12.099 -0.4808  0.9432 -0.0877
  147MPD2     H 2291   3.642   2.574  12.408  0.0910  1.5668  0.8627
  147MPD2    H1 2292   3.573   2.888  12.127 -3.3608 -1.7639  2.9754
  147MPD2    H2 2293   3.918   2.660  12.082 -0.0498 -3.3526  0.9114
  147MPD2    H3 2294   3.788   2.826  12.012  1.5616  4.1917  2.7373
  147MPD2     N 2295   3.500   2.767  12.371 -0.7554  0.4914 -1.0066
  147MPD2    H5 2296   3.487   2.697  12.444  0.1370  0.4420 -0.8906
  147MPD2    N1 2297   3.893   2.507  12.305  0.0016 -0.1727  0.1497
  147MPD2    H7 2298   3.984   2.504  12.261  0.1643  1.5198  0.3633
  148TMC2    C1 2299   3.267   1.486  10.504  0.6166 -0.5012 -0.4377
  148TMC2    C2 2300   3.371   1.544  10.573  0.0963 -0.3215 -0.4879
  148TMC2    C3 2301   3.478   1.463  10.605 -0.2206  0.3200  0.4705
  148TMC2    C4 2302   3.263   1.350  10.477  0.3797 -0.2244 -0.2577
  148TMC2    C5 2303   3.371   1.276  10.519  0.1777  0.3921 -0.0912
  148TMC2    C6 2304   3.480   1.327  10.576 -0.1707  0.1889  0.1451
  148TMC2     C 2305   3.143   1.572  10.482  0.3030 -0.1417  0.4440
  148TMC2     O 2306   3.155   1.692  10.497 -0.5195  0.6779 -0.2311
  148TMC2     H 2307   3.367   1.650  10.597  0.2396  0.2263 -2.8982
  148TMC2    H1 2308   3.178   1.305  10.427  0.5544 -0.9713  0.1141
  148TMC2    H2 2309   3.567   1.272  10.610 -2.0099 -2.4672  0.5644
  148TMC2    C7 2310   3.373   1.133  10.475 -0.6150  0.2568  0.3267
  148TMC2    C8 2311   3.596   1.515  10.664 -0.3161  0.6791 -0.2429
  148TMC2    O1 2312   3.313   1.104  10.371  0.2548  0.1244  0.1568
  148TMC2    O2 2313   3.709   1.471  10.645  0.1790 -0.0181  0.3526
  148TMC2    O5 2314   3.563   1.615  10.748 -0.0600 -0.2936 -0.5373
  148TMC2    H5 2315   3.468   1.628  10.765 -0.0046 -0.2918 -0.2300
  149MPD2     C 2316   2.863   1.678  10.437  0.4187 -0.1598  0.1787
  149MPD2    C1 2317   2.905   1.548  10.417 -0.0535 -0.0078 -0.5772
  149MPD2    C2 2318   2.816   1.450  10.377  0.2415 -0.0156 -0.0176
  149MPD2    C3 2319   2.686   1.483  10.352  0.5978 -0.0328  0.7193
  149MPD2    C4 2320   2.647   1.616  10.364 -0.2492 -0.2429  1.2201
  149MPD2    C5 2321   2.734   1.708  10.405 -0.2341  0.0514  0.5394
  149MPD2     H 2322   2.860   1.351  10.370  0.1753 -0.1898  2.2079
  149MPD2    H1 2323   2.543   1.640  10.348  0.1512  0.1623 -0.7899
  149MPD2    H2 2324   2.922   1.762  10.470 -1.9344  0.6035  2.4229
  149MPD2    H3 2325   2.717   1.815  10.410  2.7550  0.5272  0.7106
  149MPD2     N 2326   2.595   1.385  10.299  0.5594  0.2686  0.2295
  149MPD2    H5 2327   2.506   1.416  10.261  0.1015 -1.2192  0.0853
  149MPD2    N1 2328   3.036   1.499  10.438 -0.3400 -0.3479  0.0407
  149MPD2    H7 2329   3.045   1.400  10.423 -3.3136 -0.4736 -0.9550
  150TMC2    C1 2330   0.670   0.497  12.051  0.5729 -0.4452 -0.3033
  150TMC2    C2 2331   0.632   0.366  12.070 -0.4444 -0.1193  0.0065
  150TMC2    C3 2332   0.722   0.288  12.141 -0.5807 -0.8007 -0.2714
  150TMC2    C4 2333   0.782   0.555  12.110  0.2225 -0.3075 -0.6221
  150TMC2    C5 2334   0.865   0.470  12.169  0.0385  0.2520 -0.0244
  150TMC2    C6 2335   0.841   0.339  12.187 -0.1714  0.1333  0.1189
  150TMC2     C 2336   0.580   0.593  11.984 -0.0999 -0.7798  0.5688
  150TMC2     O 2337   0.590   0.709  12.025  0.0388 -0.4451 -0.1510
  150TMC2     H 2338   0.533   0.338  12.035 -0.0400 -0.0478 -1.2100
  150TMC2    H1 2339   0.803   0.662  12.111 -2.0241  0.0976  2.9047
  150TMC2    H2 2340   0.897   0.271  12.250 -2.3789  0.7380  2.7301
  150TMC2    C7 2341   0.958   0.532  12.262 -0.4507  0.2038  0.7365
  150TMC2    C8 2342   0.672   0.166  12.206 -0.2233 -0.0601 -0.2100
  150TMC2    O1 2343   0.948   0.649  12.297  0.1068  0.1654 -0.3962
  150TMC2    O2 2344   0.712   0.128  12.320 -0.1253  0.4434 -0.3877
  150TMC2    O5 2345   0.602   0.100  12.108  0.1245  0.0026  0.3717
  150TMC2    H5 2346   0.615   0.132  12.017 -0.6727  1.3078  0.7194
  151MPD2     C 2347   0.173   0.723  11.693 -0.2156  0.9785  0.1371
  151MPD2    C1 2348   0.200   0.590  11.667  0.6996  0.0453 -0.0300
  151MPD2    C2 2349   0.304   0.524  11.737  0.3354  0.2967  0.4063
  151MPD2    C3 2350   0.386   0.596  11.830 -0.3613 -0.1368 -0.5795
  151MPD2    C4 2351   0.351   0.732  11.852  0.4976  0.2482 -0.0705
  151MPD2    C5 2352   0.248   0.788  11.786  0.5703 -0.2496 -0.0134
  151MPD2     H 2353   0.340   0.428  11.702 -2.4191 -0.5454 -0.0930
  151MPD2    H1 2354   0.390   0.792  11.933 -1.0464 -0.3384  1.1044
  151MPD2    H2 2355   0.091   0.775  11.645 -0.1065  2.9329  2.0748
  151MPD2    H3 2356   0.230   0.892  11.814 -0.7736 -0.2400 -0.9138
  151MPD2     N 2357   0.494   0.533  11.895  0.3702  0.1041  0.1861
  151MPD2    H5 2358   0.515   0.437  11.871  0.3003 -0.0454  0.7289
  151MPD2    N1 2359   0.106   0.527  11.583  0.1092 -0.0637  0.7907
  151MPD2    H7 2360   0.039   0.585  11.533  0.9017 -1.8686 -2.3683
  152TMC2    C1 2361   0.897   0.607  12.655 -0.1213 -0.7847  0.3162
  152TMC2    C2 2362   0.966   0.490  12.634 -0.1720  0.6719 -0.1114
  152TMC2    C3 2363   1.064   0.459  12.726  0.0806  0.3959 -0.1415
  152TMC2    C4 2364   0.928   0.698  12.759 -0.3127 -0.5028 -0.0037
  152TMC2    C5 2365   1.043   0.667  12.828 -0.4450  0.2157  0.1511
  152TMC2    C6 2366   1.103   0.547  12.827  0.4541 -0.3439 -0.4013
  152TMC2     C 2367   0.763   0.613  12.605  0.1565 -1.3425 -0.8779
  152TMC2     O 2368   0.726   0.726  12.583 -0.3707  0.3216  0.3569
  152TMC2     H 2369   0.955   0.439  12.539  0.6129  0.4839 -0.1023
  152TMC2    H1 2370   0.863   0.783  12.774  1.0196  0.1807  1.9143
  152TMC2    H2 2371   1.187   0.523  12.891 -0.6113  0.7688  1.4130
  152TMC2    C7 2372   1.094   0.770  12.914 -0.1948  0.1492 -0.1976
  152TMC2    C8 2373   1.161   0.351  12.699 -0.4487 -0.3953  0.6237
  152TMC2    O1 2374   1.008   0.854  12.946  0.0548  0.1097  0.5931
  152TMC2    O2 2375   1.259   0.334  12.767 -0.4556  0.0195 -0.2673
  152TMC2    O5 2376   1.071   0.250  12.692  0.0841 -0.1260  0.0859
  152TMC2    H5 2377   0.986   0.272  12.647 -0.3164 -0.9821  0.4245
  153MPD2     C 2378   0.529   0.334  12.544  0.2966  0.9417 -0.2149
  153MPD2    C1 2379   0.581   0.462  12.541 -1.0230  0.3862  0.6226
  153MPD2    C2 2380   0.500   0.557  12.484 -0.2586 -0.9411  0.3436
  153MPD2    C3 2381   0.386   0.523  12.421  0.3203 -0.4175 -0.0098
  153MPD2    C4 2382   0.338   0.400  12.439 -0.4831 -0.5684 -0.2166
  153MPD2    C5 2383   0.406   0.303  12.503 -0.3442  0.3197  0.2251
  153MPD2     H 2384   0.536   0.656  12.462  0.4027 -0.7796  2.1567
  153MPD2    H1 2385   0.237   0.368  12.419 -1.2164  0.0600  2.5084
  153MPD2    H2 2386   0.590   0.254  12.583 -1.6259 -0.2628  0.3466
  153MPD2    H3 2387   0.367   0.204  12.524 -3.0783  1.3502  0.0030
  153MPD2     N 2388   0.324   0.613  12.338 -0.1917 -0.0257 -0.6921
  153MPD2    H5 2389   0.367   0.704  12.323 -0.7376  0.2650 -0.4792
  153MPD2    N1 2390   0.706   0.494  12.601  0.4911  0.4052  0.3907
  153MPD2    H7 2391   0.763   0.422  12.645  0.5358 -0.0544 -0.4110
  154TMC2    C1 2392   2.416   0.035   0.370  0.1196 -0.2288  0.3191
  154TMC2    C2 2393   2.499   0.101   0.458  0.9830 -0.0136 -0.7728
  154TMC2    C3 2394   2.625   0.046   0.471 -0.6416  0.7403  0.4343
  154TMC2    C4 2395   2.440   4.653   0.314  0.0036  0.0981  0.4492
  154TMC2    C5 2396   2.570   4.608   0.331 -0.2081  0.4913 -0.3720
  154TMC2    C6 2397   2.664   4.671   0.406  0.0101  0.1862  0.2737
  154TMC2     C 2398   2.292   0.108   0.332  0.1292 -0.0954 -0.6072
  154TMC2     O 2399   2.239   0.186   0.405 -0.3585 -0.0868  0.1686
  154TMC2     H 2400   2.465   0.194   0.503  2.0348 -0.4655  0.9669
  154TMC2    H1 2401   2.358   4.611   0.257  0.7897  1.0832 -1.4078
  154TMC2    H2 2402   2.755   4.619   0.434 -0.5939 -0.7410  0.5177
  154TMC2    C7 2403   2.607   4.478   0.268  0.0753  0.3530  0.5807
  154TMC2    C8 2404   2.726   0.130   0.532 -0.3818 -0.1515 -0.6232
  154TMC2    O1 2405   2.696   4.415   0.325  0.4427  0.1639 -0.7357
  154TMC2    O2 2406   2.725   0.251   0.521 -0.1205 -0.0145  0.6990
  154TMC2    O5 2407   2.814   0.056   0.605  0.0836  0.2536 -0.3004
  154TMC2    H5 2408   2.774   4.710   0.629  2.5289 -1.0497 -0.8464
  155MPD2     C 2409   2.115   0.094   0.001  0.4517 -0.4292 -0.8159
  155MPD2    C1 2410   2.132   0.130   0.133  0.7470 -0.0227 -0.8213
  155MPD2    C2 2411   2.034   0.214   0.194 -0.3140  0.3716 -0.1775
  155MPD2    C3 2412   1.921   0.257   0.121  0.1204 -0.1975  0.8340
  155MPD2    C4 2413   1.914   0.228  17.744 -0.2372 -0.0435  0.2549
  155MPD2    C5 2414   2.008   0.144  17.691 -0.3344  0.4282 -0.6887
  155MPD2     H 2415   2.031   0.228   0.302  0.1914  2.6109 -0.4440
  155MPD2    H1 2416   1.836   0.268  17.680  1.4130  1.8018 -0.6188
  155MPD2    H2 2417   2.174   0.018  17.708 -0.3436 -1.6006  0.0255
  155MPD2    H3 2418   1.995   0.097  17.594 -2.6269 -0.6949  0.1617
  155MPD2     N 2419   1.817   0.325   0.185  0.1249  0.3578 -0.4834
  155MPD2    H5 2420   1.828   0.329   0.286 -1.0483  1.1663 -0.3796
  155MPD2    N1 2421   2.245   0.075   0.203  0.6248 -0.5419  0.5402
  155MPD2    H7 2422   2.291   0.012   0.138 -1.5186 -1.7083  0.1293
  156TMC2    C1 2423   0.685   2.343  11.544 -0.1178 -0.0805  0.5017
  156TMC2    C2 2424   0.765   2.312  11.441 -0.3264 -0.1727  0.5299
  156TMC2    C3 2425   0.748   2.384  11.326 -0.1634 -0.4061 -0.1150
  156TMC2    C4 2426   0.597   2.450  11.544 -0.7277 -1.4047 -0.0337
  156TMC2    C5 2427   0.585   2.515  11.428  0.0553 -1.1817  0.6273
  156TMC2    C6 2428   0.649   2.478  11.310  0.2098 -0.0674 -0.1773
  156TMC2     C 2429   0.733   2.310  11.678 -0.5267 -0.0483 -0.3188
  156TMC2     O 2430   0.652   2.325  11.769  0.1831  0.7512  0.2108
  156TMC2     H 2431   0.832   2.228  11.442 -0.8216 -0.5815 -0.2787
  156TMC2    H1 2432   0.552   2.479  11.638 -1.1188  1.2499 -1.0384
  156TMC2    H2 2433   0.669   2.543  11.226 -0.5452 -3.1256 -2.7238
  156TMC2    C7 2434   0.524   2.652  11.436  1.3063 -0.8605  0.0375
  156TMC2    C8 2435   0.812   2.341  11.203  0.0380  0.0144  0.2372
  156TMC2    O1 2436   0.579   2.746  11.381  0.0676 -0.0154  0.1040
  156TMC2    O2 2437   0.768   2.378  11.095  0.1607 -0.2701 -0.3262
  156TMC2    O5 2438   0.939   2.333  11.228 -0.8632 -0.2244 -0.3118
  156TMC2    H5 2439   0.974   2.341  11.320 -1.8195 -2.3560  0.2290
  157MPD2     C 2440   1.067   2.278  11.817 -0.2474 -0.1321 -0.5429
  157MPD2    C1 2441   0.942   2.330  11.812 -0.4098 -0.4386  0.3149
  157MPD2    C2 2442   0.891   2.393  11.929  0.0607 -0.1943  0.4952
  157MPD2    C3 2443   0.968   2.399  12.041 -0.0257  0.0129  0.0513
  157MPD2    C4 2444   1.097   2.356  12.041 -0.1426  0.1962  0.1650
  157MPD2    C5 2445   1.153   2.294  11.929 -0.1062 -0.0811  0.0695
  157MPD2     H 2446   0.789   2.429  11.933  0.7774  1.9020 -0.0051
  157MPD2    H1 2447   1.160   2.377  12.126 -0.5856 -0.3412  0.6301
  157MPD2    H2 2448   1.110   2.219  11.736  0.3371  2.8222 -2.3868
  157MPD2    H3 2449   1.254   2.257  11.936 -1.1316 -2.9352  0.2589
  157MPD2     N 2450   0.922   2.454  12.162  0.5644  0.3005 -0.9656
  157MPD2    H5 2451   0.984   2.483  12.237 -0.4770  1.9739 -0.7475
  157MPD2    N1 2452   0.869   2.308  11.691 -0.1087 -0.0547 -0.0570
  157MPD2    H7 2453   0.925   2.305  11.606 -0.1521  2.0518 -0.1471
  158TMC2    C1 2454   1.904   2.100  13.978  0.5157  0.2293  0.7092
  158TMC2    C2 2455   1.981   2.159  13.888  0.2957  0.6526 -0.6949
  158TMC2    C3 2456   1.918   2.188  13.769  0.1793  0.3933  0.6856
  158TMC2    C4 2457   1.779   2.047  13.954  0.1148 -0.1110 -0.0589
  158TMC2    C5 2458   1.726   2.072  13.830 -0.2110 -0.4529  0.4360
  158TMC2    C6 2459   1.797   2.138  13.730  0.5319  1.0004 -0.9624
  158TMC2     C 2460   1.966   2.098  14.116 -0.1802  0.7608  0.0594
  158TMC2     O 2461   2.075   2.156  14.136 -0.6466 -0.8406  0.2001
  158TMC2     H 2462   2.072   2.210  13.918 -0.4244  1.3613  0.2903
  158TMC2    H1 2463   1.723   1.990  14.027  0.1375 -1.4293 -1.0787
  158TMC2    H2 2464   1.745   2.158  13.637 -0.0021 -0.7054 -1.0338
  158TMC2    C7 2465   1.651   1.970  13.767 -0.4005 -0.3014 -0.3909
  158TMC2    C8 2466   2.005   2.266  13.680  0.0985 -0.4992 -0.5190
  158TMC2    O1 2467   1.674   1.944  13.647  0.2466 -0.5319 -0.0114
  158TMC2    O2 2468   2.093   2.338  13.725 -0.3443 -0.0867 -0.4122
  158TMC2    O5 2469   1.976   2.237  13.550  0.2164  0.2478 -0.5701
  158TMC2    H5 2470   1.920   2.157  13.540  1.1966 -0.6020  0.7899
  159MPD2     C 2471   1.944   1.940  14.601  0.7709 -0.0706  0.4076
  159MPD2    C1 2472   1.826   1.903  14.538  0.5434  0.2028  0.0695
  159MPD2    C2 2473   1.806   1.937  14.400 -0.3005 -0.6912  0.6210
  159MPD2    C3 2474   1.898   2.025  14.341  0.2629 -0.6347 -0.1284
  159MPD2    C4 2475   2.013   2.066  14.408  0.8112  0.0417  0.8363
  159MPD2    C5 2476   2.035   2.016  14.540 -0.3439  0.2208  0.3915
  159MPD2     H 2477   1.731   1.894  14.335  1.2370 -0.4020 -1.3235
  159MPD2    H1 2478   2.098   2.114  14.360 -0.8743 -1.2144 -3.3824
  159MPD2    H2 2479   1.965   1.917  14.705 -2.2557 -1.3468  0.7557
  159MPD2    H3 2480   2.122   2.044  14.598 -0.9565 -1.1643  1.9924
  159MPD2     N 2481   1.879   2.044  14.205  0.2364  0.1067 -0.0150
  159MPD2    H5 2482   1.798   2.002  14.163  0.1359  2.1670 -1.8958
  159MPD2    N1 2483   1.733   1.818  14.600  0.2461  0.6466 -0.5879
  159MPD2    H7 2484   1.766   1.778  14.687 -1.2839  1.4560  0.3781
  160TMC2    C1 2485   1.006   3.884   1.298 -0.3048  0.4586  0.3582
  160TMC2    C2 2486   0.975   3.772   1.371 -0.4912  0.2258 -0.1634
  160TMC2    C3 2487   1.079   3.694   1.409 -0.1808 -0.4219  0.3828
  160TMC2    C4 2488   1.135   3.929   1.267 -0.0968  0.2847  0.6224
  160TMC2    C5 2489   1.225   3.838   1.294  0.5215  0.1628 -0.2449
  160TMC2    C6 2490   1.202   3.722   1.367 -0.2730  0.0219  0.2402
  160TMC2     C 2491   0.898   3.947   1.231  0.4552  0.1681  0.3992
  160TMC2     O 2492   0.895   4.070   1.213 -0.7334 -0.0657  0.1648
  160TMC2     H 2493   0.878   3.757   1.416  0.0072  0.6922  1.0574
  160TMC2    H1 2494   1.141   4.014   1.200  1.7739 -0.1115  0.3094
  160TMC2    H2 2495   1.280   3.653   1.396 -0.4914 -0.5558 -0.5514
  160TMC2    C7 2496   1.342   3.833   1.217 -0.5332 -0.3558  0.6025
  160TMC2    C8 2497   1.044   3.597   1.510  0.3661  0.1096 -0.0077
  160TMC2    O1 2498   1.386   3.723   1.184  0.1819 -0.1674 -0.4447
  160TMC2    O2 2499   0.938   3.597   1.575  0.0694 -0.2475  0.1336
  160TMC2    O5 2500   1.084   3.486   1.453 -0.3690 -0.1713  0.2779
  160TMC2    H5 2501   1.165   3.485   1.398 -1.7503 -0.3078 -1.7755
  161MPD2     C 2502   0.595   3.775   1.114  0.1194 -0.7697 -0.2891
  161MPD2    C1 2503   0.668   3.885   1.155  0.9060  0.0977 -0.6739
  161MPD2    C2 2504   0.613   4.016   1.134 -0.5935  0.1005  0.4862
  161MPD2    C3 2505   0.487   4.038   1.081  0.5154 -0.8659 -0.4987
  161MPD2    C4 2506   0.422   3.922   1.037  0.2071  0.0659  0.2709
  161MPD2    C5 2507   0.476   3.796   1.051 -0.7361  1.0161  0.8990
  161MPD2     H 2508   0.671   4.103   1.161 -1.0253 -0.4141  3.0504
  161MPD2    H1 2509   0.334   3.936   0.976  0.8257 -0.2646 -0.6786
  161MPD2    H2 2510   0.631   3.673   1.123  0.1500 -0.7931 -0.6832
  161MPD2    H3 2511   0.423   3.709   1.015  0.5557  0.1485  1.0996
  161MPD2     N 2512   0.429   4.169   1.045  0.4516 -0.1385 -0.3148
  161MPD2    H5 2513   0.341   4.165   0.995 -0.3117  2.5508  0.8184
  161MPD2    N1 2514   0.798   3.853   1.202 -0.1118  0.0869 -0.2622
  161MPD2    H7 2515   0.838   3.760   1.199 -3.6930 -1.4560  1.4032
  162TMC2    C1 2516   3.806   1.144   1.391 -0.0998 -0.3920  0.3774
  162TMC2    C2 2517   3.832   1.241   1.486 -0.1685  0.0395 -0.5281
  162TMC2    C3 2518   3.774   1.227   1.608  0.3036 -0.4805  0.2692
  162TMC2    C4 2519   3.698   1.060   1.413 -0.3178 -0.2090 -0.6471
  162TMC2    C5 2520   3.653   1.039   1.538 -0.1024  0.0243 -0.4246
  162TMC2    C6 2521   3.685   1.125   1.637 -0.2069  0.1440  0.0487
  162TMC2     C 2522   3.856   1.172   1.253  0.5326  0.3496  0.7079
  162TMC2     O 2523   3.775   1.153   1.160 -0.5553 -0.1493 -0.4393
  162TMC2     H 2524   3.887   1.332   1.466 -2.2688  1.4319  0.0028
  162TMC2    H1 2525   3.672   0.986   1.339 -0.4114  1.0508 -1.8690
  162TMC2    H2 2526   3.639   1.112   1.734 -1.0062 -0.5408 -0.4250
  162TMC2    C7 2527   3.634   0.907   1.587  0.5112  0.6862 -0.4343
  162TMC2    C8 2528   3.807   1.314   1.708  0.2019  0.6004  0.0316
  162TMC2    O1 2529   3.559   0.894   1.681  0.9108  0.4844  0.2017
  162TMC2    O2 2530   3.902   1.394   1.697  0.3979  0.1252  0.5914
  162TMC2    O5 2531   3.688   1.358   1.757 -0.2566  0.2347  0.3461
  162TMC2    H5 2532   3.607   1.304   1.744 -2.4646  3.8995 -1.2124
  163MPD2     C 2533   4.226   1.361   0.954  0.3833  0.1269  0.0566
  163MPD2    C1 2534   4.098   1.324   0.919 -0.4552 -0.2574  0.6321
  163MPD2    C2 2535   4.016   1.280   1.028 -0.3536 -0.1545 -0.3279
  163MPD2    C3 2536   4.058   1.292   1.160  0.0854  1.2178 -0.3786
  163MPD2    C4 2537   4.179   1.336   1.188  0.5418  0.2514 -0.7130
  163MPD2    C5 2538   4.265   1.364   1.088  0.2140 -0.2796  0.3192
  163MPD2     H 2539   3.919   1.236   1.005 -0.8447 -0.2428  1.8721
  163MPD2    H1 2540   4.215   1.328   1.290 -0.3708  2.1677 -0.2482
  163MPD2    H2 2541   4.301   1.380   0.878 -0.3136  0.6416 -0.4985
  163MPD2    H3 2542   4.368   1.374   1.118  0.2179 -1.2361  0.6397
  163MPD2     N 2543   3.980   1.236   1.261  0.7238  0.0097  0.3512
  163MPD2    H5 2544   4.025   1.239   1.352 -1.9410 -2.5137  1.7618
  163MPD2    N1 2545   4.063   1.324   0.778  0.2641  0.2972 -0.7576
  163MPD2    H7 2546   4.138   1.351   0.715  0.1020  0.5595 -0.8336
  164TMC2    C1 2547   4.019   1.344  11.064 -0.5418  0.2405  0.1166
  164TMC2    C2 2548   4.144   1.403  11.104 -0.0243  0.9772  0.7626
  164TMC2    C3 2549   4.136   1.532  11.142 -0.0907 -0.4559 -0.9252
  164TMC2    C4 2550   3.903   1.416  11.050  0.5301  0.0268 -0.4282
  164TMC2    C5 2551   3.906   1.546  11.083 -0.3239 -0.6254  0.0830
  164TMC2    C6 2552   4.021   1.605  11.129 -0.2241  0.1563  0.3503
  164TMC2     C 2553   4.013   1.208  11.107 -0.2281 -0.0614  0.2529
  164TMC2     O 2554   4.099   1.157  11.175  0.3612  0.5739 -0.4017
  164TMC2     H 2555   4.237   1.348  11.098  0.2186  1.3854  0.8244
  164TMC2    H1 2556   3.803   1.376  11.042  0.1498  0.7326  0.8039
  164TMC2    H2 2557   4.028   1.712  11.146 -2.7176  0.3675  0.1697
  164TMC2    C7 2558   3.780   1.610  11.119  0.0933  0.4408  0.3279
  164TMC2    C8 2559   4.254   1.614  11.164  0.3337 -0.7354 -0.1284
  164TMC2    O1 2560   3.677   1.565  11.073  0.3841 -0.0696 -0.4776
  164TMC2    O2 2561   4.267   1.734  11.186  0.1452 -0.1772 -0.6050
  164TMC2    O5 2562   4.360   1.552  11.104 -0.5444 -0.1288 -0.0220
  164TMC2    H5 2563   4.327   1.489  11.036  0.9658 -0.7025 -0.2227
  165TMC2    C1 2564   2.115   2.581   1.613 -0.1231 -0.0961 -0.5046
  165TMC2    C2 2565   2.185   2.639   1.714 -0.1984  0.9003  1.5108
  165TMC2    C3 2566   2.215   2.771   1.697 -0.0129  0.1453 -0.6058
  165TMC2    C4 2567   2.046   2.657   1.514  1.0666  0.4364  0.0701
  165TMC2    C5 2568   2.079   2.786   1.511 -0.5198 -0.2251  0.2742
  165TMC2    C6 2569   2.177   2.840   1.592  0.3879 -0.3214  0.8002
  165TMC2     C 2570   2.073   2.443   1.633  1.3736  0.4405  0.8979
  165TMC2     O 2571   1.996   2.405   1.550  0.5120  0.0091 -0.0499
  165TMC2     H 2572   2.224   2.587   1.801  1.6322 -3.2190 -1.7748
  165TMC2    H1 2573   1.987   2.605   1.439  2.5987  0.8654 -1.4309
  165TMC2    H2 2574   2.186   2.948   1.591  0.4642 -0.3353 -0.0676
  165TMC2    C7 2575   2.025   2.866   1.404 -1.0142  0.1934  0.7067
  165TMC2    C8 2576   2.244   2.854   1.810  0.3158  0.2348 -0.1605
  165TMC2    O1 2577   2.092   2.965   1.378 -0.1235  0.1577 -0.4866
  165TMC2    O2 2578   2.277   2.972   1.793 -0.7118 -0.6716  0.0345
  165TMC2    O5 2579   2.146   2.813   1.889 -0.1183 -0.5161 -0.0276
  165TMC2    H5 2580   2.115   2.722   1.872  2.6382 -1.5974  0.8221
  166MPD2     C 2581   2.115   1.989   1.850  0.0529  0.0066  0.2797
  166MPD2    C1 2582   2.004   2.042   1.787  0.2444  0.6966  0.1012
  166MPD2    C2 2583   2.017   2.172   1.744  0.3994  0.3532  0.6604
  166MPD2    C3 2584   2.135   2.242   1.763  0.0825  0.1591 -0.5861
  166MPD2    C4 2585   2.245   2.190   1.834 -0.4630  1.1162  0.2108
  166MPD2    C5 2586   2.230   2.056   1.881  0.4200  0.1773 -0.6443
  166MPD2     H 2587   1.936   2.221   1.692 -1.2631 -1.4724  1.5649
  166MPD2    H1 2588   2.339   2.242   1.848 -1.7053  3.1608  0.9368
  166MPD2    H2 2589   2.103   1.890   1.893  1.0850  0.0250  0.6046
  166MPD2    H3 2590   2.309   2.006   1.935 -0.6545 -0.4705  0.3250
  166MPD2     N 2591   2.159   2.376   1.711 -0.2520 -0.2482  0.5525
  166MPD2    H5 2592   2.244   2.421   1.743  0.2047 -1.9251  1.7116
  166MPD2    N1 2593   1.896   1.957   1.751  0.3585 -0.1346  0.0962
  166MPD2    H7 2594   1.918   1.862   1.778 -1.5801 -0.9148 -1.1361
  167TMC2    C1 2595   4.508   1.439  12.315 -0.4794  0.4843  0.1374
  167TMC2    C2 2596   4.516   1.536  12.419  0.1245 -0.6155 -0.0258
  167TMC2    C3 2597   4.521   1.473  12.544 -0.5910  0.0687  0.8751
  167TMC2    C4 2598   4.528   1.310  12.333  0.6976  0.5348  0.2064
  167TMC2    C5 2599   4.544   1.255  12.460 -0.1363 -0.4130 -0.6107
  167TMC2    C6 2600   4.542   1.339  12.566 -0.2156  0.1108 -0.4347
  167TMC2     C 2601   4.463   1.489  12.190  0.2777 -0.0001 -0.6030
  167TMC2     O 2602   4.493   1.605  12.157  0.4746 -0.8053 -0.1692
  167TMC2     H 2603   4.505   1.643  12.404  0.3720 -0.8862 -2.0842
  167TMC2    H1 2604   4.544   1.256  12.240 -1.4749  0.0120  0.1312
  167TMC2    H2 2605   4.559   1.306  12.668  0.1247 -0.5323 -0.7004
  167TMC2    C7 2606   4.558   1.117  12.477  0.2165 -0.5160  0.5831
  167TMC2    C8 2607   4.498   1.558  12.655 -0.0999 -0.3717 -0.3316
  167TMC2    O1 2608   4.581   1.077  12.591  0.3264 -0.6047 -0.4739
  167TMC2    O2 2609   4.548   1.524  12.760 -0.3522 -0.0711  0.3280
  167TMC2    O5 2610   4.369   1.597  12.642  0.2945  0.0049 -0.1855
  167TMC2    H5 2611   4.335   1.599  12.550  3.8075 -0.4557 -1.5080
  168MPD2     C 2612   4.354   1.505  11.913 -0.5282  0.7465 -0.7227
  168MPD2    C1 2613   4.297   1.435  12.022 -1.1573  0.0042 -0.6045
  168MPD2    C2 2614   4.167   1.378  12.001 -0.1888  0.2892  0.4400
  168MPD2    C3 2615   4.100   1.400  11.886 -0.1425 -0.0473 -0.1210
  168MPD2    C4 2616   4.170   1.458  11.771 -0.7225 -0.0417  0.2811
  168MPD2    C5 2617   4.295   1.513  11.792 -0.3816 -0.1810 -0.1147
  168MPD2     H 2618   4.109   1.342  12.084 -0.1615  0.3526  0.4863
  168MPD2    H1 2619   4.135   1.471  11.669 -1.7378 -0.9092  0.5152
  168MPD2    H2 2620   4.455   1.547  11.914 -0.0145 -0.5160  0.1961
  168MPD2    H3 2621   4.340   1.563  11.708  0.4638 -2.0026 -0.7554
  168MPD2     N 2622   3.970   1.362  11.869  0.0604 -0.3667  0.1191
  168MPD2    H5 2623   3.920   1.321  11.948 -1.9056  0.1000 -0.8851
  168MPD2    N1 2624   4.359   1.410  12.145  0.2294 -0.2714  0.1455
  168MPD2    H7 2625   4.316   1.341  12.205 -0.7003  0.8217  0.7509
  169MPD1     C 2626   4.294   0.995   9.290  0.0387 -1.0093 -0.5311
  169MPD1    C1 2627   4.291   0.979   9.424  0.3246 -0.3758 -0.1506
  169MPD1    C2 2628   4.404   0.939   9.492 -0.3201  0.4931  0.3217
  169MPD1    C3 2629   4.524   0.919   9.429  0.1653  1.3993  0.6608
  169MPD1    C4 2630   4.537   0.938   9.292 -0.0069 -0.1423 -0.1511
  169MPD1    C5 2631   4.415   0.968   9.227 -0.4052 -0.5756 -0.0698
  169MPD1     H 2632   4.401   0.924   9.599 -0.3379  1.4809  0.4552
  169MPD1    H1 2633   4.627   0.928   9.232 -0.5138 -1.2594 -0.7300
  169MPD1    H2 2634   4.199   0.999   9.238  0.6275  1.1043 -1.4116
  169MPD1    H3 2635   4.422   0.986   9.120 -0.1201 -1.0076 -0.1220
  169MPD1     N 2636   4.641   0.872   9.512  0.1751 -0.0793  0.1651
  169MPD1    H5 2637   4.626   0.848   9.609  3.1561  1.7750  1.0801
  169MPD1    N1 2638   4.170   0.980   9.500 -0.4127  0.8369 -0.3848
  169MPD1    H6 2639   4.110   1.056   9.470  1.3039  1.8047 -1.3571
  169MPD1    H7 2640   4.192   0.984   9.599 -1.3209  0.2568 -0.1552
  170MPD1     C 2641   4.160   3.234  12.930  0.5011 -0.2047  0.7451
  170MPD1    C1 2642   4.111   3.359  12.962  0.7432 -0.3180  0.3257
  170MPD1    C2 2643   4.153   3.419  13.081  0.5304  0.1153  0.0435
  170MPD1    C3 2644   4.232   3.345  13.171  0.3411  0.0138 -0.1549
  170MPD1    C4 2645   4.281   3.222  13.131  0.1785 -0.4371 -0.7723
  170MPD1    C5 2646   4.253   3.166  13.011 -0.0590 -0.2934  0.1962
  170MPD1     H 2647   4.125   3.519  13.112  0.8748 -0.2759  1.6680
  170MPD1    H1 2648   4.351   3.168  13.193 -0.3935 -0.5007 -0.1786
  170MPD1    H2 2649   4.132   3.192  12.834  0.6725 -0.1565  0.6740
  170MPD1    H3 2650   4.290   3.073  12.970  0.9078  0.6606 -1.0910
  170MPD1     N 2651   4.283   3.413  13.284 -0.4455  0.0506 -0.3016
  170MPD1    H5 2652   4.253   3.510  13.287 -0.5224  0.0713 -1.6736
  170MPD1    N1 2653   4.042   3.432  12.863 -0.2593  0.1482 -0.0595
  170MPD1    H6 2654   3.990   3.367  12.805  0.6931  0.7949 -1.6531
  170MPD1    H7 2655   3.987   3.506  12.905  1.3107  0.4922  1.3978
  171MPD1     C 2656   2.882   4.734  15.293  0.8941  0.4538 -0.3479
  171MPD1    C1 2657   2.831   4.623  15.227 -0.0715  0.2040  0.5710
  171MPD1    C2 2658   2.891   4.503  15.254 -0.3804 -0.0215 -0.1770
  171MPD1    C3 2659   3.007   4.486  15.321 -1.2091  0.2401  0.2390
  171MPD1    C4 2660   3.065   4.600  15.369 -0.0303  0.1643 -0.9298
  171MPD1    C5 2661   3.001   4.722  15.363 -0.0108  0.3460  0.3394
  171MPD1     H 2662   2.844   4.423  15.198 -0.9811 -1.2493  2.0660
  171MPD1    H1 2663   3.157   4.597  15.426 -1.3230  2.0794  1.2712
  171MPD1    H2 2664   2.835   0.091  15.289 -2.0386 -0.9722  0.0377
  171MPD1    H3 2665   3.057   0.071  15.391 -0.8872  1.5858 -1.8589
  171MPD1     N 2666   3.068   4.368  15.348 -0.1983 -0.0802 -0.2325
  171MPD1    H5 2667   3.138   4.379  15.420 -0.2206  2.8599 -0.6468
  171MPD1    N1 2668   2.700   4.615  15.178 -0.0116  0.1571 -0.9476
  171MPD1    H6 2669   2.665   4.705  15.146 -1.4297 -0.4115 -1.0053
  171MPD1    H7 2670   2.690   4.541  15.108 -1.5923 -0.3987 -0.1253
  172MPD1     C 2671   2.543   2.954   0.069  0.0099  0.3566 -0.2859
  172MPD1    C1 2672   2.525   2.983   0.206  0.5920 -0.2423  0.3274
  172MPD1    C2 2673   2.575   3.105   0.252 -0.5576  0.2942  1.1362
  172MPD1    C3 2674   2.676   3.176   0.178  1.0301 -0.3089 -0.4855
  172MPD1    C4 2675   2.702   3.131   0.052 -0.5596  0.1269  0.1526
  172MPD1    C5 2676   2.634   3.023  17.753  0.2154 -0.2312  0.9228
  172MPD1     H 2677   2.548   3.143   0.350  0.5888 -0.0251  1.5777
  172MPD1    H1 2678   2.773   3.177  17.742  0.7350  0.4071  1.6885
  172MPD1    H2 2679   2.492   2.875   0.017 -0.0792 -1.3745  2.4308
  172MPD1    H3 2680   2.656   2.997  17.650  0.6558 -0.8967  1.1880
  172MPD1     N 2681   2.745   3.297   0.223  0.1706  0.0365 -0.4246
  172MPD1    H5 2682   2.828   3.325   0.170  0.8098  1.4960  1.3489
  172MPD1    N1 2683   2.437   2.912   0.278 -0.2007  0.6677  0.3232
  172MPD1    H6 2684   2.438   2.812   0.259 -1.3116  0.7404 -0.1098
  172MPD1    H7 2685   2.457   2.931   0.376 -0.5778 -2.8204  1.0656
  173MPD1     C 2686   4.351   4.154  13.778  0.4309  0.0077  0.1325
  173MPD1    C1 2687   4.427   4.134  13.896 -0.4980  0.0714  0.0507
  173MPD1    C2 2688   4.421   4.012  13.963 -0.0767  0.1331 -0.4027
  173MPD1    C3 2689   4.330   3.915  13.918  0.3189 -0.4747  0.0885
  173MPD1    C4 2690   4.251   3.943  13.805 -0.1020 -0.0942 -0.1118
  173MPD1    C5 2691   4.260   4.065  13.737 -0.3231  0.3471 -0.0152
  173MPD1     H 2692   4.492   3.991  14.042 -1.5162  0.0804  0.8914
  173MPD1    H1 2693   4.191   3.871  13.752 -0.4903  2.0146 -2.5621
  173MPD1    H2 2694   4.371   4.245  13.723  0.6030  1.1842  2.1464
  173MPD1    H3 2695   4.210   4.080  13.642  1.2163  2.9979 -0.4158
  173MPD1     N 2696   4.328   3.793  13.985  0.0417  0.4330  0.8328
  173MPD1    H5 2697   4.396   3.793  14.061 -0.4254  0.8112  1.2535
  173MPD1    N1 2698   4.536   4.213  13.931  0.0680  0.7009  0.3501
  173MPD1    H6 2699   4.542   4.218  14.032 -1.0327  0.1359  0.4351
  173MPD1    H7 2700   4.541   4.309  13.898  1.1674  0.8228  0.8754
  174MPD1     C 2701   0.014   2.918  14.290  0.1216  0.3938 -0.7250
  174MPD1    C1 2702   0.028   3.044  14.341 -0.3195 -0.5581 -0.6440
  174MPD1    C2 2703   4.683   3.143  14.294 -0.2925  0.4775 -0.5738
  174MPD1    C3 2704   4.577   3.114  14.214  0.1574 -0.4266  0.1493
  174MPD1    C4 2705   4.561   2.983  14.170 -0.5127  0.3477  0.6165
  174MPD1    C5 2706   4.646   2.887  14.210 -0.1707 -0.8468  0.1990
  174MPD1     H 2707   4.698   3.241  14.338  1.6425 -0.6001  1.1798
  174MPD1    H1 2708   4.488   2.958  14.094 -0.9532  1.5151  0.6671
  174MPD1    H2 2709   0.079   2.832  14.300 -1.4701 -0.9483 -1.8706
  174MPD1    H3 2710   4.646   2.787  14.169  1.6921 -0.9558  0.5014
  174MPD1     N 2711   4.476   3.206  14.177  0.1553  0.0584  0.4416
  174MPD1    H5 2712   4.390   3.165  14.142  1.7842 -2.2946 -0.8612
  174MPD1    N1 2713   0.150   3.073  14.406 -0.5194 -1.0262 -0.2966
  174MPD1    H6 2714   0.150   3.163  14.454 -1.0014 -0.5789 -1.1468
  174MPD1    H7 2715   0.227   3.092  14.342 -0.0954 -0.1395  0.4717
  175MPD1     C 2716   2.219   4.734  15.362 -0.3490  0.4234 -0.1323
  175MPD1    C1 2717   2.096   0.019  15.409 -0.4935  0.1820 -0.3910
  175MPD1    C2 2718   2.042   4.694  15.516  0.2563  0.1296  0.0586
  175MPD1    C3 2719   2.119   4.595  15.575 -0.1567 -1.0984  0.2910
  175MPD1    C4 2720   2.245   4.566  15.531 -0.9360 -0.2091 -0.5546
  175MPD1    C5 2721   2.293   4.638  15.427  0.0194  0.4988 -0.6223
  175MPD1     H 2722   1.946   4.725  15.554  0.3478 -0.3534  0.6984
  175MPD1    H1 2723   2.313   4.494  15.574 -1.3580 -0.5119 -0.3917
  175MPD1    H2 2724   2.259   0.058  15.285  1.1791 -1.9053 -1.2639
  175MPD1    H3 2725   2.389   4.609  15.387  1.6212  1.3205  2.5649
  175MPD1     N 2726   2.073   4.510  15.680  0.5565 -0.9478  0.0639
  175MPD1    H5 2727   2.144   4.446  15.713  1.1811 -0.3633 -0.1492
  175MPD1    N1 2728   2.029   0.133  15.368 -0.6846 -0.1093  0.2349
  175MPD1    H6 2729   1.934   0.122  15.403 -0.3089 -3.3708  0.2253
  175MPD1    H7 2730   2.030   0.161  15.270  2.3808 -0.9273  0.0373
  176MPD1     C 2731   3.933   1.626   0.375 -0.2092  0.3629 -0.1779
  176MPD1    C1 2732   3.973   1.731   0.454  0.5704 -0.0532 -0.6302
  176MPD1    C2 2733   4.037   1.840   0.405  0.2110  0.1168 -0.4108
  176MPD1    C3 2734   4.048   1.860   0.270  0.4404 -0.0707 -0.6540
  176MPD1    C4 2735   4.002   1.758   0.186  0.5698 -0.3880  0.7136
  176MPD1    C5 2736   3.950   1.644   0.241  0.0695  0.2206 -0.3042
  176MPD1     H 2737   4.088   1.909   0.471  0.0671  1.3259 -1.5542
  176MPD1    H1 2738   4.021   1.765   0.080  0.6798  0.9966  0.8226
  176MPD1    H2 2739   3.889   1.536   0.415 -1.0295  0.4957 -0.7847
  176MPD1    H3 2740   3.923   1.568   0.169 -1.1924 -0.2382  0.6501
  176MPD1     N 2741   4.111   1.978   0.218 -0.0004 -0.2194  0.1935
  176MPD1    H5 2742   4.138   2.045   0.290 -0.5339  1.6999 -1.4191
  176MPD1    N1 2743   3.963   1.728   0.591  0.0839  0.0744 -0.4250
  176MPD1    H6 2744   3.878   1.683   0.626  0.2394 -0.0206 -0.1739
  176MPD1    H7 2745   3.971   1.820   0.633  1.4539 -0.4004  0.3694
  177MPD1     C 2746   1.818   1.734  10.259  0.7095 -0.0681 -0.5534
  177MPD1    C1 2747   1.826   1.862  10.205  0.3057  0.2965 -0.4098
  177MPD1    C2 2748   1.767   1.882  10.084 -0.1094 -0.0093  0.1617
  177MPD1    C3 2749   1.678   1.795  10.034  0.1932  0.1115 -0.0316
  177MPD1    C4 2750   1.653   1.669  10.095  0.4289 -0.0502  0.3708
  177MPD1    C5 2751   1.725   1.645  10.209 -0.0516  0.5746 -0.3086
  177MPD1     H 2752   1.772   1.986  10.054 -1.5985 -0.6999 -2.4803
  177MPD1    H1 2753   1.581   1.595  10.061 -1.1777  1.4509  0.5036
  177MPD1    H2 2754   1.865   1.708  10.354 -1.5996  0.6748  0.7858
  177MPD1    H3 2755   1.718   1.548  10.256 -0.3925 -0.2515 -2.0939
  177MPD1     N 2756   1.616   1.838   9.915 -0.5788  0.0837 -0.1490
  177MPD1    H5 2757   1.622   1.936   9.890 -0.9217 -0.1691 -1.2135
  177MPD1    N1 2758   1.919   1.955  10.257  0.3592 -0.8732  0.1491
  177MPD1    H6 2759   1.948   1.935  10.352 -0.7431 -0.8960  0.4795
  177MPD1    H7 2760   1.892   2.053  10.248  0.1988 -1.0238 -1.0172
  178MPD1     C 2761   0.174   2.554   0.403 -0.0569 -0.0989  0.3220
  178MPD1    C1 2762   0.204   2.427   0.351 -0.1569  0.3906  0.7660
  178MPD1    C2 2763   0.168   2.401   0.224 -0.4465  0.4890 -0.2372
  178MPD1    C3 2764   0.149   2.510   0.138  0.0816  0.0700  0.3904
  178MPD1    C4 2765   0.137   2.639   0.187  0.1571  0.2309  0.0611
  178MPD1    C5 2766   0.141   2.657   0.317 -0.0022 -0.2106 -0.5758
  178MPD1     H 2767   0.169   2.300   0.184  0.4955  0.3563  0.1192
  178MPD1    H1 2768   0.124   2.722   0.119  1.3440  0.3853  0.0162
  178MPD1    H2 2769   0.191   2.579   0.508  1.9368  1.7967 -0.4447
  178MPD1    H3 2770   0.124   2.758   0.351 -0.3544 -0.9983  1.5935
  178MPD1     N 2771   0.146   2.506  17.748  0.7986  0.3710 -0.4368
  178MPD1    H5 2772   0.129   2.592  17.698 -0.0736 -0.2340 -1.1843
  178MPD1    N1 2773   0.219   2.319   0.443  0.0492  0.2021  0.5176
  178MPD1    H6 2774   0.292   2.337   0.512  0.4160 -0.6455  0.3583
  178MPD1    H7 2775   0.251   2.234   0.398 -3.7155 -0.7614 -0.3704
  179MPD1     C 2776   4.143   0.527  15.082  0.2239 -0.6916  0.6191
  179MPD1    C1 2777   4.203   0.430  15.152 -0.2987 -0.1121  0.2173
  179MPD1    C2 2778   4.181   0.427  15.287  0.4698 -0.1565 -0.1645
  179MPD1    C3 2779   4.114   0.532  15.344 -0.3684  0.4662 -0.4389
  179MPD1    C4 2780   4.077   0.649  15.277  1.0259  1.2754  0.1332
  179MPD1    C5 2781   4.084   0.639  15.142  0.1559  0.4169 -0.6247
  179MPD1     H 2782   4.215   0.336  15.336  1.4669 -0.0911 -0.7439
  179MPD1    H1 2783   4.020   0.727  15.324  1.0258  1.2217  0.2216
  179MPD1    H2 2784   4.142   0.538  14.974 -1.1403 -1.7637  0.5265
  179MPD1    H3 2785   4.052   0.724  15.084 -2.6019 -0.2780 -0.1459
  179MPD1     N 2786   4.068   0.533  15.476 -0.2971 -0.9181  0.1943
  179MPD1    H5 2787   3.998   0.602  15.502 -0.2501 -1.4410  1.7359
  179MPD1    N1 2788   4.261   0.316  15.092 -0.5112  0.3134  0.4854
  179MPD1    H6 2789   4.308   0.342  15.006 -0.8119 -1.1130 -0.1139
  179MPD1    H7 2790   4.331   0.285  15.159  0.7776  1.9429 -0.1201
  180MPD1     C 2791   4.357   1.845  14.853 -1.1830 -0.2264 -0.1257
  180MPD1    C1 2792   4.413   1.955  14.781  0.1490 -0.0803  0.2011
  180MPD1    C2 2793   4.323   2.030  14.709 -0.5268 -0.2385 -0.2091
  180MPD1    C3 2794   4.191   2.007  14.719  0.0577  0.3091  0.1247
  180MPD1    C4 2795   4.137   1.913  14.813  0.0188 -0.4751 -0.4980
  180MPD1    C5 2796   4.223   1.827  14.865  0.8239  0.0703 -0.4289
  180MPD1     H 2797   4.355   2.107  14.639 -0.3724  0.1409  0.2822
  180MPD1    H1 2798   4.030   1.894  14.815 -0.5810  2.8317 -0.0487
  180MPD1    H2 2799   4.424   1.778  14.906  0.4769 -0.4617 -2.5204
  180MPD1    H3 2800   4.186   1.739  14.917  0.7690  0.7902  0.7426
  180MPD1     N 2801   4.113   2.087  14.634 -0.5300 -0.6721 -0.1597
  180MPD1    H5 2802   4.166   2.163  14.592  0.7771 -1.8355 -0.6141
  180MPD1    N1 2803   4.557   1.963  14.762 -0.1618 -0.1245  0.2203
  180MPD1    H6 2804   4.582   2.032  14.692  2.4947 -1.1355  0.1845
  180MPD1    H7 2805   4.596   1.875  14.728  1.0479  0.4282  0.1995
  181MPD1     C 2806   4.538   3.485  10.665  0.6057 -0.5721 -0.0619
  181MPD1    C1 2807   4.569   3.403  10.554 -0.0177  0.2238  0.0740
  181MPD1    C2 2808   4.692   3.427  10.495  0.1312 -0.4899 -0.1856
  181MPD1    C3 2809   0.036   3.524  10.540 -0.5627  0.3107 -0.5545
  181MPD1    C4 2810   0.004   3.591  10.658 -0.7898  0.3671  0.8213
  181MPD1    C5 2811   4.627   3.573  10.718  0.5079 -0.3306  0.0654
  181MPD1     H 2812   4.717   3.381  10.400  0.2904 -0.2161 -0.2757
  181MPD1    H1 2813   0.069   3.670  10.692 -0.3960  1.6993 -2.9643
  181MPD1    H2 2814   4.445   3.477  10.720 -0.0994 -0.2278 -1.2098
  181MPD1    H3 2815   4.604   3.648  10.793 -2.5263 -1.5543  0.3381
  181MPD1     N 2816   0.159   3.560  10.469 -0.6133 -0.4614 -0.3431
  181MPD1    H5 2817   0.216   3.636  10.506 -2.1485  0.2738  0.5202
  181MPD1    N1 2818   4.471   3.329  10.489 -0.3392 -0.5395 -0.2001
  181MPD1    H6 2819   4.506   3.243  10.448 -0.9652 -1.3320  0.9074
  181MPD1    H7 2820   4.406   3.293  10.559 -1.7857  3.7977  0.6817
  182MPD1     C 2821   2.331   2.654   1.352  0.4889 -0.0880 -0.3867
  182MPD1    C1 2822   2.339   2.772   1.280 -0.3862  0.3591  0.1520
  182MPD1    C2 2823   2.275   2.784   1.156  0.4948 -0.2926  0.2938
  182MPD1    C3 2824   2.190   2.682   1.114  0.0308  0.3471 -0.0741
  182MPD1    C4 2825   2.197   2.562   1.180 -0.0179  0.6306  0.0173
  182MPD1    C5 2826   2.276   2.548   1.291 -0.1696 -0.1565 -0.5858
  182MPD1     H 2827   2.284   2.870   1.091 -0.8065 -0.3722  0.0094
  182MPD1    H1 2828   2.150   2.470   1.148  0.5996  0.6823 -1.0261
  182MPD1    H2 2829   2.379   2.632   1.446 -0.6107  3.2489  0.9529
  182MPD1    H3 2830   2.296   2.447   1.326  0.7656  0.1574 -0.2237
  182MPD1     N 2831   2.103   2.680   1.002  0.2721 -0.5174 -0.6567
  182MPD1    H5 2832   2.045   2.597   1.008  0.8124 -0.8047  0.8149
  182MPD1    N1 2833   2.421   2.872   1.324 -0.4115 -1.0144 -0.1378
  182MPD1    H6 2834   2.419   2.879   1.426 -1.9819 -0.1841 -0.2196
  182MPD1    H7 2835   2.377   2.957   1.290 -1.5310 -1.4161  0.3037
  183MPD1     C 2836   2.102   3.857   9.773 -0.7553 -0.5067  0.0897
  183MPD1    C1 2837   2.011   3.771   9.829  0.9372  0.1793  0.0678
  183MPD1    C2 2838   1.877   3.789   9.806 -0.0945 -0.4565  0.1978
  183MPD1    C3 2839   1.832   3.906   9.753 -0.0620 -0.1116 -0.1461
  183MPD1    C4 2840   1.920   3.996   9.702 -0.1259  0.4288  0.4344
  183MPD1    C5 2841   2.056   3.972   9.702  0.4822 -0.4204 -0.1743
  183MPD1     H 2842   1.804   3.722   9.852 -1.0317 -1.1320 -2.2746
  183MPD1    H1 2843   1.891   4.096   9.673 -0.7375  0.0956 -0.0748
  183MPD1    H2 2844   2.207   3.833   9.786 -0.3303 -0.4055 -3.2116
  183MPD1    H3 2845   2.131   4.042   9.667  1.7711 -0.9206  1.5896
  183MPD1     N 2846   1.696   3.922   9.742 -0.0755 -0.5049 -0.0356
  183MPD1    H5 2847   1.640   3.850   9.786 -1.5349 -0.9569 -2.6648
  183MPD1    N1 2848   2.056   3.653   9.881  0.5595 -0.0444 -0.4627
  183MPD1    H6 2849   1.997   3.609   9.951  2.6714 -0.2445  1.2007
  183MPD1    H7 2850   2.138   3.671   9.939  0.8080 -2.4243 -0.0767
  184MPD1     C 2851   0.526   1.405   9.929 -0.1337  0.2401 -0.7690
  184MPD1    C1 2852   0.622   1.466   9.996 -0.2477 -0.6771 -0.0707
  184MPD1    C2 2853   0.702   1.553   9.934 -0.0630  0.3435  0.0674
  184MPD1    C3 2854   0.680   1.594   9.798  0.3788 -0.7100 -0.2799
  184MPD1    C4 2855   0.574   1.536   9.733 -0.3413 -0.2031 -0.5568
  184MPD1    C5 2856   0.500   1.445   9.795  0.5501  0.8584 -0.2276
  184MPD1     H 2857   0.767   1.611   9.998 -0.4301  1.7232 -0.8053
  184MPD1    H1 2858   0.540   1.563   9.633  0.9938  0.0461 -0.9495
  184MPD1    H2 2859   0.455   1.341   9.980  1.1273  0.8235  1.7061
  184MPD1    H3 2860   0.420   1.395   9.741  0.8034  0.4551 -0.2350
  184MPD1     N 2861   0.769   1.670   9.719  0.7390 -0.0332  0.8443
  184MPD1    H5 2862   0.738   1.691   9.624  0.7861 -2.3834  0.3096
  184MPD1    N1 2863   0.642   1.417  10.125 -0.2577 -0.0441  0.6441
  184MPD1    H6 2864   0.662   1.497  10.184 -1.8271  1.2288 -0.5535
  184MPD1    H7 2865   0.555   1.371  10.152 -0.3754 -0.5913 -0.6567
  185MPD1     C 2866   0.778   1.615   8.899  0.4094  0.2891  0.5877
  185MPD1    C1 2867   0.887   1.694   8.902 -0.0211 -0.1168  0.4381
  185MPD1    C2 2868   0.926   1.737   9.026  0.4697 -0.1008  0.6180
  185MPD1    C3 2869   0.854   1.720   9.140  0.2095 -0.2079  0.1296
  185MPD1    C4 2870   0.741   1.636   9.133 -0.7930  0.5578  0.9564
  185MPD1    C5 2871   0.707   1.587   9.011  0.0273 -0.5106  0.1053
  185MPD1     H 2872   1.014   1.799   9.034  0.2520  0.3140 -0.2464
  185MPD1    H1 2873   0.679   1.605   9.215  0.1719 -3.5099  0.1448
  185MPD1    H2 2874   0.749   1.556   8.813 -0.9411  0.7494  0.7265
  185MPD1    H3 2875   0.622   1.520   9.005  1.2011 -2.1445  1.6809
  185MPD1     N 2876   0.881   1.776   9.268  0.4035 -0.5831  0.3343
  185MPD1    H5 2877   0.809   1.761   9.338  0.4682  1.6427  0.8589
  185MPD1    N1 2878   0.972   1.709   8.791 -0.4100  0.2118 -0.2310
  185MPD1    H6 2879   1.028   1.794   8.797 -1.0160  0.7665 -2.4981
  185MPD1    H7 2880   0.923   1.697   8.703 -0.2768 -0.2864 -0.2377
  186MPD1     C 2881   0.055   0.503  15.613  0.0564 -0.0838  0.2300
  186MPD1    C1 2882   0.090   0.458  15.745  0.1279  0.6129 -0.4200
  186MPD1    C2 2883   0.083   0.555  15.846 -0.1817 -0.1184 -0.0825
  186MPD1    C3 2884   0.043   0.687  15.822 -0.6317  0.1692  0.9257
  186MPD1    C4 2885   0.018   0.731  15.688 -0.1091 -0.3613  0.3946
  186MPD1    C5 2886   0.027   0.639  15.585 -0.7245 -0.5574 -0.0919
  186MPD1     H 2887   0.105   0.522  15.947 -1.2740  2.2490  0.9361
  186MPD1    H1 2888   4.721   0.829  15.663  1.0333  0.0587  0.3712
  186MPD1    H2 2889   0.053   0.427  15.535  0.5554  0.7995 -0.6431
  186MPD1    H3 2890   4.737   0.673  15.487 -1.1766 -2.4803 -0.6312
  186MPD1     N 2891   0.022   0.783  15.922  0.5077 -0.1858  0.6126
  186MPD1    H5 2892   0.029   0.878  15.886  4.3762 -0.6723  0.0708
  186MPD1    N1 2893   0.101   0.323  15.774 -0.2151  0.7994 -0.3423
  186MPD1    H6 2894   0.157   0.309  15.857 -1.9317 -0.9643  0.5397
  186MPD1    H7 2895   0.143   0.275  15.695  0.2032  0.5759  0.0179
  187MPD1     C 2896   3.718   2.785   0.713 -0.7229  0.2996 -0.4441
  187MPD1    C1 2897   3.639   2.704   0.640 -0.6844  0.8343 -0.2758
  187MPD1    C2 2898   3.679   2.685   0.506 -0.0713 -0.2417 -0.6884
  187MPD1    C3 2899   3.798   2.739   0.449  0.2387 -0.6646 -0.5270
  187MPD1    C4 2900   3.863   2.830   0.529 -0.8578  0.2596 -0.7345
  187MPD1    C5 2901   3.816   2.860   0.651  0.7820  0.0381  0.4628
  187MPD1     H 2902   3.625   2.611   0.449  2.3802 -1.4556 -1.4376
  187MPD1    H1 2903   3.957   2.878   0.506 -1.1832  0.5497 -1.4767
  187MPD1    H2 2904   3.697   2.792   0.819 -0.6862 -1.2272 -0.3342
  187MPD1    H3 2905   3.878   2.922   0.715  1.3095 -0.2654  0.2479
  187MPD1     N 2906   3.854   2.716   0.317  0.0369 -0.0800 -0.0393
  187MPD1    H5 2907   3.948   2.750   0.297  0.7772 -2.2071 -0.1716
  187MPD1    N1 2908   3.541   2.628   0.703 -0.2000 -0.2551 -0.2851
  187MPD1    H6 2909   3.505   2.660   0.793 -0.6132  1.4128 -1.0293
  187MPD1    H7 2910   3.461   2.620   0.641 -1.1528  0.2535  0.8741
  188MPD1     C 2911   3.211   3.254  10.317  0.4444  0.1513 -0.6473
  188MPD1    C1 2912   3.325   3.184  10.287 -0.7867 -0.7968  0.0960
  188MPD1    C2 2913   3.314   3.054  10.238 -0.1775  0.1514 -0.0882
  188MPD1    C3 2914   3.189   2.990  10.243  0.4437  1.4663 -0.0985
  188MPD1    C4 2915   3.088   3.061  10.304 -0.4411 -0.3185  0.4594
  188MPD1    C5 2916   3.093   3.188  10.335 -0.2827 -0.2749 -0.2289
  188MPD1     H 2917   3.404   2.998  10.212 -1.1924 -1.9397  0.9252
  188MPD1    H1 2918   2.988   3.020  10.297  0.4654 -2.6583  0.8434
  188MPD1    H2 2919   3.222   3.355  10.355  0.4928 -0.1572  0.1687
  188MPD1    H3 2920   3.001   3.233  10.368  0.9725  2.2000 -0.1372
  188MPD1     N 2921   3.160   2.855  10.209 -0.0891 -0.1088 -0.8607
  188MPD1    H5 2922   3.065   2.827  10.231 -0.1613  0.8036  0.0126
  188MPD1    N1 2923   3.448   3.249  10.269  0.2287  0.2531  0.1211
  188MPD1    H6 2924   3.523   3.186  10.296  1.6517  1.5386 -0.8171
  188MPD1    H7 2925   3.457   3.334  10.325  0.3740 -1.0177  2.0002
  189MPD1     C 2926   1.024   3.326   0.454 -0.0006 -0.2405 -0.1592
  189MPD1    C1 2927   0.897   3.282   0.492  0.1074  0.3038 -0.0486
  189MPD1    C2 2928   0.794   3.369   0.476  0.0146 -0.0554 -0.5657
  189MPD1    C3 2929   0.816   3.500   0.431 -0.8751 -0.7092 -0.1282
  189MPD1    C4 2930   0.941   3.544   0.416  0.2126 -0.2154  0.0814
  189MPD1    C5 2931   1.047   3.453   0.423  0.0356 -0.0640  0.6967
  189MPD1     H 2932   0.689   3.347   0.494  0.4413 -1.3234  0.3894
  189MPD1    H1 2933   0.959   3.649   0.397  1.3502 -0.4134  0.0891
  189MPD1    H2 2934   1.114   3.269   0.471  0.1669  0.1622  0.3028
  189MPD1    H3 2935   1.150   3.472   0.397 -0.7151  1.5571 -1.0781
  189MPD1     N 2936   0.706   3.587   0.425  0.1073  0.3051  0.2915
  189MPD1    H5 2937   0.617   3.540   0.436  0.0719  0.1822 -0.5075
  189MPD1    N1 2938   0.885   3.149   0.552  0.1834 -0.0903 -0.5709
  189MPD1    H6 2939   0.957   3.083   0.522  0.8098  0.5374 -0.4450
  189MPD1    H7 2940   0.797   3.108   0.523  1.7673 -2.2081 -2.4280
  190MPD1     C 2941   4.071   1.967  15.326  0.7603  0.1872 -0.5879
  190MPD1    C1 2942   4.103   2.033  15.442 -0.4415 -0.3001 -0.4074
  190MPD1    C2 2943   4.241   2.031  15.478 -0.4770  0.7743 -0.6481
  190MPD1    C3 2944   4.337   1.975  15.393  0.0294  1.0177 -0.2025
  190MPD1    C4 2945   4.299   1.904  15.275 -0.0246 -0.1959 -0.2293
  190MPD1    C5 2946   4.164   1.895  15.254  0.0739  0.5535 -0.5207
  190MPD1     H 2947   4.271   2.076  15.571 -1.5418 -2.3147  1.2084
  190MPD1    H1 2948   4.364   1.839  15.216 -0.0768  0.8323 -1.4315
  190MPD1    H2 2949   3.971   1.958  15.286  0.2555  0.5988  0.5835
  190MPD1    H3 2950   4.126   1.831  15.175 -1.0752  2.2578 -1.3440
  190MPD1     N 2951   4.470   1.983  15.437  0.6558 -0.1043 -0.4634
  190MPD1    H5 2952   4.479   2.031  15.527  0.1825 -0.8306 -0.0313
  190MPD1    N1 2953   4.009   2.082  15.530  0.8967 -0.6345  0.5516
  190MPD1    H6 2954   4.022   2.154  15.601 -1.3541 -0.0488  0.3741
  190MPD1    H7 2955   3.918   2.090  15.485 -0.3132  0.3491  3.1572
  191MPD1     C 2956   2.952   3.080  12.955 -0.7683 -0.3073 -0.2763
  191MPD1    C1 2957   2.917   3.061  12.822 -0.1040 -0.5473  0.1081
  191MPD1    C2 2958   2.961   3.161  12.729 -0.4559 -0.7111 -0.0590
  191MPD1    C3 2959   2.988   3.286  12.772 -0.6199  0.5023  0.2273
  191MPD1    C4 2960   2.995   3.306  12.908 -0.4413 -0.1074 -0.4051
  191MPD1    C5 2961   2.993   3.207  12.997 -0.4108  0.3387  0.1470
  191MPD1     H 2962   2.958   3.146  12.621 -2.6379 -0.0359 -0.0961
  191MPD1    H1 2963   3.016   3.401  12.954  1.2354  0.0509 -1.5362
  191MPD1    H2 2964   2.944   3.002  13.029  0.2779  0.5751  0.7634
  191MPD1    H3 2965   3.022   3.239  13.096 -0.4288 -0.4058  0.3928
  191MPD1     N 2966   3.007   3.387  12.678 -0.1011 -0.3643  0.6794
  191MPD1    H5 2967   3.014   3.355  12.583 -0.4228 -1.2736  0.9659
  191MPD1    N1 2968   2.869   2.935  12.775  0.3010  0.1000  0.0531
  191MPD1    H6 2969   2.793   2.890  12.826  0.0171 -0.4546 -0.8507
  191MPD1    H7 2970   2.840   2.943  12.678 -2.2494 -4.2301  0.4416
  192MPD1     C 2971   2.692   3.270  11.917 -0.8587 -0.1437  0.3590
  192MPD1    C1 2972   2.761   3.390  11.890  0.1092  0.1281  0.6106
  192MPD1    C2 2973   2.810   3.454  12.002  0.7058  0.0944  0.1958
  192MPD1    C3 2974   2.791   3.420  12.130  0.4224 -0.6656 -0.5888
  192MPD1    C4 2975   2.711   3.306  12.151 -0.5782 -0.3199 -0.3091
  192MPD1    C5 2976   2.662   3.228  12.050  0.3376 -0.7837 -0.6628
  192MPD1     H 2977   2.851   3.552  11.980  0.0039  0.1762 -0.7374
  192MPD1    H1 2978   2.691   3.273  12.252  2.4064 -1.4542 -0.0766
  192MPD1    H2 2979   2.646   3.212  11.838  2.6358 -1.8600 -0.4247
  192MPD1    H3 2980   2.606   3.137  12.070  2.4527 -1.3948  2.5185
  192MPD1     N 2981   2.846   3.485  12.247  0.6993 -0.3106 -0.1761
  192MPD1    H5 2982   2.812   3.440  12.331 -0.2257  0.5984 -0.0533
  192MPD1    N1 2983   2.788   3.421  11.754  0.2744 -0.5909  0.0762
  192MPD1    H6 2984   2.720   3.399  11.682  0.4286 -0.3379 -0.1471
  192MPD1    H7 2985   2.825   3.514  11.733 -0.2749 -0.2915  0.4411
  193MPD1     C 2986   2.965   3.846  15.763  0.2935 -0.5698 -0.8254
  193MPD1    C1 2987   2.944   3.985  15.755 -0.4368 -0.3565 -0.1144
  193MPD1    C2 2988   3.000   4.061  15.853  1.1520 -0.1883  0.1911
  193MPD1    C3 2989   3.086   4.011  15.956 -0.3280  0.4598 -0.5896
  193MPD1    C4 2990   3.112   3.874  15.960  0.2440  0.3356  0.1824
  193MPD1    C5 2991   3.050   3.793  15.856  0.1009 -0.2617  0.1682
  193MPD1     H 2992   2.994   4.169  15.846 -0.8276 -0.4988 -3.1303
  193MPD1    H1 2993   3.179   3.830  16.033 -0.0977  0.7065  0.7138
  193MPD1    H2 2994   2.920   3.785  15.686 -1.1896 -0.6746  0.1317
  193MPD1    H3 2995   3.079   3.688  15.847  0.4806 -0.0574 -0.9405
  193MPD1     N 2996   3.161   4.082  16.050 -0.0796 -0.0292  0.8626
  193MPD1    H5 2997   3.252   4.043  16.073  0.4186  1.2045  0.9847
  193MPD1    N1 2998   2.854   4.046  15.660  0.4206 -0.7481  0.1514
  193MPD1    H6 2999   2.880   4.143  15.642  0.3956 -0.6111  0.8737
  193MPD1    H7 3000   2.847   3.989  15.576 -0.6501 -1.5374  0.7700
  194MPD1     C 3001   1.417   1.239  16.559 -0.4923 -0.5015 -0.5382
  194MPD1    C1 3002   1.438   1.332  16.653 -0.0494  0.0641 -0.8949
  194MPD1    C2 3003   1.389   1.308  16.781  0.0371 -0.1495  0.5231
  194MPD1    C3 3004   1.323   1.190  16.813  0.1324 -0.5337 -0.5725
  194MPD1    C4 3005   1.312   1.093  16.720  0.1104 -0.2439  0.3804
  194MPD1    C5 3006   1.355   1.117  16.590  0.2094  0.3205 -0.0144
  194MPD1     H 3007   1.397   1.386  16.856 -0.4821 -0.9498  1.4103
  194MPD1    H1 3008   1.259   1.000  16.737  1.1040 -0.4736  2.3275
  194MPD1    H2 3009   1.446   1.255  16.456  1.6551 -3.4088 -0.3761
  194MPD1    H3 3010   1.332   1.044  16.512 -0.7764  0.7844 -0.1594
  194MPD1     N 3011   1.256   1.161  16.938  0.5368 -0.3601  0.9703
  194MPD1    H5 3012   1.190   1.084  16.929  1.0566 -0.2656 -3.7548
  194MPD1    N1 3013   1.477   1.470  16.623 -0.1993 -0.5094 -0.2606
  194MPD1    H6 3014   1.516   1.518  16.703  0.4805 -2.8959  0.8209
  194MPD1    H7 3015   1.539   1.482  16.543  1.0685 -2.1089  0.4923
  195MPD1     C 3016   4.133   1.964   1.561  0.2029  0.1249  0.0495
  195MPD1    C1 3017   3.994   1.981   1.553 -0.3587 -0.3932  0.1657
  195MPD1    C2 3018   3.941   2.016   1.428 -0.4786 -0.2029 -0.2101
  195MPD1    C3 3019   4.020   2.050   1.320 -0.0612  0.0628  0.5986
  195MPD1    C4 3020   4.155   2.036   1.337  0.3729 -0.4812 -0.0920
  195MPD1    C5 3021   4.210   1.989   1.456  0.2292 -0.1322 -0.1924
  195MPD1     H 3022   3.834   2.032   1.420 -0.7860 -0.9398  2.3970
  195MPD1    H1 3023   4.229   2.053   1.259  0.2275  1.3924  0.1749
  195MPD1    H2 3024   4.185   1.940   1.654  3.7186  3.6169 -0.9705
  195MPD1    H3 3025   4.316   1.970   1.470  0.3509 -1.4177 -2.9376
  195MPD1     N 3026   3.972   2.111   1.199 -0.2910  0.0099  0.5157
  195MPD1    H5 3027   4.033   2.170   1.144  0.4080 -0.0385  1.2411
  195MPD1    N1 3028   3.913   1.969   1.669  0.7768  0.0039 -0.2482
  195MPD1    H6 3029   3.812   1.975   1.653  0.3420 -2.0512  1.7540
  195MPD1    H7 3030   3.940   1.888   1.724 -1.4274  1.2079  2.5817
  196MPD1     C 3031   2.399   2.033  17.355  0.1451  0.8090 -0.1140
  196MPD1    C1 3032   2.493   2.118  17.405  0.6206  0.1029  0.1716
  196MPD1    C2 3033   2.484   2.166  17.533 -0.7509  1.1715 -0.3818
  196MPD1    C3 3034   2.392   2.117  17.621 -0.0367 -0.2910 -0.3735
  196MPD1    C4 3035   2.299   2.030  17.573  0.4412  0.7986  0.4177
  196MPD1    C5 3036   2.303   1.987  17.441 -0.2730 -0.0880 -0.3880
  196MPD1     H 3037   2.556   2.240  17.568 -1.1218  1.3975 -0.1060
  196MPD1    H1 3038   2.217   1.997  17.635 -0.5865  1.0979 -0.7931
  196MPD1    H2 3039   2.394   1.999  17.252 -0.9931 -0.6339  0.4094
  196MPD1    H3 3040   2.225   1.924  17.398 -1.0157  1.3381 -1.1148
  196MPD1     N 3041   2.372   2.159  17.750  0.2952 -0.6748  0.5558
  196MPD1    H5 3042   2.313   2.100   0.051  0.0359  0.1665  1.1498
  196MPD1    N1 3043   2.574   2.187  17.313 -0.0434  0.3776 -0.0390
  196MPD1    H6 3044   2.651   2.233  17.362  1.6901 -0.8017 -1.6749
  196MPD1    H7 3045   2.600   2.136  17.229  1.2763  0.3862  0.3592
  197MPD1     C 3046   2.431   3.590  17.486  0.8509  0.3322 -0.3048
  197MPD1    C1 3047   2.375   3.550  17.372  0.6996 -0.3150 -0.5763
  197MPD1    C2 3048   2.383   3.638  17.264  0.0443  0.3560  0.0296
  197MPD1    C3 3049   2.454   3.760  17.267 -0.3166  0.0519  0.6869
  197MPD1    C4 3050   2.511   3.798  17.381  0.3852 -0.1582  0.2121
  197MPD1    C5 3051   2.501   3.710  17.486 -0.9513  0.5328  0.1979
  197MPD1     H 3052   2.329   3.611  17.174  1.8556  2.0121 -1.5742
  197MPD1    H1 3053   2.556   3.895  17.397  2.5809 -1.3736  1.3587
  197MPD1    H2 3054   2.438   3.526  17.573 -2.1427  0.6752  0.1728
  197MPD1    H3 3055   2.566   3.731  17.570 -1.2763 -0.4182  0.6843
  197MPD1     N 3056   2.456   3.858  17.167 -0.2398 -0.3207  0.2469
  197MPD1    H5 3057   2.506   3.943  17.193 -1.0905 -0.1029  1.1310
  197MPD1    N1 3058   2.283   3.444  17.369 -0.2045  0.0268 -0.1412
  197MPD1    H6 3059   2.301   3.365  17.431 -2.3216 -0.2886  0.0550
  197MPD1    H7 3060   2.268   3.409  17.275  0.8935  1.3902 -0.8276
  198MPD1     C 3061   4.185   3.027  14.942  1.1836  0.1936 -0.2397
  198MPD1    C1 3062   4.216   3.156  14.937  0.5928  0.5563  0.2070
  198MPD1    C2 3063   4.169   3.239  15.039  0.6866 -0.4965  0.2289
  198MPD1    C3 3064   4.066   3.210  15.124 -0.2557 -0.3842 -0.2688
  198MPD1    C4 3065   4.011   3.080  15.105  0.2070  0.8143 -0.2437
  198MPD1    C5 3066   4.080   2.993  15.022 -0.5748 -0.2292 -0.5766
  198MPD1     H 3067   4.211   3.338  15.051 -0.3807  0.0797 -0.7735
  198MPD1    H1 3068   3.941   3.043  15.179  0.5088  1.7727  0.5278
  198MPD1    H2 3069   4.237   2.949  14.888 -0.5944  0.0979 -1.7962
  198MPD1    H3 3070   4.048   2.889  15.026 -1.9404  0.1121 -2.2698
  198MPD1     N 3071   4.024   3.295  15.227 -0.2259 -0.8898 -0.5360
  198MPD1    H5 3072   4.080   3.380  15.224 -0.6336 -0.6571 -1.4869
  198MPD1    N1 3073   4.327   3.201  14.864  0.3705 -0.1892  0.2578
  198MPD1    H6 3074   4.310   3.297  14.834 -3.1342 -0.7452  0.4671
  198MPD1    H7 3075   4.344   3.135  14.788 -1.6576 -0.2423 -0.1600
  199MPD1     C 3076   1.176   0.212  10.696 -0.5476  0.0339  0.6860
  199MPD1    C1 3077   1.230   0.124  10.598  0.3014 -0.3605 -0.2190
  199MPD1    C2 3078   1.158   0.097  10.484 -0.0106 -0.6166 -0.7321
  199MPD1    C3 3079   1.035   0.152  10.468  0.1162 -0.1439  0.4570
  199MPD1    C4 3080   0.977   0.232  10.561  0.5988 -0.0027  0.6087
  199MPD1    C5 3081   1.050   0.265  10.667 -0.5116 -0.8764  0.2824
  199MPD1     H 3082   1.205   0.028  10.415 -0.1393 -0.4586 -0.9761
  199MPD1    H1 3083   0.878   0.275  10.556  0.2563 -0.5280  2.4977
  199MPD1    H2 3084   1.221   0.234  10.792 -1.1734 -0.5579  1.1182
  199MPD1    H3 3085   1.000   0.314  10.750  1.3440  2.1035 -0.3514
  199MPD1     N 3086   0.961   0.125  10.347  0.2579  0.7092  0.3302
  199MPD1    H5 3087   0.864   0.153  10.345 -0.1703 -0.7517  0.5654
  199MPD1    N1 3088   1.323   0.033  10.647 -0.3519  0.7501  0.0524
  199MPD1    H6 3089   1.382   4.729  10.576 -0.2594 -1.5348  1.5529
  199MPD1    H7 3090   1.387   0.093  10.699  0.7750 -1.7768  1.5873
  200MPD1     C 3091   0.763   4.105  13.696 -0.3797 -0.3365 -1.1314
  200MPD1    C1 3092   0.803   4.119  13.827  0.1395  0.5865 -0.3412
  200MPD1    C2 3093   0.756   4.224  13.902 -0.5971 -0.3930  0.0337
  200MPD1    C3 3094   0.670   4.318  13.847 -0.4990  0.6546  0.3567
  200MPD1    C4 3095   0.631   4.302  13.719 -0.2965 -0.3978 -0.1586
  200MPD1    C5 3096   0.676   4.196  13.646  0.5365  0.0944  0.0785
  200MPD1     H 3097   0.789   4.240  14.004 -2.5484  0.1229  0.5853
  200MPD1    H1 3098   0.557   4.357  13.662 -1.9192 -0.0478  2.2850
  200MPD1    H2 3099   0.793   4.024  13.632 -0.0434 -2.0903  1.2284
  200MPD1    H3 3100   0.641   4.185  13.544  0.5448  2.5458 -0.1921
  200MPD1     N 3101   0.629   4.431  13.932  0.6786  0.2999  0.4872
  200MPD1    H5 3102   0.668   4.430  14.026 -0.5368 -0.5888  0.9791
  200MPD1    N1 3103   0.902   4.022  13.870  0.2102 -0.2462 -0.2236
  200MPD1    H6 3104   0.905   3.997  13.969 -0.3500 -1.9288 -0.6331
  200MPD1    H7 3105   0.881   3.933  13.826 -2.1880  0.3629 -0.3163
  201MPD1     C 3106   2.468   3.972  13.453  0.4024 -0.3729  0.4241
  201MPD1    C1 3107   2.594   3.965  13.397  0.8296 -0.0045  0.4926
  201MPD1    C2 3108   2.664   3.846  13.410 -0.4336 -0.0844 -0.8217
  201MPD1    C3 3109   2.591   3.734  13.447  0.2909  0.7309 -0.1158
  201MPD1    C4 3110   2.466   3.736  13.493  0.4283  0.1382 -0.3286
  201MPD1    C5 3111   2.406   3.862  13.505 -0.5016  0.5676  0.0686
  201MPD1     H 3112   2.766   3.831  13.375 -0.2357  1.6875 -1.0218
  201MPD1    H1 3113   2.414   3.653  13.539  0.2080 -1.2652 -3.1587
  201MPD1    H2 3114   2.410   4.063  13.461  1.3323  0.1410  1.3132
  201MPD1    H3 3115   2.312   3.862  13.558  0.0821 -1.8234  1.0892
  201MPD1     N 3116   2.670   3.616  13.419  0.3553  0.2099 -0.0551
  201MPD1    H5 3117   2.760   3.622  13.373  1.2523 -1.4272  1.4820
  201MPD1    N1 3118   2.663   4.080  13.356 -0.2120  0.0863  0.1508
  201MPD1    H6 3119   2.734   4.052  13.289 -2.3768 -0.3244 -1.9598
  201MPD1    H7 3120   2.599   4.154  13.330 -0.1618  0.3560  0.7793
  202MPD1     C 3121   1.663   3.057   8.982 -0.7143 -0.7600  0.5983
  202MPD1    C1 3122   1.776   2.986   9.023  0.4625  0.5192 -0.4933
  202MPD1    C2 3123   1.788   2.976   9.161 -0.2646 -0.4663 -0.3226
  202MPD1    C3 3124   1.687   2.993   9.253 -0.0808 -0.1725 -0.8189
  202MPD1    C4 3125   1.570   3.049   9.213  0.1386  0.2054  0.0727
  202MPD1    C5 3126   1.564   3.087   9.076  0.1140 -0.0407 -0.2425
  202MPD1     H 3127   1.880   2.933   9.199 -0.6081 -1.2725 -0.4058
  202MPD1    H1 3128   1.486   3.067   9.278  0.6616 -1.8467  1.3048
  202MPD1    H2 3129   1.655   3.091   8.880 -1.5312 -1.2453  0.4976
  202MPD1    H3 3130   1.486   3.159   9.052  0.9961  0.3945 -1.8351
  202MPD1     N 3131   1.698   2.954   9.390 -0.1052  0.1193 -0.1643
  202MPD1    H5 3132   1.623   2.977   9.454 -1.3743  0.9832 -1.9482
  202MPD1    N1 3133   1.895   2.992   8.947  0.2030  0.1104  0.2024
  202MPD1    H6 3134   1.876   2.973   8.848  1.4322 -2.2176  0.4078
  202MPD1    H7 3135   1.958   2.920   8.982  0.9880  1.2948  1.2116
  203MPD1     C 3136   1.284   4.032  12.589 -0.0096 -0.4808 -0.6200
  203MPD1    C1 3137   1.251   3.960  12.481  0.7935 -0.2496 -0.6391
  203MPD1    C2 3138   1.279   3.827  12.482 -0.1189  0.1448  0.2070
  203MPD1    C3 3139   1.335   3.765  12.591 -0.0779  0.2846  0.0745
  203MPD1    C4 3140   1.375   3.839  12.698  0.7324 -0.1919  0.0046
  203MPD1    C5 3141   1.336   3.970  12.697 -0.1819 -0.6991 -0.3917
  203MPD1     H 3142   1.250   3.766  12.397 -1.6986  0.0704  0.8021
  203MPD1    H1 3143   1.434   3.806  12.783 -0.0054 -0.5527  0.3803
  203MPD1    H2 3144   1.273   4.139  12.597  1.0346 -0.6539  3.4269
  203MPD1    H3 3145   1.360   4.028  12.786 -0.6124  0.3034 -0.9303
  203MPD1     N 3146   1.346   3.625  12.579  0.6238  0.5096 -0.7341
  203MPD1    H5 3147   1.294   3.587  12.501  0.3449 -0.3105 -0.1478
  203MPD1    N1 3148   1.208   4.024  12.362 -0.3094  0.0025  0.3416
  203MPD1    H6 3149   1.169   4.116  12.380 -1.2392 -0.4589  0.6962
  203MPD1    H7 3150   1.154   3.967  12.297  1.0116  1.1173 -1.7057
  204MPD1     C 3151   0.664   0.026  17.553  0.0976 -0.7456 -0.0094
  204MPD1    C1 3152   0.692   4.730  17.423 -0.3172 -0.3857 -0.2089
  204MPD1    C2 3153   0.773   4.617  17.410  0.2936  0.7317  0.4247
  204MPD1    C3 3154   0.821   4.544  17.519 -0.1823 -0.4650  0.3494
  204MPD1    C4 3155   0.797   4.593  17.643  0.2407 -0.0660 -0.0042
  204MPD1    C5 3156   0.721   4.707  17.663  0.7696 -0.0610  0.4870
  204MPD1     H 3157   0.803   4.585  17.310 -0.1606  0.2433  0.4448
  204MPD1    H1 3158   0.851   4.553  17.727 -1.4913 -0.0964  1.1025
  204MPD1    H2 3159   0.601   0.113  17.571  0.0176 -0.3773 -2.1674
  204MPD1    H3 3160   0.712   0.009   0.005  1.2941  2.3932 -0.4993
  204MPD1     N 3161   0.925   4.446  17.490  0.4495  0.6375 -0.3648
  204MPD1    H5 3162   0.972   4.444  17.400 -0.5953 -1.2288 -0.8758
  204MPD1    N1 3163   0.625   0.054  17.313  0.6792 -0.1294  0.2909
  204MPD1    H6 3164   0.633   0.154  17.326  0.4673 -0.2611  1.4062
  204MPD1    H7 3165   0.667   0.026  17.224 -2.1787 -1.4016 -0.6705
  205MPD1     C 3166   1.856   3.051   0.191  0.2303  0.2027 -0.6631
  205MPD1    C1 3167   1.793   3.059   0.308 -0.0350 -0.2932  0.0029
  205MPD1    C2 3168   1.655   3.082   0.302 -0.1998 -0.3231 -0.6631
  205MPD1    C3 3169   1.583   3.117   0.182 -0.3034  0.2277  0.1057
  205MPD1    C4 3170   1.654   3.116   0.066 -0.3475 -0.5162 -0.2156
  205MPD1    C5 3171   1.786   3.072   0.073  0.9403 -0.7046  0.6014
  205MPD1     H 3172   1.601   3.075   0.396  2.2679 -0.2283  0.7571
  205MPD1    H1 3173   1.599   3.141  17.733 -0.9099 -1.4607 -0.1362
  205MPD1    H2 3174   1.956   3.011   0.180  0.3583  0.1094  0.8949
  205MPD1    H3 3175   1.842   3.049  17.740  0.2196  0.8876 -0.2479
  205MPD1     N 3176   1.442   3.134   0.166  0.2971 -0.6953  0.1773
  205MPD1    H5 3177   1.410   3.168   0.075 -1.1441 -1.5714  0.3517
  205MPD1    N1 3178   1.860   3.036   0.428 -0.4705 -0.2528  0.5539
  205MPD1    H6 3179   1.961   3.034   0.416 -0.1836  3.1401  2.1508
  205MPD1    H7 3180   1.830   3.081   0.515  0.0290  2.3486 -0.6044
  206MPD1     C 3181   1.237   1.866  16.750  0.3376  0.5798  0.2798
  206MPD1    C1 3182   1.252   1.745  16.696  0.1103  0.1749  0.7044
  206MPD1    C2 3183   1.222   1.730  16.559 -0.5441  0.7712  0.5476
  206MPD1    C3 3184   1.185   1.837  16.484 -0.1812  0.3009 -0.2851
  206MPD1    C4 3185   1.165   1.957  16.549  0.1335 -0.5552  0.0796
  206MPD1    C5 3186   1.188   1.975  16.682 -0.0063 -0.0295  0.0551
  206MPD1     H 3187   1.247   1.637  16.508 -1.8129 -0.3131  1.9014
  206MPD1    H1 3188   1.119   2.042  16.501  0.0684  0.3655  1.7670
  206MPD1    H2 3189   1.254   1.880  16.857  0.2223  0.2595  0.3405
  206MPD1    H3 3190   1.189   2.074  16.726  1.5253 -0.1718  0.3374
  206MPD1     N 3191   1.154   1.830  16.341  0.2968 -0.4755  0.3766
  206MPD1    H5 3192   1.134   1.916  16.291  0.9633  0.8022  2.3405
  206MPD1    N1 3193   1.292   1.635  16.774  0.5566 -1.0280 -0.1808
  206MPD1    H6 3194   1.347   1.578  16.709  0.5837 -0.8408 -0.3236
  206MPD1    H7 3195   1.367   1.668  16.835 -0.1614  1.5484 -0.7338
  207MPD1     C 3196   2.956   4.543   9.025 -0.2180 -0.5653 -0.6463
  207MPD1    C1 3197   2.893   4.418   9.036  0.1986  0.4791 -0.4355
  207MPD1    C2 3198   2.922   4.339   9.152 -0.4015 -0.0624 -0.0970
  207MPD1    C3 3199   3.005   4.381   9.256  0.1584 -0.6701  0.4816
  207MPD1    C4 3200   3.071   4.503   9.241  0.0335  0.4582 -0.1011
  207MPD1    C5 3201   3.037   4.583   9.130  0.9718 -0.3138  0.4607
  207MPD1     H 3202   2.892   4.235   9.155 -0.6216 -0.0292 -1.1214
  207MPD1    H1 3203   3.134   4.538   9.322 -1.8932  0.7268  1.2869
  207MPD1    H2 3204   2.948   4.610   8.941 -2.6827 -0.1572 -0.0687
  207MPD1    H3 3205   3.087   4.678   9.115 -0.0790  0.4381  1.6928
  207MPD1     N 3206   3.036   4.306   9.370  0.4141  0.3461 -0.1124
  207MPD1    H5 3207   3.103   4.344   9.436  0.3621 -0.1326  0.2246
  207MPD1    N1 3208   2.821   4.355   8.931 -0.2583  0.0282 -0.2707
  207MPD1    H6 3209   2.764   4.414   8.870 -2.4163  0.1714  1.8628
  207MPD1    H7 3210   2.760   4.284   8.971 -0.4851  1.2373  1.5243
  208MPD1     C 3211   0.425   1.843   0.793 -0.2881  0.2321  0.0985
  208MPD1    C1 3212   0.416   1.941   0.689 -0.3067  0.7052  0.4697
  208MPD1    C2 3213   0.532   1.986   0.637  0.7329  0.3841  0.3077
  208MPD1    C3 3214   0.651   1.934   0.679  0.1717  0.6304  0.3191
  208MPD1    C4 3215   0.660   1.830   0.770 -0.4213 -0.3485 -0.7539
  208MPD1    C5 3216   0.546   1.790   0.827 -1.2652  0.5353 -0.4637
  208MPD1     H 3217   0.517   2.064   0.564  0.3925  0.6009  0.6094
  208MPD1    H1 3218   0.755   1.799   0.813 -0.7394  0.5278  0.5718
  208MPD1    H2 3219   0.338   1.802   0.843 -0.1431 -0.9094 -0.5570
  208MPD1    H3 3220   0.550   1.714   0.905  0.7494  0.7757 -0.3278
  208MPD1     N 3221   0.767   1.986   0.625  0.1477  0.7393  0.6877
  208MPD1    H5 3222   0.743   2.059   0.558  1.1332  0.6948  0.2822
  208MPD1    N1 3223   0.287   2.007   0.672  0.9239 -0.2028  0.2657
  208MPD1    H6 3224   0.279   2.047   0.579 -3.8115  0.0541  0.7811
  208MPD1    H7 3225   0.204   1.948   0.680  0.5063  0.2570 -0.5803
  209MPD1     C 3226   2.227   2.855   9.642  0.1219  0.1895 -0.1295
  209MPD1    C1 3227   2.217   2.991   9.652  0.1424  0.0062 -0.3623
  209MPD1    C2 3228   2.310   3.061   9.726 -0.0140  0.0904  0.5986
  209MPD1    C3 3229   2.400   2.986   9.801  1.1520 -0.2763  0.1145
  209MPD1    C4 3230   2.401   2.850   9.797 -0.2092  0.1442 -0.2556
  209MPD1    C5 3231   2.318   2.784   9.709 -0.3592  0.0199  0.0577
  209MPD1     H 3232   2.321   3.168   9.716  2.0771  0.0441  2.3215
  209MPD1    H1 3233   2.473   2.795   9.857 -0.7910 -1.4555 -1.0483
  209MPD1    H2 3234   2.168   2.803   9.567 -0.0901  0.6778 -0.3015
  209MPD1    H3 3235   2.318   2.676   9.698  0.2750 -0.1981  2.1654
  209MPD1     N 3236   2.479   3.057   9.895  0.0851 -0.8242  0.4092
  209MPD1    H5 3237   2.472   3.158   9.898 -2.1798 -1.0535  2.6374
  209MPD1    N1 3238   2.137   3.056   9.559 -0.8741  0.1560  0.3369
  209MPD1    H6 3239   2.057   2.999   9.532 -2.4470  3.2686 -1.6666
  209MPD1    H7 3240   2.106   3.147   9.594  1.4842  0.7490  0.8869
  210MPD1     C 3241   2.768   3.001  10.859  0.3775  0.0832 -0.0957
  210MPD1    C1 3242   2.775   3.127  10.807 -0.0885  0.2278  0.1657
  210MPD1    C2 3243   2.755   3.150  10.677 -0.4410 -0.4566 -0.2214
  210MPD1    C3 3244   2.748   3.050  10.587 -0.1749  0.2672  0.0108
  210MPD1    C4 3245   2.750   2.919  10.636  0.1757  0.2913  0.2355
  210MPD1    C5 3246   2.762   2.892  10.772  0.1372 -0.7105  0.1019
  210MPD1     H 3247   2.752   3.253  10.641 -0.7001  0.1454  1.5134
  210MPD1    H1 3248   2.743   2.831  10.574 -1.8347 -0.6136  1.7335
  210MPD1    H2 3249   2.772   2.984  10.966 -1.3172  0.5237  0.0268
  210MPD1    H3 3250   2.756   2.788  10.801 -0.7682 -0.5212  0.6193
  210MPD1     N 3251   2.736   3.061  10.447 -0.6676  0.9292 -0.6071
  210MPD1    H5 3252   2.749   2.983  10.383 -1.1195 -0.3304  0.8511
  210MPD1    N1 3253   2.787   3.243  10.888  0.2424 -0.7496  0.2297
  210MPD1    H6 3254   2.826   3.325  10.843  1.4134 -0.4722  1.7628
  210MPD1    H7 3255   2.841   3.226  10.973  0.4256  1.5470  0.5698
  211MPD1     C 3256   1.328   2.947  15.463  0.1253 -0.0274 -0.3082
  211MPD1    C1 3257   1.228   3.026  15.407 -0.2975 -0.1444  0.4177
  211MPD1    C2 3258   1.186   3.134  15.489  0.2090 -0.3338  0.1617
  211MPD1    C3 3259   1.236   3.154  15.614  0.2389  0.0932 -0.5802
  211MPD1    C4 3260   1.329   3.067  15.665 -0.1399  0.6631 -0.7547
  211MPD1    C5 3261   1.373   2.967  15.588  0.7592 -0.0147  0.1064
  211MPD1     H 3262   1.126   3.214  15.447  1.0866  1.1846  1.8422
  211MPD1    H1 3263   1.369   3.072  15.765 -1.0405 -1.1318 -0.2926
  211MPD1    H2 3264   1.377   2.865  15.412  0.6704 -0.2065  0.4939
  211MPD1    H3 3265   1.444   2.896  15.629 -0.3864 -0.1085  1.9265
  211MPD1     N 3266   1.185   3.261  15.693  0.1531 -0.1356 -0.3664
  211MPD1    H5 3267   1.118   3.312  15.637  0.2613 -0.2322 -0.5853
  211MPD1    N1 3268   1.183   3.011  15.275  0.2384 -0.1747  0.4870
  211MPD1    H6 3269   1.201   2.921  15.230  1.5945 -0.3846  1.4426
  211MPD1    H7 3270   1.091   3.049  15.253 -0.8783 -3.6296 -0.8504
  212MPD1     C 3271   0.839   1.726  16.488  0.8002 -0.1059  0.5583
  212MPD1    C1 3272   0.718   1.772  16.537  0.1147  0.7537 -0.3948
  212MPD1    C2 3273   0.666   1.694  16.639  0.3729 -0.5978  0.1186
  212MPD1    C3 3274   0.722   1.578  16.685 -0.2044  0.3587  0.2225
  212MPD1    C4 3275   0.835   1.528  16.618 -0.6451  0.5588  0.4954
  212MPD1    C5 3276   0.892   1.610  16.523  0.1314 -0.0883 -0.3007
  212MPD1     H 3277   0.574   1.726  16.687  0.2988  0.7633 -0.9392
  212MPD1    H1 3278   0.890   1.437  16.635 -0.4127  1.0420  2.3537
  212MPD1    H2 3279   0.885   1.787  16.411 -1.9773  0.7838 -0.3997
  212MPD1    H3 3280   0.989   1.587  16.481  0.6688  1.2060  0.2515
  212MPD1     N 3281   0.665   1.507  16.783 -0.0808 -0.1968  0.0543
  212MPD1    H5 3282   0.716   1.423  16.810 -0.9466 -1.2908 -1.6994
  212MPD1    N1 3283   0.676   1.902  16.520  0.2522  0.3716 -0.1451
  212MPD1    H6 3284   0.692   1.948  16.431 -0.6416  1.3006  0.1750
  212MPD1    H7 3285   0.583   1.923  16.556 -0.7024 -0.7655 -1.9359
  213MPD1     C 3286   2.955   2.907  15.702  0.7231 -0.4109  0.2476
  213MPD1    C1 3287   2.981   2.777  15.734  0.5781 -0.5071  0.3451
  213MPD1    C2 3288   3.030   2.690  15.639 -0.1766  0.2090  0.3255
  213MPD1    C3 3289   3.085   2.737  15.523  0.2575  0.1176  0.0777
  213MPD1    C4 3290   3.094   2.880  15.508  0.6022 -0.3459 -0.1877
  213MPD1    C5 3291   3.026   2.958  15.598 -0.6204 -1.2820 -0.4601
  213MPD1     H 3292   3.012   2.583  15.641  0.0881  0.1278 -1.0469
  213MPD1    H1 3293   3.145   2.924  15.423 -0.7080  3.3796  0.9892
  213MPD1    H2 3294   2.909   2.963  15.782  1.1316  0.2025  0.0517
  213MPD1    H3 3295   3.022   3.066  15.591  1.7847 -1.2106 -0.6804
  213MPD1     N 3296   3.124   2.637  15.427 -0.4805  0.0856  0.3339
  213MPD1    H5 3297   3.101   2.538  15.434  1.5664 -0.3238  1.0354
  213MPD1    N1 3298   2.906   2.718  15.841 -0.0339 -0.3745  0.2351
  213MPD1    H6 3299   2.948   2.634  15.881  1.8831 -0.1329 -1.2553
  213MPD1    H7 3300   2.900   2.780  15.922  1.3651 -0.9051  0.7425
  214MPD1     C 3301   3.078   1.758  15.381  0.3744 -0.2197 -0.0449
  214MPD1    C1 3302   3.039   1.805  15.260  0.2961  0.7409  0.4080
  214MPD1    C2 3303   3.070   1.935  15.223  0.6952  0.4703 -0.7427
  214MPD1    C3 3304   3.146   2.015  15.312  0.2287  0.6097  0.6676
  214MPD1    C4 3305   3.192   1.960  15.429  0.5828  0.1483 -0.1848
  214MPD1    C5 3306   3.158   1.828  15.463  0.0958 -0.9126  0.2836
  214MPD1     H 3307   3.036   1.960  15.123  0.1958  1.2162 -0.3778
  214MPD1    H1 3308   3.259   2.027  15.482 -0.4368  0.5921  0.5302
  214MPD1    H2 3309   3.054   1.662  15.424  1.1116 -0.2446  0.3021
  214MPD1    H3 3310   3.183   1.793  15.563 -3.6308  0.2349  1.6029
  214MPD1     N 3311   3.191   2.144  15.281  0.5422 -0.3842  0.7078
  214MPD1    H5 3312   3.242   2.197  15.351  0.2654  2.1741 -1.0343
  214MPD1    N1 3313   2.939   1.735  15.197 -0.0615 -0.4319  0.2590
  214MPD1    H6 3314   2.924   1.768  15.102 -2.9416 -1.7516  0.2615
  214MPD1    H7 3315   2.948   1.634  15.191 -0.3272 -0.3731 -1.0600
  215MPD1     C 3316   2.052   3.246  11.220 -0.0498 -0.1048  0.1650
  215MPD1    C1 3317   2.071   3.328  11.328 -0.3835 -0.0878 -0.3663
  215MPD1    C2 3318   2.192   3.399  11.335 -0.2850  0.3782 -0.8718
  215MPD1    C3 3319   2.275   3.412  11.226  0.4415 -0.1825 -0.1081
  215MPD1    C4 3320   2.238   3.342  11.112  0.5990 -0.4263  0.7042
  215MPD1    C5 3321   2.133   3.256  11.107  0.2128 -0.2497 -0.4022
  215MPD1     H 3322   2.220   3.438  11.432 -1.1230 -0.4290 -0.3086
  215MPD1    H1 3323   2.286   3.363  11.016  1.7850 -0.5759  1.2573
  215MPD1    H2 3324   1.980   3.165  11.224  0.4457 -0.6545 -1.7894
  215MPD1    H3 3325   2.110   3.193  11.022 -2.6340  0.7141 -0.3376
  215MPD1     N 3326   2.398   3.487  11.240  0.1636 -0.7175  0.3900
  215MPD1    H5 3327   2.406   3.540  11.325  2.0160 -1.5922  0.7811
  215MPD1    N1 3328   1.988   3.337  11.444  0.2973  0.0202  0.4891
  215MPD1    H6 3329   2.002   3.428  11.487  0.1798 -0.6275  1.8883
  215MPD1    H7 3330   1.887   3.327  11.437  0.2599  1.5862 -1.2720
  216MPD1     C 3331   0.972   1.079  16.450  0.2972  1.0570  0.4874
  216MPD1    C1 3332   1.004   0.949  16.421 -0.1658  0.6402 -0.2002
  216MPD1    C2 3333   1.033   0.866  16.533 -0.2251  0.1849 -0.1889
  216MPD1    C3 3334   1.002   0.905  16.660  0.1722 -0.0865 -0.3131
  216MPD1    C4 3335   0.970   1.040  16.681  0.2162  0.0776 -0.0783
  216MPD1    C5 3336   0.954   1.128  16.573 -0.3863  0.7743  0.3844
  216MPD1     H 3337   1.076   0.768  16.516 -0.1898  0.1150  0.3129
  216MPD1    H1 3338   0.961   1.088  16.778  0.3078 -0.2257  0.0782
  216MPD1    H2 3339   0.955   1.148  16.368  2.6770 -0.7410 -1.5347
  216MPD1    H3 3340   0.929   1.233  16.580  0.7794  1.0802 -0.0720
  216MPD1     N 3341   1.012   0.810  16.763  0.1691 -0.1132  0.3103
  216MPD1    H5 3342   0.975   0.719  16.738 -1.2365  0.8197 -0.9478
  216MPD1    N1 3343   1.065   0.918  16.299 -0.5171 -0.1401 -0.1100
  216MPD1    H6 3344   1.030   0.977  16.224 -0.7047 -1.4603 -1.0577
  216MPD1    H7 3345   1.060   0.820  16.272  1.0839 -0.1952 -0.1764
  217MPD1     C 3346   1.291   3.897   8.708  0.3807 -0.4003  0.5015
  217MPD1    C1 3347   1.386   3.797   8.686  0.1380  0.3906 -0.2466
  217MPD1    C2 3348   1.360   3.668   8.730  0.7392 -0.6296 -0.4943
  217MPD1    C3 3349   1.234   3.647   8.783  0.0878  0.1416 -0.6475
  217MPD1    C4 3350   1.140   3.746   8.798 -0.0076  0.4810  0.4484
  217MPD1    C5 3351   1.169   3.873   8.760  0.4628  0.3223 -0.4489
  217MPD1     H 3352   1.429   3.591   8.699 -0.8022 -2.5337  0.8273
  217MPD1    H1 3353   1.044   3.725   8.844  0.1917  1.7394  1.4442
  217MPD1    H2 3354   1.305   4.000   8.680 -0.0716 -0.8655 -1.4151
  217MPD1    H3 3355   1.090   3.947   8.758  0.4683  0.3560  0.9833
  217MPD1     N 3356   1.198   3.521   8.834  0.0768 -0.1525  0.1307
  217MPD1    H5 3357   1.107   3.521   8.878  0.4480  3.2918  0.9497
  217MPD1    N1 3358   1.511   3.836   8.623  0.0921  0.1385  0.2918
  217MPD1    H6 3359   1.532   3.934   8.639  2.7938 -0.6717  1.6310
  217MPD1    H7 3360   1.590   3.778   8.649 -0.0234  0.6919  1.8942
  218MPD1     C 3361   2.504   3.436  13.039 -0.2095  0.1018  0.0598
  218MPD1    C1 3362   2.612   3.403  12.966  0.0464  0.0895  0.0704
  218MPD1    C2 3363   2.711   3.497  12.952  0.3290 -0.1466 -0.6317
  218MPD1    C3 3364   2.710   3.628  13.003 -0.5857 -0.4138 -0.0688
  218MPD1    C4 3365   2.600   3.655  13.085  0.8787 -0.6037  1.5200
  218MPD1    C5 3366   2.501   3.564  13.094 -0.1422 -0.2232  0.2723
  218MPD1     H 3367   2.804   3.467  12.905  1.6672  1.6177  0.8707
  218MPD1    H1 3368   2.581   3.737  13.154  2.1437 -0.1899  1.3739
  218MPD1    H2 3369   2.428   3.360  13.051  0.0721  0.2440  2.8856
  218MPD1    H3 3370   2.415   3.596  13.152  0.5075  3.2548 -0.6882
  218MPD1     N 3371   2.818   3.716  12.977 -0.1675 -0.0969  0.0545
  218MPD1    H5 3372   2.902   3.677  12.936 -1.0397 -1.6992 -0.2187
  218MPD1    N1 3373   2.614   3.279  12.897 -0.3071  0.3609 -0.1189
  218MPD1    H6 3374   2.710   3.247  12.885 -0.1363  0.5923  0.6226
  218MPD1    H7 3375   2.555   3.210  12.944 -0.1888  0.4402  0.1493
  219MPD1     C 3376   2.911   4.672  12.718 -0.0589  0.1570  0.1577
  219MPD1    C1 3377   3.029   4.633  12.766 -0.5424  0.4303 -0.6607
  219MPD1    C2 3378   3.050   4.505  12.816  0.4548  0.2395 -0.1009
  219MPD1    C3 3379   2.950   4.411  12.813  0.2457  0.0740 -0.1797
  219MPD1    C4 3380   2.830   4.444  12.760  0.6594  0.2897 -0.0661
  219MPD1    C5 3381   2.812   4.577  12.722 -0.0043  0.7306  0.3966
  219MPD1     H 3382   3.143   4.477  12.863 -1.9104 -1.3612  3.6833
  219MPD1    H1 3383   2.746   4.377  12.745 -0.2492  1.3401  0.3587
  219MPD1    H2 3384   2.899   0.036  12.689  3.3762  0.5434  0.1029
  219MPD1    H3 3385   2.714   4.602  12.684 -1.5505 -0.4336  3.6214
  219MPD1     N 3386   2.970   4.282  12.869 -0.0865 -0.4977  0.2968
  219MPD1    H5 3387   2.900   4.209  12.856  0.6999 -1.4748  1.6164
  219MPD1    N1 3388   3.129   4.735  12.792  0.4728  0.1608 -0.6235
  219MPD1    H6 3389   3.224   4.700  12.803 -0.5191 -2.1418  0.6012
  219MPD1    H7 3390   3.141   0.052  12.708  0.5736 -2.0693 -2.1152
  220MPD1     C 3391   2.096   4.464   9.737 -1.0343 -0.0078  0.3748
  220MPD1    C1 3392   2.026   4.382   9.821 -0.1770 -0.0245 -0.4552
  220MPD1    C2 3393   2.086   4.275   9.880 -0.5800 -0.0691 -0.6482
  220MPD1    C3 3394   2.221   4.242   9.865 -0.4933 -0.1444  0.1369
  220MPD1    C4 3395   2.293   4.329   9.783  0.5069  0.6067  0.2983
  220MPD1    C5 3396   2.235   4.445   9.729  0.3158  0.4089  0.4569
  220MPD1     H 3397   2.027   4.223   9.955  1.2103 -1.6513 -0.3294
  220MPD1    H1 3398   2.397   4.321   9.755  0.1829 -0.4088 -0.5997
  220MPD1    H2 3399   2.060   4.553   9.687 -1.2949 -0.5545 -0.4154
  220MPD1    H3 3400   2.296   4.520   9.680  4.0023 -2.1344  1.1374
  220MPD1     N 3401   2.279   4.127   9.920 -0.1900  0.1212  0.2488
  220MPD1    H5 3402   2.225   4.049   9.956  0.6572 -1.1463 -1.1862
  220MPD1    N1 3403   1.897   4.428   9.853 -0.8799  0.3636  0.1074
  220MPD1    H6 3404   1.843   4.350   9.890  2.2456 -1.5731  0.6311
  220MPD1    H7 3405   1.842   4.470   9.779  1.6359 -0.4810 -2.2604
  221MPD1     C 3406   0.533   3.199  16.023  0.3970 -0.2289  0.5245
  221MPD1    C1 3407   0.599   3.250  16.140 -0.4249 -0.4740  0.6124
  221MPD1    C2 3408   0.734   3.225  16.151  0.2140  0.1915 -0.5141
  221MPD1    C3 3409   0.813   3.161  16.053 -0.4143 -0.8292  0.4776
  221MPD1    C4 3410   0.746   3.102  15.948 -0.0405  0.1784  0.8960
  221MPD1    C5 3411   0.609   3.127  15.931 -0.2174 -0.0131 -0.4057
  221MPD1     H 3412   0.781   3.237  16.248  1.3014  2.5253 -1.3340
  221MPD1    H1 3413   0.791   3.031  15.879 -1.8802 -1.7377  1.6439
  221MPD1    H2 3414   0.428   3.214  16.000  0.5818  0.4894  0.1373
  221MPD1    H3 3415   0.560   3.086  15.844  1.8944 -1.4904 -0.8962
  221MPD1     N 3416   0.945   3.117  16.063  0.3800  0.0567 -0.6665
  221MPD1    H5 3417   0.989   3.059  15.993  1.2553 -0.0861 -0.0025
  221MPD1    N1 3418   0.532   3.322  16.234  0.0010  0.8368  0.3558
  221MPD1    H6 3419   0.542   3.278  16.325 -0.2580 -0.2432 -0.1377
  221MPD1    H7 3420   0.433   3.322  16.212  0.2949  0.7395 -0.9491
  222MPD1     C 3421   0.882   1.208  17.074  0.1497 -0.3912 -0.4816
  222MPD1    C1 3422   0.864   1.339  17.062  0.5771 -0.6264 -0.7021
  222MPD1    C2 3423   0.804   1.409  17.168  0.5282  0.2643  0.4700
  222MPD1    C3 3424   0.784   1.353  17.292  0.4712  0.2408  0.8658
  222MPD1    C4 3425   0.813   1.216  17.297 -0.2153 -0.2534  0.2881
  222MPD1    C5 3426   0.860   1.144  17.192  0.1865  0.4621  0.2293
  222MPD1     H 3427   0.787   1.515  17.154  0.1226  0.2033  0.5133
  222MPD1    H1 3428   0.803   1.163  17.391 -2.3642 -1.7497 -0.7723
  222MPD1    H2 3429   0.924   1.143  16.998  1.7284 -1.4746  1.3119
  222MPD1    H3 3430   0.882   1.038  17.192  0.0557  0.4413  1.3280
  222MPD1     N 3431   0.744   1.426  17.412  0.0940  0.3140 -0.8908
  222MPD1    H5 3432   0.762   1.389  17.505 -1.0066  0.0543 -0.7844
  222MPD1    N1 3433   0.884   1.398  16.936 -0.6993  0.6898 -0.2825
  222MPD1    H6 3434   0.911   1.496  16.929  1.5540  0.0193 -1.0470
  222MPD1    H7 3435   0.956   1.355  16.877  0.1614  0.0883  1.2004
  223MPD1     C 3436   0.247   1.370   0.512  0.1652 -0.4740 -0.0753
  223MPD1    C1 3437   0.254   1.509   0.506  0.3345  0.8265  0.5751
  223MPD1    C2 3438   0.324   1.563   0.402 -0.0580  0.0198  0.8603
  223MPD1    C3 3439   0.380   1.487   0.299  0.0655 -0.2778  0.1639
  223MPD1    C4 3440   0.364   1.351   0.302 -0.2926 -0.4527  0.0273
  223MPD1    C5 3441   0.302   1.292   0.411 -0.9883  0.1162 -0.3789
  223MPD1     H 3442   0.333   1.671   0.412  2.6979 -0.2367  1.1488
  223MPD1    H1 3443   0.408   1.281   0.232  0.4184  0.8976 -0.8719
  223MPD1    H2 3444   0.190   1.326   0.593 -0.2003 -1.4631 -0.8671
  223MPD1    H3 3445   0.298   1.184   0.412  0.6127  0.0545 -0.4281
  223MPD1     N 3446   0.454   1.551   0.195  0.9299  0.5389 -0.4087
  223MPD1    H5 3447   0.443   1.651   0.185 -1.9908  0.0558 -2.0630
  223MPD1    N1 3448   0.201   1.586   0.615  0.5804  0.2558  0.7110
  223MPD1    H6 3449   0.118   1.550   0.662  0.0327  1.4712  0.6602
  223MPD1    H7 3450   0.180   1.684   0.601 -0.1869 -0.2866 -2.0198
  224MPD1     C 3451   1.141   3.869   9.153 -0.0568 -0.6599 -0.5621
  224MPD1    C1 3452   1.247   3.779   9.151 -0.1559 -0.0799  1.2324
  224MPD1    C2 3453   1.233   3.661   9.218  0.4549  0.5937  0.3104
  224MPD1    C3 3454   1.113   3.632   9.280 -0.0648  0.4231 -0.3546
  224MPD1    C4 3455   1.012   3.722   9.276 -0.2386 -0.7107  1.0604
  224MPD1    C5 3456   1.019   3.842   9.216  0.2339  0.2694 -0.0333
  224MPD1     H 3457   1.318   3.594   9.226  0.6965  0.7141 -1.2196
  224MPD1    H1 3458   0.917   3.702   9.326  0.0777 -2.0427  1.1177
  224MPD1    H2 3459   1.155   3.964   9.102  3.2537 -0.9618 -0.1993
  224MPD1    H3 3460   0.927   3.900   9.214 -0.3393 -0.6527 -0.1602
  224MPD1     N 3461   1.098   3.520   9.364  0.2245  1.0125  0.3266
  224MPD1    H5 3462   1.009   3.530   9.412  1.6156 -0.6362  3.2288
  224MPD1    N1 3463   1.365   3.819   9.085  0.0631 -0.1399  0.9220
  224MPD1    H6 3464   1.418   3.749   9.035  0.4085  0.4557  0.4615
  224MPD1    H7 3465   1.345   3.890   9.015 -0.1315 -2.0495 -0.9668
  225MPD1     C 3466   3.291   4.504  12.204  0.8115 -0.0944 -0.1790
  225MPD1    C1 3467   3.226   4.395  12.162 -0.4494 -0.3553 -0.2848
  225MPD1    C2 3468   3.094   4.369  12.193 -0.8564  0.3021 -0.1904
  225MPD1    C3 3469   3.034   4.458  12.280 -0.2730 -0.5945  0.0148
  225MPD1    C4 3470   3.107   4.561  12.336 -0.4322  0.1638  0.5593
  225MPD1    C5 3471   3.239   4.575  12.299  0.9822 -0.3473  0.1817
  225MPD1     H 3472   3.044   4.285  12.146 -0.7108 -0.4445  0.9887
  225MPD1    H1 3473   3.064   4.627  12.410 -0.5549 -0.2041  0.8115
  225MPD1    H2 3474   3.396   4.516  12.179  0.4441  0.1025 -1.6516
  225MPD1    H3 3475   3.299   4.650  12.349  1.4157 -0.4538 -0.1745
  225MPD1     N 3476   2.897   4.453  12.319 -0.2201 -0.1939  0.2329
  225MPD1    H5 3477   2.871   4.515  12.395 -0.0378 -0.9974  0.9477
  225MPD1    N1 3478   3.282   4.315  12.067 -0.5586  0.3588 -0.3512
  225MPD1    H6 3479   3.259   4.218  12.086 -0.7721  0.6300  0.7950
  225MPD1    H7 3480   3.382   4.332  12.063 -0.3070 -1.4770 -1.8785
  226MPD1     C 3481   4.688   4.087   9.708  0.2034 -0.1870 -0.2339
  226MPD1    C1 3482   4.650   4.202   9.635 -0.0054 -0.9603  0.5415
  226MPD1    C2 3483   0.003   4.300   9.621 -0.3528  0.4607  0.6522
  226MPD1    C3 3484   0.135   4.296   9.672  0.1970  0.0293  0.5089
  226MPD1    C4 3485   0.167   4.189   9.756 -0.1428  0.2614  0.3336
  226MPD1    C5 3486   0.073   4.090   9.768 -0.6615  0.1234 -0.6173
  226MPD1     H 3487   4.719   4.389   9.565 -0.9587 -0.3430 -0.3558
  226MPD1    H1 3488   0.260   4.178   9.811 -0.5830  1.7529  1.3995
  226MPD1    H2 3489   4.629   3.996   9.707  1.1232 -0.7763 -1.0257
  226MPD1    H3 3490   0.106   4.011   9.835 -3.1025  0.1051  0.5684
  226MPD1     N 3491   0.222   4.401   9.655  0.0282  0.5305 -0.3862
  226MPD1    H5 3492   0.190   4.474   9.592  1.2485  0.4240 -1.1526
  226MPD1    N1 3493   4.522   4.210   9.585  0.5856  0.3135 -0.7200
  226MPD1    H6 3494   4.501   4.284   9.519 -1.4801 -1.0288 -1.5831
  226MPD1    H7 3495   4.476   4.123   9.557  2.1750 -0.7760  0.0157
  227MPD1     C 3496   0.251   0.547   9.282  0.2838  0.4792 -0.1638
  227MPD1    C1 3497   0.386   0.540   9.311 -0.7515 -0.2549 -0.1383
  227MPD1    C2 3498   0.422   0.431   9.382  0.6561 -0.3676 -0.8509
  227MPD1    C3 3499   0.334   0.335   9.433  0.2300 -0.3908  0.6559
  227MPD1    C4 3500   0.199   0.359   9.419  0.4880 -0.3556 -0.3007
  227MPD1    C5 3501   0.161   0.468   9.342  0.3095 -0.0046  0.8576
  227MPD1     H 3502   0.527   0.420   9.407 -0.0611 -1.6170  1.6958
  227MPD1    H1 3503   0.119   0.290   9.446  0.8745 -1.0689 -1.0039
  227MPD1    H2 3504   0.221   0.629   9.217 -0.6903 -0.2669 -0.6428
  227MPD1    H3 3505   0.053   0.480   9.329  0.5663  0.0373 -1.3792
  227MPD1     N 3506   0.388   0.225   9.495 -0.1088 -0.2036 -0.1522
  227MPD1    H5 3507   0.489   0.222   9.503 -0.0325 -0.6275 -1.3098
  227MPD1    N1 3508   0.474   0.627   9.243  0.1250  0.5021 -0.5096
  227MPD1    H6 3509   0.434   0.719   9.232 -2.0942 -0.3349  0.5090
  227MPD1    H7 3510   0.567   0.634   9.286 -0.4808  0.7322  0.7659
  228MPD1     C 3511   4.173   3.073  12.535  0.0706 -0.7272 -0.3631
  228MPD1    C1 3512   4.226   3.029  12.417 -0.5354  0.2680 -0.4976
  228MPD1    C2 3513   4.245   2.888  12.410 -0.1240 -0.3558  0.1083
  228MPD1    C3 3514   4.237   2.799  12.519 -0.2153 -0.6424  0.3819
  228MPD1    C4 3515   4.203   2.855  12.641 -0.3720  0.6242 -0.1693
  228MPD1    C5 3516   4.167   2.988  12.642  0.6229 -0.8885  0.2701
  228MPD1     H 3517   4.275   2.859  12.310 -0.3114 -1.0795  0.2636
  228MPD1    H1 3518   4.205   2.801  12.735 -3.5532  0.9701  0.0731
  228MPD1    H2 3519   4.131   3.171  12.553 -1.5901 -1.6274  0.5596
  228MPD1    H3 3520   4.118   3.028  12.729 -0.5981 -2.7262  0.4356
  228MPD1     N 3521   4.246   2.662  12.501  0.2680  0.2661  0.0058
  228MPD1    H5 3522   4.258   2.622  12.409 -0.6528 -0.2978  0.1264
  228MPD1    N1 3523   4.214   3.114  12.304  0.0809  0.1651 -0.4499
  228MPD1    H6 3524   4.231   3.209  12.337 -2.0662  0.6626 -0.7657
  228MPD1    H7 3525   4.292   3.090  12.243 -0.0743  1.8254 -1.3101
  229MPD1     C 3526   4.624   0.998  14.490 -0.3099  0.3433  0.3178
  229MPD1    C1 3527   4.494   0.988  14.537  0.2276  0.1304  0.1118
  229MPD1    C2 3528   4.485   0.945  14.666  0.5767 -0.0700  0.2842
  229MPD1    C3 3529   4.582   0.861  14.726 -0.0076  0.5090 -0.5514
  229MPD1    C4 3530   4.702   0.852  14.664 -0.3507 -0.2186  0.3803
  229MPD1    C5 3531   4.723   0.932  14.556 -0.0841  0.3194  0.2355
  229MPD1     H 3532   4.388   0.962  14.713 -0.4755  1.7986 -2.5064
  229MPD1    H1 3533   0.041   0.792  14.707  0.3138 -0.5224 -1.2874
  229MPD1    H2 3534   4.656   1.059  14.407  0.0863 -2.2688 -1.4527
  229MPD1    H3 3535   0.082   0.942  14.514 -0.0900 -0.5102  0.0211
  229MPD1     N 3536   4.557   0.784  14.846  0.5106 -0.7387  0.7134
  229MPD1    H5 3537   4.631   0.719  14.867 -0.5082 -2.9529 -2.4309
  229MPD1    N1 3538   4.401   1.059  14.456  0.2409 -0.8424 -0.0148
  229MPD1    H6 3539   4.424   1.055  14.357 -0.6943 -1.1989 -0.2203
  229MPD1    H7 3540   4.308   1.020  14.470 -1.0100  2.2077  0.3309
  230MPD1     C 3541   4.312   0.659  15.910 -0.3443 -0.2848 -0.8301
  230MPD1    C1 3542   4.374   0.544  15.869  0.4570 -0.5127  1.1014
  230MPD1    C2 3543   4.420   0.547  15.738  0.3991 -0.2115  0.8254
  230MPD1    C3 3544   4.389   0.650  15.649  0.1330 -0.6784  0.2639
  230MPD1    C4 3545   4.336   0.767  15.698  0.4495  0.0261  0.1721
  230MPD1    C5 3546   4.286   0.762  15.828  0.7134 -0.6655  0.1619
  230MPD1     H 3547   4.474   0.461  15.701  1.4439  1.0040 -0.4990
  230MPD1    H1 3548   4.306   0.842  15.626  0.0022 -1.1952 -0.9110
  230MPD1    H2 3549   4.262   0.668  16.006  3.3290 -1.6462  1.1769
  230MPD1    H3 3550   4.231   0.848  15.865 -1.2850 -0.4499 -3.3165
  230MPD1     N 3551   4.418   0.630  15.508  0.5511 -0.5395  0.2841
  230MPD1    H5 3552   4.438   0.533  15.487 -0.5082 -1.0074  1.4557
  230MPD1    N1 3553   4.414   0.453  15.963 -0.9734 -0.1536 -0.0173
  230MPD1    H6 3554   4.363   0.463  16.051  0.2885  0.5998  0.6229
  230MPD1    H7 3555   4.421   0.357  15.928  0.7091 -0.6147  1.5513
  231MPD1     C 3556   2.876   2.564  15.107 -0.4129  0.4641  0.3679
  231MPD1    C1 3557   2.914   2.502  14.990 -0.1808  0.2652  0.0097
  231MPD1    C2 3558   3.002   2.573  14.902 -0.0837 -0.7866 -0.4035
  231MPD1    C3 3559   3.042   2.701  14.936 -0.3609 -0.2220 -0.6098
  231MPD1    C4 3560   3.009   2.758  15.058  0.0211  0.0795  0.6886
  231MPD1    C5 3561   2.926   2.687  15.141  0.0566 -0.1815 -0.1047
  231MPD1     H 3562   3.033   2.532  14.807  1.5816 -0.4592 -0.0096
  231MPD1    H1 3563   3.052   2.852  15.092  0.8556 -0.2039  0.4039
  231MPD1    H2 3564   2.797   2.522  15.170  1.4822 -1.5051  1.4340
  231MPD1    H3 3565   2.906   2.738  15.235  1.7486 -2.0576  1.2539
  231MPD1     N 3566   3.109   2.768  14.829  0.2279  0.7550  0.4941
  231MPD1    H5 3567   3.130   2.717  14.744  0.1259  1.2252  0.1889
  231MPD1    N1 3568   2.859   2.370  14.966 -0.2170 -0.4053  0.1552
  231MPD1    H6 3569   2.922   2.307  14.916  0.0574  0.5992 -0.7934
  231MPD1    H7 3570   2.823   2.333  15.053 -1.0709 -1.1502 -0.5168
  232MPD1     C 3571   0.133   4.498   0.474 -0.3091 -0.2925  0.1500
  232MPD1    C1 3572   0.048   4.404   0.420 -0.0390  0.2225  0.6393
  232MPD1    C2 3573   4.672   4.453   0.364 -0.0305  0.3785  0.2202
  232MPD1    C3 3574   4.624   4.580   0.376  0.5669 -0.7632 -0.4659
  232MPD1    C4 3575   4.708   4.672   0.431 -0.3850 -0.2951 -0.5511
  232MPD1    C5 3576   0.089   4.626   0.479  0.4414 -0.1759 -1.3754
  232MPD1     H 3577   4.603   4.376   0.331  1.0420 -0.8497  0.8602
  232MPD1    H1 3578   4.685   0.035   0.456  1.1183 -0.2684  0.7167
  232MPD1    H2 3579   0.229   4.472   0.518  0.6868  2.0244 -0.6808
  232MPD1    H3 3580   0.158   4.692   0.531 -0.5374  0.4484 -0.8658
  232MPD1     N 3581   4.496   4.616   0.333  0.2940  0.7001  0.8116
  232MPD1    H5 3582   4.437   4.537   0.310 -1.5138  2.2831 -0.0656
  232MPD1    N1 3583   0.073   4.269   0.444 -0.4817 -0.3358  0.0656
  232MPD1    H6 3584   0.005   4.213   0.394 -1.0621  0.9165 -0.5600
  232MPD1    H7 3585   0.164   4.241   0.408 -0.0768 -1.3798  1.8927
  233MPD1     C 3586   0.092   2.784   0.652  1.4559  0.1435 -0.3543
  233MPD1    C1 3587   0.190   2.867   0.602 -0.1631  0.0540 -0.3870
  233MPD1    C2 3588   0.317   2.834   0.637  0.2329  0.2476  0.1974
  233MPD1    C3 3589   0.347   2.738   0.731 -0.2695 -0.0952 -0.2349
  233MPD1    C4 3590   0.241   2.672   0.783 -0.0478  0.0781  0.1962
  233MPD1    C5 3591   0.116   2.694   0.743  0.7273 -0.0681  0.8095
  233MPD1     H 3592   0.402   2.882   0.590 -1.7140  0.9086 -2.6268
  233MPD1    H1 3593   0.256   2.593   0.856  0.4303  1.0411  1.1399
  233MPD1    H2 3594   4.730   2.791   0.615  1.0902  0.3582  0.7020
  233MPD1    H3 3595   0.041   2.635   0.794  1.1376 -2.2889 -1.1170
  233MPD1     N 3596   0.479   2.728   0.790  0.1167  0.1164 -0.0614
  233MPD1    H5 3597   0.493   2.649   0.852 -2.4581  1.6264  2.4591
  233MPD1    N1 3598   0.170   2.954   0.493 -0.2868  0.6205  0.1538
  233MPD1    H6 3599   0.224   3.040   0.487  2.0137 -0.9068 -0.9875
  233MPD1    H7 3600   0.071   2.978   0.481 -0.5642 -0.6717 -0.0800
  234MPD1     C 3601   2.494   2.923   9.264  0.7129  0.4453 -0.1210
  234MPD1    C1 3602   2.390   2.953   9.176 -0.0833  0.3752 -0.4291
  234MPD1    C2 3603   2.264   2.890   9.189 -0.7122  0.2792  0.5578
  234MPD1    C3 3604   2.255   2.772   9.260 -0.4118  0.5432  0.2067
  234MPD1    C4 3605   2.368   2.739   9.340 -0.1189  0.8928  0.2110
  234MPD1    C5 3606   2.484   2.813   9.343  0.1113  0.8494 -0.4492
  234MPD1     H 3607   2.192   2.921   9.113  0.0673 -0.1158 -0.3372
  234MPD1    H1 3608   2.369   2.657   9.411  1.5164  0.0203 -0.8137
  234MPD1    H2 3609   2.592   2.969   9.265  0.9761 -0.0951 -0.7532
  234MPD1    H3 3610   2.565   2.775   9.404 -0.2141  0.0470 -0.5092
  234MPD1     N 3611   2.136   2.695   9.256  0.0995  0.0552  0.5238
  234MPD1    H5 3612   2.057   2.747   9.218 -1.4019 -3.1513 -0.8057
  234MPD1    N1 3613   2.400   3.064   9.088 -0.1975  0.0167 -0.3168
  234MPD1    H6 3614   2.348   3.059   9.001 -1.3356  3.6407  0.1265
  234MPD1    H7 3615   2.495   3.086   9.058  0.5138 -0.0495  1.8874
  235MPD1     C 3616   2.787   4.386   9.966 -0.0255  0.3147  0.5388
  235MPD1    C1 3617   2.851   4.471   9.881 -0.1088  0.5698 -0.5819
  235MPD1    C2 3618   2.936   4.565   9.936 -0.0779  0.6191 -0.5671
  235MPD1    C3 3619   2.980   4.560  10.065  0.2825  0.0526  0.4632
  235MPD1    C4 3620   2.937   4.460  10.153 -0.2801  0.0018  0.5134
  235MPD1    C5 3621   2.831   4.387  10.099  0.1019  0.5315  0.6131
  235MPD1     H 3622   2.966   4.649   9.874 -0.0366  1.3283  0.4155
  235MPD1    H1 3623   2.969   4.439  10.254 -0.7698 -0.9702  0.4712
  235MPD1    H2 3624   2.710   4.317   9.934 -0.1943 -0.2279  2.1083
  235MPD1    H3 3625   2.795   4.298  10.150  2.9481 -1.2371 -0.4521
  235MPD1     N 3626   3.081   4.653  10.100  0.3877 -0.3537  0.1288
  235MPD1    H5 3627   3.116   4.713  10.026  1.0200 -0.7093  0.1441
  235MPD1    N1 3628   2.804   4.482   9.748  0.4907 -0.6646  0.0377
  235MPD1    H6 3629   2.878   4.518   9.688  0.4372  1.8620  1.4806
  235MPD1    H7 3630   2.766   4.395   9.713 -1.0267  0.4214 -1.0420
  236MPD1     C 3631   1.735   1.270   9.824  0.5133  0.0183  0.1706
  236MPD1    C1 3632   1.819   1.365   9.852 -0.2879 -0.6421 -0.2126
  236MPD1    C2 3633   1.952   1.328   9.879 -0.0065  0.7817  0.9644
  236MPD1    C3 3634   1.985   1.199   9.912 -0.1054 -0.7738  0.4584
  236MPD1    C4 3635   1.888   1.104   9.891  0.1726 -0.1139  0.0689
  236MPD1    C5 3636   1.763   1.136   9.839 -0.2556  0.3232 -0.4703
  236MPD1     H 3637   2.018   1.414   9.880  2.6350 -1.2689  0.3347
  236MPD1    H1 3638   1.917   1.000   9.901  0.3694 -0.0183  0.4912
  236MPD1    H2 3639   1.636   1.292   9.785  1.3897  1.5780 -1.1832
  236MPD1    H3 3640   1.690   1.063   9.805 -0.2311 -0.8135  1.9377
  236MPD1     N 3641   2.114   1.158   9.952 -0.1711 -0.2237 -0.0746
  236MPD1    H5 3642   2.121   1.063   9.986  2.1202 -0.6891 -1.8081
  236MPD1    N1 3643   1.794   1.499   9.835 -0.0967  0.0035  0.3910
  236MPD1    H6 3644   1.697   1.521   9.854 -0.2714  0.5940 -1.2297
  236MPD1    H7 3645   1.847   1.547   9.909  2.8514 -1.2349 -0.9255
  237MPD1     C 3646   3.310   3.695  14.761  0.2759  0.5566  0.3923
  237MPD1    C1 3647   3.263   3.809  14.706 -0.7917  0.0477  0.0438
  237MPD1    C2 3648   3.155   3.868  14.763 -0.0724  0.2031  0.5758
  237MPD1    C3 3649   3.086   3.805  14.866 -0.0663  0.4096 -0.7106
  237MPD1    C4 3650   3.118   3.678  14.902  0.3589 -0.3041  0.4859
  237MPD1    C5 3651   3.232   3.624  14.846 -0.5651  0.0041  0.3324
  237MPD1     H 3652   3.128   3.968  14.733 -0.0234 -0.3347 -1.2915
  237MPD1    H1 3653   3.062   3.627  14.980 -0.1235 -1.1023 -0.3725
  237MPD1    H2 3654   3.404   3.649  14.732 -0.4262 -0.1575 -0.7314
  237MPD1    H3 3655   3.281   3.534  14.879  3.7963  2.9451  1.9695
  237MPD1     N 3656   2.981   3.860  14.940  0.5641  0.3418  0.6637
  237MPD1    H5 3657   2.945   3.802  15.015 -0.5007 -2.4068 -1.9438
  237MPD1    N1 3658   3.338   3.882  14.607  0.0735  0.3351 -0.4516
  237MPD1    H6 3659   3.384   3.818  14.543 -0.9528 -0.1506 -0.7161
  237MPD1    H7 3660   3.281   3.941  14.547  0.0788 -0.2377 -1.0228
  238MPD1     C 3661   0.159   2.273  15.457  0.7748  0.0117 -0.1738
  238MPD1    C1 3662   0.035   2.303  15.504 -0.0379 -0.5325  0.6026
  238MPD1    C2 3663   4.671   2.321  15.414 -0.1557 -0.4668 -0.1515
  238MPD1    C3 3664   4.687   2.278  15.277 -0.1954  0.3019  0.2538
  238MPD1    C4 3665   0.070   2.242  15.236 -0.1402  0.4815 -0.3640
  238MPD1    C5 3666   0.175   2.233  15.328 -0.1878  0.7744  0.3691
  238MPD1     H 3667   4.574   2.341  15.458  1.1885  2.2479  1.5783
  238MPD1    H1 3668   0.096   2.217  15.134 -0.3403  0.2995 -0.3690
  238MPD1    H2 3669   0.238   2.267  15.531  1.2560 -1.6206 -0.8251
  238MPD1    H3 3670   0.272   2.197  15.297 -1.3528 -0.2313 -2.0989
  238MPD1     N 3671   4.576   2.282  15.188  0.0372 -0.9390  0.1009
  238MPD1    H5 3672   4.589   2.241  15.096  0.3846 -1.7508  0.5225
  238MPD1    N1 3673   0.019   2.337  15.635  0.0038 -0.4376 -0.1316
  238MPD1    H6 3674   0.076   2.283  15.700  0.0555  0.7334  0.7676
  238MPD1    H7 3675   4.666   2.309  15.663  0.3539 -3.4334 -1.8693
  239MPD1     C 3676   0.113   3.134  14.863 -0.1120 -0.8655 -0.5788
  239MPD1    C1 3677   0.220   3.167  14.779  0.3988  0.0852  0.2883
  239MPD1    C2 3678   0.205   3.252  14.673  0.1014 -0.1719 -0.9508
  239MPD1    C3 3679   0.094   3.329  14.657  0.3814  0.2362  0.3752
  239MPD1    C4 3680   4.733   3.310  14.745 -0.6355 -0.0278  0.1316
  239MPD1    C5 3681   0.002   3.211  14.839 -0.1692 -0.1581  0.0750
  239MPD1     H 3682   0.280   3.263  14.597 -0.9218  1.4980 -1.7202
  239MPD1    H1 3683   4.644   3.371  14.749 -1.9364 -1.9228  0.0673
  239MPD1    H2 3684   0.109   3.056  14.938 -1.3470  0.1985  0.4613
  239MPD1    H3 3685   4.658   3.201  14.908 -0.4410 -0.9469 -0.3744
  239MPD1     N 3686   0.080   3.423  14.554  0.3028  0.1326  0.0567
  239MPD1    H5 3687   4.726   3.459  14.541  0.5401  0.4051 -0.9310
  239MPD1    N1 3688   0.330   3.082  14.774  0.5303 -0.2039  0.2406
  239MPD1    H6 3689   0.364   3.073  14.870 -1.5004 -1.1884  0.8592
  239MPD1    H7 3690   0.408   3.116  14.718 -0.0168  0.0076 -0.3890
  240MPD1     C 3691   4.590   2.930  14.674  0.6549  0.2275 -0.6524
  240MPD1    C1 3692   4.586   2.828  14.766  0.6271 -0.3364 -0.0908
  240MPD1    C2 3693   4.464   2.776  14.799 -0.0001 -0.0596  0.3886
  240MPD1    C3 3694   4.361   2.797  14.709  0.5172  0.0649  0.1344
  240MPD1    C4 3695   4.375   2.888  14.607  0.0519  0.5278  0.6827
  240MPD1    C5 3696   4.491   2.952  14.580 -0.0064  0.1215  0.6381
  240MPD1     H 3697   4.454   2.693  14.867 -0.3434 -1.3975 -1.2847
  240MPD1    H1 3698   4.300   2.909  14.532  1.9756 -0.3294 -1.4892
  240MPD1    H2 3699   4.680   2.987  14.652  0.1562  0.5961 -1.7128
  240MPD1    H3 3700   4.496   3.033  14.508  1.1185  0.7336  1.4108
  240MPD1     N 3701   4.246   2.716  14.733  0.0587  0.1994 -0.5136
  240MPD1    H5 3702   4.258   2.658  14.815  0.2383  1.8560  0.6288
  240MPD1    N1 3703   4.706   2.793  14.831  0.6502 -0.3992 -0.5823
  240MPD1    H6 3704   4.705   2.694  14.854 -1.3078  0.2604  2.2007
  240MPD1    H7 3705   0.049   2.813  14.776 -0.9443  0.1210 -2.7952
  241MPD1     C 3706   3.571   2.647  15.441 -0.7340  0.4860 -0.4083
  241MPD1    C1 3707   3.669   2.729  15.394  0.0283 -0.2227 -0.6305
  241MPD1    C2 3708   3.730   2.697  15.271  0.2918 -0.3358 -0.1628
  241MPD1    C3 3709   3.712   2.568  15.211  0.2248  0.7508 -1.1903
  241MPD1    C4 3710   3.615   2.489  15.268  0.1326 -0.4183 -0.8674
  241MPD1    C5 3711   3.549   2.522  15.379  0.4093  0.7065  0.1557
  241MPD1     H 3712   3.794   2.771  15.224  0.2530  0.6288  1.3161
  241MPD1    H1 3713   3.590   2.388  15.236 -0.3379 -0.8252  0.8084
  241MPD1    H2 3714   3.508   2.666  15.528  0.2676  2.2997 -0.0934
  241MPD1    H3 3715   3.480   2.448  15.416  1.1923 -0.1514 -0.1128
  241MPD1     N 3716   3.751   2.542  15.076  0.0826 -0.0240  0.3445
  241MPD1    H5 3717   3.711   2.460  15.031  0.3193  0.5946 -0.9849
  241MPD1    N1 3718   3.675   2.855  15.451  0.6187 -0.5956 -0.3683
  241MPD1    H6 3719   3.656   2.853  15.551  0.8023 -0.9093 -0.3375
  241MPD1    H7 3720   3.761   2.907  15.440 -1.6287  2.8487 -1.5370
  242MPD1     C 3721   3.865   2.144  16.050 -0.5256  0.0711 -0.0129
  242MPD1    C1 3722   3.992   2.136  15.995  0.5984  0.8978 -0.9164
  242MPD1    C2 3723   4.021   2.032  15.907 -0.7993 -0.0023 -0.1347
  242MPD1    C3 3724   3.926   1.944  15.863 -0.3025  0.4426  0.7197
  242MPD1    C4 3725   3.799   1.972  15.898 -0.3315 -0.7599  0.5209
  242MPD1    C5 3726   3.769   2.059  15.998 -0.5021 -0.3000 -0.4973
  242MPD1     H 3727   4.116   2.025  15.855 -0.9010 -0.7721 -0.2160
  242MPD1    H1 3728   3.716   1.911  15.865  0.6501 -2.1033  0.5475
  242MPD1    H2 3729   3.840   2.211  16.132  0.6982 -0.2578  0.6194
  242MPD1    H3 3730   3.670   2.061  16.043  0.8447 -1.7216  2.5421
  242MPD1     N 3731   3.942   1.838  15.770  0.0140  0.2044  0.6774
  242MPD1    H5 3732   3.858   1.799  15.729 -1.4040  1.3101  2.5177
  242MPD1    N1 3733   4.082   2.236  16.015  0.1532  0.2331 -0.3866
  242MPD1    H6 3734   4.175   2.196  16.025 -0.7003 -1.7337 -0.2951
  242MPD1    H7 3735   4.061   2.273  16.107  0.1544  2.3768 -1.2638
  243MPD1     C 3736   0.067   4.698  17.709 -0.6897  0.3702 -0.0130
  243MPD1    C1 3737   0.143   4.600   0.009 -0.0531 -0.4139  0.2961
  243MPD1    C2 3738   0.241   4.540  17.693 -0.0574  0.5868 -0.0401
  243MPD1    C3 3739   0.238   4.543  17.552 -0.2653  0.5529  0.4838
  243MPD1    C4 3740   0.144   4.626  17.500  0.0184 -0.0891 -0.4833
  243MPD1    C5 3741   0.061   4.710  17.572 -0.3143 -0.6694 -0.8708
  243MPD1     H 3742   0.312   4.474  17.740  0.5677 -0.1383 -1.9945
  243MPD1    H1 3743   0.131   4.629  17.392 -1.0128 -0.8801 -0.3766
  243MPD1    H2 3744   0.002   0.020   0.011 -3.3623 -2.1426 -0.3533
  243MPD1    H3 3745   4.728   0.025  17.513 -1.1601 -0.6259  0.1975
  243MPD1     N 3746   0.345   4.480  17.479 -0.3286 -0.2178 -0.3865
  243MPD1    H5 3747   0.406   4.425  17.537  0.2033 -0.8136 -1.5127
  243MPD1    N1 3748   0.140   4.586   0.150 -0.5690  0.3516  0.9572
  243MPD1    H6 3749   0.051   4.592   0.199 -0.5998 -1.4147  1.0827
  243MPD1    H7 3750   0.173   4.497   0.186 -0.9522 -1.4875 -3.2274
  244MPD1     C 3751   0.795   3.876   0.044 -0.2457  0.0788  0.4017
  244MPD1    C1 3752   0.806   4.006   0.083 -0.2870  0.1064  0.4287
  244MPD1    C2 3753   0.756   4.100  17.748  0.2624  0.4653 -0.1153
  244MPD1    C3 3754   0.731   4.062  17.621  0.0303  0.0531 -0.4758
  244MPD1    C4 3755   0.756   3.933  17.578 -0.0901 -0.3817 -0.0670
  244MPD1    C5 3756   0.777   3.835  17.670 -0.6480  0.2458  0.0621
  244MPD1     H 3757   0.750   4.206   0.014  0.2106  0.2424  0.9084
  244MPD1    H1 3758   0.759   3.905  17.473  2.4846 -0.5520  0.0414
  244MPD1    H2 3759   0.816   3.793   0.110  1.4824  0.1246 -0.0953
  244MPD1    H3 3760   0.778   3.730  17.643 -2.9289 -0.2898  1.9675
  244MPD1     N 3761   0.721   4.175  17.532 -0.0351  0.1640 -0.1400
  244MPD1    H5 3762   0.710   4.265  17.578 -0.9184 -1.2321  2.3590
  244MPD1    N1 3763   0.824   4.045   0.224  0.8400  0.0205 -0.3481
  244MPD1    H6 3764   0.874   4.132   0.240  1.8538 -0.6774  0.3710
  244MPD1    H7 3765   0.886   3.977   0.269  0.7318 -0.4415 -0.9006
  245MPD1     C 3766   2.951   0.591  13.101 -0.0388 -0.4043  0.3500
  245MPD1    C1 3767   3.061   0.608  13.178  0.2536 -0.2518 -0.2876
  245MPD1    C2 3768   3.101   0.738  13.201  0.2027 -1.0721  0.1154
  245MPD1    C3 3769   3.047   0.844  13.134  0.1118 -0.5326 -0.8870
  245MPD1    C4 3770   2.937   0.819  13.052 -0.6480 -0.3751 -0.0274
  245MPD1    C5 3771   2.888   0.695  13.045 -0.6652  0.1084 -0.5903
  245MPD1     H 3772   3.182   0.756  13.270  0.5110  1.0734 -0.8099
  245MPD1    H1 3773   2.897   0.900  12.992 -1.5536 -0.8524 -0.0661
  245MPD1    H2 3774   2.904   0.494  13.086 -0.8386 -0.2416  1.7883
  245MPD1    H3 3775   2.799   0.686  12.983 -0.1354  1.1047 -1.4990
  245MPD1     N 3776   3.100   0.974  13.153  0.7146 -0.7585 -0.2452
  245MPD1    H5 3777   3.171   0.979  13.225  0.6192  1.0348 -0.2548
  245MPD1    N1 3778   3.115   0.497  13.245  0.2028 -0.0975  0.0563
  245MPD1    H6 3779   3.207   0.502  13.287  0.7548 -0.6245 -1.0811
  245MPD1    H7 3780   3.123   0.419  13.179 -3.4091  1.2769 -2.0343
  246MPD1     C 3781   3.982   1.721   9.267  0.1149  0.0349  0.3114
  246MPD1    C1 3782   3.864   1.685   9.329  0.3911 -0.0572 -0.2634
  246MPD1    C2 3783   3.795   1.773   9.411  0.1349  0.4281 -0.4711
  246MPD1    C3 3784   3.824   1.903   9.406  0.4883 -0.2918  0.0346
  246MPD1    C4 3785   3.941   1.939   9.341  0.2427 -0.4028 -0.7048
  246MPD1    C5 3786   4.022   1.849   9.284  0.0180  0.0681  0.9323
  246MPD1     H 3787   3.704   1.742   9.463  1.4227 -3.5762 -0.6015
  246MPD1    H1 3788   3.983   2.038   9.354  1.2971 -1.1523  1.5509
  246MPD1    H2 3789   4.035   1.655   9.199  0.8438 -0.2771  1.1792
  246MPD1    H3 3790   4.101   1.886   9.221  0.3846  0.4817  1.6395
  246MPD1     N 3791   3.752   1.997   9.488 -0.3534 -0.1367 -0.0394
  246MPD1    H5 3792   3.670   1.960   9.535 -0.7527 -0.4151 -0.9602
  246MPD1    N1 3793   3.831   1.548   9.335 -0.2049 -0.3066  0.1637
  246MPD1    H6 3794   3.858   1.497   9.251  3.3745  1.0723  0.4502
  246MPD1    H7 3795   3.731   1.541   9.350 -0.5345  1.5831 -1.0791
  247MPD1     C 3796   2.585   0.962  16.817  0.1225  0.4821  0.7736
  247MPD1    C1 3797   2.636   1.009  16.703 -0.1959  0.6743 -0.6577
  247MPD1    C2 3798   2.621   0.939  16.590 -0.1322  0.1249  0.9413
  247MPD1    C3 3799   2.542   0.822  16.589 -0.5272 -0.2346  0.4159
  247MPD1    C4 3800   2.484   0.778  16.702 -0.0248  0.8976 -0.7021
  247MPD1    C5 3801   2.512   0.847  16.818  0.2289 -0.3748  0.1325
  247MPD1     H 3802   2.677   0.976  16.505 -2.5567 -2.8413 -1.9559
  247MPD1    H1 3803   2.421   0.690  16.699  0.7719  0.2205  2.8317
  247MPD1    H2 3804   2.603   1.012  16.911 -0.8511 -0.4513  1.4597
  247MPD1    H3 3805   2.470   0.827  16.915 -0.2552 -0.4105 -0.0828
  247MPD1     N 3806   2.510   0.746  16.470  0.1941 -0.1929  0.2686
  247MPD1    H5 3807   2.453   0.664  16.486 -0.1728  0.0255  0.0633
  247MPD1    N1 3808   2.740   1.109  16.708 -0.1805 -0.1060 -0.3693
  247MPD1    H6 3809   2.731   1.178  16.782  1.8089 -0.2085 -0.0237
  247MPD1    H7 3810   2.744   1.160  16.619 -1.3583  1.4307  0.4641
  248MPD1     C 3811   2.532   4.069  17.718 -0.7539 -0.4227 -0.3275
  248MPD1    C1 3812   2.451   4.168  17.675  0.0007 -0.4246 -0.0244
  248MPD1    C2 3813   2.465   4.298  17.734 -0.6360  0.1454 -0.0789
  248MPD1    C3 3814   2.533   4.313   0.096  0.3222  0.3509 -0.6273
  248MPD1    C4 3815   2.610   4.211   0.142  0.2926  0.7542 -0.0598
  248MPD1    C5 3816   2.608   4.091   0.071 -0.6511 -0.8578  0.2266
  248MPD1     H 3817   2.414   4.384  17.691  0.4303  1.3077  0.9753
  248MPD1    H1 3818   2.668   4.207   0.233  0.5177 -2.9027 -0.3925
  248MPD1    H2 3819   2.551   3.973  17.672  1.2227 -0.4854  0.6199
  248MPD1    H3 3820   2.665   4.007   0.109 -0.1391  0.9329  3.4512
  248MPD1     N 3821   2.530   4.445   0.159  0.1086 -0.4327  0.2937
  248MPD1    H5 3822   2.483   4.524   0.115  0.2118 -0.0506  0.8564
  248MPD1    N1 3823   2.393   4.160  17.545 -0.2705  0.2215  0.2516
  248MPD1    H6 3824   2.313   4.222  17.542 -0.8038 -0.3025  3.8458
  248MPD1    H7 3825   2.354   4.067  17.532 -0.7838  0.3328  0.9966
  249MPD1     C 3826   4.245   3.577   9.879 -0.1691  0.0155 -0.2928
  249MPD1    C1 3827   4.198   3.610   9.999  0.1960 -0.3455 -0.1040
  249MPD1    C2 3828   4.253   3.717  10.072 -0.8730 -0.1463 -0.5007
  249MPD1    C3 3829   4.358   3.783  10.009  0.5068 -0.0449 -0.2200
  249MPD1    C4 3830   4.400   3.745   9.883  1.0127 -0.8590 -0.2284
  249MPD1    C5 3831   4.334   3.645   9.813  0.1748  0.0860 -0.5550
  249MPD1     H 3832   4.225   3.737  10.175 -1.3402 -0.6748 -0.5266
  249MPD1    H1 3833   4.465   3.811   9.827 -0.0631  2.9404  3.0447
  249MPD1    H2 3834   4.208   3.495   9.819  1.4757  0.3952 -1.8301
  249MPD1    H3 3835   4.370   3.620   9.714  0.5920  0.1973 -0.4349
  249MPD1     N 3836   4.417   3.878  10.089  1.0809 -0.2307 -0.3733
  249MPD1    H5 3837   4.386   3.885  10.186  0.0249 -3.1925 -0.5043
  249MPD1    N1 3838   4.100   3.529  10.056 -0.0672  0.2317  0.1931
  249MPD1    H6 3839   4.042   3.482   9.987 -0.4799 -0.6375  1.1289
  249MPD1    H7 3840   4.036   3.585  10.113  0.8512  0.4541  1.0143
  250MPD2     C 3841   1.107   4.064  13.062  0.5567 -0.7873 -1.0333
  250MPD2    C1 3842   1.031   4.139  12.974 -0.6484 -0.0981  1.0536
  250MPD2    C2 3843   0.979   4.066  12.863 -0.1305  0.6942  0.2930
  250MPD2    C3 3844   1.008   3.933  12.836 -0.5916 -0.4974  0.0507
  250MPD2    C4 3845   1.091   3.871  12.925 -0.2732  0.4127 -0.2120
  250MPD2    C5 3846   1.142   3.936  13.032  0.4136 -0.2564  0.1121
  250MPD2     H 3847   0.926   4.120  12.785 -2.4379 -2.7613 -0.5651
  250MPD2    H1 3848   1.114   3.767  12.907  0.2177  0.7472 -1.5136
  250MPD2    H2 3849   1.146   4.117  13.148 -0.2855 -0.5206 -0.8156
  250MPD2    H3 3850   1.203   3.880  13.103  1.1951 -0.6432 -0.8694
  250MPD2     N 3851   0.968   3.861  12.723  0.4731  0.3861  0.9587
  250MPD2    H5 3852   1.001   3.766  12.714  0.0051  0.1933  1.2879
  250MPD2    N1 3853   1.022   4.276  12.991  0.1099  0.1848  0.0071
  250MPD2    H7 3854   1.072   4.317  13.069  1.9168 -1.3733 -0.3210
  251TMC3    C1 3855   0.989   4.512  12.929  0.9470  0.1330 -0.2895
  251TMC3    C2 3856   0.890   4.603  12.900  0.3782  0.0568  0.2965
  251TMC3    C3 3857   0.933   4.732  12.904 -0.0645  0.2702 -0.5215
  251TMC3    C4 3858   1.114   4.543  12.968 -0.3563 -0.2909  0.0244
  251TMC3    C5 3859   1.147   4.678  12.970  0.0882  0.7210 -0.4184
  251TMC3    C6 3860   1.057   0.031  12.934 -0.3195 -0.3189 -0.4223
  251TMC3     C 3861   0.945   4.370  12.917  0.4696  0.8426 -0.1460
  251TMC3     O 3862   0.853   4.355  12.838 -0.3548 -0.3874  0.1808
  251TMC3     H 3863   0.788   4.582  12.871 -0.1813  1.1295  1.4931
  251TMC3    H1 3864   1.184   4.468  13.004 -0.9608  0.0751  1.9597
  251TMC3    H2 3865   1.086   0.134  12.917 -2.5411  0.5346  0.9432
  251TMC3    C7 3866   1.280   4.709  12.986 -0.2447 -0.6110  0.3314
  251TMC3    C8 3867   0.837   0.093  12.868 -0.1813 -0.1143  0.3026
  251TMC3    O1 3868   1.350   4.624  13.042  0.2649 -0.0307  0.1658
  251TMC3    O2 3869   0.737   0.067  12.803  0.0978 -0.9082  0.5054
  252TMC3    C1 3870   0.101   0.769   9.574 -0.3740  0.2986 -0.3604
  252TMC3    C2 3871   0.231   0.803   9.571  0.3155  0.2095  0.2814
  252TMC3    C3 3872   0.328   0.727   9.643  0.0572  0.0108  0.8368
  252TMC3    C4 3873   0.058   0.671   9.651 -0.4257 -0.7601  0.0092
  252TMC3    C5 3874   0.150   0.592   9.715 -0.2336 -0.0546  0.2070
  252TMC3    C6 3875   0.287   0.620   9.712 -0.1546  0.3183  0.3875
  252TMC3     C 3876   0.026   0.837   9.467 -0.5290  0.3038 -0.0131
  252TMC3     O 3877   0.093   0.882   9.374 -0.3382 -0.1763 -0.0854
  252TMC3     H 3878   0.261   0.900   9.533 -0.5641  0.3035 -0.1894
  252TMC3    H1 3879   4.692   0.648   9.652 -1.0450  2.2618  3.0139
  252TMC3    H2 3880   0.363   0.555   9.754  0.5128  0.2358 -0.9156
  252TMC3    C7 3881   0.116   0.455   9.750  0.4616  0.1285  0.4354
  252TMC3    C8 3882   0.468   0.775   9.625 -0.4771 -0.4263  0.1853
  252TMC3    O1 3883   4.739   0.419   9.731  0.3601 -0.2461 -0.3739
  252TMC3    O2 3884   0.491   0.867   9.557  0.4028 -0.1922  0.4387
  253MPD2     C 3885   2.516   4.333  15.343  0.0273 -0.6676 -0.3681
  253MPD2    C1 3886   2.383   4.292  15.344 -0.4971  0.3541  0.0813
  253MPD2    C2 3887   2.350   4.208  15.450 -0.2863 -0.4810 -0.2728
  253MPD2    C3 3888   2.433   4.161  15.548 -0.2225 -0.2337  0.1910
  253MPD2    C4 3889   2.565   4.198  15.541 -0.0893 -0.0811  0.6599
  253MPD2    C5 3890   2.603   4.281  15.440 -0.1878 -0.0690 -0.3322
  253MPD2     H 3891   2.248   4.170  15.452 -0.4182 -0.2940 -3.1661
  253MPD2    H1 3892   2.644   4.166  15.608  0.8497  0.5898 -0.1453
  253MPD2    H2 3893   2.551   4.401  15.266  1.0545 -1.6284 -0.7507
  253MPD2    H3 3894   2.703   4.324  15.445  0.4205 -1.2919 -1.7137
  253MPD2     N 3895   2.386   4.077  15.653  0.0958  0.3046 -0.6707
  253MPD2    H5 3896   2.455   4.027  15.708 -1.8282  1.7082  2.9523
  253MPD2    N1 3897   2.288   4.333  15.257  0.2248  0.2314 -0.1859
  253MPD2    H7 3898   2.193   4.304  15.278 -0.0567  0.7154 -0.7976
  254TMC3    C1 3899   2.230   3.974  15.807 -0.7919 -0.2111  0.0677
  254TMC3    C2 3900   2.097   3.948  15.825 -0.6961  0.2020  0.0606
  254TMC3    C3 3901   2.060   3.835  15.886 -0.2790 -0.3115 -0.6175
  254TMC3    C4 3902   2.326   3.905  15.878  0.2806 -0.4425  0.1424
  254TMC3    C5 3903   2.285   3.792  15.949 -0.3258  0.8121  0.4594
  254TMC3    C6 3904   2.148   3.754  15.953  0.0964 -0.3952  0.1541
  254TMC3     C 3905   2.258   4.071  15.702 -0.8281  0.8553 -0.2030
  254TMC3     O 3906   2.161   4.130  15.661  0.5137 -0.1192  0.0880
  254TMC3     H 3907   2.019   3.999  15.770 -0.0280  0.6651 -0.4504
  254TMC3    H1 3908   2.429   3.938  15.873 -0.3353  1.3713 -0.8214
  254TMC3    H2 3909   2.119   3.658  15.996  0.8645  0.5873  2.8889
  254TMC3    C7 3910   2.379   3.729  16.039 -0.1053  0.2740  0.4802
  254TMC3    C8 3911   1.934   3.837  15.969 -0.1243 -0.5371  0.0609
  254TMC3    O1 3912   2.327   3.647  16.112  0.0467  0.0013 -0.1337
  254TMC3    O2 3913   1.930   3.767  16.071 -0.0341  0.0710 -0.9362
  255MPD2     C 3914   4.375   1.870   9.624  0.0979  0.1713  0.0929
  255MPD2    C1 3915   4.445   1.788   9.711 -0.8218  0.1311  0.9556
  255MPD2    C2 3916   4.466   1.650   9.688  0.0930  0.0461 -0.3398
  255MPD2    C3 3917   4.391   1.597   9.583  0.1030  0.3208  0.1397
  255MPD2    C4 3918   4.329   1.680   9.494  0.4607  0.4402  0.1264
  255MPD2    C5 3919   4.316   1.813   9.511 -0.1038 -0.4536 -0.2359
  255MPD2     H 3920   4.532   1.579   9.738 -1.2825 -1.4483 -0.6647
  255MPD2    H1 3921   4.297   1.641   9.398 -3.6464 -1.2061  2.1868
  255MPD2    H2 3922   4.360   1.976   9.640  0.8231  0.2468  0.2465
  255MPD2    H3 3923   4.258   1.878   9.447  1.2659 -0.6582 -1.6878
  255MPD2     N 3924   4.411   1.457   9.565 -0.5777  0.2143 -0.5869
  255MPD2    H5 3925   4.472   1.414   9.633 -2.2924  0.2717  0.9889
  255MPD2    N1 3926   4.513   1.856   9.812 -0.1250  0.1309 -0.2924
  255MPD2    H7 3927   4.507   1.957   9.816  0.1810  0.1361  0.0634
  256TMC3    C1 3928   4.691   1.898   9.942  0.0306  1.0082  0.1389
  256TMC3    C2 3929   4.735   1.977   9.849 -0.1475  0.1301 -0.3387
  256TMC3    C3 3930   0.050   2.091   9.894 -1.1462 -0.1536  0.0043
  256TMC3    C4 3931   4.698   1.924  10.076  0.7029 -0.1408 -0.6330
  256TMC3    C5 3932   0.004   2.045  10.119  0.5463  0.1696  0.3188
  256TMC3    C6 3933   0.050   2.134  10.021  1.1247 -0.1134  0.0734
  256TMC3     C 3934   4.589   1.797   9.907  0.0441 -0.1183  1.6177
  256TMC3     O 3935   4.604   1.680   9.937 -0.2050 -0.3192  0.2993
  256TMC3     H 3936   4.737   1.937   9.749  1.9257 -2.1639  0.6196
  256TMC3    H1 3937   4.655   1.854  10.146 -2.3948  3.1321  0.6977
  256TMC3    H2 3938   0.102   2.222  10.055 -0.1675  1.0040 -0.8651
  256TMC3    C7 3939   4.653   2.102  10.218  0.1882  1.0775 -0.1879
  256TMC3    C8 3940   0.138   2.148   9.790 -0.2771 -0.2602  0.6058
  256TMC3    O1 3941   4.544   2.046  10.219  0.1729 -0.4858  0.0674
  256TMC3    O2 3942   0.171   2.078   9.694  0.3106 -0.4434 -0.1710
  257MPD2     C 3943   4.324   4.255  13.266  0.0691  0.4852 -0.4626
  257MPD2    C1 3944   4.234   4.153  13.231  0.4190 -0.1898  0.6085
  257MPD2    C2 3945   4.238   4.023  13.288  0.2342  0.6051 -0.3223
  257MPD2    C3 3946   4.337   3.997  13.376 -0.4890 -0.1343 -0.6836
  257MPD2    C4 3947   4.434   4.098  13.406  0.1098  0.1485 -0.8810
  257MPD2    C5 3948   4.429   4.224  13.348 -1.0065  0.4947 -0.0827
  257MPD2     H 3949   4.170   3.941  13.269 -0.7262  1.0983  0.9691
  257MPD2    H1 3950   4.512   4.080  13.478 -0.8471  0.7992  0.3252
  257MPD2    H2 3951   4.312   4.356  13.229 -1.7919  0.2769 -0.4634
  257MPD2    H3 3952   4.498   4.299  13.385 -1.3294  1.7651 -2.0473
  257MPD2     N 3953   4.349   3.864  13.431  0.4587  0.2596 -0.0739
  257MPD2    H5 3954   4.278   3.794  13.413  0.3880  0.0410  1.0846
  257MPD2    N1 3955   4.138   4.187  13.126  0.1865 -0.3281 -0.4372
  257MPD2    H7 3956   4.140   4.282  13.092 -1.6107 -0.9909 -2.4016
  258TMC3    C1 3957   4.429   3.678  13.551  0.0178 -0.3507 -0.1471
  258TMC3    C2 3958   4.406   3.593  13.445  0.0472 -0.1902 -0.5759
  258TMC3    C3 3959   4.410   3.464  13.480  0.8355 -0.4842 -0.0888
  258TMC3    C4 3960   4.476   3.640  13.678 -0.1902 -0.2526 -0.8223
  258TMC3    C5 3961   4.497   3.509  13.702 -0.1113  0.0858  0.0388
  258TMC3    C6 3962   4.461   3.422  13.601  0.0707  0.4976  0.3985
  258TMC3     C 3963   4.442   3.821  13.524  0.0224  0.8211  0.5569
  258TMC3     O 3964   4.522   3.885  13.594  0.0360  0.5203  0.4672
  258TMC3     H 3965   4.377   3.632  13.348  0.4252  0.8011 -0.2932
  258TMC3    H1 3966   4.514   3.710  13.752 -3.1997  1.5115 -0.9418
  258TMC3    H2 3967   4.473   3.314  13.612 -1.3320  0.2487 -0.4479
  258TMC3    C7 3968   4.581   3.476  13.810 -0.0964  0.5736  0.0878
  258TMC3    C8 3969   4.367   3.363  13.382  0.2236  0.9782 -0.1538
  258TMC3    O1 3970   4.617   3.566  13.884 -0.2334  0.2271 -0.2371
  258TMC3    O2 3971   4.386   3.244  13.401  0.1593  0.1874  0.9167
  259MPD2     C 3972   3.433   0.842   0.381 -0.0718  1.0119 -0.5946
  259MPD2    C1 3973   3.463   0.705   0.349  0.5668  0.4345 -0.2324
  259MPD2    C2 3974   3.492   0.672   0.220 -0.3089 -0.6415 -0.4042
  259MPD2    C3 3975   3.489   0.767   0.119  0.3390  0.0847 -0.3850
  259MPD2    C4 3976   3.469   0.904   0.150  0.4069  0.2345  1.0613
  259MPD2    C5 3977   3.425   0.932   0.277 -0.3016 -0.4077  0.0496
  259MPD2     H 3978   3.513   0.568   0.198 -1.2484 -0.8249 -0.4270
  259MPD2    H1 3979   3.462   0.978   0.071 -0.2260 -0.5653  0.3728
  259MPD2    H2 3980   3.432   0.867   0.486 -0.9187  0.7773 -0.5499
  259MPD2    H3 3981   3.389   1.033   0.291 -0.3592 -0.6051  1.3523
  259MPD2     N 3982   3.530   0.729  17.746 -0.1126 -0.1016  0.2239
  259MPD2    H5 3983   3.543   0.630  17.728  1.4408  0.1959 -0.2941
  259MPD2    N1 3984   3.456   0.615   0.451 -0.8743  0.0322 -0.3289
  259MPD2    H7 3985   3.421   0.646   0.541 -0.0437 -0.0402  0.0187
  260TMC3    C1 3986   3.660   0.761  17.539 -0.4506 -0.2926 -0.6231
  260TMC3    C2 3987   3.742   0.844  17.464 -0.2423  0.2867  0.8055
  260TMC3    C3 3988   3.854   0.787  17.423 -0.4248 -0.8298  0.1185
  260TMC3    C4 3989   3.668   0.628  17.532 -0.8016  0.2960 -0.2499
  260TMC3    C5 3990   3.758   0.571  17.445 -0.5001 -0.4424  0.3054
  260TMC3    C6 3991   3.857   0.648  17.398  0.1381 -0.1945 -0.3884
  260TMC3     C 3992   3.585   0.820  17.645 -0.0573 -0.0352 -0.5430
  260TMC3     O 3993   3.580   0.941  17.653 -0.7753  0.0968 -0.2813
  260TMC3     H 3994   3.746   0.952  17.470 -0.5529  0.5100 -2.6429
  260TMC3    H1 3995   3.590   0.565  17.572  1.0528 -1.5445  0.4724
  260TMC3    H2 3996   3.933   0.605  17.334  0.8449  1.1479 -0.4356
  260TMC3    C7 3997   3.791   0.431  17.458 -0.4601 -0.2940  0.5937
  260TMC3    C8 3998   3.962   0.820  17.508 -0.1147  0.0180 -0.3330
  260TMC3    O1 3999   3.875   0.398  17.377 -0.3061  0.0309  0.3854
  260TMC3    O2 4000   3.954   0.926  17.569 -0.2239 -0.1815  0.3094
  261MPD2     C 4001   0.286   3.727  12.258 -0.0650  0.4851  0.3638
  261MPD2    C1 4002   0.388   3.817  12.223  1.2893  1.0734  0.8655
  261MPD2    C2 4003   0.370   3.928  12.147 -0.2703  0.2252  0.8435
  261MPD2    C3 4004   0.247   3.951  12.092 -0.3785 -0.6496 -0.1436
  261MPD2    C4 4005   0.138   3.865  12.129 -0.4256  0.3482  0.2042
  261MPD2    C5 4006   0.161   3.760  12.217  0.4177  0.1120 -0.1498
  261MPD2     H 4007   0.458   3.986  12.121 -0.2305 -0.0193  0.4185
  261MPD2    H1 4008   0.038   3.869  12.088 -0.7838 -1.8581  0.8616
  261MPD2    H2 4009   0.299   3.641  12.322  0.5046 -0.3214 -0.8154
  261MPD2    H3 4010   0.072   3.706  12.247  0.5332 -0.5650 -1.0225
  261MPD2     N 4011   0.225   4.043  11.982 -0.1423 -0.3886 -0.5322
  261MPD2    H5 4012   0.307   4.089  11.943  0.9600 -2.6466 -0.8342
  261MPD2    N1 4013   0.522   3.798  12.269  0.9708 -0.1156  0.6180
  261MPD2    H7 4014   0.592   3.870  12.255 -2.5614  3.4729  1.2100
  262TMC3    C1 4015   0.130   4.110  11.771  0.3008 -0.1827  0.1826
  262TMC3    C2 4016   0.016   4.154  11.714  0.0299 -0.7653 -0.3557
  262TMC3    C3 4017   0.004   4.137  11.578 -0.0387  0.0472  0.0425
  262TMC3    C4 4018   0.237   4.062  11.692 -0.1633  0.5334  0.2977
  262TMC3    C5 4019   0.234   4.089  11.555  0.1960  0.1409  0.2309
  262TMC3    C6 4020   0.114   4.113  11.495  0.2825 -0.4668  0.1480
  262TMC3     C 4021   0.108   4.056  11.906 -0.6446 -0.4525 -0.2382
  262TMC3     O 4022   4.739   4.003  11.917 -0.0870  0.0337  0.9495
  262TMC3     H 4023   4.677   4.189  11.779  2.0029  0.8738  1.1421
  262TMC3    H1 4024   0.335   4.037  11.730  0.8500  3.4811 -0.3675
  262TMC3    H2 4025   0.098   4.114  11.388  1.3570  4.2705  0.0443
  262TMC3    C7 4026   0.353   4.102  11.474  0.1796  0.3806 -0.1349
  262TMC3    C8 4027   4.657   4.230  11.506 -0.7498 -0.0254  0.4446
  262TMC3    O1 4028   0.452   4.053  11.526  0.0935 -0.2574 -0.9351
  262TMC3    O2 4029   4.710   4.296  11.417  0.6455  0.3116 -0.4317
  263MPD2     C 4030   0.662   3.088  11.348  0.4539 -0.9188  0.9168
  263MPD2    C1 4031   0.767   3.160  11.381 -0.0242 -0.2422 -0.0589
  263MPD2    C2 4032   0.789   3.281  11.314 -0.7525 -0.1262 -0.7278
  263MPD2    C3 4033   0.696   3.326  11.222  0.5545  0.3119  0.3472
  263MPD2    C4 4034   0.579   3.252  11.193 -0.3477 -0.0902 -0.0617
  263MPD2    C5 4035   0.562   3.131  11.264  0.6366  0.2391  0.0205
  263MPD2     H 4036   0.880   3.338  11.320 -0.6287 -0.4517  0.6302
  263MPD2    H1 4037   0.486   3.286  11.149 -0.0187  0.8105 -0.0629
  263MPD2    H2 4038   0.658   2.990  11.394 -1.0687 -0.5943  1.4630
  263MPD2    H3 4039   0.476   3.068  11.246  0.0073  1.2408 -0.4759
  263MPD2     N 4040   0.714   3.461  11.168  0.3308 -0.1690 -0.5368
  263MPD2    H5 4041   0.795   3.511  11.203  0.2061 -0.7903  0.6312
  263MPD2    N1 4042   0.857   3.105  11.468  0.8160  0.1466  0.0291
  263MPD2    H7 4043   0.839   3.008  11.494  2.9342 -0.2823 -0.0941
  264TMC3    C1 4044   0.708   3.610  10.990  0.6256  0.4797 -0.6121
  264TMC3    C2 4045   0.801   3.690  11.052  0.5904 -0.1912  0.5315
  264TMC3    C3 4046   0.903   3.759  10.979  0.0138 -0.4112  0.3000
  264TMC3    C4 4047   0.726   3.588  10.857  0.3416 -0.3165  0.2358
  264TMC3    C5 4048   0.834   3.637  10.787  0.5209  0.0067  0.3036
  264TMC3    C6 4049   0.915   3.732  10.840  0.7709 -0.8188  0.3740
  264TMC3     C 4050   0.639   3.502  11.056 -0.4304 -0.4007 -0.6977
  264TMC3     O 4051   0.553   3.436  10.996  0.1970  0.3346  0.2741
  264TMC3     H 4052   0.790   3.710  11.158 -3.2511  0.1265  0.0738
  264TMC3    H1 4053   0.661   3.515  10.811  0.2814 -0.7370  1.0110
  264TMC3    H2 4054   0.999   3.776  10.787 -1.0510  1.8637 -0.3218
  264TMC3    C7 4055   0.849   3.592  10.651 -0.1747  0.6120 -0.3527
  264TMC3    C8 4056   0.967   3.887  11.022  0.6138 -0.4512 -0.2841
  264TMC3    O1 4057   0.752   3.550  10.590  0.2605  0.3572 -0.2956
  264TMC3    O2 4058   1.033   3.950  10.940  0.3717  0.3051 -0.8252
  265MPD2     C 4059   3.215   3.538  15.176  0.0819  0.0424  0.5000
  265MPD2    C1 4060   3.327   3.619  15.175 -0.2841  0.3520  0.0013
  265MPD2    C2 4061   3.452   3.577  15.132 -0.0594 -0.5922  0.0236
  265MPD2    C3 4062   3.460   3.461  15.068 -0.3348  0.0479  0.0570
  265MPD2    C4 4063   3.351   3.375  15.078  0.5537 -0.3467  0.7856
  265MPD2    C5 4064   3.231   3.410  15.128 -0.1003 -0.5679 -0.1410
  265MPD2     H 4065   3.538   3.643  15.132 -0.3948 -0.1690  1.3831
  265MPD2    H1 4066   3.354   3.281  15.025  1.7395  0.1555 -0.0406
  265MPD2    H2 4067   3.115   3.573  15.201 -0.1502  0.3864 -0.9113
  265MPD2    H3 4068   3.144   3.345  15.125 -1.8451  1.7073  1.4180
  265MPD2     N 4069   3.577   3.418  14.999 -0.2809  0.2049 -0.0627
  265MPD2    H5 4070   3.564   3.337  14.940 -0.6189 -0.5016  0.9702
  265MPD2    N1 4071   3.321   3.746  15.231 -0.3719 -0.2311  0.1527
  265MPD2    H7 4072   3.409   3.796  15.238 -0.4605 -0.0321 -0.1546
  266TMC3    C1 4073   3.219   3.937  15.304  0.2581  0.0267 -0.6632
  266TMC3    C2 4074   3.273   3.936  15.426  0.3498 -0.3703  0.6843
  266TMC3    C3 4075   3.235   4.026  15.519 -0.8313  0.2209 -0.5700
  266TMC3    C4 4076   3.124   4.027  15.259  0.2969  0.2437 -0.0005
  266TMC3    C5 4077   3.100   4.128  15.348  0.2797  0.2935  0.4552
  266TMC3    C6 4078   3.153   4.133  15.476  0.2023 -0.0085  0.0109
  266TMC3     C 4079   3.207   3.811  15.249 -0.0424 -0.4074 -0.1062
  266TMC3     O 4080   3.086   3.786  15.224 -0.3571  0.0854  0.4972
  266TMC3     H 4081   3.344   3.861  15.458  0.3126 -0.1380  1.3112
  266TMC3    H1 4082   3.072   4.008  15.165  2.8761  0.6698 -1.5262
  266TMC3    H2 4083   3.144   4.224  15.535 -4.8514 -0.0184 -0.7303
  266TMC3    C7 4084   3.022   4.244  15.301 -0.0881  0.0655 -0.2888
  266TMC3    C8 4085   3.339   4.039  15.625  0.0206  0.0486 -0.4347
  266TMC3    O1 4086   2.936   4.225  15.218  0.2314  0.5460 -0.7435
  266TMC3    O2 4087   3.400   3.939  15.656  0.3302 -0.0248  0.5767
  267MPD2     C 4088   0.600   0.673  17.738 -0.0289 -0.3584  0.0853
  267MPD2    C1 4089   0.737   0.657  17.742 -0.2074  0.4572  0.2911
  267MPD2    C2 4090   0.807   0.638  17.621 -0.0419  0.3168  0.3923
  267MPD2    C3 4091   0.739   0.647  17.501  0.7187  0.1499  0.2130
  267MPD2    C4 4092   0.605   0.663  17.500  0.3410 -0.0226 -0.0659
  267MPD2    C5 4093   0.533   0.666  17.613  0.2617  0.4832  0.3243
  267MPD2     H 4094   0.912   0.611  17.613  0.2096  1.7739 -1.2041
  267MPD2    H1 4095   0.545   0.665  17.409  0.5374  0.3281 -0.1883
  267MPD2    H2 4096   0.543   0.681   0.072 -1.1468 -0.1312 -0.6377
  267MPD2    H3 4097   0.426   0.679  17.599  0.3161 -0.3352 -0.9147
  267MPD2     N 4098   0.801   0.635  17.375 -0.2486 -0.1752  0.0367
  267MPD2    H5 4099   0.737   0.615  17.299  0.2508 -0.5862 -0.2749
  267MPD2    N1 4100   0.818   0.663   0.100  0.0717  0.0708  0.3129
  267MPD2    H7 4101   0.912   0.627   0.096 -0.0670 -0.0404 -2.0340
  268TMC3    C1 4102   0.860   0.667   0.333  0.1380 -1.0171 -0.4516
  268TMC3    C2 4103   0.887   0.785   0.394 -0.6402 -0.5690 -0.1180
  268TMC3    C3 4104   1.000   0.805   0.464  0.7609  0.0896 -0.2762
  268TMC3    C4 4105   0.962   0.581   0.323 -0.6412 -0.3615 -0.4758
  268TMC3    C5 4106   1.084   0.602   0.381  0.3414  0.0398  0.0133
  268TMC3    C6 4107   1.100   0.715   0.462  0.5305  0.6813 -0.2895
  268TMC3     C 4108   0.761   0.677   0.227 -0.9321  0.6640 -0.0486
  268TMC3     O 4109   0.650   0.715   0.256 -0.8984 -0.4518 -0.2920
  268TMC3     H 4110   0.814   0.864   0.385 -0.6080 -0.6520 -1.0601
  268TMC3    H1 4111   0.940   0.487   0.272  0.9807 -0.0316 -1.7564
  268TMC3    H2 4112   1.186   0.727   0.527  0.5993  1.2074 -0.4818
  268TMC3    C7 4113   1.180   0.486   0.382 -0.2320 -0.1349 -0.5428
  268TMC3    C8 4114   1.042   0.937   0.433 -0.1231  0.7234 -0.4613
  268TMC3    O1 4115   1.250   0.482   0.483  0.0715  0.1070 -0.0492
  268TMC3    O2 4116   1.044   1.025   0.519 -0.1097 -0.7236 -0.3131
  269MPD2     C 4117   1.558   4.237  15.642 -0.0462  0.3411  0.3146
  269MPD2    C1 4118   1.426   4.252  15.666 -0.1448  0.2357 -0.3099
  269MPD2    C2 4119   1.372   4.380  15.650  1.1876 -0.6826  0.2583
  269MPD2    C3 4120   1.451   4.488  15.605 -0.0505 -0.3062  0.2170
  269MPD2    C4 4121   1.583   4.464  15.587 -0.2172 -0.8283 -0.0408
  269MPD2    C5 4122   1.640   4.340  15.608  0.6328 -0.2842 -0.3648
  269MPD2     H 4123   1.265   4.394  15.664  0.9559 -1.7795 -0.4740
  269MPD2    H1 4124   1.652   4.540  15.550 -2.1104  1.0901  0.4087
  269MPD2    H2 4125   1.608   4.142  15.654 -2.5679 -1.1381 -1.0391
  269MPD2    H3 4126   1.741   4.306  15.587  1.0417  0.9822 -0.4738
  269MPD2     N 4127   1.381   4.603  15.577 -0.1961 -0.1270  0.2921
  269MPD2    H5 4128   1.282   4.612  15.597  0.3421 -0.5954  3.1814
  269MPD2    N1 4129   1.357   4.142  15.711 -0.3992 -0.3961  0.2034
  269MPD2    H7 4130   1.401   4.051  15.726  0.9765  0.3701  0.8904
  270TMC3    C1 4131   1.172   4.020  15.806  0.1431  0.0995  0.7241
  270TMC3    C2 4132   1.052   3.980  15.756  0.6607  0.1740  0.5126
  270TMC3    C3 4133   1.013   3.844  15.756 -0.5529 -0.0376  0.1679
  270TMC3    C4 4134   1.254   3.916  15.847 -0.2099  0.4231  0.6399
  270TMC3    C5 4135   1.223   3.788  15.855  0.3307  0.6920  0.0714
  270TMC3    C6 4136   1.100   3.750  15.807 -0.0309  0.1933  0.8649
  270TMC3     C 4137   1.221   4.141  15.754 -0.1104 -0.7286 -0.2372
  270TMC3     O 4138   1.135   4.220  15.742 -0.6184 -0.0649  0.3305
  270TMC3     H 4139   0.990   4.056  15.712 -0.2004 -1.1524 -0.5589
  270TMC3    H1 4140   1.349   3.945  15.888 -0.3028  1.5740  0.0568
  270TMC3    H2 4141   1.075   3.645  15.807 -0.3054  0.2648 -0.1101
  270TMC3    C7 4142   1.326   3.699  15.795  1.5329 -1.1649  0.0629
  270TMC3    C8 4143   0.952   3.792  15.639  0.3754  0.5118 -0.3415
  270TMC3    O1 4144   1.441   3.739  15.829  0.0455 -0.2153 -0.0960
  270TMC3    O2 4145   1.018   3.705  15.581  0.4311 -0.2293  0.6141
  271MPD2     C 4146   0.498   3.870  13.841  0.7689 -0.2905 -0.4446
  271MPD2    C1 4147   0.488   3.941  13.960 -0.5648  0.0236  0.5709
  271MPD2    C2 4148   0.412   4.058  13.956 -0.3400  0.1634 -0.3810
  271MPD2    C3 4149   0.345   4.102  13.840 -0.1204 -0.8377 -0.1809
  271MPD2    C4 4150   0.359   4.026  13.726  0.1492 -0.3689  0.1615
  271MPD2    C5 4151   0.429   3.906  13.728  0.3814 -0.0888 -0.0463
  271MPD2     H 4152   0.409   4.119  14.046  0.6684 -1.6356  0.8800
  271MPD2    H1 4153   0.303   4.052  13.638 -1.0255 -0.7054  0.8147
  271MPD2    H2 4154   0.542   3.771  13.845 -0.3583 -0.7258  1.2591
  271MPD2    H3 4155   0.433   3.828  13.653  2.3768  0.6027 -0.6420
  271MPD2     N 4156   0.287   4.229  13.831 -0.1348 -0.1092  0.2114
  271MPD2    H5 4157   0.247   4.251  13.740  1.2833 -1.3653 -0.7124
  271MPD2    N1 4158   0.547   3.901  14.087 -0.2439 -0.6648  0.1601
  271MPD2    H7 4159   0.558   3.959  14.170 -2.3110  1.2437 -0.8874
  272TMC3    C1 4160   0.693   3.766  14.225  0.6878 -0.4274 -0.2324
  272TMC3    C2 4161   0.817   3.706  14.223 -0.5594 -0.2730  0.3733
  272TMC3    C3 4162   0.879   3.692  14.338  0.3984 -0.1909 -0.0564
  272TMC3    C4 4163   0.628   3.804  14.340 -0.5553 -0.2255  0.3797
  272TMC3    C5 4164   0.695   3.784  14.451  0.3087  0.1157  0.2176
  272TMC3    C6 4165   0.819   3.728  14.459  0.2822 -0.0531 -0.5756
  272TMC3     C 4166   0.631   3.788  14.096  0.5678 -0.2254  0.2499
  272TMC3     O 4167   0.676   3.726  14.000  0.0753  0.2891  0.2662
  272TMC3     H 4168   0.870   3.687  14.130  0.2589  0.3248  0.7284
  272TMC3    H1 4169   0.525   3.837  14.340 -1.0555 -1.8016 -0.5861
  272TMC3    H2 4170   0.866   3.714  14.556  1.3680  0.1360 -1.0691
  272TMC3    C7 4171   0.612   3.782  14.568 -0.0120 -1.0651  0.1368
  272TMC3    C8 4172   1.019   3.657  14.328  0.0061  0.2050 -0.1712
  272TMC3    O1 4173   0.497   3.745  14.549 -0.1448 -0.0986  0.4522
  272TMC3    O2 4174   1.072   3.707  14.232 -0.2378 -0.1432 -0.1544
  273MPD2     C 4175   1.359   1.739  11.591 -0.1037 -0.2218 -0.4863
  273MPD2    C1 4176   1.389   1.872  11.600  0.1057  0.9869 -0.5102
  273MPD2    C2 4177   1.358   1.946  11.486 -0.1056  0.3492 -0.1966
  273MPD2    C3 4178   1.290   1.892  11.379  0.5915  0.3747  0.8124
  273MPD2    C4 4179   1.276   1.757  11.374  0.6800  0.0608 -0.0313
  273MPD2    C5 4180   1.315   1.684  11.477 -0.4764 -0.2484  0.4305
  273MPD2     H 4181   1.374   2.053  11.482  1.9889  0.0623  0.7185
  273MPD2    H1 4182   1.229   1.700  11.294  1.3294  1.4123 -1.3777
  273MPD2    H2 4183   1.394   1.672  11.669 -2.7178  0.2045  1.0525
  273MPD2    H3 4184   1.307   1.576  11.465 -0.8424  0.0025 -1.5048
  273MPD2     N 4185   1.233   1.987  11.287 -0.5572 -0.5221  0.2059
  273MPD2    H5 4186   1.235   2.082  11.322 -0.5931  0.4650 -2.4833
  273MPD2    N1 4187   1.451   1.926  11.714  0.3408  0.3156 -0.3590
  273MPD2    H7 4188   1.443   1.862  11.793  0.2916  1.6179  0.6836
  274TMC3    C1 4189   1.163   2.071  11.075  0.4822  0.3579 -1.0766
  274TMC3    C2 4190   1.060   2.065  10.992  0.2337 -0.1921  0.3485
  274TMC3    C3 4191   1.023   2.184  10.934 -0.3155  0.1661 -0.5209
  274TMC3    C4 4192   1.230   2.181  11.111  0.2515 -1.0775 -0.7740
  274TMC3    C5 4193   1.200   2.296  11.035  0.1793  0.6692 -0.7684
  274TMC3    C6 4194   1.097   2.295  10.937 -0.2671  0.5497 -0.2687
  274TMC3     C 4195   1.185   1.954  11.158 -0.2583  0.2454 -0.5580
  274TMC3     O 4196   1.155   1.846  11.108  0.3033 -0.6527 -0.1878
  274TMC3     H 4197   1.006   1.974  10.968 -1.2542  0.6916  0.4124
  274TMC3    H1 4198   1.307   2.174  11.187  0.6954  0.6438 -1.0685
  274TMC3    H2 4199   1.058   2.389  10.901  0.0382  0.6273 -0.3936
  274TMC3    C7 4200   1.243   2.420  11.092 -0.2838  0.2593 -0.0852
  274TMC3    C8 4201   0.904   2.185  10.858  0.1727 -0.8853 -0.0981
  274TMC3    O1 4202   1.177   2.522  11.065  0.5868 -0.1545 -0.1176
  274TMC3    O2 4203   0.813   2.112  10.896 -0.2090 -0.1204  0.2699
  275MPD2     C 4204   1.773   0.225  14.346  0.4740  0.4831  0.2967
  275MPD2    C1 4205   1.672   0.286  14.414  0.3149 -0.2403  0.3053
  275MPD2    C2 4206   1.547   0.236  14.411 -0.8114 -0.9000  0.0649
  275MPD2    C3 4207   1.527   0.115  14.342  0.2783 -0.1498  0.9418
  275MPD2    C4 4208   1.627   0.057  14.264 -0.4229  0.0167 -0.3154
  275MPD2    C5 4209   1.754   0.115  14.270  0.7147 -0.0708  0.3291
  275MPD2     H 4210   1.468   0.277  14.474  1.1773 -0.5400  2.3112
  275MPD2    H1 4211   1.609   4.702  14.214 -1.3815  0.8525 -1.5530
  275MPD2    H2 4212   1.874   0.262  14.353  0.3338  0.9020  0.0836
  275MPD2    H3 4213   1.839   0.077  14.216 -0.8113 -0.2734 -1.9393
  275MPD2     N 4214   1.412   0.038  14.347  0.3868 -0.2102  0.5514
  275MPD2    H5 4215   1.417   4.703  14.278  1.3311  0.7061 -0.3628
  275MPD2    N1 4216   1.687   0.409  14.477  0.2532 -0.3786 -0.1808
  275MPD2    H7 4217   1.605   0.441  14.528  0.9328 -0.4108  0.9259
  276TMC3    C1 4218   1.812   0.573  14.591 -0.2065  0.0043  0.0563
  276TMC3    C2 4219   1.732   0.560  14.699  0.4690  0.1063 -0.7199
  276TMC3    C3 4220   1.773   0.606  14.820  0.6618  0.1899 -0.0785
  276TMC3    C4 4221   1.935   0.634  14.600  0.1572 -0.2341  0.4826
  276TMC3    C5 4222   1.964   0.688  14.721  0.0151 -0.0532 -0.5474
  276TMC3    C6 4223   1.900   0.647  14.837 -0.6173  0.7565 -0.8576
  276TMC3     C 4224   1.800   0.484  14.476  0.2234 -0.4977 -0.5964
  276TMC3     O 4225   1.907   0.462  14.420  0.3689  0.4573 -0.2291
  276TMC3     H 4226   1.632   0.523  14.678  0.2837 -0.9810  1.9277
  276TMC3    H1 4227   2.001   0.650  14.516 -2.1569 -1.0132 -1.4822
  276TMC3    H2 4228   1.920   0.684  14.936 -0.8279  0.2598 -0.6291
  276TMC3    C7 4229   2.086   0.752  14.756  0.4627 -0.3976 -0.5100
  276TMC3    C8 4230   1.703   0.543  14.935  0.1839 -0.2787 -0.0558
  276TMC3    O1 4231   2.120   0.753  14.873  0.0663  0.0306 -0.0092
  276TMC3    O2 4232   1.598   0.595  14.976  0.5661 -0.1793  0.3033
  277MPD2     C 4233   3.875   4.264  13.383 -0.4094  0.5078  0.5388
  277MPD2    C1 4234   3.738   4.270  13.414 -0.2880 -0.6510 -0.1201
  277MPD2    C2 4235   3.692   4.201  13.519 -0.6237  0.4657 -1.3153
  277MPD2    C3 4236   3.777   4.135  13.602 -0.1366  1.3023 -0.2120
  277MPD2    C4 4237   3.909   4.125  13.578  0.2857  0.0085 -0.6355
  277MPD2    C5 4238   3.961   4.191  13.463  0.6809  0.1288 -0.3873
  277MPD2     H 4239   3.589   4.202  13.552  0.4796  1.2422  2.0705
  277MPD2    H1 4240   3.971   4.060  13.640  1.5842  0.6949 -1.2058
  277MPD2    H2 4241   3.916   4.299  13.289  0.5358  1.1888  1.1947
  277MPD2    H3 4242   4.064   4.177  13.433  1.2443  0.0310  1.5493
  277MPD2     N 4243   3.712   4.073  13.720  0.2452 -0.0377 -0.0644
  277MPD2    H5 4244   3.616   4.100  13.739 -0.1389 -2.0159  0.8138
  277MPD2    N1 4245   3.648   4.335  13.327 -0.8837 -0.0423  0.2279
  277MPD2    H7 4246   3.688   4.411  13.273 -1.0031  0.0379  0.2518
  278TMC3    C1 4247   3.662   3.905  13.872  0.3883 -0.6931 -0.3042
  278TMC3    C2 4248   3.642   3.775  13.850  0.7220 -0.0375 -1.0869
  278TMC3    C3 4249   3.526   3.720  13.887  0.1394 -0.3945 -0.8595
  278TMC3    C4 4250   3.580   3.982  13.945 -0.5158  0.2478 -0.0275
  278TMC3    C5 4251   3.471   3.908  13.995 -0.4561  0.0294 -0.0627
  278TMC3    C6 4252   3.430   3.782  13.961 -0.0505  0.4541 -0.1191
  278TMC3     C 4253   3.762   3.962  13.786 -0.0510 -0.0044  0.2357
  278TMC3     O 4254   3.851   3.887  13.752  0.1886  0.7122 -0.4678
  278TMC3     H 4255   3.693   3.718  13.774 -0.5790 -0.3572 -1.7328
  278TMC3    H1 4256   3.602   4.088  13.958 -0.3314 -0.0527  2.1125
  278TMC3    H2 4257   3.358   3.725  14.018 -0.4852  1.5938  0.4715
  278TMC3    C7 4258   3.391   3.979  14.099  0.2222 -0.4115 -0.5480
  278TMC3    C8 4259   3.510   3.582  13.856 -0.2528 -0.6297  0.7591
  278TMC3    O1 4260   3.424   4.094  14.123 -0.2173 -0.1173  0.0595
  278TMC3    O2 4261   3.612   3.517  13.829 -0.0640 -0.1693  0.5875
  279MPD2     C 4262   3.311   3.940   0.163 -0.1629  0.1379 -0.1944
  279MPD2    C1 4263   3.225   3.832   0.128 -0.2709 -0.1297 -0.8247
  279MPD2    C2 4264   3.236   3.794  17.753 -0.2638 -0.7030  0.2639
  279MPD2    C3 4265   3.318   3.854  17.657 -0.8009 -0.1438  0.3351
  279MPD2    C4 4266   3.403   3.958  17.698 -0.0571  0.3198  0.2863
  279MPD2    C5 4267   3.392   4.003   0.069 -0.1984  0.1709  0.3698
  279MPD2     H 4268   3.169   3.719  17.714 -3.1249  2.2226 -0.4938
  279MPD2    H1 4269   3.476   3.999  17.628 -0.5658 -1.3771 -1.2532
  279MPD2    H2 4270   3.308   3.980   0.264 -2.3862 -2.0152  0.5786
  279MPD2    H3 4271   3.457   4.083   0.102 -0.5548  0.8997 -0.7156
  279MPD2     N 4272   3.315   3.827  17.515  0.5971 -0.4786 -0.5422
  279MPD2    H5 4273   3.362   3.887  17.448  0.8153 -1.3352 -1.1473
  279MPD2    N1 4274   3.116   3.784   0.210 -0.1326  0.1092 -0.2453
  279MPD2    H7 4275   3.094   3.825   0.300 -0.4547  0.9838 -0.7217
  280TMC3    C1 4276   2.958   3.635   0.298 -0.0846  0.1578 -0.8423
  280TMC3    C2 4277   2.890   3.516   0.291  0.3904  0.5692 -0.5083
  280TMC3    C3 4278   2.759   3.501   0.333  0.0560  0.6222  0.4672
  280TMC3    C4 4279   2.890   3.749   0.338  0.3650  0.1288 -0.3316
  280TMC3    C5 4280   2.758   3.727   0.371 -1.1086  0.0650 -0.2268
  280TMC3    C6 4281   2.687   3.607   0.382 -0.0489 -0.1778  0.1082
  280TMC3     C 4282   3.058   3.664   0.192  0.1470  0.1117 -0.1111
  280TMC3     O 4283   3.086   3.575   0.110  0.5640  0.3034  0.5223
  280TMC3     H 4284   2.938   3.425   0.257 -2.2142 -0.1782 -2.2075
  280TMC3    H1 4285   2.923   3.852   0.330 -0.1410  0.2591 -0.7187
  280TMC3    H2 4286   2.586   3.604   0.421 -0.0512  0.6516  0.1716
  280TMC3    C7 4287   2.708   3.836   0.446  0.1507  0.4813  0.5744
  280TMC3    C8 4288   2.689   3.374   0.326 -0.9564 -0.0682  0.2142
  280TMC3    O1 4289   2.779   3.902   0.520 -0.0856 -0.3371  0.5416
  280TMC3    O2 4290   2.585   3.362   0.389  0.0946 -0.3137 -0.2325
  281TMC3    C1 4291   1.714   0.066  13.570  0.2926 -0.4293 -0.5428
  281TMC3    C2 4292   1.752   0.155  13.479 -0.5476 -0.3347  0.0600
  281TMC3    C3 4293   1.855   0.131  13.397  0.4981 -0.0892 -0.2475
  281TMC3    C4 4294   1.761   4.678  13.566  0.2269  0.8714 -0.1764
  281TMC3    C5 4295   1.862   4.652  13.478  0.0161  0.7750  0.5918
  281TMC3    C6 4296   1.913   0.004  13.397 -0.4318  0.0129 -0.1811
  281TMC3     C 4297   1.574   0.072  13.602  0.7554  0.1360 -0.4762
  281TMC3     O 4298   1.517   4.703  13.592 -0.0311 -0.0113 -0.6093
  281TMC3     H 4299   1.708   0.254  13.468 -1.1548 -0.7035 -0.8165
  281TMC3    H1 4300   1.733   4.606  13.642  3.2179  0.9689  1.0087
  281TMC3    H2 4301   1.990   4.721  13.324  1.0391 -0.2184  1.4578
  281TMC3    C7 4302   1.944   4.535  13.488 -0.5502  0.3772 -0.1347
  281TMC3    C8 4303   1.828   0.173  13.262 -0.3061 -0.2620  0.2445
  281TMC3    O1 4304   2.062   4.540  13.445 -0.0486 -0.2842 -0.3150
  281TMC3    O2 4305   1.914   0.253  13.219 -0.4935 -0.1276  0.1893
  282MPD2     C 4306   3.303   0.403  14.945 -0.2462 -0.2388 -0.2294
  282MPD2    C1 4307   3.223   0.505  14.924  0.3162  0.8688 -0.6197
  282MPD2    C2 4308   3.234   0.585  14.813 -0.0714  0.5147 -0.2911
  282MPD2    C3 4309   3.327   0.570  14.718 -0.3943 -0.9588 -0.4779
  282MPD2    C4 4310   3.399   0.451  14.735  0.2922  0.2299 -0.3115
  282MPD2    C5 4311   3.397   0.376  14.845  0.1476 -0.1546  0.0685
  282MPD2     H 4312   3.165   0.667  14.794 -3.0779 -1.5185  1.8136
  282MPD2    H1 4313   3.460   0.406  14.657  0.5060  0.7889 -0.4652
  282MPD2    H2 4314   3.301   0.349  15.039 -0.4485  0.1844  0.0089
  282MPD2    H3 4315   3.454   0.284  14.848 -1.6192 -1.2168  0.3153
  282MPD2     N 4316   3.338   0.658  14.607  0.5325  0.2875 -0.2666
  282MPD2    H5 4317   3.281   0.741  14.619  0.2986  0.3470 -1.7729
  282MPD2    N1 4318   3.145   0.535  15.036 -0.3819  0.3237 -0.0301
  282MPD2    H7 4319   3.150   0.465  15.109  1.5951  0.0400 -0.4312
  283TMC3    C1 4320   3.048   0.667  15.202 -1.0211  0.3472 -0.3102
  283TMC3    C2 4321   3.070   0.787  15.263 -0.3429  0.5023 -0.3951
  283TMC3    C3 4322   3.031   0.809  15.387 -0.3614 -0.3055  0.2943
  283TMC3    C4 4323   2.981   0.568  15.263  0.0312 -0.8043  0.1116
  283TMC3    C5 4324   2.946   0.594  15.394 -0.6337  0.1726  0.5562
  283TMC3    C6 4325   2.963   0.714  15.456 -0.0036 -0.7451  0.0088
  283TMC3     C 4326   3.105   0.661  15.070  0.8408  1.0769 -0.2304
  283TMC3     O 4327   3.112   0.767  15.006  0.0629 -0.1305 -0.3430
  283TMC3     H 4328   3.139   0.848  15.205 -0.5371  1.4227  0.3431
  283TMC3    H1 4329   2.968   0.474  15.210 -2.0526  0.2309 -1.2410
  283TMC3    H2 4330   2.919   0.726  15.555 -0.9370  1.1480 -0.6442
  283TMC3    C7 4331   2.895   0.494  15.477  0.0441 -0.0833 -0.0288
  283TMC3    C8 4332   3.068   0.931  15.463 -0.0189  0.4911  0.3232
  283TMC3    O1 4333   2.927   0.497  15.592  0.1371 -0.0883 -0.2858
  283TMC3    O2 4334   3.033   0.940  15.580  0.2881  0.7862 -0.0140
  284MPD2     C 4335   1.715   0.432  12.073 -0.7371 -1.3488  0.2667
  284MPD2    C1 4336   1.788   0.379  11.972  0.1980 -0.4556  0.1941
  284MPD2    C2 4337   1.859   0.261  11.993  0.5878  0.0550  0.9235
  284MPD2    C3 4338   1.868   0.201  12.114 -0.7170  0.5149  0.0432
  284MPD2    C4 4339   1.795   0.259  12.218 -0.3392  0.1832  0.0628
  284MPD2    C5 4340   1.720   0.373  12.196 -0.3544 -0.4108  0.2386
  284MPD2     H 4341   1.917   0.226  11.909  1.0172 -0.1943  1.3263
  284MPD2    H1 4342   1.799   0.223  12.320 -1.2706 -0.8360 -0.2656
  284MPD2    H2 4343   1.657   0.523  12.063  0.3082 -0.7728 -0.5381
  284MPD2    H3 4344   1.657   0.425  12.267 -0.2694  1.4933 -1.0643
  284MPD2     N 4345   1.941   0.084  12.126 -0.0393 -0.5393  0.7623
  284MPD2    H5 4346   1.998   0.054  12.048  0.0285  0.0567  0.5883
  284MPD2    N1 4347   1.775   0.424  11.844 -0.1981 -0.1538 -0.1005
  284MPD2    H7 4348   1.845   0.397  11.775 -1.3801  1.1988 -1.8497
  285TMC3    C1 4349   1.720   0.570  11.662  0.1703  0.1554  0.8251
  285TMC3    C2 4350   1.747   0.468  11.574  0.0780 -0.1212  0.4191
  285TMC3    C3 4351   1.762   0.495  11.443  0.4094 -0.9332  0.3134
  285TMC3    C4 4352   1.729   0.702  11.621 -0.2900 -0.0998 -0.1348
  285TMC3    C5 4353   1.752   0.723  11.488 -0.0409  0.1202 -0.0487
  285TMC3    C6 4354   1.769   0.626  11.395  0.3132 -0.3015 -0.2699
  285TMC3     C 4355   1.683   0.522  11.795  0.3475  0.1836 -0.2750
  285TMC3     O 4356   1.587   0.574  11.852  0.6952 -0.6990 -0.0814
  285TMC3     H 4357   1.748   0.363  11.600 -2.3589 -0.5227 -1.0795
  285TMC3    H1 4358   1.716   0.786  11.689 -1.0439 -0.0912 -0.2880
  285TMC3    H2 4359   1.774   0.650  11.290  0.3085  0.4315 -0.0997
  285TMC3    C7 4360   1.762   0.862  11.455 -0.9956  0.3751  0.6007
  285TMC3    C8 4361   1.729   0.388  11.348  0.4523  0.5986  0.3688
  285TMC3    O1 4362   1.798   0.935  11.546  0.6206  0.1008 -0.4709
  285TMC3    O2 4363   1.681   0.287  11.394  0.4034 -0.0933 -0.1933
  286MPD2     C 4364   2.497   3.368   1.206 -0.0841  0.5991  0.1521
  286MPD2    C1 4365   2.420   3.305   1.109  0.7017  0.1014 -0.4015
  286MPD2    C2 4366   2.456   3.180   1.060  0.2680  0.2222  0.0524
  286MPD2    C3 4367   2.567   3.111   1.109  0.2611  0.1234 -0.7473
  286MPD2    C4 4368   2.639   3.178   1.208  0.3790  0.0942  0.2075
  286MPD2    C5 4369   2.606   3.300   1.254  0.1321 -1.0862  0.7995
  286MPD2     H 4370   2.394   3.139   0.980  0.8010 -2.9649  1.2537
  286MPD2    H1 4371   2.719   3.118   1.252  1.1520  0.3439 -0.8757
  286MPD2    H2 4372   2.470   3.465   1.245  0.1155  0.1045  1.5058
  286MPD2    H3 4373   2.666   3.341   1.335  0.7394  2.7150 -1.5366
  286MPD2     N 4374   2.613   2.984   1.069 -0.0741  0.1199  0.1139
  286MPD2    H5 4375   2.693   2.951   1.123  0.0103  1.6458  0.8995
  286MPD2    N1 4376   2.300   3.360   1.058  0.5234 -0.2684  0.2496
  286MPD2    H7 4377   2.240   3.297   1.005 -0.0175  0.5442 -0.1081
  287TMC3    C1 4378   2.601   2.768   0.962 -0.0129 -0.2088  0.4283
  287TMC3    C2 4379   2.545   2.707   0.848  0.0225 -0.1059  0.3409
  287TMC3    C3 4380   2.514   2.576   0.867 -0.1035  0.1724 -0.0250
  287TMC3    C4 4381   2.640   2.704   1.074 -0.3629  0.4195 -0.3810
  287TMC3    C5 4382   2.601   2.574   1.087 -0.0510 -0.9385 -0.4556
  287TMC3    C6 4383   2.548   2.502   0.981  0.1650 -0.6724 -0.1653
  287TMC3     C 4384   2.542   2.906   0.982 -0.4055 -0.1236 -0.5345
  287TMC3     O 4385   2.474   2.946   0.892 -0.0806  0.2125  0.5136
  287TMC3     H 4386   2.528   2.761   0.756  1.8326  0.3995  0.3072
  287TMC3    H1 4387   2.673   2.753   1.164  1.3485 -1.0504 -0.2259
  287TMC3    H2 4388   2.497   2.407   0.997 -1.6685 -0.0730 -2.4226
  287TMC3    C7 4389   2.677   2.494   1.177 -0.4992 -0.3151  0.0374
  287TMC3    C8 4390   2.398   2.524   0.798 -0.4498 -0.0677 -0.3920
  287TMC3    O1 4391   2.724   2.558   1.271 -0.2903 -0.2102  0.4530
  287TMC3    O2 4392   2.359   2.409   0.803 -0.6528 -1.0926  0.2350
  288TMC3    C1 4393   4.358   3.402  14.165  0.3070  0.3740  0.0205
  288TMC3    C2 4394   4.239   3.346  14.207  0.0609  0.1383  0.4718
  288TMC3    C3 4395   4.123   3.407  14.188  0.2807 -0.0752  0.8216
  288TMC3    C4 4396   4.360   3.531  14.116 -0.8944 -0.8812 -0.0611
  288TMC3    C5 4397   4.243   3.595  14.093  0.3507  0.2037 -1.1645
  288TMC3    C6 4398   4.122   3.536  14.132 -0.3420  0.0591  0.8043
  288TMC3     C 4399   4.487   3.341  14.190  0.0560 -0.4040 -0.1307
  288TMC3     O 4400   4.581   3.418  14.217 -0.0681  0.3522  0.2844
  288TMC3     H 4401   4.235   3.245  14.246  0.0666 -0.7401 -1.8215
  288TMC3    H1 4402   4.450   3.563  14.066 -0.9600  0.3285  0.6030
  288TMC3    H2 4403   4.028   3.585  14.107 -0.0032 -0.1070 -0.7555
  288TMC3    C7 4404   4.224   3.698  13.989  0.9118  0.4071 -0.4223
  288TMC3    C8 4405   4.014   3.356  14.267 -0.3559  0.4919  0.0940
  288TMC3    O1 4406   4.119   3.698  13.925  0.5770 -0.4608  0.0410
  288TMC3    O2 4407   3.998   3.235  14.270 -0.5499 -0.3918 -0.1505
  289MPD2     C 4408   3.437   2.231  14.648  0.1341 -0.2118  0.0235
  289MPD2    C1 4409   3.504   2.323  14.570 -0.0149  0.0674 -0.1729
  289MPD2    C2 4410   3.465   2.352  14.447  0.1449  0.0976  0.1715
  289MPD2    C3 4411   3.347   2.285  14.400  0.2817  0.4071 -0.2252
  289MPD2    C4 4412   3.285   2.194  14.477  0.0751  0.0767  0.1056
  289MPD2    C5 4413   3.319   2.172  14.601 -0.1182 -0.9842  0.8510
  289MPD2     H 4414   3.506   2.437  14.394 -0.7252  0.5277  0.1943
  289MPD2    H1 4415   3.194   2.144  14.445 -1.6856  2.7395  0.8949
  289MPD2    H2 4416   3.464   2.207  14.750 -0.5916 -2.3780 -0.2816
  289MPD2    H3 4417   3.254   2.101  14.650  0.4275 -1.9257  0.2189
  289MPD2     N 4418   3.291   2.305  14.269 -0.0854  0.0294 -0.4085
  289MPD2    H5 4419   3.203   2.258  14.251 -0.8413  0.6563  1.6766
  289MPD2    N1 4420   3.622   2.380  14.624  0.1703 -0.3992  0.4232
  289MPD2    H7 4421   3.645   2.358  14.721 -0.4099 -0.7238  0.4937
  290TMC3    C1 4422   3.274   2.401  14.047  0.3309 -0.2096 -0.3924
  290TMC3    C2 4423   3.296   2.499  13.964  0.3868 -0.1679 -0.2501
  290TMC3    C3 4424   3.243   2.510  13.840  0.0280 -0.0820  0.3128
  290TMC3    C4 4425   3.166   2.319  14.022 -0.9351  1.0026 -0.1002
  290TMC3    C5 4426   3.107   2.328  13.902 -0.5577 -0.2376 -0.3360
  290TMC3    C6 4427   3.133   2.434  13.813  0.4872 -0.0300 -0.5864
  290TMC3     C 4428   3.337   2.402  14.177 -0.3824  0.3844 -0.8132
  290TMC3     O 4429   3.429   2.483  14.180  0.1514 -0.0429  0.3078
  290TMC3     H 4430   3.390   2.552  13.977  0.7473 -1.4673  2.3710
  290TMC3    H1 4431   3.121   2.248  14.091 -0.1301 -2.4953 -3.1509
  290TMC3    H2 4432   3.085   2.428  13.716  2.3116  0.5569 -1.5370
  290TMC3    C7 4433   3.010   2.224  13.863 -0.3391 -0.4147  0.2379
  290TMC3    C8 4434   3.209   2.645  13.794  0.1058  0.7038 -0.5553
  290TMC3    O1 4435   2.956   2.240  13.755  0.2504 -0.4319  0.2686
  290TMC3    O2 4436   3.129   2.650  13.702 -1.0597 -0.2975 -0.2633
  291MPD2     C 4437   3.314   2.209   0.328 -0.6685 -0.6354  0.8958
  291MPD2    C1 4438   3.311   2.114   0.427 -0.2072 -0.2733 -0.5540
  291MPD2    C2 4439   3.381   2.136   0.547  0.7036  0.1328 -0.2186
  291MPD2    C3 4440   3.451   2.252   0.567 -0.2894  0.1926 -0.0529
  291MPD2    C4 4441   3.449   2.347   0.470 -0.5740 -0.2440  0.4255
  291MPD2    C5 4442   3.384   2.321   0.355  0.8665 -0.1127  0.4059
  291MPD2     H 4443   3.369   2.071   0.633 -0.1510  2.0104  1.0812
  291MPD2    H1 4444   3.510   2.436   0.481 -1.1753  0.2790 -0.4871
  291MPD2    H2 4445   3.255   2.195   0.237  0.2669  2.5786 -0.2053
  291MPD2    H3 4446   3.392   2.404   0.285 -1.4747  0.1941  0.4988
  291MPD2     N 4447   3.537   2.284   0.679  0.1947  0.5105  0.3482
  291MPD2    H5 4448   3.586   2.373   0.682  0.9759  0.0747  0.5921
  291MPD2    N1 4449   3.226   2.001   0.419 -0.7378  0.1722  0.1064
  291MPD2    H7 4450   3.234   1.949   0.506  0.0743  1.3193  0.7161
  292TMC3    C1 4451   3.068   1.856   0.366 -0.7600 -0.4902 -0.2212
  292TMC3    C2 4452   3.026   1.854   0.500  0.5582 -0.1479 -0.0771
  292TMC3    C3 4453   2.937   1.765   0.544  0.3163  0.1191  0.0500
  292TMC3    C4 4454   3.036   1.756   0.284 -0.1845  0.1301 -0.7440
  292TMC3    C5 4455   2.965   1.650   0.339  0.1662  1.4571 -0.2131
  292TMC3    C6 4456   2.916   1.653   0.471 -0.1934  0.6044  0.3186
  292TMC3     C 4457   3.146   1.961   0.313 -0.2202  0.3853  0.7929
  292TMC3     O 4458   3.157   1.981   0.190  0.7465 -0.0995 -0.0092
  292TMC3     H 4459   3.034   1.946   0.557 -0.7901  0.9824 -1.7023
  292TMC3    H1 4460   3.056   1.755   0.177  2.9622  2.0011 -0.1521
  292TMC3    H2 4461   2.850   1.573   0.504  1.4880 -1.0543 -0.3208
  292TMC3    C7 4462   2.940   1.546   0.234  0.0579 -0.4759 -0.0101
  292TMC3    C8 4463   2.872   1.771   0.679  0.8019  0.2170  0.2357
  292TMC3    O1 4464   3.030   1.525   0.156 -0.1888  0.3083 -0.2796
  292TMC3    O2 4465   2.914   1.843   0.764  0.1782 -0.4130  0.2881
  293MPD2     C 4466   4.729   3.990  12.403  0.2077  0.0028  0.6816
  293MPD2    C1 4467   4.620   3.981  12.470 -0.0084 -0.4122  0.3237
  293MPD2    C2 4468   4.625   3.947  12.603  0.1643  0.5459  0.7301
  293MPD2    C3 4469   0.007   3.954  12.666 -0.4431  0.4512 -0.2657
  293MPD2    C4 4470   0.121   3.967  12.590 -0.3688  0.1069  0.1430
  293MPD2    C5 4471   0.110   3.977  12.457 -0.1017 -0.0891  0.2867
  293MPD2     H 4472   4.531   3.929  12.655  0.3269 -0.5048  0.6546
  293MPD2    H1 4473   0.218   3.967  12.637 -0.6928  0.2774  0.8055
  293MPD2    H2 4474   4.727   4.023  12.299  1.1117  1.1633  1.0247
  293MPD2    H3 4475   0.201   3.996  12.401 -0.0948 -0.4889  0.1636
  293MPD2     N 4476   0.028   3.949  12.806 -0.1211 -0.2520  0.0453
  293MPD2    H5 4477   0.111   3.993  12.844  0.4735 -0.8467 -0.5785
  293MPD2    N1 4478   4.499   3.995  12.396  0.2458  0.0463  0.2685
  293MPD2    H7 4479   4.507   4.015  12.296 -0.4900  0.7993  0.3603
  294TMC3    C1 4480   4.269   3.981  12.346  0.9365 -1.0961  0.0516
  294TMC3    C2 4481   4.136   4.013  12.385 -0.2686 -0.0772 -0.3326
  294TMC3    C3 4482   4.046   4.004  12.279  0.1234 -0.0052 -0.0544
  294TMC3    C4 4483   4.312   3.934  12.224 -0.1845  0.2982  0.4733
  294TMC3    C5 4484   4.219   3.929  12.126  0.6598 -0.1512  0.3383
  294TMC3    C6 4485   4.091   3.962  12.153 -0.5554  0.3468  1.0808
  294TMC3     C 4486   4.370   3.993  12.452 -0.0829  0.5239 -0.2638
  294TMC3     O 4487   4.337   4.007  12.569 -0.0906  0.0652  0.2827
  294TMC3     H 4488   4.109   4.046  12.485 -0.6021 -0.7179 -0.2098
  294TMC3    H1 4489   4.414   3.899  12.210 -0.0175  0.8685  0.2491
  294TMC3    H2 4490   4.019   3.952  12.072  0.8176  1.0315 -0.2161
  294TMC3    C7 4491   4.253   3.836  12.015  0.5877 -0.5439  0.0604
  294TMC3    C8 4492   3.906   3.994  12.317  0.7804  0.4417 -0.3849
  294TMC3    O1 4493   4.354   3.766  12.029 -0.6720 -0.1740 -0.4115
  294TMC3    O2 4494   3.885   4.061  12.419  0.3337 -0.3279 -0.7098
  295MPD2     C 4495   0.935   2.511   0.647  1.3633 -0.0367 -0.3590
  295MPD2    C1 4496   0.809   2.459   0.653  0.0569 -0.2504 -0.2196
  295MPD2    C2 4497   0.786   2.354   0.732  0.2978  0.4226 -0.7005
  295MPD2    C3 4498   0.880   2.292   0.808  0.2602 -0.2188 -0.4082
  295MPD2    C4 4499   1.005   2.353   0.810  0.0184  0.2214 -0.1718
  295MPD2    C5 4500   1.036   2.453   0.719  0.7503 -0.2680 -0.7702
  295MPD2     H 4501   0.682   2.324   0.727 -0.2415  2.1940 -0.2056
  295MPD2    H1 4502   1.082   2.319   0.879 -0.5380 -0.5365  0.0754
  295MPD2    H2 4503   0.961   2.592   0.579 -0.2835  1.8694  1.2930
  295MPD2    H3 4504   1.133   2.502   0.716 -0.1238  1.6299  1.6170
  295MPD2     N 4505   0.863   2.184   0.894  0.5424 -0.8230  0.6568
  295MPD2    H5 4506   0.944   2.132   0.927  0.8354 -0.9589 -0.2799
  295MPD2    N1 4507   0.707   2.516   0.569  0.0668  0.1698  0.3913
  295MPD2    H7 4508   0.624   2.459   0.561  0.1294 -0.1807  2.2820
  296TMC3    C1 4509   0.738   2.046   1.045  0.2040 -0.2323  0.2944
  296TMC3    C2 4510   0.820   1.941   1.029 -0.2801  0.2569  0.2512
  296TMC3    C3 4511   0.813   1.844   1.130 -0.5520 -0.5093 -0.5321
  296TMC3    C4 4512   0.642   2.047   1.140  0.9654  0.4801 -0.7076
  296TMC3    C5 4513   0.639   1.948   1.235  0.5036  0.1561  0.4032
  296TMC3    C6 4514   0.725   1.851   1.241  0.0111 -0.1602 -0.6521
  296TMC3     C 4515   0.736   2.150   0.941  0.2205 -0.6308  0.4997
  296TMC3     O 4516   0.634   2.210   0.924  0.3423  0.5138  0.0837
  296TMC3     H 4517   0.890   1.925   0.948 -0.9379 -2.5187  0.2003
  296TMC3    H1 4518   0.558   2.113   1.119 -0.3245 -0.9568 -0.0813
  296TMC3    H2 4519   0.728   1.783   1.326 -1.1412 -1.9088 -2.0028
  296TMC3    C7 4520   0.513   1.930   1.308 -0.1837 -0.4842  0.2309
  296TMC3    C8 4521   0.906   1.731   1.131  0.0971  0.4514  0.2322
  296TMC3    O1 4522   0.427   2.016   1.306 -0.4412  0.2384 -0.2764
  296TMC3    O2 4523   0.934   1.683   1.022 -0.2922 -0.2364 -0.8279
  297MPD2     C 4524   2.374   4.083  16.190  0.3298  0.4557 -0.0816
  297MPD2    C1 4525   2.370   4.165  16.084 -1.0222 -0.0092  0.4392
  297MPD2    C2 4526   2.485   4.223  16.030  0.5076 -1.2079 -0.1825
  297MPD2    C3 4527   2.613   4.199  16.080 -0.5137  0.1845  0.0959
  297MPD2    C4 4528   2.623   4.113  16.186  0.0846 -0.0133  0.0372
  297MPD2    C5 4529   2.506   4.056  16.230  0.2649  0.4348 -0.1480
  297MPD2     H 4530   2.469   4.293  15.949 -1.0345  2.3949  3.2224
  297MPD2    H1 4531   2.718   4.084  16.228  0.3339 -0.7395 -1.0062
  297MPD2    H2 4532   2.292   4.039  16.247  0.7999 -0.5774 -0.1984
  297MPD2    H3 4533   2.508   3.983  16.310 -0.7318 -0.1200 -0.6279
  297MPD2     N 4534   2.729   4.259  16.026 -0.7782  0.3990  0.5275
  297MPD2    H5 4535   2.819   4.249  16.071 -0.7059  0.9907  0.5098
  297MPD2    N1 4536   2.246   4.213  16.023 -0.6717  0.7540  0.4732
  297MPD2    H7 4537   2.259   4.284  15.952 -1.6913  1.7015  1.2472
  298TMC3    C1 4538   2.015   4.270  16.006  0.8568 -0.3977  0.1222
  298TMC3    C2 4539   2.029   4.333  15.885  1.2189  0.3853  0.2456
  298TMC3    C3 4540   1.944   4.443  15.863  0.7968 -0.3920  0.0341
  298TMC3    C4 4541   1.920   4.313  16.101 -0.4283  0.5628  0.5532
  298TMC3    C5 4542   1.846   4.414  16.077  0.2256  0.0459  0.5453
  298TMC3    C6 4543   1.852   4.486  15.959 -0.5911  0.8626  0.9137
  298TMC3     C 4544   2.120   4.185  16.066 -0.3154  0.4805 -0.0459
  298TMC3     O 4545   2.085   4.106  16.152  0.8223  1.0193  0.0250
  298TMC3     H 4546   2.105   4.305  15.813  0.3422 -0.3695 -0.4015
  298TMC3    H1 4547   1.927   4.268  16.200  1.3538 -1.7421 -0.6293
  298TMC3    H2 4548   1.791   4.571  15.934 -0.3232 -0.1230 -3.0236
  298TMC3    C7 4549   1.789   4.473  16.199 -0.6602 -0.1922  0.5658
  298TMC3    C8 4550   1.947   4.510  15.737  0.3431 -0.1861  0.0479
  298TMC3    O1 4551   1.816   4.425  16.307 -0.0665 -0.2348  0.4113
  298TMC3    O2 4552   1.848   4.575  15.714 -0.1015 -0.4707 -0.3951
  299MPD2     C 4553   2.298   3.743  10.574  0.2623  0.0159  0.2458
  299MPD2    C1 4554   2.304   3.859  10.499  0.3230 -0.7514 -0.1367
  299MPD2    C2 4555   2.224   3.872  10.389  0.5400 -0.2461 -0.5496
  299MPD2    C3 4556   2.147   3.766  10.346 -0.5692 -0.4635 -0.5986
  299MPD2    C4 4557   2.136   3.654  10.427 -0.6202 -0.1675  0.2207
  299MPD2    C5 4558   2.225   3.637  10.532  0.1444  0.1056 -0.2201
  299MPD2     H 4559   2.218   3.969  10.339 -1.7334  1.0238  2.2213
  299MPD2    H1 4560   2.078   3.564  10.413  0.6608 -0.7821 -1.0681
  299MPD2    H2 4561   2.355   3.729  10.666 -0.8396 -1.9163  0.6410
  299MPD2    H3 4562   2.222   3.546  10.591 -1.2931 -0.6741 -1.4865
  299MPD2     N 4563   2.061   3.760  10.232  0.3853  0.6919 -0.2531
  299MPD2    H5 4564   2.011   3.674  10.217  2.4445 -0.6653  0.5955
  299MPD2    N1 4565   2.395   3.954  10.548  0.0442  0.1222 -0.1082
  299MPD2    H7 4566   2.437   3.939  10.640  0.7313  2.0335 -0.0861
  300TMC3    C1 4567   1.890   3.875  10.125 -0.1586 -0.1106  0.1111
  300TMC3    C2 4568   1.849   3.988  10.064 -0.4784 -0.8672 -0.3079
  300TMC3    C3 4569   1.717   4.018  10.064 -0.1429  0.1163  0.4414
  300TMC3    C4 4570   1.804   3.802  10.199 -0.0829 -0.1739  0.7271
  300TMC3    C5 4571   1.678   3.839  10.211 -0.3177  0.9562  0.5133
  300TMC3    C6 4572   1.632   3.942  10.142  0.0952  0.4718 -0.2027
  300TMC3     C 4573   2.036   3.865  10.149  0.3724 -0.0696  0.3417
  300TMC3     O 4574   2.097   3.974  10.142  0.2993  0.2815 -0.1254
  300TMC3     H 4575   1.919   4.040   9.999 -1.2533 -0.2662 -0.6665
  300TMC3    H1 4576   1.837   3.713  10.251 -0.1697  0.8523  2.5285
  300TMC3    H2 4577   1.539   3.987  10.176  0.0453  0.7288 -0.6696
  300TMC3    C7 4578   1.621   3.822  10.342 -0.1914 -0.0415 -0.5211
  300TMC3    C8 4579   1.685   4.160  10.037 -1.4387 -0.3786 -0.2561
  300TMC3    O1 4580   1.620   3.712  10.396  0.2095 -0.2065 -0.4527
  300TMC3    O2 4581   1.779   4.233  10.003 -0.1567 -0.3595 -0.2723
  301MPD2     C 4582   0.584   0.436   1.179  0.0952 -0.1383  0.6003
  301MPD2    C1 4583   0.457   0.409   1.148  0.0210 -0.1362 -0.9029
  301MPD2    C2 4584   0.429   0.286   1.090 -0.0137  0.1992 -0.0073
  301MPD2    C3 4585   0.527   0.194   1.055 -0.6763  0.6921  0.2899
  301MPD2    C4 4586   0.654   0.224   1.095 -0.6545  0.8326 -0.0803
  301MPD2    C5 4587   0.677   0.338   1.161  0.3489 -0.4608  0.5279
  301MPD2     H 4588   0.326   0.258   1.075 -0.4395  0.9352  1.6101
  301MPD2    H1 4589   0.730   0.148   1.089  0.7727  2.2403  0.0162
  301MPD2    H2 4590   0.619   0.529   1.223  1.0905 -0.9406  1.4996
  301MPD2    H3 4591   0.770   0.356   1.216  0.3323 -1.2495  0.8196
  301MPD2     N 4592   0.505   0.063   0.999  0.5442  0.0721 -0.4821
  301MPD2    H5 4593   0.579   4.735   1.005  0.2745 -0.0391  1.5001
  301MPD2    N1 4594   0.349   0.494   1.179  0.6966  0.3914 -0.6452
  301MPD2    H7 4595   0.262   0.457   1.143  0.6443  1.1389 -1.2979
  302TMC3    C1 4596   0.377   4.621   0.926 -0.0990 -0.0035 -0.5728
  302TMC3    C2 4597   0.454   4.527   1.001  0.2644  0.4227  0.4945
  302TMC3    C3 4598   0.413   4.398   0.995 -0.3531 -0.1714  0.0371
  302TMC3    C4 4599   0.262   4.583   0.856  0.6718  0.0967 -0.5970
  302TMC3    C5 4600   0.219   4.457   0.878 -0.3651  0.0402 -0.4290
  302TMC3    C6 4601   0.286   4.368   0.949  0.1819 -0.1382 -0.6480
  302TMC3     C 4602   0.386   0.025   0.953  0.2416  0.2505  0.4384
  302TMC3     O 4603   0.292   0.096   0.918  0.6122  0.4996  0.4477
  302TMC3     H 4604   0.556   4.557   1.019 -0.4557  3.0925  0.1436
  302TMC3    H1 4605   0.213   4.661   0.799  0.7963  0.2485 -0.4928
  302TMC3    H2 4606   0.238   4.271   0.957 -1.0781  0.6424  1.1178
  302TMC3    C7 4607   0.086   4.415   0.829  0.2020  0.4328  0.0969
  302TMC3    C8 4608   0.495   4.292   1.045 -0.0294 -0.3879 -0.0073
  302TMC3    O1 4609   0.066   4.292   0.828 -0.5499 -0.8627 -0.0264
  302TMC3    O2 4610   0.606   4.327   1.089 -0.6019 -0.0850 -0.1159
  303MPD2     C 4611   4.627   3.995  10.684  0.0141 -0.2038  0.2681
  303MPD2    C1 4612   4.547   3.925  10.599 -0.3595  0.1515  0.5375
  303MPD2    C2 4613   4.611   3.875  10.481 -0.4960  0.6875  0.2651
  303MPD2    C3 4614   0.002   3.905  10.456 -0.0991  0.3765  0.0801
  303MPD2    C4 4615   0.074   3.973  10.550 -0.3190 -0.7833  0.5032
  303MPD2    C5 4616   0.018   4.025  10.657 -0.4052 -0.7865 -0.2931
  303MPD2     H 4617   4.550   3.827  10.406 -0.3117 -1.4647  1.4629
  303MPD2    H1 4618   0.178   3.999  10.532 -0.1165 -1.5782  0.5059
  303MPD2    H2 4619   4.587   4.033  10.778  1.4221  1.0583  0.3486
  303MPD2    H3 4620   0.074   4.084  10.729 -1.1322 -0.4735  0.0163
  303MPD2     N 4621   0.062   3.860  10.337  0.7703  0.6193  0.4671
  303MPD2    H5 4622   0.154   3.902  10.324  0.5554  1.1054  0.5253
  303MPD2    N1 4623   4.409   3.908  10.626 -0.3606 -1.0135  0.7024
  303MPD2    H7 4624   4.371   3.939  10.715 -0.9366 -0.3012  0.2193
  304TMC3    C1 4625   4.181   3.835  10.574 -0.4520  0.3180 -0.1404
  304TMC3    C2 4626   4.077   3.883  10.512 -0.2588  0.0837  0.4976
  304TMC3    C3 4627   3.953   3.842  10.541  0.8382  0.3605  0.7425
  304TMC3    C4 4628   4.168   3.742  10.682  0.6206  0.4260 -1.1565
  304TMC3    C5 4629   4.039   3.683  10.697  0.2586  0.1367  0.1901
  304TMC3    C6 4630   3.936   3.747  10.636 -0.2405 -0.3342 -0.1881
  304TMC3     C 4631   4.315   3.879  10.527  0.1447  0.0575 -0.4662
  304TMC3     O 4632   4.331   3.872  10.407 -0.7645 -0.4669 -0.1609
  304TMC3     H 4633   4.097   3.948  10.428 -1.2255  2.4240  2.0693
  304TMC3    H1 4634   4.245   3.699  10.745  0.8474  1.4177 -0.7546
  304TMC3    H2 4635   3.833   3.718  10.648 -0.2286 -0.8153 -1.2571
  304TMC3    C7 4636   4.030   3.539  10.691 -0.2077 -0.7590  0.4844
  304TMC3    C8 4637   3.873   3.820  10.420 -0.1752 -0.4832 -0.0977
  304TMC3    O1 4638   3.946   3.494  10.615  0.2336  0.1795  0.1550
  304TMC3    O2 4639   3.806   3.917  10.380 -0.1036 -0.1170 -0.6406
  305MPD2     C 4640   3.886   1.543  13.956  0.5050 -0.7296  0.7924
  305MPD2    C1 4641   3.833   1.420  13.976 -0.4016  0.1167  0.3697
  305MPD2    C2 4642   3.815   1.333  13.869 -0.4182  0.4620  0.4083
  305MPD2    C3 4643   3.838   1.375  13.741  0.5732  0.2088 -0.1407
  305MPD2    C4 4644   3.893   1.503  13.716 -0.0383 -0.3322 -0.0593
  305MPD2    C5 4645   3.917   1.582  13.827  0.1215 -0.3125  0.3157
  305MPD2     H 4646   3.767   1.239  13.889 -0.0458  0.1240 -0.2620
  305MPD2    H1 4647   3.897   1.533  13.612  1.4904 -1.3666 -0.2993
  305MPD2    H2 4648   3.934   1.603  14.032 -1.8976  0.9957  0.9147
  305MPD2    H3 4649   3.970   1.675  13.812  0.7656 -0.7489 -0.1320
  305MPD2     N 4650   3.818   1.289  13.630 -0.3283  0.8512 -0.0615
  305MPD2    H5 4651   3.843   1.325  13.539  1.2422 -0.7778 -0.2787
  305MPD2    N1 4652   3.820   1.385  14.113 -0.3309  0.6122 -0.0062
  305MPD2    H7 4653   3.849   1.460  14.176 -0.3186  0.9727 -0.4377
  306TMC3    C1 4654   3.777   1.266  14.315 -0.0022 -0.2978 -0.2642
  306TMC3    C2 4655   3.749   1.146  14.378  0.5156 -0.6332 -0.2619
  306TMC3    C3 4656   3.743   1.136  14.515 -0.2796 -0.5989 -0.6743
  306TMC3    C4 4657   3.803   1.378  14.393  0.2059 -0.4534  0.1324
  306TMC3    C5 4658   3.808   1.361  14.528 -0.2021 -0.3878 -0.7137
  306TMC3    C6 4659   3.781   1.244  14.593  0.3965 -0.9158  0.3499
  306TMC3     C 4660   3.767   1.268  14.172 -0.5982 -0.7512 -0.1422
  306TMC3     O 4661   3.727   1.165  14.118 -0.2743 -0.4406 -1.1546
  306TMC3     H 4662   3.725   1.057  14.320 -2.5132 -0.0645  0.0935
  306TMC3    H1 4663   3.826   1.471  14.343 -0.4292 -0.1984  0.3157
  306TMC3    H2 4664   3.791   1.232  14.701  2.7639 -1.0063  0.1234
  306TMC3    C7 4665   3.817   1.489  14.600 -0.1078 -0.3970 -0.0900
  306TMC3    C8 4666   3.704   1.019  14.572 -0.2264 -0.2472  0.2312
  306TMC3    O1 4667   3.828   1.589  14.530 -0.1728  0.0388 -0.0696
  306TMC3    O2 4668   3.733   0.915  14.516 -0.0101  0.0079  0.1997
  307MPD2     C 4669   1.561   3.464   0.281  0.2514  0.2615 -0.5000
  307MPD2    C1 4670   1.482   3.578   0.261  0.1856  0.4013  0.9851
  307MPD2    C2 4671   1.432   3.641   0.375  0.1263  0.2458 -0.0178
  307MPD2    C3 4672   1.458   3.597   0.500 -0.3678  0.2343  0.3661
  307MPD2    C4 4673   1.541   3.490   0.514 -0.7691 -0.3943 -0.4162
  307MPD2    C5 4674   1.597   3.428   0.404 -0.7511 -0.4575  0.4207
  307MPD2     H 4675   1.366   3.727   0.369 -2.0345 -1.2262  2.3598
  307MPD2    H1 4676   1.569   3.453   0.612  0.5789  0.8477 -0.3275
  307MPD2    H2 4677   1.614   3.409   0.204  1.3733  1.2444 -0.4191
  307MPD2    H3 4678   1.667   3.345   0.408  1.3350  1.3295  1.3434
  307MPD2     N 4679   1.397   3.659   0.609 -0.1688 -0.0964 -0.3291
  307MPD2    H5 4680   1.341   3.740   0.583 -1.4895 -1.9693 -3.2923
  307MPD2    N1 4681   1.460   3.636   0.138  0.0365  0.3559 -0.3242
  307MPD2    H7 4682   1.411   3.725   0.138  0.5446  0.6330 -0.0699
  308TMC3    C1 4683   1.028   3.626   0.871 -0.4216  0.3331  0.0459
  308TMC3    C2 4684   1.008   3.762   0.887 -0.3116 -0.6837 -0.3551
  308TMC3    C3 4685   1.110   3.841   0.835 -0.5196  0.1958  1.0151
  308TMC3    C4 4686   1.152   3.574   0.843  0.4298 -0.3611 -0.2838
  308TMC3    C5 4687   1.249   3.653   0.800 -0.4376  0.3004  0.1764
  308TMC3    C6 4688   1.229   3.787   0.797  0.1775 -0.6840  0.4104
  308TMC3     C 4689   0.916   3.541   0.841  0.5887  0.1279 -0.1485
  308TMC3     O 4690   0.933   3.421   0.857  0.1294  0.0150 -0.4321
  308TMC3     H 4691   0.911   3.791   0.926 -0.1850 -2.3827  1.2189
  308TMC3    H1 4692   1.167   3.472   0.808  1.2556  0.7087 -3.0641
  308TMC3    H2 4693   1.310   3.856   0.776  0.5000 -1.7195 -1.7047
  308TMC3    C7 4694   1.361   3.589   0.728 -0.2680  0.2216  0.0464
  308TMC3    C8 4695   1.097   3.976   0.867 -0.8345  0.1015  0.5531
  308TMC3    O1 4696   1.414   3.496   0.785 -0.0591 -0.1131  0.2651
  308TMC3    O2 4697   1.015   4.000   0.953 -0.3405 -0.2152 -0.0744
  309MPD2     C 4698   0.408   4.016  17.268 -0.1448 -0.2609  0.5441
  309MPD2    C1 4699   0.334   4.076  17.173  0.3641 -0.3006 -0.4149
  309MPD2    C2 4700   0.237   4.167  17.220 -0.0453  0.8480  0.0680
  309MPD2    C3 4701   0.194   4.172  17.353  0.0652 -0.2838 -0.8936
  309MPD2    C4 4702   0.273   4.099  17.444  0.3494  1.1181  0.4907
  309MPD2    C5 4703   0.373   4.022  17.399  0.6841 -1.1003 -0.1035
  309MPD2     H 4704   0.195   4.231  17.143  0.5688  1.2219  0.0411
  309MPD2    H1 4705   0.244   4.100  17.548 -0.9862 -1.0782  0.1474
  309MPD2    H2 4706   0.472   3.940  17.224 -1.4502 -1.7627  1.2145
  309MPD2    H3 4707   0.426   3.945  17.455 -0.2175  0.1021  2.3662
  309MPD2     N 4708   0.087   4.249  17.411 -0.1484 -0.7708  0.7304
  309MPD2    H5 4709   0.062   4.220  17.505  1.7012  1.6462  1.9460
  309MPD2    N1 4710   0.365   4.068  17.035  0.1964  0.0515 -0.0057
  309MPD2    H7 4711   0.293   4.111  16.978  1.1888  0.5414 -0.8702
  310TMC3    C1 4712   0.471   4.004  16.833  0.0715 -0.1618 -1.0673
  310TMC3    C2 4713   0.384   4.079  16.759  0.5983  0.4781 -0.8321
  310TMC3    C3 4714   0.375   4.057  16.627 -0.1327 -0.0237 -0.0104
  310TMC3    C4 4715   0.553   3.914  16.774  0.4962  0.1563  0.2530
  310TMC3    C5 4716   0.548   3.907  16.633  0.4402 -0.5040  0.1453
  310TMC3    C6 4717   0.454   3.964  16.555 -0.7101 -0.0576 -0.3751
  310TMC3     C 4718   0.485   4.034  16.978 -0.1368  0.9118  0.0593
  310TMC3     O 4719   0.592   4.012  17.037  0.3108 -0.0926  0.2745
  310TMC3     H 4720   0.343   4.170  16.802  1.9161 -0.1347  1.6561
  310TMC3    H1 4721   0.625   3.863  16.837  1.6024  1.4492  0.0481
  310TMC3    H2 4722   0.439   3.927  16.454  2.0895  0.4717 -0.9743
  310TMC3    C7 4723   0.647   3.830  16.567 -0.6100 -0.7140 -0.0284
  310TMC3    C8 4724   0.283   4.125  16.537  0.2007 -1.1321  0.0402
  310TMC3    O1 4725   0.618   3.776  16.461  0.2118 -0.4348  0.1569
  310TMC3    O2 4726   0.296   4.088  16.420 -0.1489  0.2668 -0.2044
  311MPD2     C 4727   2.572   0.671  12.697 -0.2095 -0.8911 -0.4673
  311MPD2    C1 4728   2.582   0.785  12.769  0.3533 -0.6076 -0.2854
  311MPD2    C2 4729   2.477   0.810  12.853  0.3962  0.0975 -0.0656
  311MPD2    C3 4730   2.362   0.730  12.866  0.3817 -0.0337  0.3655
  311MPD2    C4 4731   2.348   0.619  12.779 -0.0303 -0.4852 -0.3994
  311MPD2    C5 4732   2.455   0.600  12.690  0.3618 -0.3295 -0.6568
  311MPD2     H 4733   2.477   0.899  12.914 -1.4768  0.9468 -1.3152
  311MPD2    H1 4734   2.263   0.553  12.768 -2.0338  1.8244  1.3406
  311MPD2    H2 4735   2.647   0.648  12.622  1.0873  1.9665 -0.0503
  311MPD2    H3 4736   2.446   0.523  12.614 -0.8678 -0.1923 -0.6539
  311MPD2     N 4737   2.256   0.777  12.942  0.1472 -0.6401  0.3622
  311MPD2    H5 4738   2.278   0.870  12.974 -2.5371 -0.5026  1.7455
  311MPD2    N1 4739   2.690   0.881  12.754  0.5133 -0.4355  0.4204
  311MPD2    H7 4740   2.687   0.967  12.807  0.6643  0.2234 -0.6335
  312TMC3    C1 4741   2.058   0.779  13.063 -0.0702 -0.1585 -0.1347
  312TMC3    C2 4742   1.923   0.759  13.066  0.1691  0.3128  0.4234
  312TMC3    C3 4743   1.847   0.822  13.151  0.5113 -0.1947  0.6229
  312TMC3    C4 4744   2.124   0.865  13.151 -0.1633  0.5384  0.9896
  312TMC3    C5 4745   2.037   0.936  13.234 -0.3357  0.3057 -0.4496
  312TMC3    C6 4746   1.903   0.918  13.235 -0.0616  0.2487  0.1916
  312TMC3     C 4747   2.140   0.709  12.970 -0.9223  0.2285 -0.6619
  312TMC3     O 4748   2.100   0.604  12.924 -0.0685 -0.3009 -0.1057
  312TMC3     H 4749   1.870   0.689  13.002  0.0657  0.0649  0.7796
  312TMC3    H1 4750   2.231   0.876  13.165  0.0742 -1.2812  0.6390
  312TMC3    H2 4751   1.843   0.984  13.297 -0.8169  0.9306 -1.2652
  312TMC3    C7 4752   2.099   1.003  13.342  0.7267 -0.0700 -0.2948
  312TMC3    C8 4753   1.702   0.789  13.154  0.2164  0.2653  0.1806
  312TMC3    O1 4754   2.047   1.108  13.366 -0.1228 -0.2194  0.1372
  312TMC3    O2 4755   1.673   0.683  13.103  0.1764  0.4551  0.1683
  313MPD2     C 4756   1.026   4.672  11.194 -0.5385  0.0217 -0.0579
  313MPD2    C1 4757   1.108   0.021  11.117  0.1526 -0.8770 -0.8869
  313MPD2    C2 4758   1.142   4.726  10.991 -0.2308  0.8619 -0.3871
  313MPD2    C3 4759   1.112   4.603  10.936 -0.1905  0.0763  0.2516
  313MPD2    C4 4760   1.037   4.517  11.008  0.2840 -0.5191  0.1437
  313MPD2    C5 4761   0.996   4.551  11.141 -0.0060 -0.1426 -0.2010
  313MPD2     H 4762   1.203   0.055  10.934 -0.8174  2.1625  0.5699
  313MPD2    H1 4763   1.001   4.420  10.976  1.4723  0.0175 -2.8132
  313MPD2    H2 4764   0.988   4.702  11.291  0.1333 -0.0479  0.2301
  313MPD2    H3 4765   0.945   4.481  11.206 -1.2784  2.1614  1.2891
  313MPD2     N 4766   1.162   4.571  10.807 -0.6983  0.2070  0.0492
  313MPD2    H5 4767   1.212   4.639  10.752  0.8189  1.1762  2.6340
  313MPD2    N1 4768   1.165   0.133  11.183  0.5988  0.1662 -0.2330
  313MPD2    H7 4769   1.139   0.143  11.281  1.0947  0.6209 -0.1483
  314TMC3    C1 4770   1.275   0.337  11.225  0.0789 -0.7468  0.0318
  314TMC3    C2 4771   1.393   0.403  11.206 -0.5194  0.0760  0.4875
  314TMC3    C3 4772   1.392   0.543  11.196  0.1928 -0.0106  0.3845
  314TMC3    C4 4773   1.160   0.400  11.267 -0.0223  0.7251  0.1092
  314TMC3    C5 4774   1.160   0.534  11.258  0.4187  0.1227  0.2423
  314TMC3    C6 4775   1.272   0.609  11.223  0.2694 -0.1967  0.4332
  314TMC3     C 4776   1.255   0.230  11.130 -0.0450  0.3043  0.7030
  314TMC3     O 4777   1.304   0.243  11.018 -0.5162  0.4754  0.0925
  314TMC3     H 4778   1.477   0.346  11.166 -0.2121  0.6240  0.3414
  314TMC3    H1 4779   1.069   0.347  11.293  0.0438  0.3641 -0.4156
  314TMC3    H2 4780   1.266   0.717  11.222 -0.4257 -0.2498 -3.3035
  314TMC3    C7 4781   1.037   0.575  11.187 -0.6472 -0.3569 -0.8821
  314TMC3    C8 4782   1.514   0.604  11.151  0.1642  0.0618 -0.0481
  314TMC3    O1 4783   0.933   0.525  11.226 -0.2973  0.6623 -0.4347
  314TMC3    O2 4784   1.530   0.718  11.188 -0.0814  0.1332 -0.1062
  315MPD2     C 4785   1.799   3.557  17.573  0.2575 -0.1101  0.0903
  315MPD2    C1 4786   1.858   3.600  17.690 -0.0379  0.6632 -0.5000
  315MPD2    C2 4787   1.887   3.734  17.720 -0.6911 -0.2658  0.0563
  315MPD2    C3 4788   1.862   3.835  17.630  0.1158  0.0456  0.3504
  315MPD2    C4 4789   1.805   3.796  17.514 -0.3675  0.9890  0.3387
  315MPD2    C5 4790   1.778   3.663  17.482  1.2094 -0.0190  0.0066
  315MPD2     H 4791   1.924   3.761   0.061  0.8679  0.7690 -0.8116
  315MPD2    H1 4792   1.788   3.875  17.442  2.6631  1.3592  0.0093
  315MPD2    H2 4793   1.772   3.456  17.545 -1.6981  0.1516  1.0657
  315MPD2    H3 4794   1.741   3.643  17.382  1.3117  0.8623 -0.2028
  315MPD2     N 4795   1.894   3.966  17.667 -0.0832 -0.4218  0.2820
  315MPD2    H5 4796   1.949   3.974  17.752  1.3364 -1.5463 -0.5346
  315MPD2    N1 4797   1.915   3.504   0.025 -0.3074 -0.1469  0.0023
  315MPD2    H7 4798   1.973   3.544   0.098  0.8912 -0.0834 -0.9820
  316TMC3    C1 4799   2.000   4.180  17.642 -0.0654  0.1000 -0.4664
  316TMC3    C2 4800   2.035   4.168   0.015 -0.0044 -0.3152  0.1820
  316TMC3    C3 4801   2.112   4.268   0.062  0.0096 -0.5470 -0.1897
  316TMC3    C4 4802   2.049   4.274  17.558  0.9304  0.8317  0.1566
  316TMC3    C5 4803   2.116   4.376  17.616  0.0090 -0.6521  0.0250
  316TMC3    C6 4804   2.144   4.382  17.751 -0.0304  0.6112 -0.1050
  316TMC3     C 4805   1.922   4.073  17.578 -0.4128  0.4813 -0.2688
  316TMC3     O 4806   1.890   4.085  17.463  0.1942 -0.2569 -0.3631
  316TMC3     H 4807   2.003   4.088   0.081 -2.6888 -0.0336 -0.7787
  316TMC3    H1 4808   2.053   4.253  17.451  0.6308  2.3442 -0.1498
  316TMC3    H2 4809   2.197   4.467   0.036  0.2365  1.0142 -1.2377
  316TMC3    C7 4810   2.176   4.469  17.526  0.5116 -0.3922  0.0807
  316TMC3    C8 4811   2.169   4.267   0.202  0.5864  0.0333 -0.1365
  316TMC3    O1 4812   2.287   4.513  17.547 -0.0730 -0.0335  0.2056
  316TMC3    O2 4813   2.202   4.375   0.244  0.1146  0.4205  0.0665
  317MPD2     C 4814   3.365   3.149  13.055 -0.0432  0.1011  0.1479
  317MPD2    C1 4815   3.374   3.022  13.014  0.0602 -0.6975  0.1350
  317MPD2    C2 4816   3.432   2.938  13.104  0.3294  0.2172 -0.1419
  317MPD2    C3 4817   3.489   2.979  13.225 -0.0252 -0.1235  0.1234
  317MPD2    C4 4818   3.460   3.106  13.268 -0.8223  0.3672  0.7853
  317MPD2    C5 4819   3.408   3.193  13.177  0.4350 -0.0841  0.2653
  317MPD2     H 4820   3.433   2.834  13.071  0.7503 -0.4816  2.1033
  317MPD2    H1 4821   3.504   3.152  13.356  0.6381 -2.3702  1.4991
  317MPD2    H2 4822   3.313   3.224  12.996 -0.8952 -1.8544 -1.5354
  317MPD2    H3 4823   3.394   3.294  13.214 -1.2617  0.3523 -1.5585
  317MPD2     N 4824   3.571   2.886  13.295  0.0783 -0.2247 -0.5040
  317MPD2    H5 4825   3.589   2.797  13.250 -0.0893 -0.4348 -0.1578
  317MPD2    N1 4826   3.332   2.973  12.891 -0.3451 -0.2444  0.9378
  317MPD2    H7 4827   3.342   2.873  12.875 -2.4784 -0.3594  0.3604
  318TMC3    C1 4828   3.718   2.792  13.448 -0.1828 -0.2873 -0.5377
  318TMC3    C2 4829   3.688   2.672  13.383  0.7450 -0.3066  0.3528
  318TMC3    C3 4830   3.773   2.567  13.399  0.0087 -0.4777  0.1647
  318TMC3    C4 4831   3.834   2.812  13.519 -0.9689 -0.2628 -0.2132
  318TMC3    C5 4832   3.912   2.699  13.535 -0.1736 -0.0352  0.7923
  318TMC3    C6 4833   3.886   2.577  13.482  0.3472 -0.6361  0.0955
  318TMC3     C 4834   3.641   2.912  13.411 -0.1474  0.7112 -0.6057
  318TMC3     O 4835   3.652   3.013  13.477  0.8274 -0.3002 -0.1377
  318TMC3     H 4836   3.587   2.651  13.348  0.0169  3.3500  0.2248
  318TMC3    H1 4837   3.851   2.912  13.558 -1.0733  0.0369 -0.9268
  318TMC3    H2 4838   3.966   2.506  13.467 -0.0276 -1.0313 -0.0497
  318TMC3    C7 4839   4.014   2.719  13.637  0.2473  0.0505 -0.3347
  318TMC3    C8 4840   3.758   2.439  13.324 -0.9851  0.1742 -0.5056
  318TMC3    O1 4841   3.987   2.809  13.711 -0.0704  0.6360  0.5903
  318TMC3    O2 4842   3.857   2.368  13.301  0.0185 -0.0693 -0.1562
  319MPD2     C 4843   3.805   4.117  16.681 -0.3213  0.1402 -0.4655
  319MPD2    C1 4844   3.889   4.017  16.631  0.0414  0.0096  0.1519
  319MPD2    C2 4845   3.843   3.918  16.548  0.2627  0.0382 -0.0966
  319MPD2    C3 4846   3.715   3.917  16.510 -0.2795  0.0415 -0.4623
  319MPD2    C4 4847   3.626   4.015  16.556 -0.0320  0.3413  0.0354
  319MPD2    C5 4848   3.674   4.114  16.642 -0.1303 -0.2258 -0.7178
  319MPD2     H 4849   3.914   3.843  16.517  1.2275  1.4371 -1.2234
  319MPD2    H1 4850   3.519   4.005  16.542 -0.1400  0.1869  0.9486
  319MPD2    H2 4851   3.851   4.187  16.750 -1.7567  1.0546 -0.4377
  319MPD2    H3 4852   3.601   4.183  16.683  1.4871  0.9033  0.2236
  319MPD2     N 4853   3.656   3.812  16.431 -0.1581 -0.3344 -0.1407
  319MPD2    H5 4854   3.556   3.822  16.424  0.0099  1.6027  0.2139
  319MPD2    N1 4855   4.019   3.994  16.668  0.3077 -0.3418 -0.1330
  319MPD2    H7 4856   4.057   3.916  16.614 -1.2396 -0.9681 -0.3176
  320TMC3    C1 4857   3.640   3.608  16.308  0.2337 -0.3412 -0.7534
  320TMC3    C2 4858   3.583   3.648  16.190  0.2651 -0.1784  0.5865
  320TMC3    C3 4859   3.588   3.557  16.091 -0.2055 -0.3824 -0.3746
  320TMC3    C4 4860   3.692   3.482  16.333  0.3095  0.3935  0.3879
  320TMC3    C5 4861   3.698   3.397  16.229 -0.3722  0.2413  0.4719
  320TMC3    C6 4862   3.647   3.431  16.103 -0.3662  0.0723  0.0522
  320TMC3     C 4863   3.722   3.703  16.388  0.1437  0.8694  0.5408
  320TMC3     O 4864   3.827   3.648  16.426  0.2912 -0.2094  0.7561
  320TMC3     H 4865   3.538   3.743  16.164  1.9617  0.2383 -0.8203
  320TMC3    H1 4866   3.720   3.459  16.435 -1.1150  0.9013  0.8889
  320TMC3    H2 4867   3.653   3.364  16.018 -1.4116  1.1046 -0.8288
  320TMC3    C7 4868   3.816   3.317  16.227  1.1525 -0.0709  0.4891
  320TMC3    C8 4869   3.600   3.616  15.962  0.3360 -0.2152 -0.1133
  320TMC3    O1 4870   3.823   3.228  16.149 -0.1117 -0.5063  0.2038
  320TMC3    O2 4871   3.599   3.739  15.950 -0.4758  0.6320  0.0409
  321TMC3    C1 4872   4.216   3.990  16.784  0.1142  0.2172 -0.7266
  321TMC3    C2 4873   4.251   3.868  16.725 -0.4148  0.2545 -0.2035
  321TMC3    C3 4874   4.379   3.844  16.693 -0.1484 -0.7390 -0.4632
  321TMC3    C4 4875   4.314   4.082  16.819 -0.1760  0.0617  0.4290
  321TMC3    C5 4876   4.445   4.045  16.788  0.1115 -0.5045 -0.3373
  321TMC3    C6 4877   4.481   3.935  16.718  0.0629 -0.2119 -0.0175
  321TMC3     C 4878   4.083   4.047  16.770  0.0119 -0.3242 -0.1216
  321TMC3     O 4879   4.051   4.152  16.831 -0.0386  0.1455 -0.2846
  321TMC3     H 4880   4.176   3.794  16.700  0.5870 -1.5650  2.1971
  321TMC3    H1 4881   4.284   4.184  16.841 -1.9233 -0.3247 -0.1861
  321TMC3    H2 4882   4.575   3.915  16.668 -0.2749 -0.4109 -0.5722
  321TMC3    C7 4883   4.525   4.033  16.911 -0.4351  0.2018  0.4638
  321TMC3    C8 4884   4.410   3.706  16.710  0.7161 -0.1861 -0.8826
  321TMC3    O1 4885   4.621   3.961  16.909  0.3447 -0.0345 -0.3362
  321TMC3    O2 4886   4.321   3.622  16.700  1.0074  0.3406 -0.2011
  322MPD2     C 4887   3.247   0.220  13.543 -0.7425 -0.4277  0.0912
  322MPD2    C1 4888   3.282   0.174  13.659 -0.1444  0.0021  0.6042
  322MPD2    C2 4889   3.355   0.060  13.675  0.6525  0.1716 -0.0438
  322MPD2    C3 4890   3.398   4.736  13.556  0.3600 -0.1874 -0.0771
  322MPD2    C4 4891   3.355   0.039  13.434  0.3685  0.4938  0.3243
  322MPD2    C5 4892   3.268   0.150  13.430 -0.3631  0.9458  0.2646
  322MPD2     H 4893   3.410   0.037  13.765  0.2134  0.4943  0.3088
  322MPD2    H1 4894   3.384   4.731  13.341  2.4492  1.0834  0.6817
  322MPD2    H2 4895   3.189   0.311  13.535  0.2657 -0.0369 -2.7740
  322MPD2    H3 4896   3.235   0.195  13.337 -0.1831  1.3503  0.3946
  322MPD2     N 4897   3.502   4.642  13.577  0.4752 -0.2388  0.3243
  322MPD2    H5 4898   3.504   4.610  13.673  0.3476 -2.2920 -0.3695
  322MPD2    N1 4899   3.267   0.255  13.770  0.0250  0.3344 -0.3830
  322MPD2    H7 4900   3.285   0.353  13.751  2.8300 -0.5010 -2.0142
  323TMC3    C1 4901   3.309   0.307  13.995 -1.0783 -0.4253 -0.0582
  323TMC3    C2 4902   3.412   0.398  13.958 -0.4415 -0.5027  0.2068
  323TMC3    C3 4903   3.498   0.445  14.063  0.1708 -0.2857  0.3425
  323TMC3    C4 4904   3.294   0.267  14.120 -0.6282 -0.3049 -1.2149
  323TMC3    C5 4905   3.384   0.310  14.211 -0.0017  0.1936 -0.0607
  323TMC3    C6 4906   3.489   0.392  14.185 -0.3488 -0.6401  1.0115
  323TMC3     C 4907   3.256   0.215  13.901  0.7056  0.1373 -0.3680
  323TMC3     O 4908   3.235   0.100  13.936 -0.8875  0.6380 -0.1443
  323TMC3     H 4909   3.427   0.417  13.853 -0.5550  0.7469  0.4244
  323TMC3    H1 4910   3.208   0.203  14.138 -0.2146 -0.4294  0.3106
  323TMC3    H2 4911   3.564   0.412  14.261  0.6824 -0.7401  0.0198
  323TMC3    C7 4912   3.409   0.225  14.327  0.0613 -0.4376  0.3997
  323TMC3    C8 4913   3.619   0.527  14.028  0.1406  0.2602  0.5221
  323TMC3    O1 4914   3.515   0.225  14.391 -0.1161  0.3548  0.3216
  323TMC3    O2 4915   3.699   0.558  14.115 -0.4620 -0.4405 -0.0376
  324MPD2     C 4916   0.374   1.109  14.325  0.4600  0.5079 -0.1948
  324MPD2    C1 4917   0.349   1.241  14.353  0.2151 -0.0736 -0.7708
  324MPD2    C2 4918   0.228   1.303  14.329 -0.4903 -0.3259  0.1705
  324MPD2    C3 4919   0.128   1.230  14.267  0.5668  0.0786  0.4827
  324MPD2    C4 4920   0.152   1.100  14.238 -0.2342 -0.1798 -0.5795
  324MPD2    C5 4921   0.274   1.040  14.263  0.1381 -0.3094 -0.1006
  324MPD2     H 4922   0.203   1.405  14.352  1.2632 -0.4174  2.4789
  324MPD2    H1 4923   0.071   1.032  14.213 -1.2044 -0.1252  2.3020
  324MPD2    H2 4924   0.470   1.062  14.339  0.1975 -0.0730 -0.3362
  324MPD2    H3 4925   0.282   0.936  14.237  2.3489  0.0864 -0.9931
  324MPD2     N 4926   0.006   1.287  14.252 -0.0140  0.8513  0.3375
  324MPD2    H5 4927   4.714   1.368  14.305 -0.1185  1.0568 -0.0407
  324MPD2    N1 4928   0.447   1.325  14.414  0.0785  0.2278  0.1411
  324MPD2    H7 4929   0.427   1.424  14.428  0.6308  0.2125  1.0992
  325TMC3    C1 4930   4.534   1.351  14.175  0.1132  0.0278 -0.8323
  325TMC3    C2 4931   4.423   1.311  14.103 -0.4066  0.6571 -0.5159
  325TMC3    C3 4932   4.330   1.399  14.066  0.2990  0.0603 -0.1132
  325TMC3    C4 4933   4.553   1.481  14.211  0.1707 -0.3163 -0.2647
  325TMC3    C5 4934   4.460   1.572  14.168  1.1060 -0.5536  0.0176
  325TMC3    C6 4935   4.351   1.532  14.090 -0.1830  1.0193  0.0478
  325TMC3     C 4936   4.644   1.249  14.177 -0.6462  0.5317 -0.1858
  325TMC3     O 4937   4.634   1.144  14.109 -0.2472 -0.5932  0.1551
  325TMC3     H 4938   4.412   1.205  14.079 -1.2166  0.4734  0.6546
  325TMC3    H1 4939   4.643   1.510  14.265  0.1959 -1.2835  0.2081
  325TMC3    H2 4940   4.282   1.601  14.044 -2.2005 -0.3491  1.0168
  325TMC3    C7 4941   4.493   1.713  14.185 -0.0389 -0.6504 -0.4966
  325TMC3    C8 4942   4.239   1.367  13.959 -0.6656 -0.3765 -0.2908
  325TMC3    O1 4943   4.608   1.732  14.216 -0.4978 -0.4883  0.0383
  325TMC3    O2 4944   4.236   1.445  13.867 -0.6502  0.0650  0.5089
  326MPD2     C 4945   0.216   2.966  10.962 -0.0220  0.0750  0.2059
  326MPD2    C1 4946   0.306   2.862  10.943  0.0610 -0.4028 -0.2639
  326MPD2    C2 4947   0.437   2.899  10.933  0.4383  0.0985 -0.1795
  326MPD2    C3 4948   0.476   3.029  10.929  0.7951 -0.4907 -0.0170
  326MPD2    C4 4949   0.389   3.130  10.943  0.5056  0.8688 -0.6895
  326MPD2    C5 4950   0.256   3.094  10.966  0.0400  0.3592  0.7782
  326MPD2     H 4951   0.515   2.823  10.929 -0.7951 -0.9783 -3.7207
  326MPD2    H1 4952   0.419   3.234  10.939 -1.0903  1.3588  0.1263
  326MPD2    H2 4953   0.109   2.952  10.976  0.1028 -0.1082  1.0192
  326MPD2    H3 4954   0.182   3.173  10.967  0.4784  0.8165 -2.5961
  326MPD2     N 4955   0.611   3.064  10.919 -0.2510  0.2925  0.1542
  326MPD2    H5 4956   0.637   3.160  10.937  1.7783 -0.5935  1.9419
  326MPD2    N1 4957   0.274   2.724  10.926  0.2200  0.0990  0.3116
  326MPD2    H7 4958   0.349   2.658  10.911 -2.0186 -2.3698  0.0043
  327TMC3    C1 4959   0.128   2.542  10.891  0.5057 -0.7738 -0.3224
  327TMC3    C2 4960   4.737   2.505  10.858  0.0217  0.0991  0.0097
  327TMC3    C3 4961   4.718   2.424  10.750 -0.0561 -0.5771 -0.4987
  327TMC3    C4 4962   0.239   2.487  10.822 -0.5258 -0.6802  0.6200
  327TMC3    C5 4963   0.213   2.407  10.709 -0.0107 -0.4110  0.2477
  327TMC3    C6 4964   0.084   2.379  10.671 -0.1342 -0.4573  0.2478
  327TMC3     C 4965   0.142   2.676  10.933 -0.9753  0.0648  0.1271
  327TMC3     O 4966   0.043   2.739  10.972  0.0907  0.1588  0.9590
  327TMC3     H 4967   4.652   2.542  10.914 -0.5959 -1.6488  0.2236
  327TMC3    H1 4968   0.341   2.511  10.847 -0.2614 -0.8995 -0.2294
  327TMC3    H2 4969   0.072   2.310  10.588  0.0113 -0.4467  0.2176
  327TMC3    C7 4970   0.316   2.359  10.613 -0.4440 -0.6610 -0.4750
  327TMC3    C8 4971   4.580   2.390  10.708  0.5487 -0.3418 -0.1505
  327TMC3    O1 4972   0.300   2.380  10.494  0.3174  0.1412  0.4023
  327TMC3    O2 4973   4.550   2.270  10.694 -0.1122 -0.0970  0.3543
  328MPD2     C 4974   4.234   2.663  17.336 -0.2899  0.0211  0.8812
  328MPD2    C1 4975   4.212   2.526  17.351 -0.0268  0.2932  0.0762
  328MPD2    C2 4976   4.155   2.453  17.248  0.1165 -0.0728 -0.1878
  328MPD2    C3 4977   4.116   2.506  17.129  0.2470  0.1262 -0.1114
  328MPD2    C4 4978   4.132   2.636  17.114 -0.5456  0.1123  0.1133
  328MPD2    C5 4979   4.200   2.707  17.212  0.0622 -0.1298 -0.0928
  328MPD2     H 4980   4.147   2.345  17.254 -0.5378 -0.0511 -0.6376
  328MPD2    H1 4981   4.117   2.682  17.017 -0.9911 -0.6169 -0.1607
  328MPD2    H2 4982   4.286   2.715  17.415 -0.7000 -0.1926  1.2914
  328MPD2    H3 4983   4.201   2.812  17.185 -1.1147 -0.3032 -0.8452
  328MPD2     N 4984   4.039   2.442  17.035 -0.0528 -0.2283  1.0083
  328MPD2    H5 4985   4.005   2.507  16.964  0.2618 -0.0853  0.9867
  328MPD2    N1 4986   4.249   2.476  17.480  0.5624 -0.3254  0.4020
  328MPD2    H7 4987   4.260   2.547  17.551  1.7975  1.7557 -1.8642
  329TMC3    C1 4988   4.233   2.314  17.654 -0.0825  0.5498 -0.2585
  329TMC3    C2 4989   4.231   2.412  17.747  0.0651 -0.0978  0.3826
  329TMC3    C3 4990   4.185   2.376   0.115 -0.9126 -0.3021  0.1358
  329TMC3    C4 4991   4.216   2.184  17.692 -0.4302  0.5514  0.3439
  329TMC3    C5 4992   4.166   2.151   0.060  0.5156  0.1902  0.7905
  329TMC3    C6 4993   4.158   2.245   0.156 -0.0493 -0.8160 -0.3528
  329TMC3     C 4994   4.230   2.343  17.518  0.2043  0.2609 -0.0836
  329TMC3     O 4995   4.226   2.241  17.448  0.2705 -0.8441  0.4961
  329TMC3     H 4996   4.238   2.518  17.728 -3.7106  0.0427 -0.1910
  329TMC3    H1 4997   4.211   2.104  17.619  0.2444 -1.1839  2.1882
  329TMC3    H2 4998   4.126   2.215   0.255  1.2725  3.3201  1.3170
  329TMC3    C7 4999   4.113   2.018   0.084 -1.0086  0.8015 -0.1402
  329TMC3    C8 5000   4.188   2.484   0.215 -0.1340 -0.1323  0.2118
  329TMC3    O1 5001   4.097   1.952  17.743 -0.0896 -0.5266  0.0219
  329TMC3    O2 5002   4.234   2.596   0.184  0.1934  0.0413  0.3592
  330TMC3    C1 5003   1.512   1.925   9.508 -0.3650  0.2379  0.4754
  330TMC3    C2 5004   1.441   1.828   9.440 -0.5733 -0.0985 -0.1878
  330TMC3    C3 5005   1.391   1.719   9.512  0.0925 -0.3661  0.2802
  330TMC3    C4 5006   1.539   1.910   9.643 -0.8110  0.6623  0.1604
  330TMC3    C5 5007   1.493   1.800   9.708  0.5555 -0.2348  0.0795
  330TMC3    C6 5008   1.410   1.709   9.645 -0.5227 -0.6447 -0.0049
  330TMC3     C 5009   1.614   2.001   9.440 -0.4753 -0.0070 -0.0365
  330TMC3     O 5010   1.717   2.027   9.504  0.1131  0.9673  0.0040
  330TMC3     H 5011   1.402   1.849   9.341 -1.3479 -2.2166 -0.3344
  330TMC3    H1 5012   1.583   1.994   9.695 -1.5448 -0.4787  2.6033
  330TMC3    H2 5013   1.382   1.617   9.694  0.0449 -1.7283 -1.7487
  330TMC3    C7 5014   1.549   1.750   9.830  0.1865  0.6574 -0.1860
  330TMC3    C8 5015   1.275   1.652   9.448  0.2402 -0.0956  0.1617
  330TMC3    O1 5016   1.542   1.627   9.845 -0.2226  0.0542 -0.6253
  330TMC3    O2 5017   1.255   1.673   9.329 -0.2282  0.3333  0.6923
  331MPD2     C 5018   0.083   1.554  12.277  0.4760  0.0916  0.1078
  331MPD2    C1 5019   0.073   1.514  12.151  0.0667 -0.9470 -0.2937
  331MPD2    C2 5020   0.086   1.382  12.125  0.5226  0.4130 -0.1228
  331MPD2    C3 5021   0.094   1.291  12.226 -0.1400 -0.4332 -0.9604
  331MPD2    C4 5022   0.115   1.330  12.351 -0.0115 -0.5529 -0.0241
  331MPD2    C5 5023   0.112   1.463  12.378 -0.6936  0.7312  0.0393
  331MPD2     H 5024   0.068   1.342  12.026  2.2045 -2.1353  0.5854
  331MPD2    H1 5025   0.115   1.260  12.433 -0.9783  0.2882  0.6885
  331MPD2    H2 5026   0.078   1.658  12.306  0.3016  0.2417 -0.4597
  331MPD2    H3 5027   0.112   1.490  12.483  1.7376  1.5923 -0.1842
  331MPD2     N 5028   0.085   1.157  12.190  0.1500 -0.1367 -0.0304
  331MPD2    H5 5029   0.053   1.140  12.095 -0.8193  2.3152 -0.1535
  331MPD2    N1 5030   0.062   1.611  12.051 -0.0773  0.2767 -0.2783
  331MPD2    H7 5031   0.064   1.710  12.073  0.6258 -0.0911  1.3235
  332TMC3    C1 5032   0.086   0.918  12.217 -0.4904  0.1655 -0.0729
  332TMC3    C2 5033   0.023   0.914  12.094 -0.3050  0.2901 -0.7569
  332TMC3    C3 5034   0.011   0.789  12.040 -0.7889 -0.2909  0.8217
  332TMC3    C4 5035   0.152   0.813  12.272  0.5661  0.5964  0.0961
  332TMC3    C5 5036   0.157   0.700  12.197  0.1813 -0.0606 -0.3182
  332TMC3    C6 5037   0.084   0.684  12.085  0.2522 -0.7245  0.0725
  332TMC3     C 5038   0.112   1.051  12.275  0.0610 -0.1014 -0.4388
  332TMC3     O 5039   0.168   1.053  12.382 -0.1181 -1.0010 -0.2162
  332TMC3     H 5040   4.709   0.997  12.050 -0.3668  1.3651  1.3759
  332TMC3    H1 5041   0.199   0.814  12.369 -4.1670 -0.5810  2.4071
  332TMC3    H2 5042   0.073   0.586  12.039  0.1637 -0.3136 -0.7790
  332TMC3    C7 5043   0.213   0.582  12.263  1.1191 -0.2286  0.3155
  332TMC3    C8 5044   4.670   0.785  11.917 -0.4391  0.0595 -0.9637
  332TMC3    O1 5045   0.168   0.472  12.228  0.0221 -0.1389 -0.6225
  332TMC3    O2 5046   4.655   0.889  11.856 -0.0567  0.0029 -0.1225
  333MPD2     C 5047   4.568   0.634  10.285 -0.2025  0.0365 -0.7859
  333MPD2    C1 5048   4.654   0.621  10.396  0.1279 -0.2240 -0.1092
  333MPD2    C2 5049   4.622   0.529  10.495 -0.2253 -0.0082 -0.1348
  333MPD2    C3 5050   4.509   0.448  10.480 -0.3070 -0.7509  0.3275
  333MPD2    C4 5051   4.418   0.462  10.372 -0.3475  0.8339  0.4490
  333MPD2    C5 5052   4.454   0.558  10.275 -1.0385  0.0387  0.2416
  333MPD2     H 5053   4.665   0.538  10.594 -1.2319  1.6892  0.1583
  333MPD2    H1 5054   4.337   0.391  10.365 -0.5099  1.0609  0.0338
  333MPD2    H2 5055   4.589   0.704  10.205  1.0698  1.8955  1.1592
  333MPD2    H3 5056   4.402   0.570  10.181  1.0307  1.3446 -0.7236
  333MPD2     N 5057   4.494   0.342  10.576  0.2269  0.0715 -0.7084
  333MPD2    H5 5058   4.568   0.326  10.644  0.1640 -1.6153 -1.0468
  333MPD2    N1 5059   0.016   0.715  10.407  0.2492 -0.5555 -0.5468
  333MPD2    H7 5060   0.006   0.797  10.350 -2.5256 -0.5257  0.0039
  334TMC3    C1 5061   0.118   0.837  10.584  0.7053  0.3488 -0.7419
  334TMC3    C2 5062   0.234   0.865  10.657 -0.0424 -0.1682  0.2838
  334TMC3    C3 5063   0.249   0.989  10.716  0.8223  0.2898 -0.0062
  334TMC3    C4 5064   0.026   0.932  10.559  0.1738  0.0455  0.3457
  334TMC3    C5 5065   0.048   1.054  10.617 -0.0288  0.3065  0.1203
  334TMC3    C6 5066   0.153   1.087  10.702 -0.7998  0.2034 -0.0698
  334TMC3     C 5067   0.105   0.711  10.510  0.7275  0.7676 -0.1964
  334TMC3     O 5068   0.149   0.616  10.574  0.4614  0.0244  0.1390
  334TMC3     H 5069   0.300   0.780  10.675  1.7637  1.1728 -0.0084
  334TMC3    H1 5070   4.673   0.907  10.509  1.1046 -1.7853 -0.4619
  334TMC3    H2 5071   0.162   1.187  10.742  1.8001  0.1145 -0.4239
  334TMC3    C7 5072   4.676   1.154  10.603  0.9021 -0.2625  0.4328
  334TMC3    C8 5073   0.364   1.009  10.803 -0.0084 -0.0057  0.2786
  334TMC3    O1 5074   4.686   1.265  10.650  0.5599  0.5223  0.2802
  334TMC3    O2 5075   0.354   1.070  10.908 -0.2620 -0.6303 -0.0014
  335TMC3    C1 5076   0.163   2.406  17.532  0.3282  0.0947  0.6320
  335TMC3    C2 5077   0.158   2.294  17.456  0.2590 -0.1368  0.4014
  335TMC3    C3 5078   0.160   2.318  17.319  0.3840 -0.5280  0.0332
  335TMC3    C4 5079   0.187   2.533  17.483  0.7138  0.0782  0.1761
  335TMC3    C5 5080   0.187   2.547  17.345  1.3997 -0.3764 -0.7209
  335TMC3    C6 5081   0.157   2.438  17.266  0.3834  0.4679 -0.0085
  335TMC3     C 5082   0.154   2.384  17.676  0.2369  0.1480 -0.9756
  335TMC3     O 5083   0.158   2.270  17.716 -0.1827 -0.2849  0.0758
  335TMC3     H 5084   0.172   2.196  17.500 -0.5816 -0.0692  0.8228
  335TMC3    H1 5085   0.228   2.605  17.553 -0.2609  1.5373 -0.7514
  335TMC3    H2 5086   0.179   2.435  17.160 -1.6963  0.6481 -0.4474
  335TMC3    C7 5087   0.312   2.609  17.295 -0.6029  0.2955 -0.5016
  335TMC3    C8 5088   0.196   2.204  17.243 -0.7094 -0.3906  0.3046
  335TMC3    O1 5089   0.368   2.538  17.213  0.2194 -0.1939  0.2074
  335TMC3    O2 5090   0.262   2.225  17.138  0.5324  0.1430 -0.6539
  336MPD2     C 5091   4.143   0.232  16.275  0.0279  0.3448 -0.2101
  336MPD2    C1 5092   4.142   0.175  16.154  0.1545 -0.1408 -1.1770
  336MPD2    C2 5093   4.214   0.057  16.147  0.8486 -0.6024  0.1999
  336MPD2    C3 5094   4.258   4.733  16.265 -0.5468  0.7272 -0.0611
  336MPD2    C4 5095   4.237   0.055  16.385 -0.7083 -0.3195 -0.1669
  336MPD2    C5 5096   4.183   0.179  16.388  0.9938 -0.0249 -0.2359
  336MPD2     H 5097   4.214   0.001  16.054  0.2850  2.2954 -1.5485
  336MPD2    H1 5098   4.265   0.007  16.477  0.6083  0.7569 -0.0161
  336MPD2    H2 5099   4.100   0.331  16.282 -2.0978 -0.6120  0.1685
  336MPD2    H3 5100   4.187   0.236  16.480 -1.6672 -1.0875  0.5312
  336MPD2     N 5101   4.296   4.590  16.266  0.1034 -0.0166  0.0011
  336MPD2    H5 5102   4.306   4.556  16.361 -0.6920 -1.1691 -0.3257
  336MPD2    N1 5103   4.094   0.243  16.033  0.5649  0.1621 -0.2099
  336MPD2    H7 5104   4.115   0.203  15.942 -0.7170 -1.1574  0.0913
  337TMC3    C1 5105   3.958   0.381  15.895  0.9081  0.0750  0.0272
  337TMC3    C2 5106   3.825   0.421  15.891  0.1941 -0.2684 -0.2802
  337TMC3    C3 5107   3.785   0.463  15.765 -0.0575  0.2711 -0.3006
  337TMC3    C4 5108   4.041   0.370  15.791  0.4512 -0.2454  0.1881
  337TMC3    C5 5109   4.003   0.433  15.674 -0.2185  0.1715 -0.1199
  337TMC3    C6 5110   3.873   0.479  15.660  0.2860 -0.2524  0.0243
  337TMC3     C 5111   4.002   0.343  16.026  0.5742 -0.3199  0.8644
  337TMC3     O 5112   3.927   0.375  16.117  0.3517  0.3982  0.0842
  337TMC3     H 5113   3.764   0.452  15.974 -0.3750 -1.1306 -0.3778
  337TMC3    H1 5114   4.144   0.337  15.800  0.3177 -0.9788 -0.8840
  337TMC3    H2 5115   3.832   0.511  15.565  1.1623 -0.1358 -0.3083
  337TMC3    C7 5116   4.094   0.432  15.568  0.2439  0.5388 -1.2891
  337TMC3    C8 5117   3.645   0.475  15.745 -0.1763 -0.4738  0.0477
  337TMC3    O1 5118   4.173   0.338  15.565 -0.0922 -0.2462  0.0684
  337TMC3    O2 5119   3.575   0.488  15.845  0.2683 -0.2816 -0.4517
  338MPD2     C 5120   4.592   4.064   1.146 -0.1390  0.2591  0.9064
  338MPD2    C1 5121   4.537   4.076   1.015 -0.6523  0.2096 -0.1500
  338MPD2    C2 5122   4.403   4.099   0.995  0.1825  0.4739 -0.1807
  338MPD2    C3 5123   4.326   4.124   1.110  0.6881 -0.6599  0.1034
  338MPD2    C4 5124   4.380   4.105   1.235 -0.1632 -0.3071 -0.2539
  338MPD2    C5 5125   4.506   4.064   1.254 -0.1776 -0.4070 -0.0570
  338MPD2     H 5126   4.360   4.112   0.896 -2.3550 -0.0470  0.8418
  338MPD2    H1 5127   4.325   4.127   1.326  0.6008 -0.9334  0.3644
  338MPD2    H2 5128   4.694   4.029   1.160 -0.5832 -0.3115  2.6770
  338MPD2    H3 5129   4.546   4.067   1.354  2.0163  0.7659 -0.9588
  338MPD2     N 5130   4.193   4.158   1.086  0.1335 -0.2673 -0.5590
  338MPD2    H5 5131   4.151   4.166   0.994  0.4777  1.3580 -0.5793
  338MPD2    N1 5132   4.600   4.035   0.897  0.4999 -0.2096 -0.0866
  338MPD2    H7 5133   4.542   4.032   0.814  1.8360  1.4188 -1.0866
  339TMC3    C1 5134   3.963   4.192   1.121  0.5912  0.2610 -0.0976
  339TMC3    C2 5135   3.868   4.095   1.141  0.1855 -0.7646 -0.5325
  339TMC3    C3 5136   3.779   4.076   1.046  0.2494  0.1846 -0.1390
  339TMC3    C4 5137   3.956   4.274   1.011  0.5046  0.0298  0.8199
  339TMC3    C5 5138   3.863   4.247   0.916  0.2383 -0.3723  0.4872
  339TMC3    C6 5139   3.768   4.154   0.930 -0.3362 -0.2420 -0.7805
  339TMC3     C 5140   4.089   4.154   1.180 -0.1307 -0.3153 -0.1141
  339TMC3     O 5141   4.082   4.124   1.301 -0.0902 -0.1095  0.1252
  339TMC3     H 5142   3.871   4.039   1.234 -1.7458  2.1755  1.2714
  339TMC3    H1 5143   4.037   4.344   0.992  0.5027 -0.1027  0.3370
  339TMC3    H2 5144   3.697   4.132   0.851 -0.3483 -1.8533 -0.3219
  339TMC3    C7 5145   3.892   4.299   0.785  0.1683  0.2662 -0.1139
  339TMC3    C8 5146   3.677   3.976   1.063 -0.1139  0.3619 -0.3863
  339TMC3    O1 5147   4.013   4.319   0.763 -0.0253 -0.0923 -0.1115
  339TMC3    O2 5148   3.578   3.997   0.990  0.1104 -0.6252  1.1051
  340MPD2     C 5149   4.445   2.541  10.386 -0.2906 -0.0507  0.4942
  340MPD2    C1 5150   4.387   2.416  10.356  0.4893 -0.1152  0.1313
  340MPD2    C2 5151   4.471   2.306  10.331  0.0113 -0.0016 -0.3359
  340MPD2    C3 5152   4.610   2.316  10.318 -0.2618 -0.2188 -0.1990
  340MPD2    C4 5153   4.664   2.448  10.338  0.0021  0.2188  0.3992
  340MPD2    C5 5154   4.583   2.556  10.369  0.2239 -0.4248  1.4931
  340MPD2     H 5155   4.426   2.208  10.317  1.2862 -0.8224  1.3435
  340MPD2    H1 5156   0.029   2.462  10.316 -0.5864  1.6086 -1.5332
  340MPD2    H2 5157   4.385   2.625  10.420 -1.9351 -0.8101 -0.4837
  340MPD2    H3 5158   4.628   2.654  10.369  0.2218 -0.4233  0.9301
  340MPD2     N 5159   4.700   2.221  10.268  0.6824 -0.1688  0.1143
  340MPD2    H5 5160   0.059   2.243  10.257  0.7847 -1.0211 -0.7347
  340MPD2    N1 5161   4.242   2.421  10.347  0.1202  0.2114  1.1192
  340MPD2    H7 5162   4.197   2.511  10.365 -0.3857  0.3023 -0.5657
  341TMC3    C1 5163   4.214   2.222  10.210 -0.2027  0.1606 -0.0714
  341TMC3    C2 5164   4.168   2.093  10.232 -0.7097 -0.1192  0.4207
  341TMC3    C3 5165   4.206   2.005  10.131  0.0110 -0.5792  0.3899
  341TMC3    C4 5166   4.282   2.269  10.107 -0.2573  0.6764  0.3125
  341TMC3    C5 5167   4.304   2.179  10.005  0.6223 -0.5360 -0.4192
  341TMC3    C6 5168   4.271   2.047  10.020 -0.2782 -0.3284  0.6460
  341TMC3     C 5169   4.159   2.323  10.300 -0.7298 -0.0964 -0.4117
  341TMC3     O 5170   4.040   2.303  10.324 -0.0332  0.8976  0.3519
  341TMC3     H 5171   4.108   2.060  10.316 -2.6993  0.2106 -0.8642
  341TMC3    H1 5172   4.322   2.369  10.117 -2.3238  1.3668  1.5448
  341TMC3    H2 5173   4.283   1.985   9.932  1.0202  0.0446  0.5591
  341TMC3    C7 5174   4.409   2.203   9.914  0.4640  0.9027 -0.2119
  341TMC3    C8 5175   4.140   1.879  10.131  0.6547 -0.3389  0.3796
  341TMC3    O1 5176   4.440   2.115   9.833  0.5039 -0.3841 -0.1668
  341TMC3    O2 5177   4.037   1.865  10.193  0.2814  0.7004 -0.0781
  342MPD2     C 5178   2.790   0.046   0.021  0.1340 -0.1802  0.6218
  342MPD2    C1 5179   2.896   0.083  17.694 -0.0339  0.3609  0.8849
  342MPD2    C2 5180   2.947   0.212  17.703 -0.3907  0.2618 -0.1256
  342MPD2    C3 5181   2.904   0.299   0.043  0.7430 -0.3623 -0.4147
  342MPD2    C4 5182   2.810   0.256   0.136  0.3434  0.1665  0.2610
  342MPD2    C5 5183   2.748   0.135   0.122  0.4676 -0.7050  0.2953
  342MPD2     H 5184   3.022   0.239  17.629 -0.7446 -0.9481 -0.9270
  342MPD2    H1 5185   2.780   0.325   0.214  1.8705 -0.7421  1.6551
  342MPD2    H2 5186   2.730   4.702  17.745  2.7986 -2.5054  1.6577
  342MPD2    H3 5187   2.671   0.097   0.188  0.0595  1.5471  1.1114
  342MPD2     N 5188   2.948   0.431   0.061 -0.5148  0.2059 -0.2048
  342MPD2    H5 5189   2.923   0.469   0.152  2.1835  0.9518  0.2176
  342MPD2    N1 5190   2.935   4.735  17.590  0.2306  0.7314  0.0428
  342MPD2    H7 5191   3.000   0.032  17.521  0.3002  0.0705 -0.2469
  343TMC3    C1 5192   2.955   4.538  17.458 -0.2184 -0.3950 -0.5188
  343TMC3    C2 5193   3.008   4.610  17.356  0.8076  0.2463 -0.8234
  343TMC3    C3 5194   3.060   4.547  17.241  0.2503  0.0904  0.3159
  343TMC3    C4 5195   2.934   4.403  17.441 -0.4811 -1.0950 -0.3600
  343TMC3    C5 5196   2.992   4.342  17.326  0.0933 -1.0695 -0.2387
  343TMC3    C6 5197   3.062   4.412  17.232  0.9791  0.6154 -0.2947
  343TMC3     C 5198   2.899   4.601  17.577  0.3497 -0.1056  0.8640
  343TMC3     O 5199   2.829   4.535  17.650 -0.3093  0.2889  0.1849
  343TMC3     H 5200   3.013   4.718  17.359 -2.1373  0.2880  2.1304
  343TMC3    H1 5201   2.874   4.357  17.520  0.7735  2.0936  2.4622
  343TMC3    H2 5202   3.088   4.355  17.143 -1.6069 -0.3077 -0.4773
  343TMC3    C7 5203   3.000   4.188  17.319 -0.0945 -0.8877 -0.4139
  343TMC3    C8 5204   3.123   4.633  17.140  0.5999  0.6362 -0.2286
  343TMC3    O1 5205   3.056   4.131  17.226 -0.0521 -0.3921  0.0367
  343TMC3    O2 5206   3.132   0.007  17.178 -0.1224 -0.2195 -0.1241
  344MPD2     C 5207   2.582   4.604  10.138 -0.2071  0.2831 -0.6357
  344MPD2    C1 5208   2.652   4.610  10.254 -0.0669  0.1197  0.0136
  344MPD2    C2 5209   2.725   4.724  10.288 -0.0838  0.3434  0.6758
  344MPD2    C3 5210   2.722   0.093  10.202  0.1365 -0.1302 -0.0697
  344MPD2    C4 5211   2.653   0.080  10.083  0.0055 -0.8523  0.1717
  344MPD2    C5 5212   2.574   4.712  10.060  0.0682  1.3329  0.0078
  344MPD2     H 5213   2.773   4.737  10.384 -1.3100 -1.6837  1.5502
  344MPD2    H1 5214   2.658   0.149  10.000 -1.3061 -2.5620 -1.3456
  344MPD2    H2 5215   2.524   4.517  10.108  0.0036 -1.3976  3.7752
  344MPD2    H3 5216   2.517   4.710   9.968  1.7369  0.3102 -0.9884
  344MPD2     N 5217   2.785   0.214  10.222 -0.2294 -0.4565  0.4399
  344MPD2    H5 5218   2.777   0.285  10.151  0.3006  0.2797  1.1183
  344MPD2    N1 5219   2.636   4.500  10.342 -0.3196  0.8304 -0.3447
  344MPD2    H7 5220   2.564   4.432  10.319  0.4462  0.0002 -0.2851
  345TMC3    C1 5221   2.974   0.340  10.290  0.2612  0.0862 -0.2839
  345TMC3    C2 5222   3.099   0.340  10.342 -0.2227 -0.1013 -0.8487
  345TMC3    C3 5223   3.185   0.432  10.300  0.7853  0.6738 -0.9599
  345TMC3    C4 5224   2.931   0.445  10.209 -0.4027  0.5140  0.2044
  345TMC3    C5 5225   3.023   0.537  10.166  0.3182  0.6663 -0.1234
  345TMC3    C6 5226   3.147   0.526  10.208 -0.0555  1.0538 -0.0040
  345TMC3     C 5227   2.885   0.227  10.316  0.1057  1.0262 -0.6624
  345TMC3     O 5228   2.933   0.141  10.395 -0.1812 -0.0217 -0.5379
  345TMC3     H 5229   3.127   0.265  10.415  1.0224 -0.1380 -1.3776
  345TMC3    H1 5230   2.823   0.461  10.204 -0.1819  1.2111 -2.4760
  345TMC3    H2 5231   3.220   0.594  10.167  0.6816 -1.0791 -2.2428
  345TMC3    C7 5232   2.983   0.675  10.133 -0.4232 -0.0266 -0.2103
  345TMC3    C8 5233   3.282   0.479  10.397 -0.0773 -0.0244  0.1176
  345TMC3    O1 5234   3.065   0.756  10.176 -0.6506  0.1409 -0.6337
  345TMC3    O2 5235   3.307   0.403  10.486 -0.3842  0.4019  0.0293
  346MPD2     C 5236   3.539   1.697  13.968 -0.0762 -0.2929 -0.1129
  346MPD2    C1 5237   3.631   1.786  13.921 -0.1801  0.0959  0.4421
  346MPD2    C2 5238   3.690   1.883  14.005  0.8433  0.3572 -0.1362
  346MPD2    C3 5239   3.635   1.896  14.130  0.6244  0.1563 -0.4892
  346MPD2    C4 5240   3.554   1.797  14.176  0.0362  0.3668 -0.6932
  346MPD2    C5 5241   3.512   1.695  14.097 -0.0079  0.0927 -0.5887
  346MPD2     H 5242   3.764   1.956  13.975 -1.4581  2.7402 -0.0448
  346MPD2    H1 5243   3.515   1.813  14.276 -0.8030  0.5429 -1.0486
  346MPD2    H2 5244   3.494   1.618  13.910 -1.5826 -0.0141  0.6881
  346MPD2    H3 5245   3.434   1.624  14.125 -0.9047  0.1287 -3.0128
  346MPD2     N 5246   3.683   2.000  14.201  0.3691  0.0826  0.3497
  346MPD2    H5 5247   3.749   2.054  14.146 -0.8690  0.4888 -0.7360
  346MPD2    N1 5248   3.660   1.802  13.780 -0.8462 -0.4627 -0.2009
  346MPD2    H7 5249   3.723   1.876  13.749  0.4334 -0.2082  2.9790
  347TMC3    C1 5250   3.761   2.139  14.364 -0.7069  0.1526 -0.3072
  347TMC3    C2 5251   3.847   2.203  14.271 -0.9957 -0.0147 -0.3945
  347TMC3    C3 5252   3.965   2.257  14.311  0.7144  0.5516 -0.4344
  347TMC3    C4 5253   3.799   2.135  14.493 -0.2018  0.1893 -0.9192
  347TMC3    C5 5254   3.920   2.178  14.533 -0.1660  0.3951  0.2538
  347TMC3    C6 5255   3.996   2.255  14.448  0.7781  0.2791 -0.1577
  347TMC3     C 5256   3.666   2.031  14.328  0.0143  0.4738  0.1785
  347TMC3     O 5257   3.599   1.979  14.418 -0.1287  0.5414 -0.3712
  347TMC3     H 5258   3.822   2.197  14.166  0.0330  0.1096 -0.6381
  347TMC3    H1 5259   3.733   2.098  14.571 -0.6791 -0.3962 -1.5956
  347TMC3    H2 5260   4.080   2.312  14.487  1.1624 -0.6100  0.3167
  347TMC3    C7 5261   3.978   2.086  14.627 -0.2569  0.4264 -0.1974
  347TMC3    C8 5262   4.061   2.179  14.241 -0.3347  0.6924  0.0191
  347TMC3    O1 5263   3.902   2.001  14.671 -0.1530 -0.0386  0.0939
  347TMC3    O2 5264   4.030   2.100  14.152  0.0586  0.0334 -0.0716
  348MPD2     C 5265   1.746   0.906  12.010 -0.3195 -0.1751 -0.7643
  348MPD2    C1 5266   1.843   1.011  12.015  0.3842 -1.0741  0.6485
  348MPD2    C2 5267   1.832   1.106  11.920 -0.1801 -0.0193 -0.0646
  348MPD2    C3 5268   1.725   1.114  11.834  0.4996  0.6656  0.1844
  348MPD2    C4 5269   1.631   1.017  11.835 -0.4413  0.2100 -0.3264
  348MPD2    C5 5270   1.638   0.920  11.919  0.2061 -0.1204  0.3717
  348MPD2     H 5271   1.897   1.193  11.919 -0.6230  0.2825 -2.7513
  348MPD2    H1 5272   1.546   1.029  11.769  0.9272 -0.3527 -2.1987
  348MPD2    H2 5273   1.760   0.817  12.070  0.8366  0.6658  0.2126
  348MPD2    H3 5274   1.560   0.845  11.922 -0.8219  1.0117  1.6855
  348MPD2     N 5275   1.721   1.228  11.747  0.3494  0.1332 -0.3115
  348MPD2    H5 5276   1.796   1.296  11.757 -0.1523  0.5218  0.8761
  348MPD2    N1 5277   1.955   1.020  12.108  0.2682 -0.4612  0.3266
  348MPD2    H7 5278   2.007   1.105  12.123 -1.5267  0.7429 -0.2720
  349TMC3    C1 5279   2.100   0.960  12.279  0.0082 -0.4661  0.6949
  349TMC3    C2 5280   2.212   0.882  12.274 -0.2549 -0.6751 -0.5078
  349TMC3    C3 5281   2.339   0.938  12.282 -0.9184 -0.0820 -0.5538
  349TMC3    C4 5282   2.125   1.095  12.283  0.1757 -0.1490  0.3938
  349TMC3    C5 5283   2.245   1.149  12.270 -0.0689 -0.4513  0.1108
  349TMC3    C6 5284   2.360   1.072  12.282  0.5201  0.3572  0.6356
  349TMC3     C 5285   1.987   0.925  12.197  0.4267  1.1656 -0.2965
  349TMC3     O 5286   1.952   0.807  12.203 -0.1238  0.2297  0.1528
  349TMC3     H 5287   2.200   0.775  12.271 -3.0263 -0.3715 -1.0143
  349TMC3    H1 5288   2.041   1.161  12.299  0.3645  1.1342 -3.8524
  349TMC3    H2 5289   2.461   1.110  12.281  0.3212  0.8367 -1.3500
  349TMC3    C7 5290   2.244   1.235  12.147  0.8223  0.1659  0.7594
  349TMC3    C8 5291   2.455   0.847  12.304  0.0392  0.3602 -0.5502
  349TMC3    O1 5292   2.144   1.219  12.082  0.0784  0.0272 -0.1348
  349TMC3    O2 5293   2.549   0.893  12.369 -0.7152 -0.1884 -0.3257
  350MPD2     C 5294   0.465   4.238  10.372  0.3965  0.5102  0.0965
  350MPD2    C1 5295   0.561   4.151  10.339  0.0146 -0.3713  0.9386
  350MPD2    C2 5296   0.688   4.189  10.326 -0.1517  0.4119  0.2759
  350MPD2    C3 5297   0.723   4.324  10.357 -0.1470  0.2171  1.0623
  350MPD2    C4 5298   0.628   4.417  10.388 -0.1855 -0.0537 -0.3669
  350MPD2    C5 5299   0.497   4.370  10.402  0.2802  0.2406 -0.5125
  350MPD2     H 5300   0.763   4.113  10.308 -1.0136 -0.3525 -0.0553
  350MPD2    H1 5301   0.644   4.524  10.399  1.2816 -0.1615 -1.4598
  350MPD2    H2 5302   0.361   4.207  10.381  0.6905 -1.0672 -1.8952
  350MPD2    H3 5303   0.412   4.430  10.435 -1.6079 -3.3750  1.2401
  350MPD2     N 5304   0.868   4.348  10.359  0.1401 -0.2847  0.3076
  350MPD2    H5 5305   0.926   4.268  10.338  1.4435  0.9019 -0.6656
  350MPD2    N1 5306   0.549   4.006  10.321  0.0715  0.4054 -0.5649
  350MPD2    H7 5307   0.634   3.952  10.305  0.5055  1.0872 -0.5788
  351TMC3    C1 5308   0.459   3.778  10.320  0.3820  0.4004  0.4182
  351TMC3    C2 5309   0.553   3.724  10.236  0.8544 -0.1141  0.0067
  351TMC3    C3 5310   0.531   3.599  10.184 -0.1614 -0.4923 -0.8380
  351TMC3    C4 5311   0.355   3.705  10.366  0.3308 -0.0469  0.1686
  351TMC3    C5 5312   0.347   3.573  10.335 -0.1681 -1.2598  0.3180
  351TMC3    C6 5313   0.428   3.524  10.237 -0.4458  0.0433  0.2679
  351TMC3     C 5314   0.439   3.925  10.341 -0.5243  0.1879  0.1548
  351TMC3     O 5315   0.330   3.963  10.379 -0.2589  0.6059  0.3096
  351TMC3     H 5316   0.636   3.786  10.205  2.5450 -1.2547  2.3089
  351TMC3    H1 5317   0.284   3.756  10.430  1.5109  0.3547  1.1762
  351TMC3    H2 5318   0.403   3.430  10.188 -3.3679  0.5585  0.7285
  351TMC3    C7 5319   0.226   3.495  10.370  0.3248  0.1338  0.0739
  351TMC3    C8 5320   0.651   3.532  10.139  0.0520  0.3450  0.0580
  351TMC3    O1 5321   0.190   3.397  10.303  0.3562 -0.3533 -0.2943
  351TMC3    O2 5322   0.723   3.592  10.064 -0.3356 -0.1089 -0.1575
  352MPD2     C 5323   0.177   1.514   1.194  0.2453 -0.0175  0.3354
  352MPD2    C1 5324   0.058   1.458   1.232 -0.3759  0.2127  0.1408
  352MPD2    C2 5325   0.055   1.317   1.246  0.2287  0.0996 -0.0611
  352MPD2    C3 5326   0.161   1.240   1.202 -0.1661 -0.2764 -0.0903
  352MPD2    C4 5327   0.272   1.296   1.154  0.5522 -0.7081  0.1979
  352MPD2    C5 5328   0.281   1.435   1.147  0.2407  0.2328 -0.2129
  352MPD2     H 5329   4.702   1.281   1.288  0.3304  1.5996  1.4412
  352MPD2    H1 5330   0.359   1.236   1.128  0.8499 -0.2611  0.1638
  352MPD2    H2 5331   0.183   1.621   1.178  1.5430  0.2459  2.6895
  352MPD2    H3 5332   0.376   1.480   1.120  0.3565 -0.7668 -1.4401
  352MPD2     N 5333   0.172   1.101   1.205 -0.6852 -0.0822 -0.1327
  352MPD2    H5 5334   0.253   1.055   1.164 -0.4986  1.9619 -2.0341
  352MPD2    N1 5335   4.689   1.543   1.255  0.1372  0.6595  0.1839
  352MPD2    H7 5336   4.705   1.637   1.220  0.4539  0.4871 -0.1365
  353TMC3    C1 5337   0.095   0.883   1.230 -0.2859 -0.2016 -0.4701
  353TMC3    C2 5338   0.210   0.817   1.255  0.3812 -0.1139  0.6941
  353TMC3    C3 5339   0.221   0.686   1.214  0.8809 -0.1827 -0.4865
  353TMC3    C4 5340   4.735   0.823   1.170 -0.4258 -0.2227 -0.2251
  353TMC3    C5 5341   0.007   0.698   1.124  0.2916  0.2966 -0.0363
  353TMC3    C6 5342   0.115   0.625   1.149 -0.0726 -0.3066  0.7706
  353TMC3     C 5343   0.072   1.022   1.257  0.0211 -1.0569 -0.0573
  353TMC3     O 5344   4.695   1.048   1.270 -0.1249 -0.1342  0.1185
  353TMC3     H 5345   0.294   0.868   1.302  1.1128 -0.6236 -0.0601
  353TMC3    H1 5346   4.649   0.879   1.136  1.6542  3.3669  0.3701
  353TMC3    H2 5347   0.109   0.522   1.115 -1.7227 -0.6310  2.0548
  353TMC3    C7 5348   4.630   0.625   1.078 -0.3069  0.5560  0.2248
  353TMC3    C8 5349   0.353   0.626   1.217 -0.5148 -0.3597 -0.0132
  353TMC3    O1 5350   4.643   0.543   0.984  0.1195  0.1293  0.4771
  353TMC3    O2 5351   0.441   0.700   1.257 -0.9295  0.2734  0.2889
  354TMC3    C1 5352   1.763   2.494  13.363 -0.4286  0.4566 -0.7392
  354TMC3    C2 5353   1.811   2.621  13.362 -0.3851 -1.0426 -0.3631
  354TMC3    C3 5354   1.873   2.664  13.246 -0.0958  0.2611  0.4157
  354TMC3    C4 5355   1.757   2.417  13.252  0.0079 -0.3190  0.0519
  354TMC3    C5 5356   1.820   2.460  13.141  0.4473 -0.2151 -0.0708
  354TMC3    C6 5357   1.874   2.588  13.137  0.0899 -0.1979  0.1158
  354TMC3     C 5358   1.704   2.447  13.488  0.1947 -0.0529  0.0329
  354TMC3     O 5359   1.617   2.361  13.475 -0.4395 -0.2284 -0.1839
  354TMC3     H 5360   1.798   2.683  13.450 -2.6723 -4.6600  1.8948
  354TMC3    H1 5361   1.725   2.314  13.253 -0.5750 -0.1214  2.3442
  354TMC3    H2 5362   1.932   2.615  13.050 -1.3916 -0.1491 -0.8625
  354TMC3    C7 5363   1.845   2.361  13.029  0.3151 -0.4687  0.4597
  354TMC3    C8 5364   1.897   2.810  13.243  0.1198  0.4354 -0.2216
  354TMC3    O1 5365   1.868   2.246  13.068 -0.0845 -0.2355  0.7055
  354TMC3    O2 5366   1.914   2.867  13.353  0.0873 -0.0531 -0.4580
  355MPD2     C 5367   1.210   3.721  11.986  0.4549 -0.1456  0.1793
  355MPD2    C1 5368   1.280   3.702  11.867 -0.2689  0.2776 -0.3278
  355MPD2    C2 5369   1.404   3.639  11.876  0.0523  0.4814 -0.4100
  355MPD2    C3 5370   1.458   3.604  12.001  0.0377  0.3897  0.1741
  355MPD2    C4 5371   1.386   3.632  12.113 -0.0285  0.4919 -0.0290
  355MPD2    C5 5372   1.260   3.683  12.099  0.7178  0.1007  0.5794
  355MPD2     H 5373   1.453   3.637  11.779 -0.7374 -0.0809 -0.8001
  355MPD2    H1 5374   1.431   3.606  12.208 -0.0423 -0.9650 -0.4222
  355MPD2    H2 5375   1.113   3.770  11.992  0.9781  0.9174 -0.0254
  355MPD2    H3 5376   1.196   3.681  12.186 -1.6611 -0.8475 -1.2049
  355MPD2     N 5377   1.591   3.541  12.009  0.0299  0.4725 -0.0366
  355MPD2    H5 5378   1.629   3.529  12.102 -1.9979 -3.6684  0.2514
  355MPD2    N1 5379   1.223   3.763  11.749  0.0451 -0.0907  0.0435
  355MPD2    H7 5380   1.153   3.835  11.757 -0.4330 -0.6278  0.6250
  356TMC3    C1 5381   1.804   3.504  11.915  0.4649 -0.3354 -0.0335
  356TMC3    C2 5382   1.867   3.537  11.792  0.1367 -0.4726  0.2872
  356TMC3    C3 5383   1.977   3.612  11.790 -0.1270  0.5854  0.0867
  356TMC3    C4 5384   1.862   3.537  12.034  0.2846  0.1171  0.8199
  356TMC3    C5 5385   1.978   3.610  12.027 -0.3470 -0.3240 -0.2458
  356TMC3    C6 5386   2.036   3.645  11.911  0.3059  0.4301 -0.0832
  356TMC3     C 5387   1.663   3.500  11.899 -0.4462 -0.1258  0.1193
  356TMC3     O 5388   1.627   3.482  11.783 -0.3337 -0.2786 -0.0944
  356TMC3     H 5389   1.828   3.500  11.698  1.7770  2.2241 -1.4777
  356TMC3    H1 5390   1.823   3.505  12.130 -1.0799  0.6009  0.4341
  356TMC3    H2 5391   2.134   3.690  11.922  1.6248 -2.4178  0.0045
  356TMC3    C7 5392   2.034   3.643  12.163 -1.0268  0.4840  0.5021
  356TMC3    C8 5393   2.019   3.670  11.664 -0.0960  0.2262 -0.1673
  356TMC3    O1 5394   2.003   3.573  12.257  0.1320 -0.4074  0.5282
  356TMC3    O2 5395   1.996   3.596  11.570 -0.0340  0.2213 -0.2155
  357MPD2     C 5396   1.422   3.138   0.710 -0.1489 -0.2861 -0.6945
  357MPD2    C1 5397   1.428   3.003   0.722  0.2583 -0.7419 -0.3346
  357MPD2    C2 5398   1.309   2.933   0.742  0.3050 -0.0409  0.3487
  357MPD2    C3 5399   1.189   2.997   0.754  0.0581  0.1477 -0.3095
  357MPD2    C4 5400   1.188   3.134   0.735 -0.6843 -1.2942 -0.5396
  357MPD2    C5 5401   1.304   3.202   0.708  0.5840 -0.8319  0.0829
  357MPD2     H 5402   1.312   2.824   0.747  1.7389 -0.0953 -1.6845
  357MPD2    H1 5403   1.094   3.188   0.731 -0.5407 -0.8258  2.4439
  357MPD2    H2 5404   1.509   3.198   0.685  0.0046  0.5207  1.7417
  357MPD2    H3 5405   1.302   3.308   0.686  1.3498 -0.2712  2.7823
  357MPD2     N 5406   1.069   2.930   0.784  0.9794  0.3917 -0.4671
  357MPD2    H5 5407   0.983   2.984   0.783  0.7594  0.0564  0.3956
  357MPD2    N1 5408   1.547   2.935   0.731  0.5284 -0.2063  0.7723
  357MPD2    H7 5409   1.534   2.835   0.742  0.5328 -0.6406 -3.1812
  358TMC3    C1 5410   1.779   2.876   0.709 -0.2712  0.2670  0.0158
  358TMC3    C2 5411   1.735   2.751   0.675 -0.7211 -0.3907  0.2422
  358TMC3    C3 5412   1.798   2.645   0.729  0.2035  0.1359 -0.3651
  358TMC3    C4 5413   1.891   2.888   0.788  0.1406  0.6917  0.2403
  358TMC3    C5 5414   1.953   2.773   0.839 -0.1531  0.1735 -0.7025
  358TMC3    C6 5415   1.899   2.645   0.813  0.2415 -0.1769  0.1919
  358TMC3     C 5416   1.679   2.982   0.708 -0.8740  0.4784  0.6171
  358TMC3     O 5417   1.726   3.091   0.683  0.0884  0.1092 -0.3871
  358TMC3     H 5418   1.655   2.750   0.601  1.3326 -2.4079 -1.9219
  358TMC3    H1 5419   1.928   2.982   0.827 -0.2209  0.9095  0.0664
  358TMC3    H2 5420   1.971   2.565   0.827  0.2548 -0.2723 -0.4468
  358TMC3    C7 5421   2.081   2.783   0.909 -0.1074 -0.3429  0.3915
  358TMC3    C8 5422   1.746   2.511   0.696  0.8782  0.2584 -0.3813
  358TMC3    O1 5423   2.140   2.890   0.903  0.1888  0.2628  0.3544
  358TMC3    O2 5424   1.666   2.506   0.604 -0.1951  0.1022 -0.3193
  359MPD2     C 5425   1.697   1.657  12.281 -0.0610  0.3514  0.3615
  359MPD2    C1 5426   1.608   1.759  12.235  0.2288  0.1900 -0.3624
  359MPD2    C2 5427   1.475   1.747  12.262  0.1741 -0.1809  0.9613
  359MPD2    C3 5428   1.428   1.638  12.340  0.2343  0.0155 -0.0451
  359MPD2    C4 5429   1.519   1.547  12.385 -0.2267 -0.0079  0.2243
  359MPD2    C5 5430   1.650   1.554  12.353 -1.0546 -0.1688 -0.3614
  359MPD2     H 5431   1.400   1.815  12.223 -0.9979 -1.1986  1.4517
  359MPD2    H1 5432   1.499   1.461  12.447  1.5864  1.7757  3.3087
  359MPD2    H2 5433   1.804   1.664  12.265 -0.4040 -0.5296 -2.3039
  359MPD2    H3 5434   1.711   1.473  12.393  0.4315  1.3356  0.4288
  359MPD2     N 5435   1.291   1.612  12.358 -0.0230 -0.3180  0.5420
  359MPD2    H5 5436   1.274   1.539  12.426 -0.9843 -0.3338  0.2949
  359MPD2    N1 5437   1.637   1.856  12.147 -0.0122  0.1230 -0.6327
  359MPD2    H7 5438   1.556   1.905  12.110 -2.0439 -1.5949  1.4593
  360TMC3    C1 5439   1.744   1.977  11.996  0.9991 -0.6621  0.6784
  360TMC3    C2 5440   1.833   2.077  11.976 -0.5151  0.0072  0.0231
  360TMC3    C3 5441   1.795   2.187  11.905  0.3922 -0.1568  0.2381
  360TMC3    C4 5442   1.630   1.966  11.922 -0.3633  0.4366  0.3390
  360TMC3    C5 5443   1.600   2.069  11.834  0.2217  0.3215  0.5652
  360TMC3    C6 5444   1.680   2.184  11.835 -0.0307  0.2937  0.6663
  360TMC3     C 5445   1.764   1.894  12.106 -0.2874 -0.4987 -0.5219
  360TMC3     O 5446   1.877   1.866  12.153  0.5649 -0.1606 -0.2370
  360TMC3     H 5447   1.918   2.081  12.044 -1.0533  2.0686  0.5838
  360TMC3    H1 5448   1.587   1.867  11.916  3.3161 -1.0974 -0.7904
  360TMC3    H2 5449   1.663   2.267  11.767  2.0962  2.2054  2.4608
  360TMC3    C7 5450   1.521   2.045  11.716  0.1626  0.1323  0.9327
  360TMC3    C8 5451   1.887   2.300  11.895  0.0362  0.5202  0.1715
  360TMC3    O1 5452   1.545   2.118  11.620 -0.5862 -0.1577  0.2368
  360TMC3    O2 5453   1.841   2.403  11.846  0.1435  0.1093 -0.3111
  361MPD2     C 5454   3.773   1.266  17.383 -0.1002  0.7259  0.1676
  361MPD2    C1 5455   3.755   1.184  17.275  0.2876 -0.7387  0.3005
  361MPD2    C2 5456   3.860   1.097  17.243  0.2477  0.2496 -0.1894
  361MPD2    C3 5457   3.986   1.113  17.298 -0.3467  0.0359 -0.3008
  361MPD2    C4 5458   4.006   1.196  17.408 -0.0344  0.3565 -0.1266
  361MPD2    C5 5459   3.893   1.267  17.452 -0.6787  0.6740  0.1497
  361MPD2     H 5460   3.835   1.013  17.179  2.9201 -0.3237 -0.4839
  361MPD2    H1 5461   4.101   1.212  17.458  0.7240 -1.4142 -1.0055
  361MPD2    H2 5462   3.701   1.342  17.413 -0.1053  0.5726  0.5448
  361MPD2    H3 5463   3.910   1.340  17.531 -3.8828 -2.0328  3.3562
  361MPD2     N 5464   4.093   1.022  17.263 -0.2694  0.7173  0.7691
  361MPD2    H5 5465   4.179   1.026  17.316  0.3753 -2.3748 -0.0584
  361MPD2    N1 5466   3.632   1.175  17.212 -0.6094 -0.2791 -0.3350
  361MPD2    H7 5467   3.638   1.115  17.130  2.4896 -0.0210 -0.3069
  362TMC3    C1 5468   3.414   1.178  17.177 -0.2672  0.2129  0.3617
  362TMC3    C2 5469   3.313   1.122  17.254  0.3010  1.0353 -0.1276
  362TMC3    C3 5470   3.232   1.041  17.182 -0.1365  0.3846  0.0955
  362TMC3    C4 5471   3.431   1.166  17.038 -1.3043  0.1783 -0.3392
  362TMC3    C5 5472   3.353   1.074  16.982 -0.3637 -0.2962 -0.4360
  362TMC3    C6 5473   3.247   1.010  17.049  0.4551 -0.5949  0.1209
  362TMC3     C 5474   3.520   1.229  17.259 -0.3669 -0.0567  0.4241
  362TMC3     O 5475   3.489   1.277  17.368 -0.0263  0.1194  0.2599
  362TMC3     H 5476   3.302   1.128  17.362 -1.4255 -0.1261 -0.2459
  362TMC3    H1 5477   3.510   1.209  16.978  0.5097  0.3526  2.1613
  362TMC3    H2 5478   3.176   0.945  16.998 -0.0000  1.6398 -2.0732
  362TMC3    C7 5479   3.331   1.106  16.840 -0.1234  0.9213  0.7583
  362TMC3    C8 5480   3.108   0.993  17.245 -0.1332  0.5482 -0.1173
  362TMC3    O1 5481   3.358   1.220  16.801 -0.3467 -0.1550 -0.5967
  362TMC3    O2 5482   3.062   0.887  17.212 -0.1863 -0.6820  0.2921
  363TMC3    C1 5483   1.491   4.010   9.677  0.0076 -0.3801 -0.2555
  363TMC3    C2 5484   1.445   3.885   9.663 -0.0165  0.1471  0.2748
  363TMC3    C3 5485   1.309   3.860   9.665 -0.1531  0.9336 -0.3520
  363TMC3    C4 5486   1.409   4.123   9.696  0.5086 -0.9166  0.6347
  363TMC3    C5 5487   1.277   4.095   9.696  0.3886 -0.2556 -1.1157
  363TMC3    C6 5488   1.224   3.966   9.689  0.4611  0.2068 -0.9228
  363TMC3     C 5489   1.637   4.032   9.688  0.0918  0.0349 -1.0692
  363TMC3     O 5490   1.677   4.146   9.688 -0.1135  0.0104  0.5014
  363TMC3     H 5491   1.512   3.800   9.656  0.8223  0.6562  2.1484
  363TMC3    H1 5492   1.452   4.219   9.720  2.5262 -1.7978  0.5565
  363TMC3    H2 5493   1.117   3.951   9.693  0.6716 -0.4800  2.2463
  363TMC3    C7 5494   1.176   4.193   9.698  0.4045  0.3303  0.4141
  363TMC3    C8 5495   1.266   3.723   9.696  0.0151  0.7638 -0.5957
  363TMC3    O1 5496   1.066   4.152   9.741 -0.3004  0.0577 -0.7005
  363TMC3    O2 5497   1.147   3.714   9.725  0.0598  0.0061  0.4806
  364MPD2     C 5498   4.598   2.886  10.780 -0.1999  0.1849  0.5170
  364MPD2    C1 5499   4.665   2.813  10.693  0.0026 -0.1537  0.8078
  364MPD2    C2 5500   4.617   2.689  10.664  0.2694  0.2287 -1.0204
  364MPD2    C3 5501   4.514   2.632  10.738  0.1960 -0.1810 -0.2292
  364MPD2    C4 5502   4.439   2.712  10.814  0.8988 -0.3379  0.4455
  364MPD2    C5 5503   4.481   2.836  10.842  0.4857 -0.3693  0.0758
  364MPD2     H 5504   4.672   2.622  10.598  3.0008  0.1687  1.3083
  364MPD2    H1 5505   4.356   2.681  10.875  0.9274  0.6436  0.9914
  364MPD2    H2 5506   4.632   2.987  10.801 -1.0533  0.5748  0.0511
  364MPD2    H3 5507   4.416   2.897  10.903 -0.0632  0.0179 -0.8868
  364MPD2     N 5508   4.483   2.489  10.734  0.0628  0.2743  0.3042
  364MPD2    H5 5509   4.387   2.462  10.756  0.3278 -1.6457 -0.8733
  364MPD2    N1 5510   0.047   2.873  10.634  0.1929 -0.6231 -0.1918
  364MPD2    H7 5511   0.065   2.967  10.667  0.3319 -1.6135  2.6038
  365TMC3    C1 5512   0.276   2.876  10.565 -0.2562 -0.0374 -0.4635
  365TMC3    C2 5513   0.387   2.815  10.508 -0.0404  0.2666  0.3328
  365TMC3    C3 5514   0.492   2.891  10.466 -0.3668 -0.5869 -0.3593
  365TMC3    C4 5515   0.271   3.014  10.583  0.2638 -0.2681  1.2232
  365TMC3    C5 5516   0.380   3.086  10.536 -0.0040  0.2221 -0.3488
  365TMC3    C6 5517   0.486   3.025  10.474  0.2290  0.1441 -0.3201
  365TMC3     C 5518   0.154   2.799  10.578  0.1510 -0.0628  0.2095
  365TMC3     O 5519   0.148   2.687  10.524  0.1148  0.0576  0.1614
  365TMC3     H 5520   0.403   2.710  10.488  0.4881 -0.1907  3.1012
  365TMC3    H1 5521   0.198   3.060  10.649 -0.6292 -1.1369  0.8570
  365TMC3    H2 5522   0.566   3.082  10.428  1.9598 -1.5558  0.5401
  365TMC3    C7 5523   0.386   3.231  10.538 -0.0618  0.7727 -0.0907
  365TMC3    C8 5524   0.589   2.836  10.379 -0.2200  0.2302 -0.6105
  365TMC3    O1 5525   0.472   3.285  10.468  0.0282  0.7119  0.3075
  365TMC3    O2 5526   0.694   2.898  10.387  0.0250 -0.4750  0.2446
  366MPD2     C 5527   4.368   3.747  14.889  0.5662  0.9113  0.0328
  366MPD2    C1 5528   4.403   3.824  15.001  0.2051  0.3997 -0.6355
  366MPD2    C2 5529   4.536   3.843  15.042 -0.2092 -0.2539 -0.2214
  366MPD2    C3 5530   4.638   3.789  14.965 -0.2856 -0.2638 -0.4338
  366MPD2    C4 5531   4.607   3.721  14.854  0.3155  0.2627  0.5006
  366MPD2    C5 5532   4.474   3.700  14.819 -0.0584 -1.2201 -0.0434
  366MPD2     H 5533   4.554   3.896  15.134  0.9816  0.1877 -0.7058
  366MPD2    H1 5534   4.670   3.674  14.780 -0.2735 -0.2503  0.3312
  366MPD2    H2 5535   4.268   3.716  14.861  0.8933 -0.3882  0.2970
  366MPD2    H3 5536   4.444   3.633  14.739  1.4888 -0.7043 -1.0525
  366MPD2     N 5537   0.033   3.799  15.001  0.0263 -0.2878  0.1102
  366MPD2    H5 5538   0.085   3.727  14.950  1.0353 -0.2089  1.0504
  366MPD2    N1 5539   4.305   3.887  15.082 -0.2785  0.2304 -0.7904
  366MPD2    H7 5540   4.350   3.933  15.160 -0.9593  0.1328 -0.3462
  367TMC3    C1 5541   4.110   3.995  15.144  0.9960 -0.2752 -0.0999
  367TMC3    C2 5542   4.198   4.074  15.216  0.7230 -0.0104 -0.7426
  367TMC3    C3 5543   4.173   4.206  15.224 -1.1303  0.5789  0.4006
  367TMC3    C4 5544   3.993   4.046  15.097 -0.7065 -0.1126  0.4727
  367TMC3    C5 5545   3.963   4.177  15.127 -0.2297  0.2395  0.4936
  367TMC3    C6 5546   4.052   4.266  15.186  0.4117  0.2896  0.2807
  367TMC3     C 5547   4.168   3.898  15.055 -0.1735  0.3200  0.3280
  367TMC3     O 5548   4.105   3.854  14.955  0.5546  0.4470 -0.1171
  367TMC3     H 5549   4.294   4.042  15.253  0.4511 -0.7196 -0.6670
  367TMC3    H1 5550   3.920   3.984  15.046 -0.7344 -0.6071  1.1096
  367TMC3    H2 5551   4.021   4.369  15.202  0.4880  0.3733 -0.1237
  367TMC3    C7 5552   3.831   4.227  15.083 -0.2030  0.1209 -0.7356
  367TMC3    C8 5553   4.272   4.286  15.301 -0.8688  0.4647  0.1398
  367TMC3    O1 5554   3.802   4.345  15.103  0.2814 -0.1122  0.2545
  367TMC3    O2 5555   4.369   4.222  15.342  0.2357 -0.3161  0.0576
  368MPD2     C 5556   0.373   1.893  13.612  0.0693  0.3619  0.5763
  368MPD2    C1 5557   0.425   1.923  13.489 -0.1149  0.6278 -0.1615
  368MPD2    C2 5558   0.565   1.928  13.482 -0.1183 -0.1194 -0.1315
  368MPD2    C3 5559   0.648   1.901  13.594 -0.7556  1.0716 -0.3505
  368MPD2    C4 5560   0.588   1.873  13.707 -0.0313 -0.1747  0.0376
  368MPD2    C5 5561   0.454   1.866  13.724 -0.4627  0.0832 -0.4165
  368MPD2     H 5562   0.603   1.943  13.382  2.4593  2.3010  1.1697
  368MPD2    H1 5563   0.648   1.848  13.793  1.1425  0.5251 -0.5798
  368MPD2    H2 5564   0.265   1.898  13.623 -0.0934 -2.0569  0.1367
  368MPD2    H3 5565   0.405   1.840  13.817  1.6802 -0.1648  0.6627
  368MPD2     N 5566   0.783   1.902  13.584 -0.4815 -0.0294 -0.0843
  368MPD2    H5 5567   0.845   1.893  13.664  1.1324  1.0660 -1.2067
  368MPD2    N1 5568   0.336   1.947  13.383 -0.0802 -0.2589  0.4695
  368MPD2    H7 5569   0.238   1.921  13.394 -0.7104  1.7124 -0.5809
  369TMC3    C1 5570   0.290   1.972  13.154 -0.5423 -0.6804  0.2268
  369TMC3    C2 5571   0.316   2.034  13.036  0.3899 -0.1137 -0.9836
  369TMC3    C3 5572   0.305   1.955  12.921 -0.0328 -0.9984 -0.6583
  369TMC3    C4 5573   0.241   1.846  13.157  0.0282 -0.5343  0.0981
  369TMC3    C5 5574   0.222   1.774  13.036 -0.0440  0.2836  0.3776
  369TMC3    C6 5575   0.259   1.826  12.916  0.4290 -0.2096 -0.1725
  369TMC3     C 5576   0.374   2.014  13.268 -0.3697  0.2359 -0.1908
  369TMC3     O 5577   0.474   2.074  13.245 -0.4198  0.4568  0.7064
  369TMC3     H 5578   0.362   2.132  13.031  2.1940 -0.9278 -0.6112
  369TMC3    H1 5579   0.194   1.807  13.247  0.5215  1.8765  1.3910
  369TMC3    H2 5580   0.240   1.764  12.830 -2.1286  1.1656 -0.5842
  369TMC3    C7 5581   0.160   1.639  13.052 -0.1378  0.1509 -0.0596
  369TMC3    C8 5582   0.320   2.031  12.800 -0.4126 -0.0723 -0.2383
  369TMC3    O1 5583   0.108   1.616  13.158  0.1022  0.0532 -0.4224
  369TMC3    O2 5584   0.280   2.149  12.803  0.3295  0.1177  0.1260
  370TMC3    C1 5585   0.235   1.949  16.157  0.0353 -0.8811  0.3816
  370TMC3    C2 5586   0.166   1.888  16.259  0.4330 -0.1385  0.1699
  370TMC3    C3 5587   0.127   1.754  16.241  0.1742  0.0024  0.4598
  370TMC3    C4 5588   0.268   1.883  16.040  0.1692  0.4643  0.1307
  370TMC3    C5 5589   0.229   1.757  16.024  0.4856 -0.4429 -0.5732
  370TMC3    C6 5590   0.164   1.689  16.121 -0.1562 -0.6315 -0.0587
  370TMC3     C 5591   0.314   2.063  16.199 -0.1548  0.6975  0.3267
  370TMC3     O 5592   0.351   2.072  16.317  0.6268  0.4040  0.5779
  370TMC3     H 5593   0.149   1.946  16.349  2.2509 -0.3243  0.6268
  370TMC3    H1 5594   0.332   1.934  15.970 -2.5124  2.8396 -0.5941
  370TMC3    H2 5595   0.145   1.583  16.109 -0.4389 -0.5438 -0.4057
  370TMC3    C7 5596   0.294   1.684  15.914 -0.1852  0.5488 -0.7187
  370TMC3    C8 5597   0.083   1.680  16.355 -0.0304  0.5126 -0.2641
  370TMC3    O1 5598   0.337   1.746  15.821 -0.1618 -0.0799  0.3687
  370TMC3    O2 5599   0.077   1.559  16.341  0.6646 -0.1628  0.2080
  371TMC3    C1 5600   1.335   0.073  15.491  0.6681  0.1529  0.5160
  371TMC3    C2 5601   1.200   0.041  15.510  0.5775  0.1524 -0.2924
  371TMC3    C3 5602   1.116   0.149  15.502  0.6885 -0.7651 -0.7002
  371TMC3    C4 5603   1.380   0.202  15.473 -0.0460 -0.2841  0.4108
  371TMC3    C5 5604   1.292   0.305  15.472  0.4458 -0.2410 -0.2700
  371TMC3    C6 5605   1.156   0.276  15.486 -0.0863  0.0883  0.3719
  371TMC3     C 5606   1.436   4.712  15.512  0.5451 -0.5096  0.3554
  371TMC3     O 5607   1.552   4.737  15.489  0.5130  1.1259  0.0770
  371TMC3     H 5608   1.159   4.683  15.531  1.4312 -0.1762 -0.1582
  371TMC3    H1 5609   1.484   0.218  15.447  0.2572 -2.0718  0.5463
  371TMC3    H2 5610   1.085   0.358  15.481 -2.3353 -1.8411  0.2200
  371TMC3    C7 5611   1.333   0.445  15.427  0.9169  0.5824  0.0319
  371TMC3    C8 5612   0.976   0.138  15.540 -0.2679 -0.4495  0.0908
  371TMC3    O1 5613   1.237   0.521  15.410 -0.2136  0.2875  0.1664
  371TMC3    O2 5614   0.926   0.031  15.511  0.0676  0.4915  0.9572
  372MPD2     C 5615   1.515   1.733  13.709 -0.7519 -0.0733 -0.2450
  372MPD2    C1 5616   1.458   1.826  13.793  0.5122 -0.3086 -0.7937
  372MPD2    C2 5617   1.333   1.812  13.852  0.1911 -0.0574 -0.0432
  372MPD2    C3 5618   1.249   1.723  13.788  0.1080  0.0584 -0.6714
  372MPD2    C4 5619   1.300   1.636  13.692  0.1049  0.3749 -0.5401
  372MPD2    C5 5620   1.429   1.648  13.653  0.7458  0.6651  0.0135
  372MPD2     H 5621   1.287   1.871  13.930 -1.3692  1.4484 -2.1196
  372MPD2    H1 5622   1.239   1.570  13.632 -0.3200  1.1845 -1.0023
  372MPD2    H2 5623   1.613   1.740  13.663 -0.5025  2.5237  0.6570
  372MPD2    H3 5624   1.482   1.584  13.583 -0.2219  0.5134 -0.5795
  372MPD2     N 5625   1.114   1.716  13.830  0.2348  0.4481 -0.3646
  372MPD2    H5 5626   1.090   1.786  13.899 -1.7359  0.3117 -0.9263
  372MPD2    N1 5627   1.541   1.928  13.837 -0.5029  0.0943 -0.5269
  372MPD2    H7 5628   1.525   1.969  13.929 -0.9474 -2.6421  0.6260
  373TMC3    C1 5629   0.892   1.659  13.832  0.1032  0.2724  0.6996
  373TMC3    C2 5630   0.881   1.703  13.963  0.2908 -0.0132  0.5436
  373TMC3    C3 5631   0.777   1.658  14.041 -0.3066 -0.1563 -0.0631
  373TMC3    C4 5632   0.799   1.587  13.763  0.1813 -0.4849  0.5413
  373TMC3    C5 5633   0.697   1.548  13.845  0.0082 -0.5285  0.4068
  373TMC3    C6 5634   0.694   1.579  13.976 -0.1504 -0.5093  0.0267
  373TMC3     C 5635   1.023   1.626  13.784  0.0589 -0.3518  0.0469
  373TMC3     O 5636   1.026   1.536  13.699 -0.2447  0.5707  0.2209
  373TMC3     H 5637   0.967   1.743  14.015  0.7804  1.3182 -1.3302
  373TMC3    H1 5638   0.803   1.562  13.658 -0.4894 -0.3732  0.4887
  373TMC3    H2 5639   0.610   1.547  14.036 -0.4290  1.1261  0.4960
  373TMC3    C7 5640   0.700   1.398  13.836  0.1221 -0.2231  0.1373
  373TMC3    C8 5641   0.824   1.618  14.171  0.0035  0.2405 -0.4020
  373TMC3    O1 5642   0.708   1.346  13.944  0.2475 -0.2854  0.3202
  373TMC3    O2 5643   0.873   1.705  14.236  0.2985  0.1235  0.4933
  374TMC3    C1 5644   0.951   1.807   9.661  0.3710  0.4694 -0.1394
  374TMC3    C2 5645   1.040   1.894   9.709 -0.2139 -0.7121 -0.0511
  374TMC3    C3 5646   1.108   1.971   9.622 -0.1178  0.1148 -0.0411
  374TMC3    C4 5647   0.923   1.790   9.530  0.2263  0.2684 -0.1659
  374TMC3    C5 5648   0.994   1.873   9.446 -0.0935 -0.0139 -0.3044
  374TMC3    C6 5649   1.080   1.966   9.491  0.3309 -0.4519 -0.1726
  374TMC3     C 5650   0.879   1.737   9.767  0.3788  0.8482  1.1240
  374TMC3     O 5651   0.932   1.732   9.878 -0.0784 -0.0249 -0.0466
  374TMC3     H 5652   1.034   1.907   9.817 -0.0553 -0.1312 -0.1098
  374TMC3    H1 5653   0.864   1.706   9.495  1.3062 -1.4180  2.0752
  374TMC3    H2 5654   1.132   2.035   9.426 -0.5173  0.0873 -0.2860
  374TMC3    C7 5655   0.978   1.860   9.300  0.1789  0.6230 -0.3633
  374TMC3    C8 5656   1.224   2.050   9.660  0.4023 -0.3500 -1.5096
  374TMC3    O1 5657   1.059   1.914   9.224 -0.3712  0.5827  0.2745
  374TMC3    O2 5658   1.295   2.098   9.573 -0.1437 -0.3349  0.1668
  375MPD2     C 5659   1.635   2.328  17.266 -0.1213  0.1813  0.2384
  375MPD2    C1 5660   1.523   2.284  17.192  0.3548  0.1119  0.2372
  375MPD2    C2 5661   1.526   2.203  17.080  0.1278 -0.5914 -0.1462
  375MPD2    C3 5662   1.651   2.159  17.040 -0.6352 -0.0156 -0.2636
  375MPD2    C4 5663   1.766   2.192  17.114  0.2455 -0.0145 -0.7714
  375MPD2    C5 5664   1.755   2.285  17.219  0.4072 -0.5034  0.8876
  375MPD2     H 5665   1.433   2.174  17.033  1.1117 -3.0606 -0.5912
  375MPD2    H1 5666   1.864   2.151  17.094  1.0489  1.8014 -0.5254
  375MPD2    H2 5667   1.630   2.396  17.350 -3.3306  0.1249  0.0910
  375MPD2    H3 5668   1.841   2.314  17.278  1.6377 -2.7486  0.1758
  375MPD2     N 5669   1.663   2.085  16.917  0.1969  0.4051 -0.4960
  375MPD2    H5 5670   1.758   2.061  16.889  0.6655  3.5517 -1.6910
  375MPD2    N1 5671   1.389   2.314  17.241  0.4027  0.0564 -0.3420
  375MPD2    H7 5672   1.316   2.268  17.188  0.6717 -1.3305  0.4901
  376TMC3    C1 5673   1.598   1.976  16.723  0.1949 -0.2419  0.1951
  376TMC3    C2 5674   1.690   1.870  16.748  0.0351 -0.3282  0.2315
  376TMC3    C3 5675   1.721   1.777  16.650 -0.8248  0.0804 -0.0378
  376TMC3    C4 5676   1.536   1.975  16.602 -0.5584  0.3686 -0.2559
  376TMC3    C5 5677   1.570   1.877  16.502  0.0740  0.2710  0.5531
  376TMC3    C6 5678   1.667   1.783  16.525 -0.4722 -0.2601  0.2945
  376TMC3     C 5679   1.559   2.063  16.830  0.7207  0.0726  0.9320
  376TMC3     O 5680   1.461   2.130  16.807  0.0649 -0.7562 -0.4107
  376TMC3     H 5681   1.752   1.867  16.837 -2.2701  0.6229  1.8753
  376TMC3    H1 5682   1.459   2.044  16.569 -0.2192  0.2037 -1.3994
  376TMC3    H2 5683   1.697   1.702  16.459 -0.1069 -0.3572  0.5744
  376TMC3    C7 5684   1.524   1.896  16.371  0.5712  0.4085 -0.4297
  376TMC3    C8 5685   1.857   1.723  16.661  0.1910  0.2876  0.4769
  376TMC3    O1 5686   1.473   2.003  16.349 -0.2852  0.1590  0.2173
  376TMC3    O2 5687   1.891   1.614  16.614 -0.0392  0.0479 -0.2742
  377MPD2     C 5688   0.079   1.888  12.409 -0.1996 -0.5800  0.3129
  377MPD2    C1 5689   4.707   1.957  12.363 -0.1020  0.1429  0.4830
  377MPD2    C2 5690   4.589   1.958  12.430 -0.0971  0.5116 -0.3511
  377MPD2    C3 5691   4.568   1.894  12.549  0.5676 -0.3157 -0.8285
  377MPD2    C4 5692   4.679   1.832  12.600  0.7227  0.3722  0.4350
  377MPD2    C5 5693   0.059   1.827  12.534  0.1860 -0.3127  0.8644
  377MPD2     H 5694   4.504   2.013  12.391 -0.6632  0.1538  0.3899
  377MPD2    H1 5695   4.676   1.780  12.694 -1.1243  1.6490  1.0865
  377MPD2    H2 5696   0.172   1.879  12.355  0.0925  0.7241  0.6084
  377MPD2    H3 5697   0.143   1.783  12.586 -0.0870 -0.6221  1.0449
  377MPD2     N 5698   4.442   1.891  12.618 -0.3149 -0.4287 -0.7292
  377MPD2    H5 5699   4.452   1.853  12.711 -0.3110  0.6975 -0.2662
  377MPD2    N1 5700   4.725   2.027  12.241  0.2149  0.0589  0.2283
  377MPD2    H7 5701   0.069   2.012  12.185 -0.6624 -3.2911 -0.1640
  378TMC3    C1 5702   4.530   2.224  11.861  0.3688 -0.6555 -0.9871
  378TMC3    C2 5703   4.538   2.209  11.996 -1.0071  0.0112 -0.2003
  378TMC3    C3 5704   4.648   2.154  12.052  0.1585 -0.2861 -0.1386
  378TMC3    C4 5705   4.637   2.191  11.782 -0.3138 -0.2094  0.1580
  378TMC3    C5 5706   0.009   2.134  11.846 -0.5618 -0.2754  0.3672
  378TMC3    C6 5707   0.018   2.113  11.980  0.1124 -0.6066 -0.0576
  378TMC3     C 5708   4.397   2.251  11.809 -0.1942 -0.3029  0.0420
  378TMC3     O 5709   4.317   2.288  11.894  0.1799 -0.4294 -0.1819
  378TMC3     H 5710   4.444   2.221  12.048 -0.2029  3.4204  0.4669
  378TMC3    H1 5711   4.630   2.213  11.677 -1.7086 -0.4958  0.2025
  378TMC3    H2 5712   0.114   2.095  12.027  0.5262  1.6929 -0.0474
  378TMC3    C7 5713   0.116   2.074  11.766 -0.0087  0.2284  0.3542
  378TMC3    C8 5714   4.640   2.119  12.191 -0.2563 -0.1190 -0.0734
  378TMC3    O1 5715   0.221   2.063  11.828 -0.3573  0.0651  0.2067
  378TMC3    O2 5716   4.551   2.176  12.251  0.2537 -0.4837  0.0107
  379MPD2     C 5717   4.664   4.427  16.383 -0.2870 -1.1512  0.4697
  379MPD2    C1 5718   0.043   4.388  16.323 -0.1169 -0.4249 -0.4583
  379MPD2    C2 5719   0.123   4.303  16.392 -0.4834  0.1145 -0.1421
  379MPD2    C3 5720   0.095   4.267  16.523 -0.4985 -0.1165  0.7087
  379MPD2    C4 5721   4.728   4.320  16.587 -0.7270  0.1644  0.3573
  379MPD2    C5 5722   4.642   4.399  16.512  0.3346  0.1348 -0.1896
  379MPD2     H 5723   0.219   4.280  16.346  0.1586  0.6543  0.9206
  379MPD2    H1 5724   4.707   4.296  16.691 -0.1070  2.3920  0.9998
  379MPD2    H2 5725   4.602   4.499  16.331  0.9254 -1.0879 -0.9013
  379MPD2    H3 5726   4.553   4.444  16.555  1.4723  1.1424  1.1232
  379MPD2     N 5727   0.189   4.203  16.597 -0.1373  0.1700  0.1028
  379MPD2    H5 5728   0.172   4.169  16.691 -1.7216 -1.1201 -0.6457
  379MPD2    N1 5729   0.073   4.436  16.187  0.1200  0.1569  0.5864
  379MPD2    H7 5730   0.008   4.508  16.158  0.4122 -0.3313 -1.3011
  380TMC3    C1 5731   0.178   4.445  15.968 -0.7910 -0.0090 -0.3349
  380TMC3    C2 5732   0.276   4.384  15.885  0.9109 -0.5007  0.3319
  380TMC3    C3 5733   0.247   4.391  15.751 -0.4039 -0.1900  0.1936
  380TMC3    C4 5734   0.065   4.506  15.918  0.1767 -0.0150 -0.2134
  380TMC3    C5 5735   0.045   4.502  15.784  1.3580  0.0549 -0.5465
  380TMC3    C6 5736   0.135   4.447  15.699  1.0455 -0.5309 -0.1761
  380TMC3     C 5737   0.180   4.401  16.107  0.2095 -0.1441 -0.3720
  380TMC3     O 5738   0.260   4.313  16.122  0.2417  0.0892 -0.0188
  380TMC3     H 5739   0.369   4.346  15.926  0.9435 -0.2041  0.5357
  380TMC3    H1 5740   4.727   4.551  15.978 -0.0936  3.0646 -2.8771
  380TMC3    H2 5741   0.120   4.448  15.591 -1.4998  1.0661  0.1817
  380TMC3    C7 5742   4.662   4.562  15.727  0.2654  0.0659 -0.2260
  380TMC3    C8 5743   0.347   4.362  15.653 -0.0073  0.0087  0.8637
  380TMC3    O1 5744   4.620   4.653  15.798 -0.0636 -0.3359 -0.3929
  380TMC3    O2 5745   0.335   4.376  15.531  0.2964  0.0101 -0.7287
  381TMC3    C1 5746   0.029   0.858  16.145 -0.5837  0.0248  0.0482
  381TMC3    C2 5747   0.102   0.969  16.125 -0.1849 -0.5045  0.1075
  381TMC3    C3 5748   0.122   1.053  16.230 -0.3200  0.4449  0.5324
  381TMC3    C4 5749   4.711   0.839  16.267 -0.0482 -0.6176 -0.5689
  381TMC3    C5 5750   4.715   0.936  16.365  0.1458  0.0939 -0.1284
  381TMC3    C6 5751   0.050   1.047  16.346 -0.3441  0.8274 -0.1508
  381TMC3     C 5752   0.018   0.747  16.051  0.0000  0.1086  0.5442
  381TMC3     O 5753   4.725   0.635  16.094  0.3074 -0.4170 -0.0671
  381TMC3     H 5754   0.159   0.980  16.033 -0.6898  0.7974 -0.0502
  381TMC3    H1 5755   4.651   0.753  16.296  0.7738  0.2260  3.6387
  381TMC3    H2 5756   0.055   1.123  16.423 -0.5369  1.4951 -0.7985
  381TMC3    C7 5757   4.691   0.882  16.499 -0.4674  0.5255  1.3299
  381TMC3    C8 5758   0.235   1.136  16.209  0.2836  0.3962  0.4792
  381TMC3    O1 5759   4.723   0.764  16.517  0.1178 -0.1373 -0.1168
  381TMC3    O2 5760   0.321   1.094  16.140  0.2243 -0.2579 -0.4160
  382MPD2     C 5761   4.084   3.223  17.295  0.0922  0.3182 -0.3842
  382MPD2    C1 5762   4.107   3.196  17.425  0.9040 -0.1711  0.5364
  382MPD2    C2 5763   4.055   3.084  17.481 -0.5455  0.3848 -0.6105
  382MPD2    C3 5764   3.992   2.987  17.401 -0.3957 -0.3312  0.4965
  382MPD2    C4 5765   3.987   3.000  17.268  0.1247 -0.2236 -0.2991
  382MPD2    C5 5766   4.035   3.122  17.219  0.3648 -0.0255 -0.0269
  382MPD2     H 5767   4.076   3.077  17.587  1.3141  0.9565 -0.9568
  382MPD2    H1 5768   3.948   2.923  17.202 -1.5459 -0.0959  0.5293
  382MPD2    H2 5769   4.120   3.314  17.247 -3.0127  1.4619 -0.5029
  382MPD2    H3 5770   4.025   3.128  17.111  0.9860 -2.1700 -0.1973
  382MPD2     N 5771   3.940   2.869  17.467 -0.0790 -0.1501  0.0784
  382MPD2    H5 5772   3.918   2.790  17.406 -3.0071  0.4192  0.4159
  382MPD2    N1 5773   4.179   3.278  17.516  0.0296  0.1753  0.7962
  382MPD2    H7 5774   4.197   3.238  17.608  3.0326 -0.5788 -0.1177
  383TMC3    C1 5775   3.898   2.737  17.656 -0.0955  0.2292 -0.2460
  383TMC3    C2 5776   3.901   2.620  17.580 -0.6165 -0.2328 -0.1067
  383TMC3    C3 5777   3.855   2.509  17.647  0.2095  0.1490  0.2394
  383TMC3    C4 5778   3.889   2.733   0.039 -0.6336 -0.5909  0.2130
  383TMC3    C5 5779   3.871   2.612   0.100 -0.1053  0.4296  0.7408
  383TMC3    C6 5780   3.844   2.499   0.030  0.3990  0.0747 -0.3328
  383TMC3     C 5781   3.917   2.867  17.601  0.1150 -0.3703  0.2537
  383TMC3     O 5782   3.911   2.963  17.671  0.6659 -0.2452  0.0942
  383TMC3     H 5783   3.930   2.623  17.475  2.3396  3.2951  0.8170
  383TMC3    H1 5784   3.888   2.827   0.093  2.3494  0.7923 -2.1102
  383TMC3    H2 5785   3.819   2.399   0.065  1.5994 -0.4928 -1.0959
  383TMC3    C7 5786   3.816   2.615   0.232 -0.1678 -0.4954 -0.2781
  383TMC3    C8 5787   3.838   2.390  17.571  0.3093  0.7305 -0.0319
  383TMC3    O1 5788   3.740   2.522   0.250  0.0856  0.2858  0.2253
  383TMC3    O2 5789   3.857   2.281  17.631  0.1726  0.9108 -0.2296
  384MPD2     C 5790   0.087   4.500  11.703 -0.0322 -0.7393 -0.3475
  384MPD2    C1 5791   0.130   4.456  11.823 -0.1279  0.2664 -0.5255
  384MPD2    C2 5792   0.261   4.398  11.837  0.3761 -0.0659 -0.1574
  384MPD2    C3 5793   0.344   4.387  11.729  0.0810 -0.3663  0.2934
  384MPD2    C4 5794   0.294   4.434  11.607 -0.0296 -0.5019 -0.8082
  384MPD2    C5 5795   0.171   4.500  11.596 -0.7581 -0.2444 -0.2443
  384MPD2     H 5796   0.298   4.374  11.936 -2.7898 -2.2506  0.4675
  384MPD2    H1 5797   0.361   4.431  11.522  1.1374  1.8539  0.0472
  384MPD2    H2 5798   4.727   4.538  11.687  0.7512  1.7407  0.6097
  384MPD2    H3 5799   0.131   4.537  11.503  2.1730  2.1347 -0.5430
  384MPD2     N 5800   0.473   4.322  11.735  0.8266 -0.4187 -0.1761
  384MPD2    H5 5801   0.539   4.322  11.658 -0.4945 -3.3329 -1.2931
  384MPD2    N1 5802   0.063   4.465  11.945  0.1857 -0.0333 -0.1066
  384MPD2    H7 5803   0.115   4.439  12.028 -0.2238  0.0586  0.1791
  385TMC3    C1 5804   0.661   4.249  11.844  0.4789  0.5053  0.2155
  385TMC3    C2 5805   0.726   4.150  11.772 -0.4741 -0.2995  0.2527
  385TMC3    C3 5806   0.827   4.078  11.834 -0.4611 -0.0978  0.0987
  385TMC3    C4 5807   0.707   4.284  11.968 -0.1595 -0.7583  0.1578
  385TMC3    C5 5808   0.805   4.206  12.029  0.0260  0.3129  0.2188
  385TMC3    C6 5809   0.860   4.102  11.967  0.7808 -0.4090 -0.3886
  385TMC3     C 5810   0.520   4.269  11.848  0.3087 -0.3422  0.7270
  385TMC3     O 5811   0.461   4.239  11.954 -0.4404  0.8070  0.4054
  385TMC3     H 5812   0.682   4.103  11.685 -0.6519  1.1659 -0.4445
  385TMC3    H1 5813   0.652   4.364  12.017 -2.1692 -1.9014 -0.2332
  385TMC3    H2 5814   0.933   4.043  12.022 -0.2579 -0.9420  0.4164
  385TMC3    C7 5815   0.766   4.182  12.167  0.1626 -0.3968  0.8984
  385TMC3    C8 5816   0.885   3.960  11.771  0.4375 -0.6558 -0.4050
  385TMC3    O1 5817   0.845   4.130  12.242  0.1128  0.1833  0.4690
  385TMC3    O2 5818   0.994   3.920  11.819  0.2927 -0.1954 -0.5630
  386TMC3    C1 5819   0.396   2.107  11.281  0.1365  0.6209  0.0134
  386TMC3    C2 5820   0.344   2.103  11.157 -0.0353 -0.1779  0.3823
  386TMC3    C3 5821   0.239   2.182  11.121 -0.4114  0.2461 -0.0233
  386TMC3    C4 5822   0.349   2.188  11.378  1.0334  0.2073  0.3669
  386TMC3    C5 5823   0.241   2.264  11.340 -0.7742 -0.6383  0.5795
  386TMC3    C6 5824   0.182   2.265  11.219  0.5792  0.1373 -0.6831
  386TMC3     C 5825   0.533   2.055  11.290  0.8097  0.4905 -0.2589
  386TMC3     O 5826   0.587   2.062  11.181 -0.8464 -0.0327  0.2835
  386TMC3     H 5827   0.378   2.024  11.091 -0.5143 -2.0253  2.3686
  386TMC3    H1 5828   0.394   2.193  11.476  0.9289 -2.0921  0.5283
  386TMC3    H2 5829   0.113   2.344  11.189 -1.7525 -0.1025  4.1500
  386TMC3    C7 5830   0.182   2.345  11.449 -0.0837 -0.6631  0.0282
  386TMC3    C8 5831   0.180   2.173  10.994  0.2146 -0.1753 -0.6145
  386TMC3    O1 5832   0.256   2.389  11.537 -0.4391 -0.2126 -0.5875
  386TMC3    O2 5833   0.065   2.209  10.988 -0.2118 -0.1338 -0.4884
  387MPD2     C 5834   2.669   2.263  10.105  0.1919 -0.6336  0.4566
  387MPD2    C1 5835   2.791   2.218  10.153  0.5800  0.1966  0.2328
  387MPD2    C2 5836   2.819   2.082  10.168  0.0282  0.4918  0.7364
  387MPD2    C3 5837   2.725   1.994  10.124 -0.1237 -0.5270 -0.2084
  387MPD2    C4 5838   2.611   2.042  10.069 -0.0028 -0.0565  0.3745
  387MPD2    C5 5839   2.575   2.173  10.063  0.1348  0.4550 -0.4330
  387MPD2     H 5840   2.903   2.046  10.227  0.7452 -0.6976 -0.9901
  387MPD2    H1 5841   2.548   1.970  10.020 -0.6310  0.2823  0.6864
  387MPD2    H2 5842   2.642   2.368  10.107  0.9488 -0.4222 -0.2874
  387MPD2    H3 5843   2.473   2.190  10.030 -0.4515 -0.9178  0.6678
  387MPD2     N 5844   2.766   1.860  10.127  0.1612 -1.3558  0.1993
  387MPD2    H5 5845   2.852   1.833  10.173 -0.2844 -3.9799 -0.5055
  387MPD2    N1 5846   2.891   2.304  10.189  0.0877 -0.3909 -0.0144
  387MPD2    H7 5847   2.981   2.263  10.213 -0.0928 -0.2359  0.9235
  388TMC3    C1 5848   3.026   2.476  10.130 -0.7402 -0.6020  0.5833
  388TMC3    C2 5849   3.071   2.602  10.172 -0.2543 -0.3597 -0.2439
  388TMC3    C3 5850   3.203   2.631  10.146 -0.2541 -0.0488  0.9560
  388TMC3    C4 5851   3.104   2.382  10.078  0.1768 -0.5188 -0.6557
  388TMC3    C5 5852   3.238   2.414  10.062  0.2467 -0.1150  0.0872
  388TMC3    C6 5853   3.289   2.539  10.103 -0.1252  0.4669 -0.2633
  388TMC3     C 5854   2.892   2.439  10.167 -0.6470 -0.3649 -0.1190
  388TMC3     O 5855   2.805   2.522  10.143 -0.2478  0.5401 -1.0707
  388TMC3     H 5856   2.999   2.666  10.222 -0.0755 -1.1855  1.0900
  388TMC3    H1 5857   3.062   2.295  10.030 -0.4973 -0.5647  0.0123
  388TMC3    H2 5858   3.391   2.563  10.077 -0.6610  1.5545 -1.3487
  388TMC3    C7 5859   3.326   2.315  10.011 -0.5882  0.5567  0.5900
  388TMC3    C8 5860   3.247   2.773  10.139 -0.5678  0.0424 -0.6398
  388TMC3    O1 5861   3.439   2.341   9.968 -0.3318  0.7253  0.1036
  388TMC3    O2 5862   3.349   2.793  10.077 -0.2704 -0.7344  0.4709
  389MPD2     C 5863   2.374   0.072  10.428 -0.8802  0.2310 -0.5206
  389MPD2    C1 5864   2.244   0.023  10.459 -0.0821  0.3502  0.4405
  389MPD2    C2 5865   2.203   4.738  10.587 -0.1703 -0.7659 -0.7908
  389MPD2    C3 5866   2.290   0.003  10.692  0.1758  0.2286  0.4585
  389MPD2    C4 5867   2.421   0.048  10.670  0.0712  0.3006  0.1706
  389MPD2    C5 5868   2.458   0.078  10.539 -0.0722  0.6522 -0.3740
  389MPD2     H 5869   2.099   4.718  10.609  0.0268 -1.7151 -0.7249
  389MPD2    H1 5870   2.496   0.043  10.748  2.2760  0.2274 -1.9165
  389MPD2    H2 5871   2.410   0.102  10.330  0.9646  3.0817  1.0214
  389MPD2    H3 5872   2.559   0.117  10.529  0.3979 -0.1038  1.4116
  389MPD2     N 5873   2.256   4.706  10.826  0.5058  0.0239 -0.4954
  389MPD2    H5 5874   2.324   4.734  10.895 -0.0477  1.8553 -0.6982
  389MPD2    N1 5875   2.150   0.042  10.357  0.0550  0.2520 -0.6267
  389MPD2    H7 5876   2.184   0.094  10.277  1.1343 -0.3741 -0.5775
  390TMC3    C1 5877   2.133   4.621  11.003 -0.0899  0.9289  0.1315
  390TMC3    C2 5878   2.012   4.577  11.039  0.0747  0.5801  0.0115
  390TMC3    C3 5879   1.983   4.557  11.168  0.4911 -0.0664 -0.2543
  390TMC3    C4 5880   2.228   4.660  11.085 -0.2091 -0.4832 -0.4332
  390TMC3    C5 5881   2.201   4.645  11.219 -0.4107 -0.8489  0.2817
  390TMC3    C6 5882   2.080   4.593  11.259  0.8678  0.0610  0.3471
  390TMC3     C 5883   2.133   4.651  10.863 -0.0137 -0.5739 -0.0377
  390TMC3     O 5884   2.054   4.598  10.789  0.5846  0.6990  0.1511
  390TMC3     H 5885   1.934   4.556  10.967  0.6533  0.0187 -0.4464
  390TMC3    H1 5886   2.325   4.691  11.048 -0.6190  1.2195 -0.0711
  390TMC3    H2 5887   2.056   4.588  11.365  0.0168 -1.2556  0.1001
  390TMC3    C7 5888   2.288   4.714  11.312 -0.7142  0.2786 -0.1844
  390TMC3    C8 5889   1.869   4.478  11.216  0.0278 -0.6967 -0.4660
  390TMC3    O1 5890   2.372   0.043  11.259 -0.4222 -0.2900  0.6743
  390TMC3    O2 5891   1.838   4.373  11.162  0.1812 -0.1199 -0.2449
  391MPD2     C 5892   1.378   1.351  11.033 -0.1896 -0.6378 -0.7503
  391MPD2    C1 5893   1.458   1.456  11.080 -0.2553 -0.0168 -0.5933
  391MPD2    C2 5894   1.500   1.544  10.981  0.3044 -0.0714  0.0976
  391MPD2    C3 5895   1.454   1.541  10.848 -0.2998  0.1914  0.5765
  391MPD2    C4 5896   1.378   1.437  10.802 -0.2364 -0.4491  0.5671
  391MPD2    C5 5897   1.340   1.342  10.899 -0.4994  0.3866 -0.2383
  391MPD2     H 5898   1.563   1.630  11.003 -2.4723  2.1708 -0.6626
  391MPD2    H1 5899   1.342   1.420  10.702  0.3635  1.4250  0.0234
  391MPD2    H2 5900   1.344   1.271  11.099  2.6281  0.8352  2.4725
  391MPD2    H3 5901   1.283   1.260  10.858 -0.3834  1.0081 -1.6312
  391MPD2     N 5902   1.494   1.652  10.765  0.1226 -0.3648 -0.4679
  391MPD2    H5 5903   1.534   1.735  10.808 -0.7216 -0.8028  1.1333
  391MPD2    N1 5904   1.492   1.470  11.217 -0.1101 -0.2488 -0.2019
  391MPD2    H7 5905   1.441   1.402  11.274 -1.4082  0.4307 -0.5418
  392TMC3    C1 5906   1.539   1.778  10.564  0.1728  0.2391 -0.3881
  392TMC3    C2 5907   1.488   1.805  10.438 -0.2030 -0.0034 -0.2601
  392TMC3    C3 5908   1.516   1.931  10.389  0.6787  0.3775 -0.3985
  392TMC3    C4 5909   1.636   1.852  10.618  0.0327 -0.4427  0.2587
  392TMC3    C5 5910   1.683   1.964  10.552  0.2484  0.2879  0.5883
  392TMC3    C6 5911   1.619   2.008  10.440  0.6138  0.1768 -1.1352
  392TMC3     C 5912   1.479   1.661  10.627 -0.5100 -0.1773 -0.4678
  392TMC3     O 5913   1.414   1.587  10.552  0.0708 -0.1156  0.7268
  392TMC3     H 5914   1.414   1.740  10.393 -3.1039  0.6511  3.5004
  392TMC3    H1 5915   1.680   1.818  10.711 -0.4289  0.3573  0.7678
  392TMC3    H2 5916   1.647   2.103  10.394 -2.9761  1.9106  0.2929
  392TMC3    C7 5917   1.786   2.039  10.618 -0.7290 -0.1258 -0.1283
  392TMC3    C8 5918   1.442   1.982  10.270  0.1213 -0.3582  0.1630
  392TMC3    O1 5919   1.812   2.007  10.730 -0.4730 -0.0577 -0.3540
  392TMC3    O2 5920   1.339   1.927  10.239 -0.1249  0.5050 -0.1157
  393TMC3    C1 5921   0.542   4.248  10.809 -0.6836 -0.1662  1.0165
  393TMC3    C2 5922   0.463   4.183  10.897  0.1347 -0.3031 -0.1440
  393TMC3    C3 5923   0.495   4.057  10.922 -0.3052  0.1459  0.5425
  393TMC3    C4 5924   0.648   4.188  10.743 -0.0089  0.0884  0.2794
  393TMC3    C5 5925   0.671   4.057  10.760 -0.2501 -0.2020  0.8247
  393TMC3    C6 5926   0.590   3.990  10.854  0.8584  0.3811 -0.2401
  393TMC3     C 5927   0.500   4.373  10.760 -0.1327 -1.0846  0.5638
  393TMC3     O 5928   0.390   4.394  10.717  1.3816 -0.2557 -1.0248
  393TMC3     H 5929   0.386   4.243  10.942 -0.1654 -0.1165 -0.9006
  393TMC3    H1 5930   0.703   4.238  10.663 -0.2464  0.2282  0.2018
  393TMC3    H2 5931   0.586   3.881  10.855 -3.2489  0.5237 -1.2005
  393TMC3    C7 5932   0.738   3.979  10.653 -0.0072 -0.2612 -0.0301
  393TMC3    C8 5933   0.423   3.992  11.030 -0.8471 -0.4835 -0.1318
  393TMC3    O1 5934   0.685   3.875  10.618  0.2434 -0.2811 -0.3680
  393TMC3    O2 5935   0.479   3.891  11.068  0.1799 -0.5874 -0.0920
  394TMC3    C1 5936   1.936   0.081  10.259 -0.9477  0.1616 -0.2825
  394TMC3    C2 5937   1.804   0.038  10.237 -0.1720 -0.5737 -0.2987
  394TMC3    C3 5938   1.728   0.120  10.159 -0.2083  0.1508  0.1459
  394TMC3    C4 5939   1.988   0.193  10.200 -0.1614 -0.4155  0.3477
  394TMC3    C5 5940   1.917   0.254  10.102 -0.2233 -0.1496 -0.8954
  394TMC3    C6 5941   1.779   0.232  10.085  0.1655  0.7931  0.6184
  394TMC3     C 5942   2.015   0.009  10.358 -0.0366  0.3060  0.0364
  394TMC3     O 5943   1.957   4.688  10.444 -0.4890 -0.5294  0.2634
  394TMC3     H 5944   1.764   4.688  10.284  0.7307 -1.1181 -0.5663
  394TMC3    H1 5945   2.085   0.238  10.220 -0.8193  0.2584  1.9903
  394TMC3    H2 5946   1.721   0.300  10.024  0.6791  0.3271 -0.3928
  394TMC3    C7 5947   1.984   0.363  10.041 -0.0927 -0.0456  1.1737
  394TMC3    C8 5948   1.609   0.059  10.103 -0.3295 -0.0764  0.5139
  394TMC3    O1 5949   1.929   0.472  10.043  0.0434 -0.1162  0.6726
  394TMC3    O2 5950   1.511   0.125  10.081  0.0206 -0.2684  0.3991
  395TMC3    C1 5951   2.785   1.983  14.250  0.6716 -0.4789  0.2132
  395TMC3    C2 5952   2.657   2.006  14.201  0.0043 -0.6057  0.7396
  395TMC3    C3 5953   2.610   2.132  14.195  0.5868  0.5816 -0.0965
  395TMC3    C4 5954   2.858   2.088  14.289  0.4201  0.3872  0.3628
  395TMC3    C5 5955   2.813   2.211  14.263 -0.2182  0.6270 -0.5355
  395TMC3    C6 5956   2.693   2.236  14.200  0.4269 -0.8722  0.4246
  395TMC3     C 5957   2.793   1.867  14.338 -0.3053  0.7144 -0.7024
  395TMC3     O 5958   2.821   1.892  14.457 -0.3622  1.0176  0.3093
  395TMC3     H 5959   2.599   1.923  14.164  2.5415 -1.5711 -1.0977
  395TMC3    H1 5960   2.950   2.075  14.345  1.0743  1.8756 -0.3534
  395TMC3    H2 5961   2.658   2.338  14.190 -2.5813 -2.3569 -3.7819
  395TMC3    C7 5962   2.904   2.319  14.287  0.2695 -0.1596 -0.2355
  395TMC3    C8 5963   2.500   2.147  14.287  0.8620 -0.4648 -0.0680
  395TMC3    O1 5964   2.991   2.306  14.368  0.2984 -0.0856  0.7064
  395TMC3    O2 5965   2.494   2.253  14.345  0.2727 -0.7365  0.8385
  396MPD2     C 5966   2.061   2.741  16.993 -0.3431  0.1779  0.2072
  396MPD2    C1 5967   2.194   2.733  17.013  0.0803  0.7852 -0.6994
  396MPD2    C2 5968   2.275   2.822  16.956 -0.7307 -0.2724  1.0808
  396MPD2    C3 5969   2.220   2.916  16.873 -0.0788 -0.0816 -0.7140
  396MPD2    C4 5970   2.083   2.935  16.859  0.1955  0.0630 -0.4113
  396MPD2    C5 5971   2.009   2.848  16.924 -0.1564  0.9235  0.3689
  396MPD2     H 5972   2.382   2.810  16.962 -0.6098 -0.8787 -2.0326
  396MPD2    H1 5973   2.029   3.004  16.796 -0.6847 -0.1958  0.0647
  396MPD2    H2 5974   1.988   2.669  17.028  0.2495 -1.4060 -1.8838
  396MPD2    H3 5975   1.901   2.855  16.917 -0.0145  1.5872 -1.1285
  396MPD2     N 5976   2.320   2.998  16.814 -0.1727  0.7082  0.2544
  396MPD2    H5 5977   2.416   2.974  16.839  0.0111 -0.3005 -1.4248
  396MPD2    N1 5978   2.241   2.619  17.086  0.2761 -0.0566  0.6023
  396MPD2    H7 5979   2.182   2.541  17.112 -0.7032  0.4180 -0.2102
  397TMC3    C1 5980   2.407   2.484  17.188  1.2126  0.2055  0.0497
  397TMC3    C2 5981   2.511   2.447  17.116  0.4599  0.1832 -0.5013
  397TMC3    C3 5982   2.503   2.345  17.024 -0.1225  0.1379 -0.0759
  397TMC3    C4 5983   2.297   2.401  17.195  0.2594 -0.2826 -0.4096
  397TMC3    C5 5984   2.283   2.300  17.106 -0.4129 -0.5343  0.5144
  397TMC3    C6 5985   2.387   2.266  17.022  0.2622 -0.0212 -0.2472
  397TMC3     C 5986   2.366   2.611  17.142 -0.1528  0.6293  0.3800
  397TMC3     O 5987   2.454   2.696  17.139 -0.1420  1.2724 -0.3771
  397TMC3     H 5988   2.589   2.523  17.112  2.8246 -2.1819  0.5956
  397TMC3    H1 5989   2.215   2.442  17.253  2.6746  0.6963  2.2513
  397TMC3    H2 5990   2.382   2.197  16.938  1.2707  1.8276 -1.8565
  397TMC3    C7 5991   2.187   2.194  17.140  0.3105 -0.4693  0.1866
  397TMC3    C8 5992   2.542   2.402  16.898  0.2459  0.4719 -0.2374
  397TMC3    O1 5993   2.159   2.110  17.061  0.4969 -0.2405 -0.2303
  397TMC3    O2 5994   2.449   2.385  16.817  0.3427 -0.1250 -0.0223
  398MPD2     C 5995   0.450   4.406   0.295  0.0608  0.3255 -0.2847
  398MPD2    C1 5996   0.556   4.322   0.305 -0.0158  0.4144 -0.2897
  398MPD2    C2 5997   0.680   4.380   0.296  0.1839 -0.2248 -0.0740
  398MPD2    C3 5998   0.704   4.515   0.281  0.1520 -0.8111 -0.4763
  398MPD2    C4 5999   0.591   4.595   0.280  0.0377 -0.0010  0.1823
  398MPD2    C5 6000   0.471   4.539   0.293  0.3999  0.4014  0.1648
  398MPD2     H 6001   0.760   4.308   0.282  0.6450  0.3467 -0.3183
  398MPD2    H1 6002   0.604   4.701   0.265 -0.1603 -0.4637 -3.0932
  398MPD2    H2 6003   0.347   4.372   0.290 -0.5852  2.3654 -0.7793
  398MPD2    H3 6004   0.377   4.594   0.295 -0.1213 -0.5041  0.4680
  398MPD2     N 6005   0.837   4.555   0.266 -0.2584 -0.4238  0.2728
  398MPD2    H5 6006   0.911   4.486   0.262 -1.3624 -1.7000  1.7858
  398MPD2    N1 6007   0.550   4.177   0.321 -0.0173 -0.4273 -0.1365
  398MPD2    H7 6008   0.635   4.123   0.308  0.3131  0.3286 -1.1039
  399TMC3    C1 6009   0.448   3.967   0.347  0.4310  0.4377  0.3453
  399TMC3    C2 6010   0.566   3.911   0.383 -0.4037 -0.8086  0.2130
  399TMC3    C3 6011   0.574   3.778   0.364  0.4338 -0.5350  0.2164
  399TMC3    C4 6012   0.334   3.897   0.307 -0.8836  0.4858 -0.8115
  399TMC3    C5 6013   0.349   3.762   0.295 -0.1656  0.2407 -1.2214
  399TMC3    C6 6014   0.474   3.703   0.318 -0.4809  0.0143 -0.2056
  399TMC3     C 6015   0.434   4.108   0.340  0.1854 -0.4905 -0.6139
  399TMC3     O 6016   0.320   4.156   0.344 -0.0315 -0.4057 -0.0181
  399TMC3     H 6017   0.652   3.965   0.419  0.8381 -3.0718  0.6575
  399TMC3    H1 6018   0.242   3.950   0.282 -1.3700  1.3391  2.7400
  399TMC3    H2 6019   0.497   3.600   0.291 -0.7254 -0.0863 -0.0262
  399TMC3    C7 6020   0.257   3.672   0.222 -0.0811 -0.5137  1.0064
  399TMC3    C8 6021   0.703   3.723   0.403  0.1129  0.4567 -0.3756
  399TMC3    O1 6022   0.285   3.561   0.208 -0.0575  0.2835 -0.5692
  399TMC3    O2 6023   0.794   3.805   0.417  0.4233 -0.7021  0.7451
  400TMC3    C1 6024   3.911   2.284  16.917 -0.8377 -0.0682 -0.3250
  400TMC3    C2 6025   3.883   2.152  16.884  0.4151  0.5041  0.1320
  400TMC3    C3 6026   3.781   2.131  16.792 -0.4230  0.0113  0.2973
  400TMC3    C4 6027   3.828   2.386  16.872 -0.4175 -0.2256 -0.2270
  400TMC3    C5 6028   3.725   2.356  16.784  0.4740 -0.0257  0.5754
  400TMC3    C6 6029   3.703   2.235  16.734  0.2885 -1.5510 -0.1214
  400TMC3     C 6030   4.010   2.312  17.023 -0.1483  0.3314  0.2846
  400TMC3     O 6031   4.064   2.215  17.075 -0.6313 -0.3299  0.3453
  400TMC3     H 6032   3.946   2.074  16.926  0.9565  1.4963  1.1612
  400TMC3    H1 6033   3.851   2.487  16.904  0.4523 -0.9635  1.4596
  400TMC3    H2 6034   3.627   2.226  16.656 -1.4161 -0.4970  1.4079
  400TMC3    C7 6035   3.650   2.469  16.728  0.2023 -0.7677  0.2751
  400TMC3    C8 6036   3.739   1.995  16.794  0.2927 -0.2935 -1.0742
  400TMC3    O1 6037   3.600   2.471  16.617 -0.3578 -0.1087  0.0000
  400TMC3    O2 6038   3.809   1.912  16.847 -0.2686 -0.4090 -0.2200
  401MPD2     C 6039   1.610   1.263   0.376 -0.4631  0.0038  0.3463
  401MPD2    C1 6040   1.725   1.195   0.419  0.5594  0.5317 -0.5323
  401MPD2    C2 6041   1.717   1.058   0.421 -0.1396 -0.4760 -0.6423
  401MPD2    C3 6042   1.603   0.994   0.364  0.1568 -0.0380 -0.0641
  401MPD2    C4 6043   1.498   1.060   0.317  0.6633 -0.1601  0.3513
  401MPD2    C5 6044   1.502   1.195   0.318  0.4388 -0.8518 -0.3424
  401MPD2     H 6045   1.788   0.995   0.474 -1.8405 -2.1649 -0.3839
  401MPD2    H1 6046   1.408   1.017   0.275  1.0096 -0.4860 -0.0591
  401MPD2    H2 6047   1.594   1.370   0.374  0.4985  0.1200 -1.3024
  401MPD2    H3 6048   1.413   1.254   0.296 -0.2708 -2.6776 -2.3747
  401MPD2     N 6049   1.605   0.852   0.367 -0.0585 -0.4443 -0.3011
  401MPD2    H5 6050   1.688   0.808   0.405 -0.1415 -1.0141 -0.7889
  401MPD2    N1 6051   1.838   1.257   0.480 -1.0256 -0.3223  0.2550
  401MPD2    H7 6052   1.915   1.195   0.502 -1.1060 -0.9322 -1.1755
  402TMC3    C1 6053   1.536   0.625   0.332  0.2680  0.6596 -0.1293
  402TMC3    C2 6054   1.575   0.588   0.458  0.5490  0.4023 -0.8710
  402TMC3    C3 6055   1.630   0.465   0.478  0.0600 -0.5642  0.3468
  402TMC3    C4 6056   1.558   0.549   0.225  0.1047 -0.1699 -0.8939
  402TMC3    C5 6057   1.626   0.433   0.249 -0.5563 -0.0950  0.2331
  402TMC3    C6 6058   1.655   0.382   0.371 -0.6840 -0.4952 -0.1152
  402TMC3     C 6059   1.515   0.766   0.300  0.2080 -0.3480  0.2905
  402TMC3     O 6060   1.427   0.792   0.219 -0.7488 -0.0701 -0.2126
  402TMC3     H 6061   1.579   0.666   0.534 -0.6578 -1.4611  1.0861
  402TMC3    H1 6062   1.552   0.577   0.121  0.3377  0.8257 -0.6327
  402TMC3    H2 6063   1.701   0.284   0.376  2.0565  0.7338 -1.5439
  402TMC3    C7 6064   1.707   0.382   0.136  0.4960  0.0814  0.0153
  402TMC3    C8 6065   1.721   0.439   0.590  0.9468  0.5525  0.1086
  402TMC3    O1 6066   1.686   0.419   0.020 -0.4708 -0.2927  0.2434
  402TMC3    O2 6067   1.819   0.369   0.570 -0.4256 -0.6370 -0.4080
  403MPD2     C 6068   4.677   4.512  12.986  0.0985  0.0160 -0.4501
  403MPD2    C1 6069   4.732   4.451  13.095 -0.8297 -0.1062 -0.3500
  403MPD2    C2 6070   0.093   4.512  13.159 -0.2931 -0.6996  0.8635
  403MPD2    C3 6071   0.139   4.640  13.114  0.5607 -0.1533  0.2610
  403MPD2    C4 6072   0.074   4.703  13.013  0.4134 -0.3560 -0.2528
  403MPD2    C5 6073   4.708   4.640  12.951  0.5260 -0.3025  0.3767
  403MPD2     H 6074   0.133   4.455  13.242 -0.1551  1.3800  2.2383
  403MPD2    H1 6075   0.112   0.056  12.973 -0.5803 -0.6193 -1.7785
  403MPD2    H2 6076   4.616   4.449  12.922 -1.8595  1.6382 -0.1737
  403MPD2    H3 6077   4.677   4.681  12.856 -1.2707 -0.5193  0.8660
  403MPD2     N 6078   0.257   4.697  13.176 -0.1360  0.0642  0.1649
  403MPD2    H5 6079   0.320   4.646  13.237  0.0820 -0.4691 -0.5098
  403MPD2    N1 6080   4.693   4.319  13.116  0.3648 -0.1705 -0.6925
  403MPD2    H7 6081   4.621   4.281  13.056  0.4306  1.3482 -1.7213
  404TMC3    C1 6082   4.722   4.093  13.191  0.2289  0.1346  0.3393
  404TMC3    C2 6083   4.728   3.994  13.290  0.6480 -0.5807  0.0419
  404TMC3    C3 6084   4.707   3.860  13.257 -0.2800 -0.1972 -0.3778
  404TMC3    C4 6085   4.712   4.054  13.060 -0.3529 -0.4751 -0.2536
  404TMC3    C5 6086   4.699   3.922  13.031 -0.8834  0.1306 -0.0465
  404TMC3    C6 6087   4.688   3.829  13.128  0.4895 -0.0965  0.3152
  404TMC3     C 6088   0.007   4.237  13.212  0.3017 -0.3018  0.0107
  404TMC3     O 6089   0.088   4.258  13.304 -0.1058  0.7535  0.0030
  404TMC3     H 6090   4.739   4.023  13.394  2.3141 -0.3635 -0.1867
  404TMC3    H1 6091   4.715   4.125  12.978 -0.3981  0.4508  0.5349
  404TMC3    H2 6092   4.697   3.725  13.096 -3.5212  0.1266 -1.5169
  404TMC3    C7 6093   4.674   3.891  12.892 -0.2428  0.7346  0.4304
  404TMC3    C8 6094   0.040   3.759  13.345 -0.1316 -0.2289  1.0071
  404TMC3    O1 6095   4.580   3.820  12.860 -0.1329 -0.7567 -0.4281
  404TMC3    O2 6096   0.085   3.656  13.299  0.0108  0.3903  0.3173
  405MPD2     C 6097   0.405   0.089  14.547 -0.0670 -0.1392  0.2179
  405MPD2    C1 6098   0.410   0.148  14.422  0.3094 -0.4341  0.0064
  405MPD2    C2 6099   0.335   0.259  14.384 -0.4956 -0.2286  0.5083
  405MPD2    C3 6100   0.258   0.318  14.483  0.0037 -0.4125 -0.3432
  405MPD2    C4 6101   0.241   0.258  14.605  0.2810  0.3943 -0.3675
  405MPD2    C5 6102   0.318   0.144  14.631  0.0144  0.3350 -0.0582
  405MPD2     H 6103   0.338   0.294  14.282 -0.8079 -0.3694  0.4513
  405MPD2    H1 6104   0.172   0.279  14.685  1.8014  0.7064  0.8552
  405MPD2    H2 6105   0.456   4.736  14.569 -0.6419 -0.5417 -0.1379
  405MPD2    H3 6106   0.312   0.102  14.731  1.9299  3.4525  1.3779
  405MPD2     N 6107   0.190   0.430  14.442  0.2444 -0.0861  0.2922
  405MPD2    H5 6108   0.200   0.446  14.342 -3.1877  0.6652  0.0646
  405MPD2    N1 6109   0.492   0.104  14.322  0.3953  0.2182  0.3797
  405MPD2    H7 6110   0.503   0.170  14.245 -1.0486 -1.7924 -1.5578
  406TMC3    C1 6111   4.575   0.693  14.336 -0.0468  0.0110 -1.2314
  406TMC3    C2 6112   4.646   0.766  14.241  0.6065  0.6941  0.3280
  406TMC3    C3 6113   0.043   0.735  14.228  0.5299  0.3830  0.4142
  406TMC3    C4 6114   4.636   0.617  14.430 -0.1875 -0.5107 -0.2384
  406TMC3    C5 6115   0.035   0.603  14.421 -0.3942  0.8492 -0.4405
  406TMC3    C6 6116   0.108   0.653  14.317  0.3024 -0.1130  0.5185
  406TMC3     C 6117   4.428   0.680  14.328  0.0266  0.8397  0.0069
  406TMC3     O 6118   4.374   0.747  14.242  0.5893 -0.1244 -0.6151
  406TMC3     H 6119   4.589   0.812  14.162  1.0791  0.1840 -0.3080
  406TMC3    H1 6120   4.578   0.567  14.507  0.0927  0.1054  0.3815
  406TMC3    H2 6121   0.214   0.638  14.307 -0.4186 -4.4142 -0.5527
  406TMC3    C7 6122   0.100   0.505  14.511 -0.2316  0.0326  0.3857
  406TMC3    C8 6123   0.096   0.730  14.095  0.1824  0.1399 -0.6219
  406TMC3    O1 6124   0.043   0.486  14.617 -0.0654 -0.0209 -0.1523
  406TMC3    O2 6125   0.028   0.793  14.018 -0.3297 -0.3859 -0.1407
  407MPD2     C 6126   2.207   1.632   9.771  0.0632 -0.0260 -0.0961
  407MPD2    C1 6127   2.320   1.675   9.834  0.5813 -0.4253 -0.6788
  407MPD2    C2 6128   2.294   1.756   9.939 -0.3072  0.8185 -0.3843
  407MPD2    C3 6129   2.172   1.793   9.988 -0.0968  0.3821  0.2426
  407MPD2    C4 6130   2.064   1.750   9.922 -0.5703 -0.5919 -0.8491
  407MPD2    C5 6131   2.078   1.669   9.815 -0.0038  0.7487  0.4818
  407MPD2     H 6132   2.386   1.783   9.989  0.5230 -0.2163 -1.3157
  407MPD2    H1 6133   1.973   1.754   9.982  0.9054 -0.2164  1.3416
  407MPD2    H2 6134   2.199   1.570   9.682 -0.9022 -3.4145  2.3349
  407MPD2    H3 6135   1.991   1.624   9.769 -0.1622  0.1105  1.4152
  407MPD2     N 6136   2.157   1.857  10.118  0.0503  0.5157 -0.2789
  407MPD2    H5 6137   2.065   1.895  10.137  0.4846  1.8849 -0.9324
  407MPD2    N1 6138   2.453   1.649   9.785 -0.0050 -0.0308 -0.9000
  407MPD2    H7 6139   2.528   1.702   9.828 -1.0219  0.8043 -0.1842
  408TMC3    C1 6140   2.631   1.563   9.658 -0.0089 -0.6553 -0.2388
  408TMC3    C2 6141   2.688   1.449   9.612 -0.1193 -0.4924 -0.4238
  408TMC3    C3 6142   2.827   1.459   9.598 -0.5707 -0.0119 -0.1409
  408TMC3    C4 6143   2.695   1.682   9.688  0.4727 -0.3448  0.4854
  408TMC3    C5 6144   2.825   1.687   9.642 -0.7459  0.1636  0.5150
  408TMC3    C6 6145   2.891   1.576   9.611 -0.5959  0.3157 -0.7384
  408TMC3     C 6146   2.487   1.554   9.696  0.4757 -0.0640 -0.2268
  408TMC3     O 6147   2.417   1.478   9.634  0.3224 -0.1300 -0.1462
  408TMC3     H 6148   2.633   1.357   9.626  0.6105 -0.6613  1.3752
  408TMC3    H1 6149   2.648   1.776   9.713  2.1881  0.4827  0.6646
  408TMC3    H2 6150   2.995   1.580   9.580 -0.2656  3.4866  0.7673
  408TMC3    C7 6151   2.909   1.799   9.678 -0.5076 -0.1197  0.2599
  408TMC3    C8 6152   2.892   1.337   9.622  0.0553 -0.2881 -0.1136
  408TMC3    O1 6153   3.030   1.781   9.676 -0.1506 -0.5124  0.2299
  408TMC3    O2 6154   2.823   1.237   9.610  0.9574 -0.2270  0.4480
  409MPD2     C 6155   2.616   1.944  17.019  0.0237  0.4548 -0.0755
  409MPD2    C1 6156   2.723   1.966  17.112 -0.5258 -0.0575 -0.5260
  409MPD2    C2 6157   2.811   2.067  17.079  0.1758  0.0842 -0.0007
  409MPD2    C3 6158   2.812   2.121  16.953 -0.1073 -0.3155 -0.7515
  409MPD2    C4 6159   2.705   2.096  16.863  0.1764 -0.5826 -0.7511
  409MPD2    C5 6160   2.607   2.013  16.907 -0.6280 -0.0935  0.3384
  409MPD2     H 6161   2.897   2.084  17.143  0.1171 -0.8615  0.3317
  409MPD2    H1 6162   2.698   2.145  16.766 -0.1831  1.5168  0.3493
  409MPD2    H2 6163   2.538   1.871  17.037 -0.6068  0.9708 -0.7076
  409MPD2    H3 6164   2.521   1.989  16.846 -1.2034  2.2933  0.2209
  409MPD2     N 6165   2.910   2.215  16.914  0.0552 -0.1671 -0.3710
  409MPD2    H5 6166   2.908   2.225  16.813 -1.4770  1.8134 -0.1359
  409MPD2    N1 6167   2.730   1.902  17.240  0.0077  0.1499 -0.6624
  409MPD2    H7 6168   2.793   1.937  17.311  1.0248 -1.5300 -0.7403
  410TMC3    C1 6169   3.123   2.325  16.916  0.5699 -0.6570 -0.1125
  410TMC3    C2 6170   3.240   2.318  16.984  0.6271 -0.6231  0.6632
  410TMC3    C3 6171   3.332   2.418  16.967 -0.4185 -0.3733  0.1602
  410TMC3    C4 6172   3.105   2.427  16.829 -0.1185  0.3088  0.6558
  410TMC3    C5 6173   3.197   2.527  16.808  0.0460  0.2226 -0.3870
  410TMC3    C6 6174   3.312   2.522  16.874  0.6724  0.2082  0.2145
  410TMC3     C 6175   3.012   2.269  16.992 -0.1758  0.3761  1.1945
  410TMC3     O 6176   3.026   2.258  17.113 -0.1957  0.5810 -0.0265
  410TMC3     H 6177   3.266   2.245  17.060 -1.4084 -0.7319  1.2567
  410TMC3    H1 6178   3.017   2.439  16.766  1.0976 -0.5900 -1.2132
  410TMC3    H2 6179   3.397   2.586  16.850  1.3308 -0.3163  1.1339
  410TMC3    C7 6180   3.207   2.539  16.663  0.0288  0.3173  0.3836
  410TMC3    C8 6181   3.462   2.423  17.040 -0.5505 -0.2672 -0.9776
  410TMC3    O1 6182   3.189   2.442  16.594  0.1715 -0.3770 -0.3570
  410TMC3    O2 6183   3.515   2.532  17.067  0.3644  0.8157  0.1211
  411MPD2     C 6184   2.821   3.002  14.487 -0.6985  0.2727  0.5318
  411MPD2    C1 6185   2.700   2.986  14.547 -0.3237 -0.3056  0.5128
  411MPD2    C2 6186   2.599   2.910  14.493 -0.6267  0.7554  0.5623
  411MPD2    C3 6187   2.628   2.838  14.380  0.7093  0.0097 -1.1356
  411MPD2    C4 6188   2.754   2.830  14.331 -0.4256  0.1738 -0.0836
  411MPD2    C5 6189   2.838   2.925  14.374  0.2117 -0.2743 -0.0950
  411MPD2     H 6190   2.503   2.926  14.541  0.2807  1.8949  1.9971
  411MPD2    H1 6191   2.779   2.774  14.242  0.7857  0.9737 -0.2346
  411MPD2    H2 6192   2.895   3.072  14.523 -0.5892 -0.3949  1.6272
  411MPD2    H3 6193   2.931   2.941  14.321  0.2724  2.8920  0.9597
  411MPD2     N 6194   2.533   2.755  14.323  0.0283  0.0474 -0.3789
  411MPD2    H5 6195   2.559   2.688  14.251  2.2243  0.6595 -0.1803
  411MPD2    N1 6196   2.670   3.071  14.658 -0.3968  0.7304  0.2787
  411MPD2    H7 6197   2.747   3.134  14.678  0.4749 -1.0222  2.3997
  412TMC3    C1 6198   2.324   2.697  14.245  0.3850  0.4425  0.8548
  412TMC3    C2 6199   2.217   2.762  14.181  0.1054 -0.6462  0.0261
  412TMC3    C3 6200   2.159   2.682  14.091  0.3804 -0.4349  0.1766
  412TMC3    C4 6201   2.368   2.573  14.229  0.1251  0.1289  0.0153
  412TMC3    C5 6202   2.300   2.495  14.136  0.0214  0.2740 -0.6722
  412TMC3    C6 6203   2.188   2.548  14.072  0.3120 -0.1058  0.5679
  412TMC3     C 6204   2.399   2.784  14.330  0.2418 -0.9338  1.0075
  412TMC3     O 6205   2.336   2.880  14.379 -0.6224 -0.2473 -0.1421
  412TMC3     H 6206   2.183   2.864  14.196 -0.6261 -0.7721 -0.7563
  412TMC3    H1 6207   2.456   2.530  14.275 -0.1917 -0.0492  0.4539
  412TMC3    H2 6208   2.145   2.489  13.991  1.2383  1.5045 -1.0804
  412TMC3    C7 6209   2.382   2.417  14.049 -0.0721 -0.2642 -0.3922
  412TMC3    C8 6210   2.134   2.748  13.962 -0.1159  0.6285 -0.2779
  412TMC3    O1 6211   2.499   2.453  14.026  0.1236 -0.6215  0.3228
  412TMC3    O2 6212   2.086   2.669  13.876 -0.2726  0.0856  0.0598
  413MPD2     C 6213   4.619   1.561  15.616 -0.0831 -0.4413  0.8611
  413MPD2    C1 6214   4.532   1.498  15.529  0.4383  0.0759 -0.5445
  413MPD2    C2 6215   4.576   1.389  15.460 -0.4728  0.1246 -0.2017
  413MPD2    C3 6216   4.704   1.350  15.474 -0.4622  0.2708  0.2235
  413MPD2    C4 6217   0.052   1.414  15.563 -0.0493  0.4094 -0.5823
  413MPD2    C5 6218   0.012   1.531  15.625 -0.1492  0.0406  0.1032
  413MPD2     H 6219   4.510   1.342  15.388  2.4367 -2.0995 -1.4027
  413MPD2    H1 6220   0.154   1.379  15.568 -0.1493 -0.0484 -1.8620
  413MPD2    H2 6221   4.574   1.653  15.651 -0.4912 -0.8596  1.4218
  413MPD2    H3 6222   0.090   1.588  15.674  0.8534 -1.7521  0.5961
  413MPD2     N 6223   0.003   1.233  15.405 -0.0038  0.0359  0.2580
  413MPD2    H5 6224   4.666   1.196  15.350  1.3990 -0.7525 -1.1718
  413MPD2    N1 6225   4.398   1.544  15.529 -0.4234 -0.0605  0.3945
  413MPD2    H7 6226   4.379   1.625  15.587  1.0454  0.6761 -0.1711
  414TMC3    C1 6227   0.124   1.049  15.331  0.3390  0.2448 -0.7070
  414TMC3    C2 6228   0.171   0.923  15.365 -0.3224  0.0903 -0.3455
  414TMC3    C3 6229   0.147   0.812  15.281 -0.2603  0.0903  0.3824
  414TMC3    C4 6230   0.079   1.065  15.203 -0.2362  0.3570  0.1481
  414TMC3    C5 6231   0.058   0.958  15.118  0.3169 -0.2592 -0.6115
  414TMC3    C6 6232   0.086   0.825  15.157  0.1696  0.0883  0.1846
  414TMC3     C 6233   0.100   1.145  15.438  0.0337  0.0607 -0.1222
  414TMC3     O 6234   0.161   1.138  15.543  0.0299 -0.3158  0.2260
  414TMC3     H 6235   0.195   0.917  15.470  0.7677 -0.7452 -0.6469
  414TMC3    H1 6236   0.046   1.163  15.169  1.5807  1.4239  1.4269
  414TMC3    H2 6237   0.062   0.740  15.094  0.4439  0.0966  0.0701
  414TMC3    C7 6238   0.115   0.982  14.987  0.5107 -0.4761 -0.4774
  414TMC3    C8 6239   0.242   0.700  15.292  0.1450 -0.0544 -0.1836
  414TMC3    O1 6240   0.113   1.097  14.944 -0.4882  0.2710 -0.4736
  414TMC3    O2 6241   0.248   0.615  15.200 -0.6341 -0.4922  0.6876
  415TMC3    C1 6242   0.067   3.762  10.113 -0.5917  0.1503 -0.4939
  415TMC3    C2 6243   0.178   3.837  10.092 -0.4953  0.3864  0.0082
  415TMC3    C3 6244   0.236   3.808   9.971 -0.4320 -0.3983 -0.5435
  415TMC3    C4 6245   0.005   3.671  10.032  0.2701 -0.5042  0.1793
  415TMC3    C5 6246   0.057   3.669   9.906  0.0864  0.4211 -0.1455
  415TMC3    C6 6247   0.175   3.729   9.879  0.0936  0.3835 -0.3531
  415TMC3     C 6248   0.005   3.770  10.246  0.2915 -0.4157  0.3652
  415TMC3     O 6249   4.653   3.690  10.275 -0.2631 -0.2617  0.6125
  415TMC3     H 6250   0.213   3.909  10.165 -1.5223 -0.8779  1.7290
  415TMC3    H1 6251   4.655   3.614  10.050 -0.0021  0.3362  1.5090
  415TMC3    H2 6252   0.216   3.724   9.779  0.6678  1.2178 -0.1520
  415TMC3    C7 6253   0.010   3.579   9.806  0.2336  0.8771  0.6046
  415TMC3    C8 6254   0.373   3.844   9.944 -0.3908 -0.1479  0.3621
  415TMC3    O1 6255   0.020   3.604   9.684  0.2798  0.6301  0.6962
  415TMC3    O2 6256   0.423   3.779   9.854  0.8331 -0.4628 -0.5663
  416MPD2     C 6257   1.585   2.719  11.306  0.3163 -0.1487  0.4497
  416MPD2    C1 6258   1.447   2.713  11.323 -0.8075  0.2239  0.1582
  416MPD2    C2 6259   1.375   2.617  11.260  0.1897 -0.3554  0.5701
  416MPD2    C3 6260   1.442   2.520  11.198 -0.0227  0.1958 -0.4315
  416MPD2    C4 6261   1.577   2.510  11.196  0.2944  0.6062 -0.1717
  416MPD2    C5 6262   1.647   2.620  11.241 -0.6359 -0.2945 -0.4941
  416MPD2     H 6263   1.268   2.621  11.273 -0.0145 -0.4066 -1.1349
  416MPD2    H1 6264   1.616   2.434  11.129 -0.4914 -0.8831  1.0726
  416MPD2    H2 6265   1.640   2.804  11.346  1.6977 -0.8922  0.1304
  416MPD2    H3 6266   1.754   2.612  11.226 -0.4245  2.9476 -0.8367
  416MPD2     N 6267   1.368   2.413  11.142  0.2014  0.0761 -0.2601
  416MPD2    H5 6268   1.402   2.319  11.122 -0.6096  0.0920 -1.7025
  416MPD2    N1 6269   1.390   2.810  11.413 -0.1123  0.0382  0.0114
  416MPD2    H7 6270   1.456   2.877  11.449  0.3436  0.3873 -1.4903
  417TMC3    C1 6271   1.223   2.947  11.517 -0.4955 -0.1292 -1.3080
  417TMC3    C2 6272   1.324   3.005  11.591 -0.1590  1.2688 -0.0517
  417TMC3    C3 6273   1.286   3.112  11.667 -0.0052 -0.2328 -0.4213
  417TMC3    C4 6274   1.091   2.985  11.517 -0.5173  0.1271 -0.2417
  417TMC3    C5 6275   1.058   3.095  11.592 -0.1217 -1.0064 -0.5538
  417TMC3    C6 6276   1.155   3.163  11.662 -0.3350 -0.2230  0.0783
  417TMC3     C 6277   1.252   2.830  11.434 -0.5851 -0.3738 -0.0809
  417TMC3     O 6278   1.155   2.766  11.398  0.3095  0.3543 -0.1961
  417TMC3     H 6279   1.429   2.976  11.594  0.1974  2.6926  1.4417
  417TMC3    H1 6280   1.017   2.928  11.462 -0.6873  0.3321 -0.2258
  417TMC3    H2 6281   1.138   3.244  11.732 -1.0228  1.1872 -1.7183
  417TMC3    C7 6282   0.959   3.176  11.528 -0.0500  0.1644  0.2577
  417TMC3    C8 6283   1.366   3.155  11.786 -0.3713 -0.3525  0.3465
  417TMC3    O1 6284   0.990   3.294  11.524  0.5938  0.1585  0.4024
  417TMC3    O2 6285   1.319   3.237  11.863 -0.3262 -0.5535 -0.2879
  418TMC3    C1 6286   1.178   4.602   0.121  0.6738  0.9708 -0.4461
  418TMC3    C2 6287   1.067   4.682   0.134  0.0582  0.3714  0.1477
  418TMC3    C3 6288   1.025   4.693   0.254  0.5377  0.0277 -0.3201
  418TMC3    C4 6289   1.240   4.539   0.225  0.3089  0.2753  0.3928
  418TMC3    C5 6290   1.193   4.554   0.347 -0.0289 -0.0412 -0.4026
  418TMC3    C6 6291   1.080   4.626   0.360  0.4894  0.3323  0.3954
  418TMC3     C 6292   1.214   4.579  17.742  0.6325 -0.7202 -0.2444
  418TMC3     O 6293   1.196   4.663  17.654 -0.0342  0.1233 -0.5798
  418TMC3     H 6294   1.028   4.733   0.046  1.3521  1.9734  0.5088
  418TMC3    H1 6295   1.322   4.468   0.222 -0.7791 -1.0062  1.0031
  418TMC3    H2 6296   1.020   4.625   0.450 -1.6276  1.2341 -1.0241
  418TMC3    C7 6297   1.226   4.460   0.448 -0.0978  0.4693  0.3461
  418TMC3    C8 6298   0.881   4.687   0.261  0.2120  0.1281  0.1228
  418TMC3    O1 6299   1.270   4.348   0.416  0.2881  0.1795  0.1544
  418TMC3    O2 6300   0.816   0.050   0.240  0.2883  0.1388 -0.4111
  419MPD2     C 6301   3.846   2.906  12.483 -0.5882  0.8352 -0.5999
  419MPD2    C1 6302   3.797   3.033  12.488 -0.0938  0.3511  0.6784
  419MPD2    C2 6303   3.780   3.094  12.617 -0.5798 -0.0354  0.0289
  419MPD2    C3 6304   3.809   3.019  12.725  0.5052  0.4934 -0.1010
  419MPD2    C4 6305   3.865   2.897  12.716  0.0882 -0.5124  0.1106
  419MPD2    C5 6306   3.880   2.843  12.593 -0.6123  0.2894  0.2359
  419MPD2     H 6307   3.735   3.193  12.621  1.4044  0.7143  3.8373
  419MPD2    H1 6308   3.916   2.844  12.796 -1.9000 -0.4248  1.4508
  419MPD2    H2 6309   3.854   2.871  12.381 -1.7918 -0.2347 -0.3153
  419MPD2    H3 6310   3.923   2.743  12.590 -3.1997 -0.8368  0.4929
  419MPD2     N 6311   3.787   3.084  12.851 -0.4997 -0.3890 -0.3243
  419MPD2    H5 6312   3.762   3.183  12.847  0.4897 -0.0946  0.7629
  419MPD2    N1 6313   3.745   3.083  12.368  0.0661 -0.7706 -0.2354
  419MPD2    H7 6314   3.758   3.027  12.285 -1.5182 -2.1257  0.4154
  420TMC3    C1 6315   3.806   3.132  13.083  0.0557 -0.2355 -0.9384
  420TMC3    C2 6316   3.735   3.251  13.070  0.0444 -0.8784 -0.3674
  420TMC3    C3 6317   3.735   3.336  13.182 -0.4741  0.3561 -0.1125
  420TMC3    C4 6318   3.880   3.106  13.195 -0.3100  0.4422 -0.1382
  420TMC3    C5 6319   3.876   3.186  13.307 -0.1439 -0.3761 -0.5831
  420TMC3    C6 6320   3.814   3.307  13.293 -0.3252 -0.1647  0.1725
  420TMC3     C 6321   3.821   3.037  12.979  0.1350 -0.2872  0.1170
  420TMC3     O 6322   3.865   2.926  13.005  0.4155  0.2262  0.1444
  420TMC3     H 6323   3.667   3.263  12.987  1.8278  1.2986 -1.5255
  420TMC3    H1 6324   3.928   3.009  13.199  1.7052  1.3803 -1.5088
  420TMC3    H2 6325   3.805   3.366  13.383 -0.6871 -0.0969  0.0922
  420TMC3    C7 6326   3.977   3.157  13.409  0.4919 -0.4193  0.5400
  420TMC3    C8 6327   3.663   3.458  13.165  0.0745 -0.5158  0.8860
  420TMC3    O1 6328   4.024   3.044  13.408  0.1109  0.4422  0.8186
  420TMC3    O2 6329   3.572   3.463  13.081 -0.1049 -0.4404 -0.5570
  421TMC3    C1 6330   0.430   0.115  13.195  0.6085 -0.0274 -0.0956
  421TMC3    C2 6331   0.462   0.246  13.224  0.2234 -0.6380 -0.2694
  421TMC3    C3 6332   0.593   0.277  13.258  0.8133 -0.1685  0.6827
  421TMC3    C4 6333   0.519   0.021  13.226  0.0764 -0.2237 -0.6269
  421TMC3    C5 6334   0.644   0.045  13.267  0.0685 -0.3077 -0.5598
  421TMC3    C6 6335   0.683   0.176  13.278 -0.3226  0.5285 -0.3408
  421TMC3     C 6336   0.299   0.088  13.149  0.2903 -0.3874 -0.6239
  421TMC3     O 6337   0.222   0.180  13.121 -0.1182 -0.3955  0.2744
  421TMC3     H 6338   0.381   0.317  13.213 -0.6081 -1.4775  0.4529
  421TMC3    H1 6339   0.485   4.662  13.198  0.1322 -0.2677 -0.5384
  421TMC3    H2 6340   0.781   0.194  13.320 -0.2240 -0.5712 -0.0994
  421TMC3    C7 6341   0.744   4.681  13.296 -0.3084  0.0730 -0.6739
  421TMC3    C8 6342   0.613   0.391  13.339  0.0192 -0.8968  0.0797
  421TMC3    O1 6343   0.852   4.715  13.343  0.1563  0.3473 -0.4182
  421TMC3    O2 6344   0.698   0.376  13.425  0.2379 -0.9599 -0.8311
  422TMC3    C1 6345   3.071   1.087  12.550  0.3174  0.0084 -0.1388
  422TMC3    C2 6346   3.036   1.206  12.610 -0.4022  0.3920 -0.0056
  422TMC3    C3 6347   2.928   1.216  12.697  0.1944 -0.0098  0.2760
  422TMC3    C4 6348   2.994   0.978  12.576  0.0671  0.4808 -0.5472
  422TMC3    C5 6349   2.882   0.993  12.662  0.0683  0.3587  0.2313
  422TMC3    C6 6350   2.844   1.111  12.714  0.4551  0.0575 -0.0128
  422TMC3     C 6351   3.188   1.087  12.459  0.4790  0.3247 -0.4628
  422TMC3     O 6352   3.239   1.193  12.431  0.1849 -0.0693  0.5646
  422TMC3     H 6353   3.096   1.293  12.587 -0.9681  0.2496 -1.9595
  422TMC3    H1 6354   3.015   0.889  12.518  0.2462  0.1302  0.0585
  422TMC3    H2 6355   2.741   1.121  12.746  0.1386 -0.7275 -0.7642
  422TMC3    C7 6356   2.790   0.875  12.657  0.3741 -0.3275  0.3349
  422TMC3    C8 6357   2.898   1.351  12.748  0.2430  0.0326  0.3207
  422TMC3    O1 6358   2.822   0.782  12.581 -0.4285 -0.8560  0.4247
  422TMC3    O2 6359   2.991   1.424  12.785  0.5789  0.0787  0.0290
  423MPD2     C 6360   4.389   1.873   0.699 -0.6052  0.5574 -0.3727
  423MPD2    C1 6361   4.443   1.760   0.756  0.1772 -0.0266  0.2335
  423MPD2    C2 6362   4.501   1.669   0.672  0.1694  0.0686  0.7250
  423MPD2    C3 6363   4.528   1.695   0.537 -0.0777  0.0616 -1.2458
  423MPD2    C4 6364   4.476   1.812   0.483 -0.0844  0.2853 -0.1996
  423MPD2    C5 6365   4.408   1.899   0.566 -0.3554  0.5326  0.1262
  423MPD2     H 6366   4.541   1.580   0.719 -1.2868 -0.1086  1.6270
  423MPD2    H1 6367   4.479   1.825   0.375  1.0708 -0.9385 -0.3136
  423MPD2    H2 6368   4.316   1.941   0.741  0.7199  0.4362  2.1283
  423MPD2    H3 6369   4.365   1.992   0.531 -1.0246 -0.2335 -1.0944
  423MPD2     N 6370   4.595   1.610   0.453 -0.1757 -0.4548 -0.0461
  423MPD2    H5 6371   4.603   1.641   0.357 -1.7077  2.4526  0.7762
  423MPD2    N1 6372   4.432   1.725   0.893  0.4250 -0.2581  0.1911
  423MPD2    H7 6373   4.472   1.635   0.917 -0.9701 -0.3498  2.1806
  424TMC3    C1 6374   4.365   1.721   1.118 -0.6091 -0.5712  0.1088
  424TMC3    C2 6375   4.484   1.684   1.163  0.2645  0.3239 -0.4334
  424TMC3    C3 6376   4.480   1.631   1.288  0.4131  0.0898  0.1929
  424TMC3    C4 6377   4.244   1.695   1.172  0.5145 -0.0131  0.1223
  424TMC3    C5 6378   4.253   1.654   1.301 -0.7692 -0.0759 -0.8754
  424TMC3    C6 6379   4.364   1.613   1.360 -0.2901 -0.9476  0.0712
  424TMC3     C 6380   4.369   1.799   0.989 -0.0037  0.4100 -0.0757
  424TMC3     O 6381   4.319   1.914   0.983  0.0527 -0.3224  0.2546
  424TMC3     H 6382   4.571   1.722   1.111  1.1095 -0.8700  0.1143
  424TMC3    H1 6383   4.156   1.745   1.134  0.4378  0.0591  0.3937
  424TMC3    H2 6384   4.368   1.584   1.465 -1.5293 -3.3455 -0.5513
  424TMC3    C7 6385   4.142   1.633   1.384 -1.0094  0.3534 -0.5455
  424TMC3    C8 6386   4.573   1.518   1.316  0.5621 -0.1601 -0.4853
  424TMC3    O1 6387   4.160   1.603   1.501  0.2975 -0.6575 -0.3510
  424TMC3    O2 6388   4.524   1.418   1.375  0.4589 -0.1134  0.1663
  425MPD2     C 6389   3.529   0.618  17.196  0.1433  0.7817 -0.3915
  425MPD2    C1 6390   3.466   0.521  17.276 -0.0339 -0.8410 -1.1725
  425MPD2    C2 6391   3.388   0.557  17.381  0.5536  0.3578  0.3645
  425MPD2    C3 6392   3.353   0.688  17.404 -1.0240  0.1591 -0.0571
  425MPD2    C4 6393   3.418   0.788  17.324  0.0864  0.2427 -0.5109
  425MPD2    C5 6394   3.512   0.749  17.225 -0.0908 -0.8506  0.4944
  425MPD2     H 6395   3.347   0.483  17.449 -0.3338 -1.4914 -2.1821
  425MPD2    H1 6396   3.404   0.894  17.338 -3.0357  0.0372 -2.0252
  425MPD2    H2 6397   3.610   0.589  17.129  1.7825  1.2843  1.3645
  425MPD2    H3 6398   3.570   0.819  17.166 -2.3362 -0.6292 -1.4708
  425MPD2     N 6399   3.270   0.717  17.503  0.2447 -0.1071  0.9166
  425MPD2    H5 6400   3.217   0.647  17.553  0.7143 -0.8733  0.3346
  425MPD2    N1 6401   3.511   0.389  17.253  0.1653  0.1995 -0.0408
  425MPD2    H7 6402   3.566   0.374  17.169  2.2597  2.1618  0.9907
  426TMC3    C1 6403   3.515   0.155  17.262 -0.0082 -0.1055  0.0186
  426TMC3    C2 6404   3.542   0.137  17.129  0.1316  0.4536 -0.1744
  426TMC3    C3 6405   3.558   0.012  17.081 -0.2390  0.4417 -0.9691
  426TMC3    C4 6406   3.500   0.044  17.342  0.6457  0.3367 -0.0938
  426TMC3    C5 6407   3.510   4.660  17.283  0.0065 -0.2177 -0.2283
  426TMC3    C6 6408   3.549   4.637  17.150 -0.4785  0.4144  0.3968
  426TMC3     C 6409   3.476   0.279  17.326 -0.2506  0.3582 -0.2760
  426TMC3     O 6410   3.419   0.281  17.434  0.0472 -0.1331  0.0453
  426TMC3     H 6411   3.544   0.225  17.066  3.0293  1.8149  1.8229
  426TMC3    H1 6412   3.464   0.060  17.443 -0.1928 -0.7638 -0.2154
  426TMC3    H2 6413   3.555   4.545  17.094 -0.0564  1.3019 -1.0043
  426TMC3    C7 6414   3.465   4.536  17.350  0.7868  0.2400  0.0172
  426TMC3    C8 6415   3.612   0.003  16.946 -0.4333 -0.4328  0.0770
  426TMC3    O1 6416   3.503   4.429  17.309 -0.4182  0.3094 -0.5510
  426TMC3    O2 6417   3.599   4.644  16.875 -0.1487 -0.2081  0.2581
  427MPD2     C 6418   2.068   2.681  14.508 -0.4234  0.4915 -0.2131
  427MPD2    C1 6419   2.086   2.737  14.637  0.2981 -0.1896  0.0028
  427MPD2    C2 6420   1.990   2.831  14.680 -0.0220 -0.4051  0.4343
  427MPD2    C3 6421   1.877   2.849  14.608  0.1515  0.4619 -0.5451
  427MPD2    C4 6422   1.857   2.784  14.491 -0.0172 -0.1406 -0.5303
  427MPD2    C5 6423   1.952   2.715  14.437 -0.4546 -0.5587 -0.5233
  427MPD2     H 6424   2.028   2.879  14.769 -0.0722  1.8360 -0.7736
  427MPD2    H1 6425   1.759   2.786  14.444 -0.3987  0.6439  0.2922
  427MPD2    H2 6426   2.126   2.606  14.455 -1.9075 -2.0851  1.8289
  427MPD2    H3 6427   1.940   2.667  14.341  1.2506  0.8407 -1.4329
  427MPD2     N 6428   1.772   2.934  14.660  0.1499 -0.3131 -0.2318
  427MPD2    H5 6429   1.686   2.939  14.607  1.1600  2.1255 -1.6727
  427MPD2    N1 6430   2.202   2.710  14.712  0.5476 -0.1898 -0.2701
  427MPD2    H7 6431   2.198   2.744  14.807 -0.5557  2.2821 -1.2013
  428TMC3    C1 6432   2.375   2.575  14.799  0.1138 -0.0709  0.2582
  428TMC3    C2 6433   2.379   2.444  14.832  0.4977 -0.0385  0.0443
  428TMC3    C3 6434   2.428   2.406  14.960 -0.3527  0.2009  0.7837
  428TMC3    C4 6435   2.427   2.681  14.872  0.6201  0.3090 -0.4421
  428TMC3    C5 6436   2.486   2.634  14.988  0.2199  0.4163 -0.0954
  428TMC3    C6 6437   2.491   2.502  15.041 -0.7320  0.0943  0.2542
  428TMC3     C 6438   2.291   2.609  14.689  0.0428 -0.2693 -0.0866
  428TMC3     O 6439   2.307   2.535  14.593  0.6782 -0.0326  0.1711
  428TMC3     H 6440   2.336   2.368  14.767 -1.1343  0.6845  0.2649
  428TMC3    H1 6441   2.413   2.784  14.842 -0.0920  0.4994  0.5621
  428TMC3    H2 6442   2.531   2.485  15.140  1.2250 -1.2633 -0.7694
  428TMC3    C7 6443   2.513   2.736  15.087  0.3144  0.5657  0.0557
  428TMC3    C8 6444   2.381   2.281  15.011  0.1953  0.6104  0.0465
  428TMC3    O1 6445   2.480   2.709  15.202  0.2518  0.6659  0.5158
  428TMC3    O2 6446   2.357   2.189  14.935 -0.0960  0.2923 -0.3286
  429MPD2     C 6447   3.007   2.992  17.684  0.7291 -0.7215 -0.1951
  429MPD2    C1 6448   3.125   2.933  17.724 -0.4486  0.0109  0.2424
  429MPD2    C2 6449   3.240   2.982  17.668 -0.1545 -1.0204  0.1408
  429MPD2    C3 6450   3.241   3.085  17.576  0.1633  0.3470 -0.6073
  429MPD2    C4 6451   3.124   3.132  17.532  0.5185  0.0263  0.5437
  429MPD2    C5 6452   3.001   3.090  17.590  0.0529 -0.1814  0.2405
  429MPD2     H 6453   3.335   2.936  17.693  0.7897 -0.2069 -1.9393
  429MPD2    H1 6454   3.104   3.198  17.448 -1.7335 -1.1363  0.1594
  429MPD2    H2 6455   2.911   2.976  17.732  0.1318 -1.4936 -1.6435
  429MPD2    H3 6456   2.906   3.137  17.570 -0.5975 -0.7352  2.0595
  429MPD2     N 6457   3.362   3.133  17.522  0.2024  0.1298  0.1355
  429MPD2    H5 6458   3.453   3.099  17.551 -0.8095 -0.7709  2.2723
  429MPD2    N1 6459   3.142   2.840   0.070  0.1331 -0.1750  0.9045
  429MPD2    H7 6460   3.235   2.812   0.098  0.2430 -2.2475 -1.4900
  430TMC3    C1 6461   3.507   3.221  17.358 -0.1614  0.3338 -0.4050
  430TMC3    C2 6462   3.546   3.332  17.295 -0.8425  0.3117 -0.0721
  430TMC3    C3 6463   3.634   3.330  17.187  0.2677 -0.5386 -0.6229
  430TMC3    C4 6464   3.562   3.096  17.328  0.0871 -0.2694 -0.0026
  430TMC3    C5 6465   3.647   3.097  17.219  0.7371  0.3880 -0.0048
  430TMC3    C6 6466   3.698   3.208  17.160 -0.1742 -0.1667 -0.0409
  430TMC3     C 6467   3.373   3.226  17.420  0.4576  0.1182 -0.2902
  430TMC3     O 6468   3.295   3.298  17.362 -0.3165 -0.5520  0.5257
  430TMC3     H 6469   3.493   3.425  17.313 -3.4026 -1.5427  1.9549
  430TMC3    H1 6470   3.495   3.012  17.347  1.7078 -1.2026  1.5751
  430TMC3    H2 6471   3.775   3.196  17.085 -2.1257  0.1303 -2.0843
  430TMC3    C7 6472   3.639   2.988  17.125  0.4714  0.5500 -0.2490
  430TMC3    C8 6473   3.584   3.390  17.065 -0.4223 -0.6540  0.5533
  430TMC3    O1 6474   3.637   2.878  17.175  0.3118 -0.0760 -0.7846
  430TMC3    O2 6475   3.574   3.320  16.965 -0.0031 -0.8929 -0.7969
  431MPD2     C 6476   3.633   3.909  12.388  1.0469 -0.3202  0.7688
  431MPD2    C1 6477   3.696   3.856  12.277  0.1208  0.0089 -0.4273
  431MPD2    C2 6478   3.641   3.752  12.206 -0.4599  0.7746  0.2938
  431MPD2    C3 6479   3.526   3.690  12.257  0.1847  0.6810 -0.3455
  431MPD2    C4 6480   3.466   3.742  12.366  0.0484 -0.4188 -0.7778
  431MPD2    C5 6481   3.504   3.862  12.414  0.0312 -0.2809  0.0122
  431MPD2     H 6482   3.698   3.716  12.122 -0.4919 -0.3518  0.7588
  431MPD2    H1 6483   3.383   3.696  12.418  1.5661 -1.2415  0.9104
  431MPD2    H2 6484   3.673   3.992  12.445  1.9517 -0.3297  0.1422
  431MPD2    H3 6485   3.451   3.880  12.507  0.1948 -0.2886  0.1076
  431MPD2     N 6486   3.480   3.569  12.200  0.1668 -0.2969  0.3203
  431MPD2    H5 6487   3.406   3.520  12.250 -1.0024  3.0455  1.8673
  431MPD2    N1 6488   3.835   3.893  12.252 -0.6300 -0.1013 -0.4108
  431MPD2    H7 6489   3.880   3.837  12.181 -1.0126 -0.9724  0.0364
  432TMC3    C1 6490   3.506   3.366  12.087 -0.0384 -0.5480  0.1044
  432TMC3    C2 6491   3.570   3.318  11.974  0.0388  0.1257 -0.3994
  432TMC3    C3 6492   3.660   3.218  11.985 -0.2216  0.1660  0.8581
  432TMC3    C4 6493   3.529   3.313  12.210  0.0557 -0.2001  0.9273
  432TMC3    C5 6494   3.618   3.213  12.219 -0.0990 -0.6160 -0.3937
  432TMC3    C6 6495   3.680   3.156  12.107 -0.2777  0.4031  0.0120
  432TMC3     C 6496   3.531   3.505  12.090  0.2284  0.3682 -0.4765
  432TMC3     O 6497   3.603   3.547  12.000  0.5586  0.2761 -0.1136
  432TMC3     H 6498   3.560   3.363  11.876  1.9131  1.7930  0.1725
  432TMC3    H1 6499   3.484   3.352  12.301 -0.8131 -0.3187  0.5551
  432TMC3    H2 6500   3.746   3.071  12.120 -0.2744  0.7787  2.4425
  432TMC3    C7 6501   3.661   3.186  12.358 -0.0540 -0.0118  0.5220
  432TMC3    C8 6502   3.765   3.207  11.888 -0.0154 -0.1794  0.0245
  432TMC3    O1 6503   3.643   3.277  12.437 -0.2150 -0.5614 -0.5060
  432TMC3    O2 6504   3.733   3.230  11.773 -0.3809  0.1329 -0.3587
  433MPD2     C 6505   2.457   2.117  10.950  0.6028 -0.5776 -0.0473
  433MPD2    C1 6506   2.424   2.005  11.032 -0.4203 -0.2732 -0.3470
  433MPD2    C2 6507   2.459   2.014  11.168 -1.1187 -0.1733  0.1693
  433MPD2    C3 6508   2.525   2.128  11.220 -0.0089 -0.1039 -0.0492
  433MPD2    C4 6509   2.551   2.233  11.130 -0.6054  0.7554  0.5289
  433MPD2    C5 6510   2.511   2.231  10.999 -0.0012  0.0247 -0.1424
  433MPD2     H 6511   2.449   1.935  11.241 -0.3359 -0.0689  0.3873
  433MPD2    H1 6512   2.620   2.305  11.174 -1.2714  0.8688  1.3824
  433MPD2    H2 6513   2.440   2.109  10.844 -1.2680 -3.0333  0.4476
  433MPD2    H3 6514   2.539   2.308  10.928 -1.7164  0.9801  0.2173
  433MPD2     N 6515   2.581   2.116  11.353  0.2893  0.7910  0.0594
  433MPD2    H5 6516   2.575   2.024  11.395  0.2612  0.8354  0.1532
  433MPD2    N1 6517   2.371   1.885  10.976  0.1691 -0.0877 -0.2215
  433MPD2    H7 6518   2.363   1.878  10.876  1.2059 -1.8618 -0.1797
  434TMC3    C1 6519   2.334   1.658  10.951 -0.5026 -0.0540 -0.1897
  434TMC3    C2 6520   2.428   1.566  10.978 -0.6521  0.3970  0.0432
  434TMC3    C3 6521   2.509   1.510  10.884  0.7700 -0.4737  0.7163
  434TMC3    C4 6522   2.302   1.670  10.811  0.3879 -0.5831 -0.4949
  434TMC3    C5 6523   2.364   1.583  10.725  0.4182  0.2558 -0.2921
  434TMC3    C6 6524   2.470   1.510  10.756  1.1732 -0.1778  0.8889
  434TMC3     C 6525   2.327   1.777  11.038 -0.5029 -0.2412  0.2894
  434TMC3     O 6526   2.325   1.756  11.162  0.0055 -0.1336  0.5313
  434TMC3     H 6527   2.465   1.557  11.080 -2.9613  0.3782  0.8739
  434TMC3    H1 6528   2.229   1.740  10.772  2.2002  0.6826 -1.6101
  434TMC3    H2 6529   2.523   1.451  10.682  0.0652  1.2343 -1.0447
  434TMC3    C7 6530   2.283   1.549  10.607  0.4300  0.4461 -0.5926
  434TMC3    C8 6531   2.619   1.430  10.932 -0.2391  0.5134  0.2839
  434TMC3    O1 6532   2.207   1.635  10.571  0.3644 -0.0068 -0.0976
  434TMC3    O2 6533   2.601   1.373  11.039  0.7717 -0.6794 -0.4778
  435MPD2     C 6534   0.588   1.799  15.381  0.1270 -0.6558  0.4747
  435MPD2    C1 6535   0.524   1.787  15.501  0.1439 -0.4183  0.1561
  435MPD2    C2 6536   0.585   1.726  15.607  0.1848  0.7011 -0.5375
  435MPD2    C3 6537   0.704   1.656  15.589  0.7501  0.2278 -0.5135
  435MPD2    C4 6538   0.770   1.660  15.468 -0.1030  0.8375  0.5916
  435MPD2    C5 6539   0.709   1.738  15.375 -0.3026  0.5424  0.4710
  435MPD2     H 6540   0.544   1.729  15.707  2.9091  0.1682  0.5936
  435MPD2    H1 6541   0.863   1.609  15.444 -1.8707 -2.4137  0.6893
  435MPD2    H2 6542   0.561   1.867  15.300  1.1845  1.3280  1.7988
  435MPD2    H3 6543   0.767   1.758  15.286 -0.4576 -1.6106 -0.1102
  435MPD2     N 6544   0.741   1.568  15.693  0.0316  0.3575  0.0206
  435MPD2    H5 6545   0.687   1.580  15.778  1.1188 -0.2411  0.8032
  435MPD2    N1 6546   0.393   1.827  15.526  0.0572  0.0151 -0.5209
  435MPD2    H7 6547   0.355   1.810  15.619  0.7205  1.8825  0.0904
  436TMC3    C1 6548   0.058   1.964  15.664  0.2589 -0.1529 -0.4614
  436TMC3    C2 6549   0.183   1.945  15.617  0.2787 -0.7448 -0.0571
  436TMC3    C3 6550   0.193   1.919  15.483 -0.0419  0.5062  0.0845
  436TMC3    C4 6551   4.688   1.962  15.584 -0.1966  0.2206  0.4257
  436TMC3    C5 6552   4.702   1.943  15.448 -0.1908 -0.0289 -0.3251
  436TMC3    C6 6553   0.086   1.916  15.393  0.8257 -0.1594  0.5563
  436TMC3     C 6554   0.050   2.031  15.796  0.4639  1.1046  0.1261
  436TMC3     O 6555   0.148   2.098  15.827 -0.4091 -0.6710  0.2920
  436TMC3     H 6556   0.265   1.945  15.688  0.5463  1.5098 -0.3487
  436TMC3    H1 6557   4.592   1.977  15.632 -1.4148 -1.3100 -1.4904
  436TMC3    H2 6558   0.094   1.903  15.286  1.0920 -0.2780  0.5913
  436TMC3    C7 6559   4.583   1.942  15.371 -0.3257 -0.6520  0.0288
  436TMC3    C8 6560   0.316   1.880  15.427  1.0101  0.8213 -0.0748
  436TMC3    O1 6561   4.586   1.908  15.251 -0.6092 -0.4511  0.2167
  436TMC3    O2 6562   0.338   1.905  15.311  0.1025  0.0802  0.0185
  437TMC3    C1 6563   3.022   3.608  12.587  0.5725  1.0609 -1.1652
  437TMC3    C2 6564   2.984   3.549  12.469 -0.1888 -1.0225 -0.8291
  437TMC3    C3 6565   2.967   3.640  12.370  0.1764  0.3025  0.5634
  437TMC3    C4 6566   3.045   3.741  12.601  0.0038  0.9685 -0.2542
  437TMC3    C5 6567   3.052   3.817  12.493 -0.3971  0.0439 -0.3035
  437TMC3    C6 6568   3.000   3.774  12.374  0.0330 -0.8734 -0.4579
  437TMC3     C 6569   3.011   3.525  12.709 -0.2022  0.4580 -0.5334
  437TMC3     O 6570   2.998   3.583  12.816 -0.2741  0.3032  0.7238
  437TMC3     H 6571   2.957   3.444  12.461 -1.9567 -0.5919 -0.5274
  437TMC3    H1 6572   3.066   3.789  12.696  0.8428 -2.9500  1.5134
  437TMC3    H2 6573   2.987   3.837  12.287 -2.7581  0.6839  1.1136
  437TMC3    C7 6574   3.097   3.958  12.497 -0.3112  0.2396  0.4241
  437TMC3    C8 6575   2.929   3.593  12.236  0.0487  0.0871 -0.1725
  437TMC3    O1 6576   3.080   4.029  12.397  0.0322  0.2488 -0.2643
  437TMC3    O2 6577   2.967   3.661  12.138 -0.2140  0.4355 -0.1225
  438MPD2     C 6578   1.454   4.427  16.782 -0.1488  0.2495 -0.4444
  438MPD2    C1 6579   1.470   4.307  16.837 -0.5608  0.1614  0.0753
  438MPD2    C2 6580   1.391   4.270  16.948  0.1637 -0.0190 -0.4021
  438MPD2    C3 6581   1.303   4.360  17.008 -0.0315  0.4689 -0.5099
  438MPD2    C4 6582   1.278   4.478  16.941 -0.1774 -0.4583 -0.2805
  438MPD2    C5 6583   1.359   4.519  16.831 -0.7006  0.4286  0.2844
  438MPD2     H 6584   1.399   4.167  16.981 -1.8503 -0.4004 -1.1316
  438MPD2    H1 6585   1.208   4.553  16.975  1.1806  0.4836  0.4525
  438MPD2    H2 6586   1.505   4.451  16.690  1.1171  0.6005  0.3445
  438MPD2    H3 6587   1.343   4.618  16.789  0.4398 -0.0821 -1.3357
  438MPD2     N 6588   1.230   4.336  17.129 -0.1155  0.3071 -0.0538
  438MPD2    H5 6589   1.154   4.401  17.147 -0.2510  0.3501 -0.7745
  438MPD2    N1 6590   1.551   4.215  16.766 -0.3905 -0.0749  0.2433
  438MPD2    H7 6591   1.582   4.243  16.674  1.1530 -0.0262  0.7812
  439TMC3    C1 6592   1.648   4.000  16.738 -0.1108 -0.5663  0.1991
  439TMC3    C2 6593   1.604   3.998  16.609  0.0952 -0.2880  0.6410
  439TMC3    C3 6594   1.631   3.889  16.534 -0.3313 -0.4243 -0.1086
  439TMC3    C4 6595   1.736   3.908  16.788  0.0891  0.0585 -0.3962
  439TMC3    C5 6596   1.775   3.813  16.703  0.6921 -0.8285  0.1158
  439TMC3    C6 6597   1.728   3.802  16.575 -0.3098 -1.1486  0.5649
  439TMC3     C 6598   1.603   4.104  16.828  0.6702  0.1525  0.0685
  439TMC3     O 6599   1.604   4.082  16.948 -0.2237  0.0798 -0.5583
  439TMC3     H 6600   1.536   4.078  16.580 -0.0404 -0.2810  0.9798
  439TMC3    H1 6601   1.776   3.924  16.888 -1.3539 -1.6484  0.4528
  439TMC3    H2 6602   1.748   3.708  16.524  0.8107 -1.1432  0.9985
  439TMC3    C7 6603   1.920   3.785  16.706  0.0684  0.1378 -0.7266
  439TMC3    C8 6604   1.605   3.888  16.394 -0.7306 -0.6546 -0.1284
  439TMC3    O1 6605   1.958   3.762  16.822 -0.0842 -0.1128 -0.2006
  439TMC3    O2 6606   1.604   3.778  16.336  0.1345  0.3627  0.4889
  440MPD2     C 6607   4.635   0.113  14.934  0.5759  0.3891 -0.1005
  440MPD2    C1 6608   4.694   0.209  15.009  0.1543  0.3540  0.2785
  440MPD2    C2 6609   0.089   0.202  15.029  0.8647 -0.3018 -0.0773
  440MPD2    C3 6610   0.167   0.099  14.983 -0.7099  0.0513  0.2753
  440MPD2    C4 6611   0.106   0.002  14.905  0.6932 -0.4336 -0.5952
  440MPD2    C5 6612   4.705   0.006  14.890  0.5214  0.0491 -0.1308
  440MPD2     H 6613   0.136   0.282  15.085  0.6821 -0.8929  0.9153
  440MPD2    H1 6614   0.162   4.668  14.849  0.2224 -1.3891  0.1867
  440MPD2    H2 6615   4.531   0.110  14.901  0.4741 -1.8682  0.3813
  440MPD2    H3 6616   4.661   4.673  14.823  0.0357 -0.2811  0.5384
  440MPD2     N 6617   0.306   0.083  15.010  0.4480 -0.0369 -1.1317
  440MPD2    H5 6618   0.356   4.736  14.997 -2.4778 -1.7540 -1.0363
  440MPD2    N1 6619   4.622   0.333  15.032  0.4426 -0.5611  0.5905
  440MPD2    H7 6620   4.529   0.341  14.991  0.7087 -1.2858 -0.1638
  441TMC3    C1 6621   0.527   0.127  15.061 -1.1012 -0.5229  0.1369
  441TMC3    C2 6622   0.626   0.217  15.077  0.4714  0.1365 -0.0540
  441TMC3    C3 6623   0.734   0.199  15.152 -0.3023 -0.7507  0.4323
  441TMC3    C4 6624   0.538   0.004  15.122  0.0360 -0.2153  0.1598
  441TMC3    C5 6625   0.645   4.729  15.204 -0.2420 -0.6910  0.2091
  441TMC3    C6 6626   0.739   0.084  15.217 -0.3517 -0.2384 -0.0540
  441TMC3     C 6627   0.391   0.179  15.055 -0.1441  0.8352  0.2826
  441TMC3     O 6628   0.380   0.299  15.064  0.2245  0.2680  0.2370
  441TMC3     H 6629   0.621   0.310  15.020  0.5721  0.2210  0.0743
  441TMC3    H1 6630   0.462   4.667  15.120 -1.2743  1.0227  3.2758
  441TMC3    H2 6631   0.820   0.072  15.289  0.3467  1.5208 -0.5393
  441TMC3    C7 6632   0.643   4.604  15.277 -0.4057  0.3323  0.1660
  441TMC3    C8 6633   0.763   0.309  15.248 -0.1222 -1.1876 -0.1756
  441TMC3    O1 6634   0.562   4.522  15.248 -0.4172 -0.1382  0.4176
  441TMC3    O2 6635   0.869   0.308  15.306  0.4780 -0.5198 -0.4354
  442MPD2     C 6636   3.282   0.247  16.437 -0.0045 -0.3379  0.1761
  442MPD2    C1 6637   3.165   0.175  16.472 -0.0426  0.3846 -0.0807
  442MPD2    C2 6638   3.109   0.087  16.384  0.1484  0.5081 -0.9152
  442MPD2    C3 6639   3.165   0.070  16.262 -0.7781  0.0674  0.2195
  442MPD2    C4 6640   3.282   0.136  16.227  0.4857 -0.4463 -0.0603
  442MPD2    C5 6641   3.341   0.220  16.317 -0.4011 -0.3275 -0.0971
  442MPD2     H 6642   3.027   0.023  16.414 -2.5769  2.7939 -3.4598
  442MPD2    H1 6643   3.324   0.130  16.127  0.7255 -1.6729  0.1122
  442MPD2    H2 6644   3.322   0.324  16.503  0.0657 -1.2066  1.1359
  442MPD2    H3 6645   3.417   0.288  16.282 -1.4751  1.4053  0.9525
  442MPD2     N 6646   3.117   4.720  16.162  0.0384 -0.1154 -0.4090
  442MPD2    H5 6647   3.171   4.721  16.076  1.5481  3.6507  0.5777
  442MPD2    N1 6648   3.093   0.197  16.591 -0.2694  0.0564 -0.5123
  442MPD2    H7 6649   3.017   0.133  16.610 -0.1989  0.5073  1.2779
  443TMC3    C1 6650   3.029   0.297  16.798 -0.3518  0.8550 -0.7595
  443TMC3    C2 6651   2.967   0.412  16.835 -0.2236  0.0412 -0.5012
  443TMC3    C3 6652   2.840   0.406  16.887  0.6307  0.0386 -0.1293
  443TMC3    C4 6653   2.978   0.173  16.832 -0.5512 -0.3107  1.0129
  443TMC3    C5 6654   2.871   0.170  16.914 -1.0306  0.7982 -0.9079
  443TMC3    C6 6655   2.794   0.285  16.934 -0.4340  0.4840  0.1591
  443TMC3     C 6656   3.111   0.304  16.679  0.8761  0.8232 -0.0899
  443TMC3     O 6657   3.176   0.407  16.662  0.3493  0.4879 -0.5207
  443TMC3     H 6658   3.009   0.506  16.801  1.4624 -0.6076 -0.1690
  443TMC3    H1 6659   3.021   0.083  16.788 -0.0801  0.7213 -0.6202
  443TMC3    H2 6660   2.690   0.273  16.961 -0.5332  1.3983  0.1892
  443TMC3    C7 6661   2.824   0.040  16.940  0.1504 -0.0673 -0.4716
  443TMC3    C8 6662   2.742   0.453  16.787  0.4255  0.3813  0.2657
  443TMC3    O1 6663   2.846   4.698  16.854 -0.0121 -0.5868 -0.1721
  443TMC3    O2 6664   2.647   0.377  16.752  0.0499 -0.0813  0.0772
  444MPD2     C 6665   3.270   0.022  16.922 -0.0079  0.2121 -0.0855
  444MPD2    C1 6666   3.210   4.633  16.910  0.9959  0.4643  0.2636
  444MPD2    C2 6667   3.199   4.572  16.784 -0.2880  0.2669 -0.0596
  444MPD2    C3 6668   3.261   4.629  16.671  0.3261  0.3558 -0.2741
  444MPD2    C4 6669   3.325   0.010  16.691  0.1702 -0.6971 -0.3309
  444MPD2    C5 6670   3.328   0.077  16.809 -0.0726 -0.9865  0.9090
  444MPD2     H 6671   3.142   4.480  16.773  0.6693 -0.1207 -1.8178
  444MPD2    H1 6672   3.382   0.049  16.608  0.7367 -0.2897  0.2501
  444MPD2    H2 6673   3.273   0.077  17.016 -1.0261  0.1695 -0.0246
  444MPD2    H3 6674   3.393   0.164  16.816 -1.3428  0.0539 -0.0498
  444MPD2     N 6675   3.286   4.566  16.539 -0.0798 -0.7074 -0.1120
  444MPD2    H5 6676   3.350   4.618  16.479 -0.7430  1.1501  0.7788
  444MPD2    N1 6677   3.146   4.580  17.019  0.4213 -0.4561 -0.3332
  444MPD2    H7 6678   3.118   4.483  17.010 -0.5725 -0.3013  1.0326
  445TMC3    C1 6679   3.257   4.426  16.350  0.2249  0.0824  0.1754
  445TMC3    C2 6680   3.167   4.350  16.284  0.2617 -0.6926 -0.6465
  445TMC3    C3 6681   3.209   4.256  16.193 -0.0475 -0.5456 -0.2745
  445TMC3    C4 6682   3.393   4.402  16.352 -0.4733 -0.3627  0.1530
  445TMC3    C5 6683   3.433   4.306  16.267  0.2600  0.4297  0.3751
  445TMC3    C6 6684   3.347   4.232  16.188 -0.0817  0.1573  0.0801
  445TMC3     C 6685   3.228   4.456  16.489 -0.1912  1.5349  0.1237
  445TMC3     O 6686   3.155   4.373  16.543  0.7410  0.1338 -0.2796
  445TMC3     H 6687   3.063   4.378  16.276  0.5654  1.6283  3.2501
  445TMC3    H1 6688   3.466   4.453  16.414 -2.4227  0.3290  1.8456
  445TMC3    H2 6689   3.375   4.167  16.106  0.1689  2.0787 -1.3413
  445TMC3    C7 6690   3.572   4.266  16.278  0.1770 -0.3700  0.3050
  445TMC3    C8 6691   3.112   4.185  16.116 -0.4459  0.3219  0.0747
  445TMC3    O1 6692   3.651   4.353  16.315 -0.2923 -0.0173 -0.4827
  445TMC3    O2 6693   2.993   4.215  16.122 -0.3787  0.2825  0.4050
  446MPD2     C 6694   2.454   1.299  11.514 -0.4873  0.4347 -0.2392
  446MPD2    C1 6695   2.439   1.330  11.381  0.4598 -0.6939  0.6682
  446MPD2    C2 6696   2.526   1.420  11.331 -0.1867 -0.1273  0.1656
  446MPD2    C3 6697   2.636   1.462  11.396  0.4225 -0.6534 -0.2653
  446MPD2    C4 6698   2.645   1.436  11.528  0.0158  0.0132 -1.0404
  446MPD2    C5 6699   2.555   1.351  11.579  1.3189 -0.1111 -0.5826
  446MPD2     H 6700   2.501   1.460  11.234  0.3722 -1.4368 -0.5322
  446MPD2    H1 6701   2.729   1.469  11.588  0.2665 -0.7327 -0.9865
  446MPD2    H2 6702   2.383   1.232  11.561  1.7828 -2.7926 -1.4404
  446MPD2    H3 6703   2.558   1.318  11.682  2.3555  0.4742 -0.4219
  446MPD2     N 6704   2.727   1.547  11.331  0.1621 -0.0869  0.7331
  446MPD2    H5 6705   2.695   1.589  11.245 -1.8551 -2.3696  0.3523
  446MPD2    N1 6706   2.343   1.270  11.294  0.0786  0.1866  0.4674
  446MPD2    H7 6707   2.357   1.288  11.195  0.5648  3.1397  1.0647
  447TMC3    C1 6708   2.900   1.701  11.305 -0.0125  0.1149 -0.3185
  447TMC3    C2 6709   2.822   1.742  11.194  0.0301  0.1665 -0.6919
  447TMC3    C3 6710   2.890   1.785  11.088  0.2860  0.3315  0.5848
  447TMC3    C4 6711   3.035   1.720  11.319 -0.1474 -0.3175 -0.0024
  447TMC3    C5 6712   3.106   1.768  11.211 -0.6489  0.4374  0.4579
  447TMC3    C6 6713   3.035   1.788  11.095 -0.2751  0.3874 -0.3097
  447TMC3     C 6714   2.848   1.582  11.378 -0.5448  0.6517 -0.9973
  447TMC3     O 6715   2.922   1.546  11.469 -0.1654  0.1338  0.5141
  447TMC3     H 6716   2.713   1.749  11.196  0.0852  0.7569  0.8674
  447TMC3    H1 6717   3.096   1.683  11.401 -1.7783 -0.7692  0.9997
  447TMC3    H2 6718   3.086   1.833  11.011 -0.8873  1.5359 -0.0702
  447TMC3    C7 6719   3.249   1.748  11.208 -0.0786  0.0873  0.2649
  447TMC3    C8 6720   2.817   1.819  10.963 -0.4213  0.0639  0.6342
  447TMC3    O1 6721   3.299   1.733  11.099 -0.2140 -0.0102 -0.0599
  447TMC3    O2 6722   2.696   1.808  10.975 -0.0505  0.4286  0.2235
  448TMC3    C1 6723   1.212   1.151  17.171  0.2176 -0.5976  0.5313
  448TMC3    C2 6724   1.248   1.019  17.170  1.2407 -0.9631  0.3901
  448TMC3    C3 6725   1.268   0.953  17.287  0.1771 -0.0759  0.9375
  448TMC3    C4 6726   1.213   1.218  17.292 -0.1839 -0.0986  0.6385
  448TMC3    C5 6727   1.220   1.151  17.407 -0.3975  0.5102 -0.2036
  448TMC3    C6 6728   1.255   1.013  17.411  0.2190  0.3474 -0.6656
  448TMC3     C 6729   1.259   1.230  17.058  0.0264  0.1642  0.4893
  448TMC3     O 6730   1.306   1.341  17.088 -0.1062  0.1635  0.6357
  448TMC3     H 6731   1.257   0.957  17.082 -0.4776 -1.3168  0.4671
  448TMC3    H1 6732   1.189   1.324  17.295  0.6816  0.1738 -2.9434
  448TMC3    H2 6733   1.258   0.963  17.507 -1.4845  0.2072 -0.6848
  448TMC3    C7 6734   1.196   1.215  17.536  0.0882  0.8703  0.1703
  448TMC3    C8 6735   1.345   0.827  17.268  0.1921 -0.1314  0.0552
  448TMC3    O1 6736   1.203   1.337  17.549  0.7074  0.1285 -0.8760
  448TMC3    O2 6737   1.305   0.754  17.177 -0.2613  0.5502  0.2881
  449MPD2     C 6738   2.282   3.956  13.796  0.5489  0.8184  0.2994
  449MPD2    C1 6739   2.238   4.084  13.824 -0.1613 -0.0256  0.0743
  449MPD2    C2 6740   2.104   4.110  13.862 -0.1232  0.2727 -0.4307
  449MPD2    C3 6741   2.025   4.004  13.892  0.4417 -0.1136 -0.5116
  449MPD2    C4 6742   2.070   3.872  13.874  0.1236  0.1725  0.6727
  449MPD2    C5 6743   2.199   3.849  13.829  0.3027 -0.2187  0.1037
  449MPD2     H 6744   2.064   4.210  13.878  0.1301 -0.1255  2.6997
  449MPD2    H1 6745   1.999   3.792  13.894  2.0282 -1.1798  1.9761
  449MPD2    H2 6746   2.379   3.938  13.752  0.3192 -0.9219  0.5259
  449MPD2    H3 6747   2.238   3.750  13.811  0.2158 -0.3219  0.4822
  449MPD2     N 6748   1.895   4.038  13.943  0.2188  0.1656 -0.0915
  449MPD2    H5 6749   1.871   4.137  13.944 -0.8771 -0.1123  0.8770
  449MPD2    N1 6750   2.311   4.199  13.791  0.0880 -0.1683  0.2735
  449MPD2    H7 6751   2.265   4.289  13.798  1.7732  0.6988  0.1958
  450TMC3    C1 6752   2.470   4.348  13.731  0.7429  0.5109 -0.3849
  450TMC3    C2 6753   2.489   4.379  13.597  0.5970  0.6195 -0.0001
  450TMC3    C3 6754   2.418   4.491  13.556  0.2613 -0.7485 -0.2198
  450TMC3    C4 6755   2.397   4.431  13.815  0.4381 -0.0265 -0.4126
  450TMC3    C5 6756   2.328   4.542  13.764  0.4622 -0.5992  0.8657
  450TMC3    C6 6757   2.342   4.575  13.634  0.2443  0.7740 -0.4678
  450TMC3     C 6758   2.439   4.206  13.751  0.3136 -0.2969  0.2903
  450TMC3     O 6759   2.507   4.124  13.694 -0.0308  0.3811 -0.7413
  450TMC3     H 6760   2.530   4.307  13.527 -0.5433 -0.4849  0.4603
  450TMC3    H1 6761   2.381   4.398  13.917  0.4798  1.9383  0.2281
  450TMC3    H2 6762   2.277   4.646  13.585  1.6153  1.0673 -1.8465
  450TMC3    C7 6763   2.191   4.542  13.813  0.1771  0.2976 -0.2863
  450TMC3    C8 6764   2.476   4.565  13.442  0.5294  0.5307 -0.3297
  450TMC3    O1 6765   2.161   4.443  13.882  0.4047 -0.1429 -0.0728
  450TMC3    O2 6766   2.400   4.647  13.392  0.0670 -0.5192  0.1860
  451MPD2     C 6767   4.367   3.032   1.023  0.4530 -0.5152  0.0217
  451MPD2    C1 6768   4.358   2.899   1.066  0.4296  0.2564 -0.0415
  451MPD2    C2 6769   4.395   2.799   0.981 -0.3705  0.5149 -0.1346
  451MPD2    C3 6770   4.440   2.822   0.850  0.0481 -0.7016 -0.5470
  451MPD2    C4 6771   4.450   2.955   0.810 -0.1165  0.8233 -0.8093
  451MPD2    C5 6772   4.416   3.061   0.896 -0.5938 -0.2501  0.3393
  451MPD2     H 6773   4.385   2.694   1.006  0.5871  0.4355 -0.1200
  451MPD2    H1 6774   4.489   2.974   0.710 -0.2982  1.7882 -0.6969
  451MPD2    H2 6775   4.349   3.113   1.094 -2.8185 -3.4576  2.5601
  451MPD2    H3 6776   4.440   3.164   0.872 -2.9000  0.7058  2.1618
  451MPD2     N 6777   4.472   2.715   0.751  0.0563 -0.4443 -0.2455
  451MPD2    H5 6778   4.508   2.750   0.663 -0.0278  1.0338  0.3112
  451MPD2    N1 6779   4.301   2.868   1.192 -0.3360 -0.1686 -0.1707
  451MPD2    H7 6780   4.245   2.939   1.238  0.2585  0.3442 -0.2492
  452TMC3    C1 6781   4.501   2.499   0.668 -0.5087  0.3911 -0.0100
  452TMC3    C2 6782   4.423   2.384   0.674  0.7879  0.3965  0.1125
  452TMC3    C3 6783   4.403   2.313   0.557  0.1102  0.6474  0.0048
  452TMC3    C4 6784   4.559   2.538   0.549  0.5181  0.0204 -0.0556
  452TMC3    C5 6785   4.534   2.462   0.437  0.9026 -0.0348 -0.5067
  452TMC3    C6 6786   4.466   2.345   0.443  0.1618 -0.4794  0.0334
  452TMC3     C 6787   4.483   2.582   0.783  0.2477  0.8973  0.0063
  452TMC3     O 6788   4.469   2.529   0.892 -0.0671 -0.3442 -0.1243
  452TMC3     H 6789   4.382   2.351   0.769 -1.0049  2.2890 -0.0016
  452TMC3    H1 6790   4.614   2.631   0.545 -1.1246  0.9643 -0.6457
  452TMC3    H2 6791   4.436   2.293   0.353 -0.4233 -0.5048  0.2470
  452TMC3    C7 6792   4.529   2.533   0.313 -0.2519  0.0812 -0.3828
  452TMC3    C8 6793   4.287   2.228   0.548 -0.4563  0.3590 -0.3939
  452TMC3    O1 6794   4.521   2.657   0.314  0.2481  0.4412  0.4927
  452TMC3    O2 6795   4.252   2.191   0.437  0.1990 -0.0212  0.0135
  453TMC3    C1 6796   4.740   0.325  11.496  0.1681 -0.5215 -0.0134
  453TMC3    C2 6797   4.697   0.197  11.507  0.5180 -0.3117 -0.3297
  453TMC3    C3 6798   4.587   0.152  11.439  0.0274  1.4084 -0.2149
  453TMC3    C4 6799   4.671   0.408  11.409  0.4977 -0.6408  0.0082
  453TMC3    C5 6800   4.559   0.364  11.336  0.3580 -0.0844  1.1509
  453TMC3    C6 6801   4.518   0.231  11.349  0.4139  0.2238 -0.1459
  453TMC3     C 6802   0.100   0.385  11.585  0.1399 -0.9623 -0.1482
  453TMC3     O 6803   0.158   0.306  11.661 -0.2612 -0.4269 -0.4289
  453TMC3     H 6804   4.735   0.135  11.588  2.2106  0.3100 -0.6489
  453TMC3    H1 6805   4.709   0.508  11.392  1.5138 -1.3881 -2.1879
  453TMC3    H2 6806   4.445   0.187  11.282 -1.6461  1.7079  1.1185
  453TMC3    C7 6807   4.504   0.445  11.223 -1.0946  0.2019  0.0733
  453TMC3    C8 6808   4.562   0.009  11.438  0.3579  0.1012 -0.3323
  453TMC3    O1 6809   4.426   0.395  11.142 -0.1510 -0.0820  0.5369
  453TMC3    O2 6810   4.658   4.678  11.462  0.6448 -0.1574  0.0847
  454MPD2     C 6811   4.047   4.272  15.838 -0.1617  0.0265 -0.1132
  454MPD2    C1 6812   3.971   4.358  15.760 -0.1840 -0.1837 -0.4007
  454MPD2    C2 6813   3.928   4.473  15.817 -0.4387  0.1407 -0.5672
  454MPD2    C3 6814   3.956   4.502  15.955  0.3213  0.2534  0.2731
  454MPD2    C4 6815   4.031   4.413  16.027  0.0293  0.7053  0.0473
  454MPD2    C5 6816   4.082   4.305  15.969  0.4114  0.2090  0.0461
  454MPD2     H 6817   3.879   4.547  15.754  0.4224 -1.6707 -3.3555
  454MPD2    H1 6818   4.054   4.447  16.128  0.4956  0.5809 -0.0143
  454MPD2    H2 6819   4.084   4.177  15.800 -0.3878 -0.1127  0.0213
  454MPD2    H3 6820   4.140   4.228  16.019  1.5832  2.0518  1.4918
  454MPD2     N 6821   3.902   4.613  16.023 -0.2187 -0.1892  0.1712
  454MPD2    H5 6822   3.906   4.609  16.125  0.4702 -0.6708  0.1300
  454MPD2    N1 6823   3.921   4.329  15.629 -0.0985 -0.2184  0.9807
  454MPD2    H7 6824   3.855   4.392  15.585 -0.7587 -0.0769  2.1669
  455TMC3    C1 6825   3.745   0.042  16.041 -0.5026 -0.2696 -0.8312
  455TMC3    C2 6826   3.767   0.028  16.175 -0.0096 -0.0921  0.2097
  455TMC3    C3 6827   3.654   4.721  16.247  0.5681 -0.1115  0.5813
  455TMC3    C4 6828   3.623   4.739  15.984 -0.5824  0.3857  0.0580
  455TMC3    C5 6829   3.517   4.698  16.055 -0.1920  0.4064 -0.1441
  455TMC3    C6 6830   3.537   4.686  16.195  0.2476  0.0509  0.4151
  455TMC3     C 6831   3.843   4.721  15.959 -0.2286 -0.4045 -0.3830
  455TMC3     O 6832   3.836   0.011  15.842 -0.3758  0.0012 -0.2689
  455TMC3     H 6833   3.865   0.045  16.217  0.3296 -3.5431  0.7661
  455TMC3    H1 6834   3.618   4.732  15.876 -0.4894  2.6204 -0.0786
  455TMC3    H2 6835   3.459   4.631  16.248  0.4610  0.3648  1.0575
  455TMC3    C7 6836   3.458   4.582  15.998  0.0201  0.3513 -0.4074
  455TMC3    C8 6837   3.651   0.000  16.393 -0.1351 -0.0586 -0.1697
  455TMC3    O1 6838   3.338   4.560  16.002  0.0158  0.1134 -0.5410
  455TMC3    O2 6839   3.571   4.685  16.463 -0.6370  0.2231  0.3264
  456MPD2     C 6840   1.470   4.644  16.208 -0.2985 -0.1023 -0.2727
  456MPD2    C1 6841   1.592   4.616  16.251 -0.2180 -0.5147  0.2040
  456MPD2    C2 6842   1.629   4.643  16.382  0.6629 -0.4246  0.4068
  456MPD2    C3 6843   1.532   4.682  16.468 -0.4590 -0.7805 -0.0258
  456MPD2    C4 6844   1.406   4.713  16.423  0.1271  0.3672  0.1261
  456MPD2    C5 6845   1.376   4.696  16.289 -0.1395 -1.0023  0.3096
  456MPD2     H 6846   1.729   4.624  16.420  0.6725  1.1279  1.1736
  456MPD2    H1 6847   1.330   0.014  16.488 -0.5709  0.1126 -0.5342
  456MPD2    H2 6848   1.440   4.606  16.111  2.7950 -2.4960 -0.2880
  456MPD2    H3 6849   1.274   4.710  16.254 -0.5912  0.4569  2.1411
  456MPD2     N 6850   1.582   4.725  16.592  0.1669 -0.1042  0.2335
  456MPD2    H5 6851   1.678   4.701  16.615  0.0758 -1.6256 -0.9976
  456MPD2    N1 6852   1.681   4.549  16.162  0.1280  0.3087 -0.2398
  456MPD2    H7 6853   1.637   4.523  16.074 -0.2310  0.5785 -0.1414
  457TMC3    C1 6854   1.591   0.102  16.798 -0.2840  0.1750  0.3292
  457TMC3    C2 6855   1.569   0.226  16.844  0.5959 -0.3449  0.0222
  457TMC3    C3 6856   1.653   0.279  16.938  0.1286 -0.1732  0.5890
  457TMC3    C4 6857   1.690   0.017  16.844  0.0454  0.2663 -0.8136
  457TMC3    C5 6858   1.765   0.075  16.934  0.4202  0.0445 -0.2770
  457TMC3    C6 6859   1.743   0.195  16.993 -0.4522 -0.6464  0.3515
  457TMC3     C 6860   1.510   0.068  16.676  0.4188 -0.4487  0.5763
  457TMC3     O 6861   1.408   0.128  16.660  0.1106  0.0218  1.1659
  457TMC3     H 6862   1.478   0.278  16.814 -0.3172 -1.6114  0.5768
  457TMC3    H1 6863   1.707   4.655  16.811  1.3387  0.6095 -1.2163
  457TMC3    H2 6864   1.800   0.226  17.079  1.5545 -1.5205 -0.6674
  457TMC3    C7 6865   1.843   4.725  17.019 -0.2530  0.1688  0.0097
  457TMC3    C8 6866   1.600   0.388  17.036 -0.5875 -0.3592  0.0974
  457TMC3    O1 6867   1.772   4.640  17.079  0.7059 -1.0091 -0.2626
  457TMC3    O2 6868   1.479   0.412  17.024 -0.1866 -0.0898 -0.1495
  458MPD2     C 6869   3.375   4.349  12.652  0.2409 -0.0339 -0.4094
  458MPD2    C1 6870   3.425   4.239  12.719 -0.2532 -0.2920 -0.1543
  458MPD2    C2 6871   3.360   4.121  12.697  0.4867 -0.8727 -1.1416
  458MPD2    C3 6872   3.241   4.109  12.618  1.1475  0.4028 -0.3573
  458MPD2    C4 6873   3.195   4.219  12.563  0.0120  0.5405 -0.2214
  458MPD2    C5 6874   3.263   4.333  12.574 -0.0955 -0.2209 -0.7439
  458MPD2     H 6875   3.411   4.032  12.732  1.1862  0.0741  0.2448
  458MPD2    H1 6876   3.096   4.229  12.521  0.2244  1.9599 -0.4056
  458MPD2    H2 6877   3.421   4.446  12.666  2.7112 -1.3650  0.9085
  458MPD2    H3 6878   3.218   4.423  12.532  1.2633  0.9641  0.3562
  458MPD2     N 6879   3.187   3.984  12.600 -0.3352 -0.4626 -0.3390
  458MPD2    H5 6880   3.224   3.905  12.653 -0.5527  0.2167  0.8014
  458MPD2    N1 6881   3.545   4.256  12.795  0.5013 -0.7145 -0.3836
  458MPD2    H7 6882   3.580   4.351  12.789  1.8271 -1.1535  0.4008
  459TMC3    C1 6883   3.758   4.211  12.872 -0.4178 -0.3746  0.3888
  459TMC3    C2 6884   3.817   4.297  12.782 -1.0852  0.5181 -0.4251
  459TMC3    C3 6885   3.948   4.331  12.790  0.1700 -0.8831 -0.2209
  459TMC3    C4 6886   3.831   4.152  12.968  1.0190 -0.3226  0.2181
  459TMC3    C5 6887   3.964   4.189  12.980  0.3542 -0.0441 -1.0915
  459TMC3    C6 6888   4.029   4.283  12.891 -0.2450  0.0804  0.3823
  459TMC3     C 6889   3.629   4.162  12.846  0.1669  1.0760 -0.4754
  459TMC3     O 6890   3.600   4.049  12.883  0.0924  0.6928 -0.2463
  459TMC3     H 6891   3.759   4.343  12.702  0.6560  0.4156 -1.7470
  459TMC3    H1 6892   3.775   4.085  13.032  2.9531  0.4054  2.6803
  459TMC3    H2 6893   4.133   4.312  12.901 -0.2637 -0.1361  1.2049
  459TMC3    C7 6894   4.039   4.114  13.079  0.4835  0.2196  0.9668
  459TMC3    C8 6895   4.011   4.384  12.671 -0.3431 -0.8037  0.1536
  459TMC3    O1 6896   4.002   3.997  13.096 -0.2844  0.1346  0.0634
  459TMC3    O2 6897   4.127   4.411  12.697  0.6516 -0.3062 -0.2120
  460MPD2     C 6898   2.941   1.953  10.641 -0.0749 -0.2984  0.3222
  460MPD2    C1 6899   2.849   1.918  10.731 -0.3266  0.4410 -0.0640
  460MPD2    C2 6900   2.720   1.938  10.697 -0.0861 -0.1477 -0.6857
  460MPD2    C3 6901   2.684   2.026  10.596  0.6457 -0.5578 -0.1355
  460MPD2    C4 6902   2.784   2.076  10.514  0.3602 -0.3514  0.4470
  460MPD2    C5 6903   2.908   2.021  10.528  0.3810 -0.7798 -0.5618
  460MPD2     H 6904   2.640   1.911  10.765 -0.5138  3.2028  0.1668
  460MPD2    H1 6905   2.770   2.137  10.426  1.7465 -0.1876  0.3403
  460MPD2    H2 6906   3.047   1.938  10.660 -0.1849 -0.8150  0.5037
  460MPD2    H3 6907   2.984   2.052  10.458  0.8645 -1.2073 -0.2326
  460MPD2     N 6908   2.547   2.048  10.563  0.2020 -0.2686  0.0137
  460MPD2    H5 6909   2.470   1.992  10.596  0.7618 -0.5305  0.8747
  460MPD2    N1 6910   2.894   1.859  10.855  0.1456  0.0896 -0.3630
  460MPD2    H7 6911   2.994   1.869  10.870 -0.0149  1.1836 -0.0442
  461TMC3    C1 6912   2.385   2.139  10.421 -0.3101 -0.4175  0.2199
  461TMC3    C2 6913   2.334   2.013  10.390  0.5821 -0.2429  0.2142
  461TMC3    C3 6914   2.241   2.005  10.292  0.2853 -0.9663 -0.8067
  461TMC3    C4 6915   2.354   2.250  10.357 -0.2164  0.9856 -0.0700
  461TMC3    C5 6916   2.267   2.233  10.248 -0.4440  0.1057  0.5745
  461TMC3    C6 6917   2.208   2.114  10.211  0.0396  0.2945 -0.1209
  461TMC3     C 6918   2.513   2.145  10.472  0.3655 -0.1356 -0.0086
  461TMC3     O 6919   2.579   2.241  10.429  0.3170 -0.0249  0.1206
  461TMC3     H 6920   2.369   1.919  10.431  1.0580 -0.1852 -0.0545
  461TMC3    H1 6921   2.380   2.347  10.398  1.7340  0.5096 -0.1964
  461TMC3    H2 6922   2.126   2.105  10.140  0.3657  0.0695 -0.4655
  461TMC3    C7 6923   2.212   2.352  10.184 -0.1655  0.4128 -0.4945
  461TMC3    C8 6924   2.268   1.893  10.202 -0.7234 -0.5532  0.1611
  461TMC3    O1 6925   2.122   2.340  10.105  0.8327 -0.2241 -0.5653
  461TMC3    O2 6926   2.382   1.847  10.206 -0.4882 -0.4057 -0.5329
  462TMC3    C1 6927   3.807   2.200   1.060  0.6864 -1.1766  0.1860
  462TMC3    C2 6928   3.867   2.322   1.041  0.0133  0.0972 -0.1223
  462TMC3    C3 6929   3.820   2.407   0.941  0.8545 -0.9703 -0.2023
  462TMC3    C4 6930   3.692   2.178   0.988  0.2736 -0.9982 -0.0848
  462TMC3    C5 6931   3.652   2.261   0.888  0.3362  0.0012 -0.6180
  462TMC3    C6 6932   3.726   2.366   0.854  0.6296 -0.4810 -0.6723
  462TMC3     C 6933   3.844   2.100   1.160  0.0937  0.2153 -0.5155
  462TMC3     O 6934   3.764   2.015   1.190  0.1721  0.6990 -0.4903
  462TMC3     H 6935   3.953   2.345   1.102  0.8146  0.3692 -1.3511
  462TMC3    H1 6936   3.640   2.085   1.004 -0.2728 -0.6149  0.3576
  462TMC3    H2 6937   3.677   2.452   0.808  2.1677  0.1953 -1.0621
  462TMC3    C7 6938   3.567   2.198   0.783  0.3003  0.2205 -0.2992
  462TMC3    C8 6939   3.904   2.518   0.894  0.1000 -0.4443  0.8578
  462TMC3    O1 6940   3.538   2.079   0.786 -0.3548 -0.2286  0.3361
  462TMC3    O2 6941   3.978   2.580   0.971  0.2023  0.3854 -0.2370
  463MPD2     C 6942   0.081   0.376   1.440 -0.3188  0.7174 -0.0891
  463MPD2    C1 6943   4.726   0.472   1.473  0.5693 -0.4440 -0.4664
  463MPD2    C2 6944   0.025   0.589   1.534  0.9235 -0.0310  0.5064
  463MPD2    C3 6945   0.161   0.617   1.557 -0.3256  1.0027  0.1080
  463MPD2    C4 6946   0.254   0.521   1.521 -0.1523 -0.2378 -0.6281
  463MPD2    C5 6947   0.215   0.406   1.461 -0.2474 -0.2652 -0.1519
  463MPD2     H 6948   4.685   0.661   1.548 -0.7085 -1.6587 -0.6919
  463MPD2    H1 6949   0.354   0.549   1.550 -0.8815  1.1369  0.5891
  463MPD2    H2 6950   0.060   0.277   1.402 -0.6124  1.0567 -0.7996
  463MPD2    H3 6951   0.294   0.340   1.426 -0.1570 -0.4672  0.4286
  463MPD2     N 6952   0.206   0.743   1.602 -0.3038 -0.5566  0.7658
  463MPD2    H5 6953   0.304   0.750   1.626 -0.1822  0.7885 -0.1053
  463MPD2    N1 6954   4.586   0.452   1.452  0.8053 -0.5613 -0.1179
  463MPD2    H7 6955   4.533   0.519   1.508 -2.4607 -1.4222 -2.2073
  464TMC3    C1 6956   4.392   0.332   1.368 -0.0830 -0.4559  0.3753
  464TMC3    C2 6957   4.303   0.393   1.448  0.1906  0.3421 -0.4822
  464TMC3    C3 6958   4.172   0.356   1.447 -0.1870 -0.4465 -0.4449
  464TMC3    C4 6959   4.351   0.234   1.275  0.2189  0.5937 -0.2343
  464TMC3    C5 6960   4.216   0.204   1.266 -0.0982  0.2274  0.3708
  464TMC3    C6 6961   4.128   0.261   1.351  0.9728  0.5550 -0.9639
  464TMC3     C 6962   4.538   0.360   1.364 -0.7192 -0.3905  0.0587
  464TMC3     O 6963   4.600   0.297   1.276 -0.2471  0.1958  0.0623
  464TMC3     H 6964   4.327   0.490   1.490  1.9096 -0.3952  0.2666
  464TMC3    H1 6965   4.427   0.172   1.230 -0.5258 -0.3580 -0.1728
  464TMC3    H2 6966   4.024   0.230   1.348  0.8149  0.9674  0.2887
  464TMC3    C7 6967   4.176   0.108   1.171  0.1534 -0.2214  0.6071
  464TMC3    C8 6968   4.079   0.453   1.502 -0.0230 -0.2940  0.2067
  464TMC3    O1 6969   4.264   0.031   1.125 -0.0498 -0.1832  0.8554
  464TMC3    O2 6970   4.114   0.571   1.503  0.1614 -0.4073  0.5129
  465MPD2     C 6971   0.609   4.314  16.672 -0.3250  0.3142  0.0285
  465MPD2    C1 6972   0.526   4.382  16.751 -1.2149  0.5850  0.2853
  465MPD2    C2 6973   0.433   4.460  16.684  0.0358 -0.7665 -0.5374
  465MPD2    C3 6974   0.423   4.479  16.552  0.2289  0.7084  0.4284
  465MPD2    C4 6975   0.508   4.398  16.472  0.7878 -0.2798  0.1883
  465MPD2    C5 6976   0.594   4.319  16.534  0.1424  0.3580  0.1156
  465MPD2     H 6977   0.365   4.517  16.747  1.1385 -0.7257  0.6139
  465MPD2    H1 6978   0.498   4.385  16.365 -1.3021  1.1975  0.2187
  465MPD2    H2 6979   0.698   4.258  16.699 -0.2939  1.1572  1.6540
  465MPD2    H3 6980   0.657   4.247  16.483  1.2052 -0.8897  3.1321
  465MPD2     N 6981   0.335   4.579  16.505  0.6482  0.0449  0.5330
  465MPD2    H5 6982   0.270   4.628  16.566 -1.3879 -0.3702 -1.3153
  465MPD2    N1 6983   0.519   4.388  16.893  0.4178 -0.3075  0.1569
  465MPD2    H7 6984   0.438   4.430  16.940  0.4039 -0.7949  0.5692
  466TMC3    C1 6985   0.030   0.076  16.400  0.1704 -0.0638  0.6640
  466TMC3    C2 6986   0.068   0.194  16.333  0.4901  0.1962  0.3302
  466TMC3    C3 6987   0.194   0.200  16.275  0.0756  0.2696 -0.2339
  466TMC3    C4 6988   0.124   4.712  16.420  0.2424 -0.7311 -0.0413
  466TMC3    C5 6989   0.243   4.727  16.355  0.5132  0.6197 -0.6544
  466TMC3    C6 6990   0.280   0.094  16.287  0.1903  0.7505  0.4422
  466TMC3     C 6991   4.670   0.075  16.503  0.2943 -0.1026  0.2043
  466TMC3     O 6992   4.678   4.728  16.588  0.1923 -0.5647 -0.2003
  466TMC3     H 6993   0.005   0.282  16.328 -1.0120 -0.8739  0.6550
  466TMC3    H1 6994   0.096   4.615  16.460 -0.4719  1.3001  4.4201
  466TMC3    H2 6995   0.381   0.107  16.250  0.3237 -0.7060  0.2757
  466TMC3    C7 6996   0.337   4.620  16.372 -0.9140  0.0582 -0.1413
  466TMC3    C8 6997   0.244   0.321  16.233  0.0156 -0.0562  0.1927
  466TMC3    O1 6998   0.424   4.610  16.290 -0.5682 -0.6981 -0.8136
  466TMC3    O2 6999   0.326   0.326  16.141 -0.0326  0.3205  0.2959
  467TMC3    C1 7000   1.596   3.633  13.797  0.5650 -0.3070  0.7255
  467TMC3    C2 7001   1.659   3.754  13.765  0.3396  0.1549  0.3193
  467TMC3    C3 7002   1.589   3.839  13.678 -0.1453  0.9690 -0.4424
  467TMC3    C4 7003   1.478   3.599  13.750 -0.0197  0.4830  0.2872
  467TMC3    C5 7004   1.405   3.694  13.681  0.0475 -0.3815  0.0158
  467TMC3    C6 7005   1.459   3.813  13.651 -0.0527  0.2783  0.2231
  467TMC3     C 7006   1.697   3.525  13.825 -0.0065 -0.6003  0.7239
  467TMC3     O 7007   1.660   3.411  13.805 -0.3452 -0.1305 -0.3251
  467TMC3     H 7008   1.765   3.768  13.787 -0.1336  0.0079  2.7373
  467TMC3    H1 7009   1.442   3.497  13.756 -1.7155  1.1755  2.1961
  467TMC3    H2 7010   1.409   3.886  13.589 -1.7806 -0.9802  0.1303
  467TMC3    C7 7011   1.269   3.665  13.631  0.4656  0.6752  0.0824
  467TMC3    C8 7012   1.639   3.968  13.642 -0.3360  0.5398 -0.9078
  467TMC3    O1 7013   1.245   3.724  13.524 -0.2703  0.4355  0.0973
  467TMC3    O2 7014   1.559   4.060  13.649  0.1345  0.5715 -0.1874
  468MPD2     C 7015   4.251   1.337  10.363 -0.4309  0.2448 -0.1664
  468MPD2    C1 7016   4.347   1.400  10.451  0.2812  0.2566 -0.5423
  468MPD2    C2 7017   4.458   1.334  10.501  0.2443 -0.3383 -0.3129
  468MPD2    C3 7018   4.472   1.195  10.467 -0.3734 -0.1864 -0.7468
  468MPD2    C4 7019   4.383   1.134  10.380  0.2870  0.1383  0.0552
  468MPD2    C5 7020   4.280   1.204  10.330 -0.4424 -0.6926 -0.0726
  468MPD2     H 7021   4.520   1.389  10.571 -0.5495 -0.5309  0.5595
  468MPD2    H1 7022   4.398   1.031  10.351  0.7294 -0.4520  2.4357
  468MPD2    H2 7023   4.159   1.384  10.332 -0.5700  0.7281  0.9500
  468MPD2    H3 7024   4.213   1.153  10.262 -0.2373  1.1463 -1.6342
  468MPD2     N 7025   4.576   1.111  10.520 -0.8342  0.1869  0.0383
  468MPD2    H5 7026   4.570   1.013  10.497  0.6253 -0.1853  1.2428
  468MPD2    N1 7027   4.338   1.539  10.481  0.0161  0.4536 -0.0070
  468MPD2    H7 7028   4.423   1.571  10.527  0.7181 -1.4813  0.0726
  469TMC3    C1 7029   4.278   1.762  10.471 -0.2537 -0.1043 -0.4585
  469TMC3    C2 7030   4.403   1.804  10.438  0.8117 -0.4428 -0.2661
  469TMC3    C3 7031   4.447   1.925  10.476 -0.0759 -0.3590  0.9009
  469TMC3    C4 7032   4.189   1.849  10.533 -0.5615  0.3021  0.4751
  469TMC3    C5 7033   4.241   1.977  10.568 -0.1852 -0.0705  0.7663
  469TMC3    C6 7034   4.371   2.016  10.542 -0.2462 -0.1497  0.2576
  469TMC3     C 7035   4.234   1.624  10.451  0.3790 -0.1578  0.2142
  469TMC3     O 7036   4.116   1.594  10.447 -0.5999 -0.4786 -0.2430
  469TMC3     H 7037   4.467   1.731  10.389  2.1654  0.0747  0.7199
  469TMC3    H1 7038   4.089   1.818  10.562 -1.7376  0.3280 -3.4851
  469TMC3    H2 7039   4.406   2.117  10.561 -1.7428  0.2383  0.8906
  469TMC3    C7 7040   4.144   2.067  10.633 -0.4671  0.5439 -0.5000
  469TMC3    C8 7041   4.593   1.927  10.487  0.9659  0.0652  1.1402
  469TMC3    O1 7042   4.024   2.054  10.620 -0.4877 -0.1628 -0.2184
  469TMC3    O2 7043   4.664   1.852  10.417  0.6776  0.3185 -0.3128
  470TMC3    C1 7044   2.452   2.244   0.203  0.0843  0.3560 -0.3915
  470TMC3    C2 7045   2.526   2.341   0.260  0.1228 -0.1757 -0.0260
  470TMC3    C3 7046   2.515   2.345   0.400 -0.7785  0.4458  0.0050
  470TMC3    C4 7047   2.370   2.163   0.269  0.5437  0.1606 -0.3129
  470TMC3    C5 7048   2.363   2.171   0.403  0.0004 -0.1424 -0.2515
  470TMC3    C6 7049   2.437   2.262   0.471  0.4134 -0.4263 -0.2341
  470TMC3     C 7050   2.458   2.242   0.057 -0.3638  0.6409  0.2786
  470TMC3     O 7051   2.532   2.324   0.009  0.0876 -0.0717  0.0065
  470TMC3     H 7052   2.582   2.418   0.209 -3.5296  0.8925 -2.3992
  470TMC3    H1 7053   2.303   2.093   0.221 -1.1338  0.9342  0.9481
  470TMC3    H2 7054   2.405   2.293   0.570  0.1256 -1.2894 -0.0590
  470TMC3    C7 7055   2.252   2.097   0.468 -0.2590 -1.5135  0.1924
  470TMC3    C8 7056   2.597   2.434   0.483 -0.6101  0.6165  1.0233
  470TMC3    O1 7057   2.149   2.071   0.404  0.6880 -0.5745 -0.1313
  470TMC3    O2 7058   2.635   2.372   0.585 -0.0440  0.2729 -0.2506
  471MPD2     C 7059   3.457   3.762  16.757  0.1078  0.5336 -0.0526
  471MPD2    C1 7060   3.422   3.629  16.751  0.1223  0.6129  1.3582
  471MPD2    C2 7061   3.444   3.548  16.861  0.0549 -0.3704  0.5440
  471MPD2    C3 7062   3.507   3.602  16.973 -0.3356  0.7482 -0.0651
  471MPD2    C4 7063   3.540   3.733  16.981 -0.2807 -0.0347 -0.2300
  471MPD2    C5 7064   3.521   3.812  16.867  0.0330  0.4951 -0.2638
  471MPD2     H 7065   3.430   3.441  16.849 -0.4783 -0.3509  0.9559
  471MPD2    H1 7066   3.595   3.778  17.063 -0.5215 -0.1005 -0.0320
  471MPD2    H2 7067   3.449   3.822  16.667 -2.7608  0.6143  0.2524
  471MPD2    H3 7068   3.558   3.914  16.873 -1.2889  1.0079 -0.8697
  471MPD2     N 7069   3.543   3.519  17.083 -0.5138  0.5457 -0.6187
  471MPD2    H5 7070   3.562   3.571  17.168 -1.2882 -3.1635  1.8104
  471MPD2    N1 7071   3.354   3.564  16.646  0.0291  0.3930  0.3390
  471MPD2    H7 7072   3.308   3.475  16.662  0.1128  0.2577 -0.1728
  472TMC3    C1 7073   3.305   3.494  16.434  0.0593 -0.6422  0.0653
  472TMC3    C2 7074   3.234   3.518  16.323  0.7219  0.3110 -0.4234
  472TMC3    C3 7075   3.188   3.411  16.259 -0.8522 -0.2085 -0.2253
  472TMC3    C4 7076   3.353   3.369  16.470  1.0787 -0.4526  0.4517
  472TMC3    C5 7077   3.309   3.268  16.389  0.2232  0.6743  0.1435
  472TMC3    C6 7078   3.228   3.283  16.277 -0.1622  0.5228 -0.5140
  472TMC3     C 7079   3.348   3.610  16.517  0.0385  0.0177 -0.6950
  472TMC3     O 7080   3.393   3.713  16.467 -0.6154 -0.5475 -0.1356
  472TMC3     H 7081   3.204   3.618  16.294 -2.7975 -0.1137  1.7304
  472TMC3    H1 7082   3.419   3.347  16.553 -0.6756 -0.2245  1.9103
  472TMC3    H2 7083   3.170   3.204  16.229 -1.2301  1.6635 -1.1109
  472TMC3    C7 7084   3.332   3.136  16.441  0.4617 -0.5243  0.1962
  472TMC3    C8 7085   3.092   3.428  16.151 -0.6226  0.2921  0.1612
  472TMC3    O1 7086   3.355   3.129  16.560  0.3081 -0.0056 -0.1979
  472TMC3    O2 7087   3.128   3.499  16.056  0.3635  0.6070 -0.2688
  473MPD2     C 7088   3.473   1.343  13.632  0.3425  0.4894 -0.0200
  473MPD2    C1 7089   3.381   1.253  13.594 -0.3246  0.3175 -0.0090
  473MPD2    C2 7090   3.282   1.220  13.683 -0.1170  0.2624  0.1479
  473MPD2    C3 7091   3.297   1.252  13.815 -0.5455 -0.7032 -0.2776
  473MPD2    C4 7092   3.406   1.326  13.863  0.8122  0.4535  0.0847
  473MPD2    C5 7093   3.496   1.371  13.767  0.1353  0.2772  0.0232
  473MPD2     H 7094   3.210   1.145  13.652  0.5772 -0.1789 -0.4039
  473MPD2    H1 7095   3.405   1.350  13.969  0.4703 -0.2559  0.2477
  473MPD2    H2 7096   3.546   1.394  13.570 -0.4075  0.1525 -1.1615
  473MPD2    H3 7097   3.565   1.451  13.792  0.1466  0.0340  0.7655
  473MPD2     N 7098   3.196   1.218  13.908 -0.3043 -0.5204 -0.5821
  473MPD2    H5 7099   3.209   1.247  14.004  0.7199 -0.3664 -0.7662
  473MPD2    N1 7100   3.359   1.212  13.455  0.3297 -0.1785 -0.4484
  473MPD2    H7 7101   3.281   1.154  13.427  0.5812 -1.3248  1.2104
  474TMC3    C1 7102   2.980   1.206  13.990  0.2158  0.3485  0.7317
  474TMC3    C2 7103   2.890   1.303  13.964  0.0556 -0.1045  0.5151
  474TMC3    C3 7104   2.886   1.410  14.044  0.2007 -0.1108 -0.5573
  474TMC3    C4 7105   3.050   1.213  14.105 -0.4354 -0.8711 -0.2227
  474TMC3    C5 7106   3.049   1.324  14.185 -0.1481  0.0881  0.5733
  474TMC3    C6 7107   2.973   1.435  14.148  0.1771  0.1481 -0.5085
  474TMC3     C 7108   3.066   1.183  13.878  0.7256 -0.4950  0.1189
  474TMC3     O 7109   3.013   1.182  13.767 -0.3348 -0.2062 -0.5929
  474TMC3     H 7110   2.834   1.306  13.872 -0.0571  0.4500  0.6015
  474TMC3    H1 7111   3.120   1.133  14.131  0.6023 -0.3534 -1.4320
  474TMC3    H2 7112   2.976   1.529  14.200 -0.9491  0.1842 -0.5217
  474TMC3    C7 7113   3.180   1.354  14.240  0.0520 -0.2255  0.0631
  474TMC3    C8 7114   2.817   1.527  13.989  0.3654 -0.0505 -0.2524
  474TMC3    O1 7115   3.270   1.295  14.178 -0.0174 -0.7013  0.5237
  474TMC3    O2 7116   2.714   1.515  13.919  0.0734 -0.5759 -0.0785
  475MPD2     C 7117   1.078   3.960  10.266 -0.2381  0.3129  0.6462
  475MPD2    C1 7118   1.131   4.043  10.362 -0.3488  0.5864  0.0456
  475MPD2    C2 7119   1.052   4.068  10.478  0.5975  0.1279 -0.5642
  475MPD2    C3 7120   0.934   4.001  10.498  0.7804 -0.4273  0.3115
  475MPD2    C4 7121   0.885   3.904  10.406  0.0008 -0.4392  0.1224
  475MPD2    C5 7122   0.958   3.893  10.286 -0.4165  0.0636  0.0192
  475MPD2     H 7123   1.097   4.131  10.555  0.2456  0.1914 -0.4124
  475MPD2    H1 7124   0.794   3.846  10.418 -0.5481  0.2664 -0.6335
  475MPD2    H2 7125   1.126   3.939  10.171 -1.8124  1.9573 -0.5098
  475MPD2    H3 7126   0.927   3.812  10.220  1.8596 -0.4347 -0.4465
  475MPD2     N 7127   0.858   4.040  10.610 -0.3835 -0.0515 -0.0978
  475MPD2    H5 7128   0.886   4.123  10.660 -0.9818  0.2804 -0.3191
  475MPD2    N1 7129   1.257   4.096  10.337 -0.0532 -0.0434 -0.3259
  475MPD2    H7 7130   1.313   4.046  10.268 -0.2904 -2.9226  1.5733
  476TMC3    C1 7131   1.231   4.301  10.454  0.9007 -0.3366 -0.5474
  476TMC3    C2 7132   1.127   4.352  10.383  0.3013  0.3897  0.0687
  476TMC3    C3 7133   1.056   4.462  10.430 -0.6514 -0.4963  0.4081
  476TMC3    C4 7134   1.270   4.358  10.571  0.0801 -0.8233 -0.0223
  476TMC3    C5 7135   1.188   4.459  10.620  0.6116 -0.2813 -0.5084
  476TMC3    C6 7136   1.083   4.516  10.552  0.0875 -0.0525  0.1890
  476TMC3     C 7137   1.318   4.207  10.390 -0.3650  0.4138 -0.3998
  476TMC3     O 7138   1.430   4.245  10.365 -0.0084  0.3588 -0.7173
  476TMC3     H 7139   1.124   4.331  10.276 -0.7934 -0.9616  0.3601
  476TMC3    H1 7140   1.355   4.325  10.630  0.0457 -0.5955  0.1576
  476TMC3    H2 7141   1.034   4.603  10.594  0.8909  0.4191  0.1447
  476TMC3    C7 7142   1.174   4.447  10.761  0.7850  0.1214 -0.0812
  476TMC3    C8 7143   0.921   4.469  10.392  0.4770  0.1946  0.1450
  476TMC3    O1 7144   1.164   4.339  10.814 -0.3723  0.0118 -0.4688
  476TMC3    O2 7145   0.865   4.571  10.419  0.2799  0.6587  0.2913
  477MPD2     C 7146   3.809   1.229  11.445  0.3139 -0.1245  0.0803
  477MPD2    C1 7147   3.725   1.129  11.482 -0.7839 -0.1611  0.5775
  477MPD2    C2 7148   3.776   1.014  11.547 -0.0018 -0.0252 -0.1747
  477MPD2    C3 7149   3.914   1.006  11.574  0.0051 -0.0061 -0.3019
  477MPD2    C4 7150   3.997   1.119  11.543 -0.3623  1.0765 -0.7524
  477MPD2    C5 7151   3.944   1.230  11.481  0.4246  0.0544 -0.9385
  477MPD2     H 7152   3.711   0.929  11.565  0.5787 -0.0200  1.9801
  477MPD2    H1 7153   4.103   1.126  11.564 -0.3872  0.1737 -0.3194
  477MPD2    H2 7154   3.764   1.317  11.401  1.1615 -0.1522 -0.8341
  477MPD2    H3 7155   4.009   1.317  11.480  0.0624  0.3456  0.6916
  477MPD2     N 7156   3.973   0.895  11.647  0.1800  0.7820 -0.9836
  477MPD2    H5 7157   3.900   0.834  11.682  1.0386  0.1411 -0.3192
  477MPD2    N1 7158   3.584   1.151  11.475 -0.2872 -0.2679 -0.7405
  477MPD2    H7 7159   3.559   1.239  11.431  1.6391  0.2768 -0.7364
  478TMC3    C1 7160   3.363   1.145  11.507  0.4169 -0.1196  0.0364
  478TMC3    C2 7161   3.282   1.169  11.616 -0.0472 -0.0627 -0.5767
  478TMC3    C3 7162   3.164   1.246  11.596 -0.0814 -0.0389 -0.5780
  478TMC3    C4 7163   3.337   1.195  11.385 -0.8203  0.1173  0.3392
  478TMC3    C5 7164   3.207   1.256  11.360 -0.1841 -0.5867 -0.1332
  478TMC3    C6 7165   3.120   1.282  11.469 -0.8229 -0.2895  0.3531
  478TMC3     C 7166   3.487   1.072  11.526 -0.3177  0.0405 -0.4022
  478TMC3     O 7167   3.490   0.993  11.615  0.2190  0.0292 -1.4882
  478TMC3     H 7168   3.305   1.136  11.716  1.1914  2.1486 -0.1269
  478TMC3    H1 7169   3.410   1.183  11.305 -1.7109 -2.5216 -0.0890
  478TMC3    H2 7170   3.019   1.320  11.460 -0.6430  0.1599  0.1782
  478TMC3    C7 7171   3.192   1.332  11.243  0.5049 -0.2574 -0.4844
  478TMC3    C8 7172   3.087   1.279  11.713 -0.7304  0.1708  0.1542
  478TMC3    O1 7173   3.296   1.350  11.186  0.1586  0.0923  0.5141
  478TMC3    O2 7174   3.102   1.212  11.810 -0.7264 -0.3045  0.0607
  479MPD2     C 7175   2.736   3.034  15.040 -0.5633  0.1464  0.5440
  479MPD2    C1 7176   2.658   2.943  15.109  0.1430  0.1622 -0.3276
  479MPD2    C2 7177   2.651   2.956  15.247 -0.3028  0.1405 -0.5805
  479MPD2    C3 7178   2.719   3.061  15.306 -0.7718  0.2315  0.8962
  479MPD2    C4 7179   2.793   3.148  15.240 -0.3163  1.4722 -0.4158
  479MPD2    C5 7180   2.795   3.132  15.103  0.3385  0.1704  0.2750
  479MPD2     H 7181   2.591   2.898  15.316  0.3990  1.1524  0.8978
  479MPD2    H1 7182   2.857   3.220  15.290  1.7783 -0.0454 -0.9066
  479MPD2    H2 7183   2.768   3.022  14.937 -1.1176 -0.1798  0.4136
  479MPD2    H3 7184   2.857   3.196  15.042  2.4418 -1.2131  0.9821
  479MPD2     N 7185   2.738   3.070  15.450 -0.1474  0.4457  0.1276
  479MPD2    H5 7186   2.785   3.148  15.495  0.6581 -1.2331  2.1927
  479MPD2    N1 7187   2.593   2.837  15.036  0.4802  0.1354  0.1889
  479MPD2    H7 7188   2.624   2.820  14.941 -1.3219  2.1496 -0.7878
  480TMC3    C1 7189   2.516   2.950  15.828  0.7588  0.4916  0.0833
  480TMC3    C2 7190   2.426   3.055  15.818  0.3559  0.3959 -0.8693
  480TMC3    C3 7191   2.450   3.156  15.727 -0.3305 -0.2831  0.2651
  480TMC3    C4 7192   2.622   2.935  15.741 -0.3481  0.0260 -0.5579
  480TMC3    C5 7193   2.652   3.039  15.661  0.8290 -0.2170  0.7277
  480TMC3    C6 7194   2.565   3.144  15.649 -0.1470 -0.9932 -0.2006
  480TMC3     C 7195   2.487   2.840  15.913 -0.1104  0.0510  0.0673
  480TMC3     O 7196   2.581   2.766  15.938  0.1376  0.3446 -0.0573
  480TMC3     H 7197   2.349   3.069  15.892  0.1020 -1.6950 -0.7375
  480TMC3    H1 7198   2.686   2.848  15.745  0.6789  0.9835  2.8875
  480TMC3    H2 7199   2.586   3.226  15.581  0.8952 -2.9834 -2.2608
  480TMC3    C7 7200   2.688   2.984  15.541 -0.2466 -0.3844 -0.1869
  480TMC3    C8 7201   2.326   3.157  15.646  0.2434 -0.5890 -0.8391
  480TMC3    O1 7202   2.649   2.869  15.523  0.6886  0.4935 -0.4839
  480TMC3    O2 7203   2.243   3.079  15.685  0.4027 -0.0951  0.0680
  481MPD2     C 7204   4.611   2.593  14.400  0.5383  0.2548 -0.6494
  481MPD2    C1 7205   4.476   2.579  14.404  0.2696  0.0716 -0.0201
  481MPD2    C2 7206   4.415   2.530  14.522  0.3075  0.2028  0.5030
  481MPD2    C3 7207   4.500   2.483  14.620 -0.5365 -0.5993  0.4147
  481MPD2    C4 7208   4.631   2.505  14.617  0.5989  0.4766 -0.4116
  481MPD2    C5 7209   4.687   2.557  14.506 -0.6466  0.5413 -0.1160
  481MPD2     H 7210   4.309   2.509  14.530  0.5707 -1.1919  0.2950
  481MPD2    H1 7211   4.696   2.465  14.694  0.2405 -0.5373 -0.6292
  481MPD2    H2 7212   4.656   2.637  14.312  1.3476  0.0563 -0.3260
  481MPD2    H3 7213   0.055   2.564  14.507 -0.5905 -0.2461 -0.5260
  481MPD2     N 7214   4.448   2.423  14.736 -0.4337  0.0222 -0.1360
  481MPD2    H5 7215   4.511   2.419  14.815  0.1726 -1.2848 -0.6851
  481MPD2    N1 7216   4.397   2.619  14.290 -0.2505 -0.5065  0.3942
  481MPD2    H7 7217   4.432   2.667  14.207  0.3550 -3.9518 -1.3399
  482TMC3    C1 7218   4.202   2.646  14.157 -0.4632  0.7190 -0.3248
  482TMC3    C2 7219   4.102   2.568  14.096 -0.5041 -0.3814 -0.7706
  482TMC3    C3 7220   4.002   2.639  14.039 -0.2267  0.2124 -0.4425
  482TMC3    C4 7221   4.212   2.779  14.148  0.9648 -0.3075  0.3477
  482TMC3    C5 7222   4.114   2.841  14.075  0.1170  0.2812  0.7071
  482TMC3    C6 7223   4.011   2.774  14.015  1.1315  0.4160 -0.3474
  482TMC3     C 7224   4.269   2.584  14.273 -0.2962 -0.6664  0.0407
  482TMC3     O 7225   4.210   2.493  14.328 -0.2754 -0.1996 -0.3242
  482TMC3     H 7226   4.103   2.462  14.118 -2.1407 -0.4359 -0.9822
  482TMC3    H1 7227   4.291   2.838  14.194  1.0710 -0.2743  0.1217
  482TMC3    H2 7228   3.925   2.829  13.979 -0.8084 -0.4179  2.9758
  482TMC3    C7 7229   4.139   2.979  14.028  0.7172 -0.2493 -0.8112
  482TMC3    C8 7230   3.911   2.563  13.952 -0.8600 -0.1229  0.8370
  482TMC3    O1 7231   4.208   3.050  14.097  0.5382  0.7038 -0.3530
  482TMC3    O2 7232   3.946   2.446  13.938 -0.8648  0.0686  0.5877
  483TMC3    C1 7233   1.970   1.419   0.592  0.4358 -0.1719 -0.4457
  483TMC3    C2 7234   2.036   1.532   0.577  1.1299  0.6108  0.0495
  483TMC3    C3 7235   2.113   1.566   0.677  0.0343  0.1625 -0.1501
  483TMC3    C4 7236   1.996   1.332   0.696 -0.2655  0.2009 -0.4334
  483TMC3    C5 7237   2.079   1.365   0.796 -0.0989 -0.2228  0.4465
  483TMC3    C6 7238   2.139   1.485   0.785 -0.1801  0.5986  1.0070
  483TMC3     C 7239   1.862   1.392   0.501  0.8426 -0.1547  0.2626
  483TMC3     O 7240   1.804   1.490   0.458  0.2550 -0.4009 -0.1440
  483TMC3     H 7241   2.034   1.594   0.488  1.9172  0.3172 -0.1770
  483TMC3    H1 7242   1.929   1.248   0.713  0.8158 -0.6555 -0.4444
  483TMC3    H2 7243   2.215   1.498   0.862  1.4705 -1.8230 -0.2042
  483TMC3    C7 7244   2.185   1.269   0.812 -0.1533 -0.7753  0.5461
  483TMC3    C8 7245   2.224   1.654   0.647  0.0666 -1.1604  0.0727
  483TMC3    O1 7246   2.303   1.298   0.790  0.2198 -0.0543  0.5578
  483TMC3    O2 7247   2.277   1.651   0.537 -0.0429 -0.2220 -0.0931
  484MPD2     C 7248   3.923   4.391  12.307  0.5015 -0.1090  0.4202
  484MPD2    C1 7249   4.002   4.383  12.418  0.0727 -0.4678 -0.1718
  484MPD2    C2 7250   4.133   4.365  12.398 -0.5761  0.2144 -0.1199
  484MPD2    C3 7251   4.186   4.372  12.263  0.2052 -0.5173  0.0486
  484MPD2    C4 7252   4.101   4.369  12.153 -0.5888 -0.0849  0.5105
  484MPD2    C5 7253   3.966   4.394  12.175 -0.0991 -0.2623 -0.2498
  484MPD2     H 7254   4.197   4.348  12.484 -1.1864  1.8454  0.6552
  484MPD2    H1 7255   4.142   4.360  12.053 -0.1829 -2.6243  0.9019
  484MPD2    H2 7256   3.817   4.415  12.314 -0.1384 -2.3453 -1.6254
  484MPD2    H3 7257   3.901   4.396  12.088  0.8903  1.6497 -0.9487
  484MPD2     N 7258   4.327   4.346  12.235 -0.0577  0.0690 -0.8494
  484MPD2    H5 7259   4.347   4.345  12.136  0.2376  0.0155 -0.7888
  484MPD2    N1 7260   3.944   4.385  12.549  0.0624  0.3898  0.3716
  484MPD2    H7 7261   3.844   4.371  12.555 -0.1390  2.2602  1.4851
  485TMC3    C1 7262   4.555   4.394  12.267  0.1985 -0.5376 -0.4205
  485TMC3    C2 7263   4.669   4.367  12.338 -0.0621 -0.0068 -0.3549
  485TMC3    C3 7264   0.038   4.434  12.295  0.0785 -0.6528 -0.2831
  485TMC3    C4 7265   4.545   4.472  12.156  0.0893  0.1616  0.2589
  485TMC3    C5 7266   4.657   4.539  12.116  0.0499  1.0985  0.0628
  485TMC3    C6 7267   0.033   4.523  12.189 -0.4758  0.4540  0.3956
  485TMC3     C 7268   4.433   4.351  12.326  0.4181  0.4467  0.5027
  485TMC3     O 7269   4.432   4.368  12.446  0.1047  0.2236 -0.2148
  485TMC3     H 7270   4.678   4.294  12.419  1.8500  1.4981  0.7895
  485TMC3    H1 7271   4.452   4.488  12.102 -1.4953 -1.6586  2.4417
  485TMC3    H2 7272   0.122   4.577  12.160 -0.4735 -0.3405 -1.1176
  485TMC3    C7 7273   4.678   4.521  11.969  0.1189 -0.3667 -1.0987
  485TMC3    C8 7274   0.153   4.351  12.276  1.2058  0.2105  0.4748
  485TMC3    O1 7275   4.591   4.562  11.889  0.5104  0.0756  0.4942
  485TMC3    O2 7276   0.194   4.355  12.163  0.1442 -0.5337  0.5989
  486MPD2     C 7277   2.299   3.094  12.705 -0.3737 -0.1728  0.1135
  486MPD2    C1 7278   2.201   3.075  12.616 -0.3870  0.2674 -0.2750
  486MPD2    C2 7279   2.113   3.176  12.585 -0.5377 -0.6344 -0.0839
  486MPD2    C3 7280   2.120   3.300  12.645 -0.2624 -0.0043  0.6975
  486MPD2    C4 7281   2.212   3.318  12.741  0.1315  0.0458  0.5417
  486MPD2    C5 7282   2.294   3.212  12.769  0.8585 -0.0433  0.0076
  486MPD2     H 7283   2.035   3.161  12.511 -1.3797 -1.3115  0.9358
  486MPD2    H1 7284   2.234   3.407  12.798 -1.3185 -0.6523  2.1743
  486MPD2    H2 7285   2.370   3.014  12.723 -0.9067 -1.3282 -2.9267
  486MPD2    H3 7286   2.372   3.231  12.842 -1.8864  0.9062  2.6809
  486MPD2     N 7287   2.015   3.395  12.629 -0.4244  0.7210 -1.1980
  486MPD2    H5 7288   1.940   3.365  12.567 -1.8583  1.1921  0.2893
  486MPD2    N1 7289   2.209   2.949  12.545  0.1071 -0.8672 -0.3921
  486MPD2    H7 7290   2.272   2.879  12.582  0.8844  0.1449  0.1760
  487TMC3    C1 7291   2.183   2.797  12.364 -0.5343  0.3995 -0.0964
  487TMC3    C2 7292   2.089   2.696  12.335  0.4249 -0.4428 -0.1085
  487TMC3    C3 7293   2.136   2.574  12.298 -0.2364  0.3284  0.5946
  487TMC3    C4 7294   2.310   2.763  12.364 -0.0246  0.1710 -0.8985
  487TMC3    C5 7295   2.355   2.637  12.356  0.1690 -0.3177 -0.4103
  487TMC3    C6 7296   2.269   2.543  12.301  0.0847 -0.3474  0.6187
  487TMC3     C 7297   2.132   2.910  12.438  0.1815 -0.1363 -0.5320
  487TMC3     O 7298   2.019   2.940  12.408  0.0499  0.1201 -0.2269
  487TMC3     H 7299   1.985   2.724  12.346  0.5861 -0.8694  2.4132
  487TMC3    H1 7300   2.383   2.837  12.394  0.1596 -0.1676 -0.5026
  487TMC3    H2 7301   2.299   2.440  12.286  0.3875 -0.0494 -0.8030
  487TMC3    C7 7302   2.403   2.592  12.491  0.1409  0.5073 -0.4092
  487TMC3    C8 7303   2.055   2.462  12.335 -0.0863 -0.5499  0.4832
  487TMC3    O1 7304   2.430   2.684  12.570  0.0353  0.0094 -0.4222
  487TMC3    O2 7305   2.081   2.351  12.287  0.0625  0.1968 -0.5069
  488MPD2     C 7306   2.253   4.468  16.277  0.4903  0.2495 -0.3928
  488MPD2    C1 7307   2.386   4.445  16.303  0.2407  0.6271 -0.2472
  488MPD2    C2 7308   2.418   4.359  16.406 -0.0581  0.1105  0.2874
  488MPD2    C3 7309   2.331   4.271  16.463  0.4248  0.0239 -0.3513
  488MPD2    C4 7310   2.197   4.283  16.438  0.0290  0.1100 -0.2643
  488MPD2    C5 7311   2.162   4.389  16.349 -0.4745  0.4157  0.0670
  488MPD2     H 7312   2.522   4.347  16.434  0.6166 -0.0840 -2.3132
  488MPD2    H1 7313   2.121   4.225  16.490  1.3297 -1.8190 -0.5287
  488MPD2    H2 7314   2.234   4.543  16.202  0.2466 -0.3042 -0.8868
  488MPD2    H3 7315   2.058   4.405  16.325 -0.7467 -0.0117  0.9859
  488MPD2     N 7316   2.384   4.179  16.563  0.1839  0.2933  0.0639
  488MPD2    H5 7317   2.485   4.178  16.563  0.1748 -0.6462  0.2378
  488MPD2    N1 7318   2.488   4.522  16.253  0.7603  0.0982 -0.2569
  488MPD2    H7 7319   2.575   4.528  16.304 -0.0536  2.6366  0.8598
  489TMC3    C1 7320   2.398   4.075  16.765 -0.0054  0.2730 -1.3170
  489TMC3    C2 7321   2.492   4.172  16.799 -0.1939  0.5533  0.0686
  489TMC3    C3 7322   2.569   4.155  16.906 -1.2023 -0.2577  0.2768
  489TMC3    C4 7323   2.369   3.969  16.838 -0.2349 -0.4707  0.2991
  489TMC3    C5 7324   2.444   3.959  16.957 -0.5253 -0.1101 -0.0343
  489TMC3    C6 7325   2.543   4.046  16.987  0.0908  0.5965 -0.6169
  489TMC3     C 7326   2.316   4.102  16.655  0.0089 -1.3067  0.4397
  489TMC3     O 7327   2.193   4.093  16.676 -0.1549 -0.2144 -0.7019
  489TMC3     H 7328   2.521   4.255  16.734  2.1877 -1.7432 -1.8298
  489TMC3    H1 7329   2.284   3.906  16.812  0.2724 -1.1042  0.1960
  489TMC3    H2 7330   2.605   4.032  17.076 -1.2040 -0.3334  0.1394
  489TMC3    C7 7331   2.397   3.850  17.044  0.0325 -0.7208  0.1409
  489TMC3    C8 7332   2.652   4.264  16.948 -0.6850 -0.3515 -0.1566
  489TMC3    O1 7333   2.305   3.777  17.010 -0.3699 -0.6541  0.3745
  489TMC3    O2 7334   2.709   4.331  16.861 -0.1273  0.3500 -0.6994
  490MPD2     C 7335   3.332   4.162  16.881  0.7196 -0.5869 -0.0500
  490MPD2    C1 7336   3.387   4.124  17.001 -0.2050  0.6837  0.3551
  490MPD2    C2 7337   3.498   4.191  17.042  0.0930 -0.1292 -0.7663
  490MPD2    C3 7338   3.562   4.280  16.960 -0.3003  0.2242 -0.0387
  490MPD2    C4 7339   3.501   4.330  16.849  0.7494 -0.7153  0.7324
  490MPD2    C5 7340   3.380   4.274  16.817 -0.0043  0.3904  0.1635
  490MPD2     H 7341   3.551   4.151  17.128 -0.0928 -1.4344 -1.2692
  490MPD2    H1 7342   3.544   4.408  16.787  1.5933 -1.8380 -0.1054
  490MPD2    H2 7343   3.254   4.107  16.829  0.4044  0.8909 -1.1426
  490MPD2    H3 7344   3.330   4.317  16.732  0.8572 -0.1411 -0.6096
  490MPD2     N 7345   3.692   4.333  16.987  0.2614  0.5638  0.4018
  490MPD2    H5 7346   3.735   4.391  16.915 -0.5870 -0.3267 -0.8037
  490MPD2    N1 7347   3.327   4.015  17.082 -0.4464  0.4421  0.5521
  490MPD2    H7 7348   3.374   3.985  17.167  1.6626  1.8414 -0.1131
  491TMC3    C1 7349   3.214   3.825  17.128 -0.0895  0.0371  0.1190
  491TMC3    C2 7350   3.238   3.836  17.266 -0.0025 -0.1952  0.2983
  491TMC3    C3 7351   3.225   3.724  17.332  0.0603  0.1103  0.0960
  491TMC3    C4 7352   3.160   3.715  17.070  0.0982 -0.0404 -0.0594
  491TMC3    C5 7353   3.151   3.603  17.145  0.1790 -0.6698 -0.3880
  491TMC3    C6 7354   3.183   3.603  17.278 -0.4659  0.4248  0.2789
  491TMC3     C 7355   3.217   3.942  17.043  0.0520 -0.2764 -0.0015
  491TMC3     O 7356   3.138   3.953  16.947 -0.1894 -0.3033 -0.0292
  491TMC3     H 7357   3.225   3.934  17.311  0.2772 -1.0750  2.2996
  491TMC3    H1 7358   3.126   3.719  16.968  2.1945  2.3345 -0.6732
  491TMC3    H2 7359   3.173   3.516  17.341 -0.5963 -0.6188 -1.1826
  491TMC3    C7 7360   3.112   3.477  17.075 -0.5329 -0.0121 -0.5592
  491TMC3    C8 7361   3.256   3.714  17.472  0.8735 -0.1609  0.0968
  491TMC3    O1 7362   3.049   3.502  16.970  0.2275  0.4207  0.4274
  491TMC3    O2 7363   3.241   3.613  17.540  0.2896 -0.3396 -0.1909
  492MPD2     C 7364   2.921   4.356  11.103 -0.2723 -0.0911  0.0701
  492MPD2    C1 7365   2.828   4.260  11.064 -0.0019 -0.1488 -0.5710
  492MPD2    C2 7366   2.777   4.172  11.158  0.4833  0.1448  0.2745
  492MPD2    C3 7367   2.827   4.172  11.289  0.1184 -0.0908 -0.1078
  492MPD2    C4 7368   2.914   4.271  11.324 -0.1346 -0.0775  0.7816
  492MPD2    C5 7369   2.959   4.364  11.233  0.1550 -0.0824  0.8244
  492MPD2     H 7370   2.706   4.096  11.128 -0.3591 -0.1486  2.9714
  492MPD2    H1 7371   2.953   4.260  11.424 -0.4345  1.2317  1.0465
  492MPD2    H2 7372   2.945   4.431  11.029 -0.3779 -1.5693 -1.4568
  492MPD2    H3 7373   3.031   4.440  11.262  1.3338 -1.0586  0.4195
  492MPD2     N 7374   2.789   4.080  11.393 -0.5531 -0.0185  0.0774
  492MPD2    H5 7375   2.850   4.079  11.474 -0.1554 -1.4128 -0.2294
  492MPD2    N1 7376   2.782   4.265  10.923 -0.0691 -0.0071 -0.4836
  492MPD2    H7 7377   2.847   4.309  10.858  0.5918  1.2200  0.9935
  493TMC3    C1 7378   2.648   4.218  10.728 -0.0987  0.9105  0.2111
  493TMC3    C2 7379   2.692   4.334  10.663  0.2124  0.9305 -0.0194
  493TMC3    C3 7380   2.647   4.357  10.533  0.3742 -0.1627  0.8740
  493TMC3    C4 7381   2.559   4.135  10.668  0.3970  0.2202  0.1196
  493TMC3    C5 7382   2.512   4.163  10.541  0.4595 -0.4079  0.1181
  493TMC3    C6 7383   2.553   4.274  10.472 -0.4632  0.4409  0.1357
  493TMC3     C 7384   2.672   4.193  10.868  0.2020  0.4110 -0.6874
  493TMC3     O 7385   2.594   4.124  10.930 -0.0850  0.3757 -0.3107
  493TMC3     H 7386   2.757   4.406  10.712  3.0304 -1.7587  0.2424
  493TMC3    H1 7387   2.540   4.041  10.718 -0.1878  0.0187 -0.4873
  493TMC3    H2 7388   2.520   4.304  10.374 -3.0476  2.6411  1.6838
  493TMC3    C7 7389   2.421   4.070  10.479 -0.2355  0.2621  0.4120
  493TMC3    C8 7390   2.702   4.479  10.463 -0.5032 -0.3959 -0.3313
  493TMC3    O1 7391   2.391   4.110  10.370 -0.2005 -0.3165 -0.1245
  493TMC3    O2 7392   2.795   4.532  10.519 -0.0019 -0.0021  0.3631
  494TMC3    C1 7393   3.967   1.236   0.574 -0.2774  0.4144 -0.3012
  494TMC3    C2 7394   3.886   1.133   0.537  0.6296 -0.1241 -0.5338
  494TMC3    C3 7395   3.915   1.079   0.414  0.1408  0.3166  0.3652
  494TMC3    C4 7396   4.075   1.288   0.506  1.0074  0.2802  0.5617
  494TMC3    C5 7397   4.106   1.220   0.390 -0.1357 -0.3767 -0.6872
  494TMC3    C6 7398   4.030   1.111   0.349 -0.8071 -0.0463 -0.2926
  494TMC3     C 7399   3.949   1.268   0.721 -0.7437 -0.4557 -0.8987
  494TMC3     O 7400   3.845   1.237   0.768  0.0167 -0.2262 -0.4223
  494TMC3     H 7401   3.796   1.115   0.594 -0.8426 -1.4941 -3.3370
  494TMC3    H1 7402   4.145   1.364   0.540 -0.3234  1.1773  1.3180
  494TMC3    H2 7403   4.058   1.072   0.252  0.6730 -0.2298  0.2063
  494TMC3    C7 7404   4.216   1.264   0.303  0.3439  0.3545  0.4752
  494TMC3    C8 7405   3.875   0.941   0.411 -0.7606 -0.6394  0.5533
  494TMC3    O1 7406   4.254   1.184   0.219 -0.3114  0.1470  0.0846
  494TMC3    O2 7407   3.863   0.892   0.524 -0.7369 -0.0287  0.2105
  495TMC3    C1 7408   2.549   3.217  14.809  0.2630 -0.1485 -0.0189
  495TMC3    C2 7409   2.646   3.309  14.786 -0.6342 -0.0965 -0.3744
  495TMC3    C3 7410   2.614   3.439  14.822 -0.0704  0.2963 -0.8068
  495TMC3    C4 7411   2.432   3.247  14.861 -0.4170  0.9279  0.2823
  495TMC3    C5 7412   2.415   3.370  14.911  0.4718 -0.0700  0.6064
  495TMC3    C6 7413   2.501   3.474  14.888  0.0043  0.2331 -0.1507
  495TMC3     C 7414   2.553   3.090  14.727 -0.1850  0.2508 -0.6735
  495TMC3     O 7415   2.449   3.021  14.735  0.3389 -0.1526 -0.5781
  495TMC3     H 7416   2.732   3.291  14.723  0.2069  0.5346  0.6054
  495TMC3    H1 7417   2.357   3.169  14.871 -1.3768  1.9546  1.0128
  495TMC3    H2 7418   2.458   3.572  14.902 -0.3318 -0.0312  0.6503
  495TMC3    C7 7419   2.334   3.380  15.035  0.0496 -0.1177 -0.6884
  495TMC3    C8 7420   2.685   3.554  14.768  0.2648  0.6307  0.4041
  495TMC3    O1 7421   2.362   3.471  15.109  0.7215  0.0617  0.0584
  495TMC3    O2 7422   2.708   3.637  14.853  0.2662  0.1499  0.3389
  496MPD2     C 7423   4.644   3.773  15.435  0.3348  0.0742 -1.0743
  496MPD2    C1 7424   4.596   3.661  15.375  0.2575 -0.1513 -0.0444
  496MPD2    C2 7425   4.459   3.650  15.352  0.4028 -0.3671  0.1002
  496MPD2    C3 7426   4.371   3.751  15.384 -0.4611  0.2596  0.2266
  496MPD2    C4 7427   4.428   3.865  15.442 -0.0609 -0.7896  0.0180
  496MPD2    C5 7428   4.561   3.873  15.469 -0.2814 -0.2486  0.0148
  496MPD2     H 7429   4.431   3.559  15.300  2.8228 -1.3524  0.5242
  496MPD2    H1 7430   4.373   3.952  15.477 -0.5306  0.2840 -3.4009
  496MPD2    H2 7431   0.007   3.790  15.464 -0.5945 -0.1022  2.2805
  496MPD2    H3 7432   4.585   3.970  15.510  1.5544 -1.2083  1.2180
  496MPD2     N 7433   4.233   3.746  15.364  0.1564  0.3129 -0.6457
  496MPD2    H5 7434   4.177   3.798  15.430  0.8745 -0.4016  0.5367
  496MPD2    N1 7435   4.691   3.567  15.334  0.1280 -0.0576 -0.2888
  496MPD2    H7 7436   0.047   3.602  15.329 -0.5202  1.8359  0.5183
  497TMC3    C1 7437   4.031   3.612  15.376  0.0629 -0.0644  0.3433
  497TMC3    C2 7438   3.950   3.522  15.306 -0.1906  0.6200  0.2529
  497TMC3    C3 7439   3.894   3.419  15.373  0.5412 -0.0430  0.1770
  497TMC3    C4 7440   4.045   3.611  15.511 -0.0759 -0.0258 -0.2894
  497TMC3    C5 7441   3.979   3.511  15.572 -0.2792  0.3453  0.9158
  497TMC3    C6 7442   3.901   3.419  15.505  0.7455 -0.1101  0.8116
  497TMC3     C 7443   4.160   3.636  15.309 -0.7085  0.1633  0.4821
  497TMC3     O 7444   4.187   3.557  15.221 -0.4031  0.1424  0.1062
  497TMC3     H 7445   3.950   3.533  15.198  1.0016  0.0848  0.1934
  497TMC3    H1 7446   4.100   3.679  15.575  0.1381  1.5323 -2.1081
  497TMC3    H2 7447   3.851   3.333  15.549  0.3687  0.7524  2.0560
  497TMC3    C7 7448   3.970   3.501  15.716  0.4009 -0.3574  0.3215
  497TMC3    C8 7449   3.912   3.289  15.306  0.5773  0.2477 -0.0815
  497TMC3    O1 7450   3.882   3.424  15.758  0.4760  0.3349 -0.1867
  497TMC3    O2 7451   3.836   3.198  15.334  0.2211  0.8997  0.3542
  498MPD2     C 7452   0.785   4.137   9.939 -0.2149  0.2189  0.3994
  498MPD2    C1 7453   0.681   4.215   9.984 -0.8356 -0.1257  0.4882
  498MPD2    C2 7454   0.566   4.151  10.013 -0.4315 -0.4905 -0.0313
  498MPD2    C3 7455   0.546   4.013  10.000 -0.4156  0.5639  0.1718
  498MPD2    C4 7456   0.651   3.935   9.967 -0.4546  0.2256 -0.0288
  498MPD2    C5 7457   0.766   3.998   9.931  0.1390 -0.3206  0.0021
  498MPD2     H 7458   0.481   4.213  10.041 -0.9908 -1.0467 -0.4756
  498MPD2    H1 7459   0.654   3.829   9.948 -3.0684  0.1214  0.1384
  498MPD2    H2 7460   0.870   4.179   9.888 -0.0718 -1.9049 -1.1318
  498MPD2    H3 7461   0.846   3.934   9.895 -0.2781 -0.7479 -0.1650
  498MPD2     N 7462   0.420   3.958  10.012  0.0466 -0.4752  0.3515
  498MPD2    H5 7463   0.345   4.010  10.056 -0.6919 -1.5985  0.4129
  498MPD2    N1 7464   0.691   4.355  10.002  0.4436 -0.3097  0.0500
  498MPD2    H7 7465   0.608   4.404  10.033 -0.6506 -2.0477 -0.1161
  499TMC3    C1 7466   0.795   4.561  10.058  0.4574 -0.7526 -0.1548
  499TMC3    C2 7467   0.907   4.631  10.101  0.4944  0.0296  0.1535
  499TMC3    C3 7468   0.911   0.019  10.145 -0.3576  0.6021  0.1165
  499TMC3    C4 7469   0.671   4.616  10.050  0.1720  0.2979 -0.5191
  499TMC3    C5 7470   0.678   0.011  10.087 -0.2018 -0.5165  1.0124
  499TMC3    C6 7471   0.783   0.075  10.149 -0.4408 -0.1163 -0.2443
  499TMC3     C 7472   0.810   4.422  10.013 -0.1100 -0.1318  0.3891
  499TMC3     O 7473   0.921   4.374  10.016 -0.2142 -0.6902 -0.0965
  499TMC3     H 7474   1.000   4.576  10.111  1.4520  1.8630  1.2520
  499TMC3    H1 7475   0.589   4.582   9.988 -1.0935 -0.4590  1.5829
  499TMC3    H2 7476   0.775   0.177  10.187 -0.8157 -0.9029  1.7879
  499TMC3    C7 7477   0.561   0.093  10.050 -0.8639  0.1614 -1.2053
  499TMC3    C8 7478   1.012   0.060  10.234 -0.7022  0.4611 -0.0037
  499TMC3    O1 7479   0.587   0.212  10.061  0.3420 -0.1924 -0.3579
  499TMC3    O2 7480   1.128   0.018  10.209 -0.8701  0.4303  0.3488
  500MPD2     C 7481   1.799   0.268  10.519  0.0474  0.3781  0.0435
  500MPD2    C1 7482   1.794   0.377  10.434 -0.0182 -0.1161 -0.4696
  500MPD2    C2 7483   1.678   0.425  10.381  0.3563  0.0795 -0.2418
  500MPD2    C3 7484   1.561   0.347  10.398 -0.6681  0.6472  0.1707
  500MPD2    C4 7485   1.569   0.233  10.481 -0.7929  0.2334  0.1034
  500MPD2    C5 7486   1.683   0.200  10.543  1.4692  0.2894  0.0220
  500MPD2     H 7487   1.673   0.516  10.322 -0.8968  0.9989  1.2701
  500MPD2    H1 7488   1.469   0.194  10.499 -0.0493 -0.5715  2.3881
  500MPD2    H2 7489   1.891   0.227  10.558  0.1205  1.4813  1.0196
  500MPD2    H3 7490   1.689   0.112  10.606  0.5973 -0.2505 -0.6511
  500MPD2     N 7491   1.433   0.392  10.354 -0.0525 -1.0336  0.0962
  500MPD2    H5 7492   1.353   0.333  10.373 -0.6797 -0.4925 -0.8627
  500MPD2    N1 7493   1.905   0.458  10.408 -0.0315  0.2704 -0.0697
  500MPD2    H7 7494   1.895   0.554  10.378 -0.0579  0.5538  0.8546
  501TMC3    C1 7495   2.139   0.516  10.389 -0.0396  0.4194  0.3822
  501TMC3    C2 7496   2.106   0.645  10.351 -0.0659 -0.5646  0.2863
  501TMC3    C3 7497   2.198   0.742  10.358 -0.1391  0.1392 -0.3985
  501TMC3    C4 7498   2.272   0.484  10.417  0.1542  0.1456  0.5798
  501TMC3    C5 7499   2.364   0.586  10.401  0.2957  0.0851  0.2390
  501TMC3    C6 7500   2.332   0.717  10.383  0.3212  0.4742  0.1500
  501TMC3     C 7501   2.038   0.423  10.426  0.3319 -0.5778  0.0376
  501TMC3     O 7502   2.078   0.314  10.458 -0.3196  0.1879  0.0236
  501TMC3     H 7503   2.004   0.655  10.314  0.5855 -1.2668 -1.6786
  501TMC3    H1 7504   2.305   0.386  10.449 -1.9341 -0.6063  0.4197
  501TMC3    H2 7505   2.414   0.788  10.393 -0.7810  1.7737 -0.1237
  501TMC3    C7 7506   2.493   0.549  10.443  0.1350 -0.0893 -0.4970
  501TMC3    C8 7507   2.161   0.875  10.321 -0.0814 -0.0550  0.2285
  501TMC3    O1 7508   2.494   0.459  10.522 -0.3584  0.3437 -0.0502
  501TMC3    O2 7509   2.060   0.878  10.251  0.0094 -0.2526  0.0509
  502TMC3    C1 7510   2.176   4.428  15.087 -0.5156 -0.5556 -0.0008
  502TMC3    C2 7511   2.120   4.549  15.073  0.2327 -0.0898  0.6143
  502TMC3    C3 7512   1.983   4.553  15.058 -0.3428 -0.9855  0.4556
  502TMC3    C4 7513   2.105   4.311  15.093 -0.6635 -0.5409  0.0187
  502TMC3    C5 7514   1.965   4.319  15.079  0.9069 -0.2315 -0.4489
  502TMC3    C6 7515   1.904   4.445  15.068 -0.5192  0.1465 -0.4641
  502TMC3     C 7516   2.309   4.409  15.143 -0.1171  0.1730 -0.5740
  502TMC3     O 7517   2.403   4.479  15.112  0.1602  0.7394  0.3466
  502TMC3     H 7518   2.183   4.637  15.086  0.6877 -0.4739  1.0227
  502TMC3    H1 7519   2.150   4.213  15.093  0.3940 -0.0498  1.2425
  502TMC3    H2 7520   1.797   4.455  15.057 -0.3743  0.3610 -1.6847
  502TMC3    C7 7521   1.897   4.212  15.143  0.1675  0.3842  0.3259
  502TMC3    C8 7522   1.923   4.685  15.056 -0.0330  0.2157  1.1195
  502TMC3    O1 7523   1.951   4.103  15.133 -0.4102  0.4060 -0.4407
  502TMC3    O2 7524   2.009   0.031  15.031  0.5046  0.1413 -0.7105
  503MPD2     C 7525   4.124   0.197  17.000  0.2283  0.7057  0.3976
  503MPD2    C1 7526   4.169   0.237  17.117  0.6351 -0.4688 -0.3882
  503MPD2    C2 7527   4.214   0.143  17.211 -0.2109 -0.2357 -0.0132
  503MPD2    C3 7528   4.228   0.014  17.191 -0.0619  0.3343 -0.2697
  503MPD2    C4 7529   4.176   4.709  17.073  0.6322  0.1134  0.7851
  503MPD2    C5 7530   4.128   0.057  16.977 -0.1422  0.2929  0.3704
  503MPD2     H 7531   4.263   0.184  17.299  0.7212  0.7561 -0.9857
  503MPD2    H1 7532   4.166   4.606  17.040  2.0077  1.0727 -2.7037
  503MPD2    H2 7533   4.075   0.255  16.923 -0.7552  1.8644  1.9024
  503MPD2    H3 7534   4.071   0.022  16.892  0.6840  2.5326 -1.0984
  503MPD2     N 7535   4.292   4.676  17.288 -0.1344  0.1794 -0.4206
  503MPD2    H5 7536   4.328   4.724  17.370 -2.6485  2.1056 -0.4516
  503MPD2    N1 7537   4.180   0.375  17.144 -0.0663 -0.1034  0.3490
  503MPD2    H7 7538   4.196   0.386  17.244  0.3482  0.3593  0.2264
  504TMC3    C1 7539   4.433   4.501  17.353 -0.8019  0.3980  0.0750
  504TMC3    C2 7540   4.406   4.494  17.488  0.0579  0.3637  0.3275
  504TMC3    C3 7541   4.491   4.429  17.572 -0.5790 -0.5235 -0.5999
  504TMC3    C4 7542   4.551   4.457  17.304  0.2144  0.6202 -0.2643
  504TMC3    C5 7543   4.642   4.402  17.397  0.3786 -0.0229 -0.5039
  504TMC3    C6 7544   4.616   4.388  17.532  0.0340 -0.5934 -0.2767
  504TMC3     C 7545   4.334   4.549  17.255 -0.1446  0.8521  0.2934
  504TMC3     O 7546   4.334   4.487  17.145 -0.5061 -0.9958  0.7896
  504TMC3     H 7547   4.305   4.521  17.517  0.8719  1.5671  2.0309
  504TMC3    H1 7548   4.576   4.460  17.198  0.8803  1.1041 -0.0929
  504TMC3    H2 7549   4.691   4.355  17.603  0.4427 -0.1299 -0.4901
  504TMC3    C7 7550   0.012   4.335  17.333 -0.1488 -0.2168 -0.1819
  504TMC3    C8 7551   4.440   4.405  17.703  0.2732 -0.3309 -0.4582
  504TMC3    O1 7552   0.031   4.366  17.214  0.2792  0.2790 -0.2328
  504TMC3    O2 7553   4.347   4.478  17.733 -0.6377 -0.1005 -0.0138
  505MPD2     C 7554   3.671   3.460  10.102  0.2793 -0.0368 -0.0862
  505MPD2    C1 7555   3.766   3.408  10.184 -0.1035  0.8999  0.2777
  505MPD2    C2 7556   3.835   3.489  10.273  1.0642  0.4417 -0.0334
  505MPD2    C3 7557   3.817   3.625  10.277  0.1980  0.5858  0.3245
  505MPD2    C4 7558   3.720   3.675  10.200 -0.1759 -0.2311  0.7941
  505MPD2    C5 7559   3.642   3.596  10.112 -0.1854  0.0527 -0.8207
  505MPD2     H 7560   3.919   3.454  10.331  0.6388  0.1902  0.4342
  505MPD2    H1 7561   3.708   3.782  10.193  0.9398 -0.0764  1.2751
  505MPD2    H2 7562   3.611   3.402  10.033 -0.0918  1.4945 -1.0708
  505MPD2    H3 7563   3.562   3.644  10.057 -2.2196 -0.2169  1.9095
  505MPD2     N 7564   3.891   3.688  10.375  0.5881 -0.5190 -0.3648
  505MPD2    H5 7565   3.963   3.636  10.424 -0.2824  0.5949  2.0889
  505MPD2    N1 7566   3.808   3.275  10.160 -0.1375 -0.3365 -0.2822
  505MPD2    H7 7567   3.773   3.226  10.079 -0.0115 -0.2817 -0.3699
  506TMC3    C1 7568   3.950   3.085  10.189 -0.1371  0.4965 -0.0788
  506TMC3    C2 7569   4.004   3.112  10.067 -0.1920  0.0413  0.0044
  506TMC3    C3 7570   4.139   3.082  10.043  0.7737 -0.4999 -1.4651
  506TMC3    C4 7571   4.019   3.014  10.283  0.5417  0.0768 -0.0367
  506TMC3    C5 7572   4.153   2.997  10.262 -0.0770 -0.1399  0.0656
  506TMC3    C6 7573   4.215   3.018  10.142 -0.7664  0.3706 -0.9261
  506TMC3     C 7574   3.893   3.203  10.244 -0.0299  0.0743  0.5921
  506TMC3     O 7575   3.933   3.227  10.356 -0.5639  0.1090  0.0915
  506TMC3     H 7576   3.954   3.172   9.992 -0.5205 -0.5103 -0.2179
  506TMC3    H1 7577   3.976   2.991  10.379 -0.3562  0.4378 -0.3482
  506TMC3    H2 7578   4.323   3.005  10.135 -0.8550 -1.7448  1.9783
  506TMC3    C7 7579   4.238   3.012  10.378  0.4536  0.2562 -0.5256
  506TMC3    C8 7580   4.192   3.126   9.919  0.1652 -0.3780  0.9649
  506TMC3    O1 7581   4.354   2.963  10.383  0.3473  0.0176 -0.2980
  506TMC3    O2 7582   4.110   3.156   9.836 -0.2679  0.0383 -0.6631
  507TMC3    C1 7583   0.539   4.643  13.995 -0.5653 -0.0187  0.7061
  507TMC3    C2 7584   0.534   0.023  13.931  0.4857  0.4913  0.5678
  507TMC3    C3 7585   0.591   0.122  14.000 -0.7621  0.7218 -0.0114
  507TMC3    C4 7586   0.592   4.618  14.120 -0.7459  0.2751 -0.1671
  507TMC3    C5 7587   0.640   4.722  14.194  0.2286 -0.2304 -0.2597
  507TMC3    C6 7588   0.650   0.100  14.127 -0.3036  0.6506  0.2520
  507TMC3     C 7589   0.538   4.533  13.898  0.1992  0.1847 -0.9483
  507TMC3     O 7590   0.489   4.548  13.787 -0.1613 -0.7211  0.1625
  507TMC3     H 7591   0.482   0.041  13.837 -1.0993 -0.4873  1.2462
  507TMC3    H1 7592   0.586   4.517  14.158 -0.1156 -0.5557 -2.2829
  507TMC3    H2 7593   0.709   0.185  14.159 -2.9023  2.4329  0.3025
  507TMC3    C7 7594   0.584   4.737  14.323  0.0876  0.5075  0.0728
  507TMC3    C8 7595   0.514   0.245  13.994 -0.0120 -0.2876 -0.7342
  507TMC3    O1 7596   0.606   4.654  14.410 -0.0095  0.0694  0.0988
  507TMC3    O2 7597   0.513   0.295  14.104  0.5045  0.2269  0.4959
  508MPD2     C 7598   1.547   1.681  16.079  0.2266 -0.0931 -0.1875
  508MPD2    C1 7599   1.536   1.795  16.152  0.0805  0.5401  0.5604
  508MPD2    C2 7600   1.513   1.913  16.080  0.1459 -0.1737 -0.1949
  508MPD2    C3 7601   1.498   1.910  15.945 -0.1701 -0.6418  0.4256
  508MPD2    C4 7602   1.507   1.793  15.876  0.6837  0.3390  0.3594
  508MPD2    C5 7603   1.542   1.680  15.942 -0.7061 -0.1360  0.3022
  508MPD2     H 7604   1.505   2.008  16.132 -1.5050  0.5534 -1.7591
  508MPD2    H1 7605   1.500   1.778  15.769  2.4464  1.7125  0.0485
  508MPD2    H2 7606   1.559   1.591  16.139  0.2498  1.3589  1.9718
  508MPD2    H3 7607   1.548   1.589  15.884  2.4437  1.2570 -1.5662
  508MPD2     N 7608   1.474   2.030  15.882  0.1488  0.7953 -0.3517
  508MPD2    H5 7609   1.476   2.116  15.937  0.2863  0.6236 -0.0887
  508MPD2    N1 7610   1.547   1.789  16.289 -0.1827 -0.1070  0.3149
  508MPD2    H7 7611   1.580   1.700  16.325  2.0192  0.2619 -0.8165
  509TMC3    C1 7612   1.391   2.332  15.541 -0.0107  0.5835 -0.0495
  509TMC3    C2 7613   1.466   2.424  15.606 -0.3844  0.2163 -0.0607
  509TMC3    C3 7614   1.547   2.386  15.710  0.2114  0.8726 -0.2496
  509TMC3    C4 7615   1.394   2.202  15.582 -0.3215  0.1692  0.3510
  509TMC3    C5 7616   1.456   2.171  15.694  0.7421  0.2962  0.9425
  509TMC3    C6 7617   1.540   2.257  15.760  0.0553  0.3265  1.0330
  509TMC3     C 7618   1.336   2.341  15.412 -0.1175  0.4041  0.5040
  509TMC3     O 7619   1.260   2.257  15.368 -0.5001  0.2554  0.5095
  509TMC3     H 7620   1.482   2.524  15.568 -0.1161 -0.5886 -2.0538
  509TMC3    H1 7621   1.335   2.133  15.522  0.1457  0.6110 -0.6015
  509TMC3    H2 7622   1.614   2.228  15.834  0.4371 -2.6531 -0.5568
  509TMC3    C7 7623   1.438   2.041  15.749 -0.3244 -0.1489  0.0057
  509TMC3    C8 7624   1.590   2.489  15.804  0.0581 -0.7277 -0.1111
  509TMC3    O1 7625   1.377   1.964  15.678  0.4218  0.0310 -0.0085
  509TMC3    O2 7626   1.622   2.453  15.918 -0.7064 -0.1114  0.1423
  510MPD2     C 7627   4.090   3.775  14.492  0.1981  0.8327 -0.6222
  510MPD2    C1 7628   4.155   3.672  14.559  1.0724  1.0832  0.0771
  510MPD2    C2 7629   4.285   3.647  14.526  0.0825 -0.4893  0.3212
  510MPD2    C3 7630   4.358   3.735  14.444 -0.2236  0.0145  0.0824
  510MPD2    C4 7631   4.290   3.833  14.376  0.8227  0.3074  0.5232
  510MPD2    C5 7632   4.162   3.860  14.411 -0.1256  0.1959  0.6374
  510MPD2     H 7633   4.341   3.565  14.570 -1.3755 -2.3703 -1.3374
  510MPD2    H1 7634   4.336   3.902  14.307  1.0550 -0.3563  0.0090
  510MPD2    H2 7635   3.993   3.815  14.519  0.4200  1.6371 -1.0184
  510MPD2    H3 7636   4.119   3.958  14.394 -0.4178 -0.1274 -0.4933
  510MPD2     N 7637   4.492   3.702  14.415 -0.7017 -0.6956 -0.3696
  510MPD2    H5 7638   4.530   3.611  14.441  0.8251  0.0956  0.1468
  510MPD2    N1 7639   4.079   3.606  14.659  0.0017 -0.7202 -0.1429
  510MPD2    H7 7640   3.985   3.638  14.680  0.5345  1.7016 -1.5034
  511TMC3    C1 7641   4.005   3.423  14.788 -0.5272 -0.3559 -0.0365
  511TMC3    C2 7642   3.915   3.487  14.872  0.2977  0.0457 -0.0622
  511TMC3    C3 7643   3.795   3.413  14.899 -0.0891 -0.0325  0.5259
  511TMC3    C4 7644   3.981   3.297  14.744  0.3920 -0.1007  0.0243
  511TMC3    C5 7645   3.866   3.226  14.777 -0.4635 -0.1491  0.1206
  511TMC3    C6 7646   3.772   3.281  14.861  0.1277  0.0532 -0.4102
  511TMC3     C 7647   4.117   3.487  14.719 -0.2136 -0.6054  0.2678
  511TMC3     O 7648   4.214   3.420  14.696  0.0766  0.5037  0.3677
  511TMC3     H 7649   3.926   3.593  14.892  0.1228  0.1930 -0.7296
  511TMC3    H1 7650   4.062   3.239  14.702 -0.5707 -0.2725 -1.5819
  511TMC3    H2 7651   3.686   3.222  14.890  1.2848 -0.4133  2.1055
  511TMC3    C7 7652   3.853   3.098  14.718  0.3214  0.3968 -0.2802
  511TMC3    C8 7653   3.703   3.477  14.990  0.1927  0.0480 -0.1254
  511TMC3    O1 7654   3.898   3.080  14.603 -0.4691 -0.2107  0.2271
  511TMC3    O2 7655   3.736   3.579  15.050 -0.6599  0.0703 -0.4739
  512TMC3    C1 7656   2.685   3.383  13.373  1.3871 -0.2329 -0.2443
  512TMC3    C2 7657   2.825   3.390  13.389 -0.2470  0.4266 -0.0155
  512TMC3    C3 7658   2.896   3.280  13.356  0.0487  0.4683  0.1445
  512TMC3    C4 7659   2.619   3.267  13.337 -0.6014 -0.5703 -0.0781
  512TMC3    C5 7660   2.698   3.166  13.294 -0.7050  0.2153 -0.0049
  512TMC3    C6 7661   2.838   3.171  13.309  0.0794  0.1445 -0.2084
  512TMC3     C 7662   2.612   3.489  13.428  0.2918 -0.1634 -0.4176
  512TMC3     O 7663   2.508   3.447  13.473  0.0556 -0.1473 -0.3055
  512TMC3     H 7664   2.879   3.474  13.432  1.6012  0.1800 -1.8430
  512TMC3    H1 7665   2.511   3.260  13.335 -0.4959 -2.2480 -0.0934
  512TMC3    H2 7666   2.900   3.087  13.278 -0.3201 -0.9914  2.0737
  512TMC3    C7 7667   2.648   3.076  13.192 -0.2096 -0.1228 -0.3606
  512TMC3    C8 7668   3.040   3.263  13.407  0.5447  0.3174 -0.6419
  512TMC3    O1 7669   2.545   3.114  13.133 -0.4777  0.4663 -0.5437
  512TMC3    O2 7670   3.104   3.169  13.362 -0.1028  0.0357  0.0696
  513MPD2     C 7671   4.549   2.737  13.567  0.9936  0.1575 -0.1213
  513MPD2    C1 7672   4.529   2.782  13.439  0.2555  0.1758 -0.3445
  513MPD2    C2 7673   4.563   2.912  13.406 -0.0058 -0.7393 -0.1272
  513MPD2    C3 7674   4.627   2.990  13.498  0.4395 -0.1777 -0.7472
  513MPD2    C4 7675   4.655   2.943  13.627  0.4957  0.3952  0.0058
  513MPD2    C5 7676   4.610   2.820  13.661  0.4285 -0.1751  0.1905
  513MPD2     H 7677   4.573   2.947  13.304 -1.6440 -0.0700 -0.0610
  513MPD2    H1 7678   4.708   3.001  13.702 -1.5204 -0.7525  2.3143
  513MPD2    H2 7679   4.503   2.645  13.598  2.2335 -1.0852 -1.9573
  513MPD2    H3 7680   4.605   2.795  13.766 -1.7156  0.9071  0.3419
  513MPD2     N 7681   4.678   3.107  13.444 -0.5507 -1.2235 -0.7642
  513MPD2    H5 7682   4.647   3.146  13.355  0.4843  1.2123 -0.0688
  513MPD2    N1 7683   4.478   2.694  13.340  0.1809 -0.0499  0.0033
  513MPD2    H7 7684   4.464   2.732  13.247 -1.5685  1.6138  0.9416
  514TMC3    C1 7685   4.406   2.514  13.211 -0.1071  0.1782  0.0368
  514TMC3    C2 7686   4.369   2.616  13.126 -0.5831  0.4000 -0.7286
  514TMC3    C3 7687   4.405   2.622  12.995 -0.9307  0.1604  0.2926
  514TMC3    C4 7688   4.486   2.413  13.157 -0.5916 -0.1475  0.0286
  514TMC3    C5 7689   4.525   2.420  13.023  0.3145 -0.0685 -0.3700
  514TMC3    C6 7690   4.480   2.526  12.944  0.6000 -0.3153  0.2712
  514TMC3     C 7691   4.454   2.562  13.343  0.1307 -0.2171 -0.0604
  514TMC3     O 7692   4.478   2.472  13.424  0.1260  0.0795 -0.0622
  514TMC3     H 7693   4.295   2.684  13.165  0.5142  0.0742  1.8757
  514TMC3    H1 7694   4.552   2.359  13.224  0.3287  1.0646  0.1035
  514TMC3    H2 7695   4.507   2.530  12.839 -1.9248  0.7090 -0.3569
  514TMC3    C7 7696   4.670   2.417  13.007 -0.9582 -0.3137  0.3274
  514TMC3    C8 7697   4.443   2.758  12.971  0.0395  0.2854  0.6862
  514TMC3    O1 7698   4.730   2.314  13.025  0.2607 -0.1267 -0.2147
  514TMC3    O2 7699   4.479   2.810  13.073  0.2347  0.1561  0.0518
  515MPD2     C 7700   2.868   0.330  14.437 -0.6053  0.8085  0.6553
  515MPD2    C1 7701   2.824   0.208  14.484  0.5617  0.5695 -0.7201
  515MPD2    C2 7702   2.890   0.150  14.588  0.2979 -0.1949 -0.0097
  515MPD2    C3 7703   3.001   0.205  14.641 -0.5412 -0.0732  0.1862
  515MPD2    C4 7704   3.054   0.319  14.580 -0.0183 -0.2030 -0.1066
  515MPD2    C5 7705   2.982   0.386  14.484 -0.6074 -1.0484  0.0639
  515MPD2     H 7706   2.837   0.068  14.635 -0.8209  0.3047 -0.3955
  515MPD2    H1 7707   3.151   0.361  14.604 -0.7173  1.0236  0.5163
  515MPD2    H2 7708   2.812   0.382  14.361 -1.4169 -1.9889 -0.6469
  515MPD2    H3 7709   3.020   0.472  14.430 -1.8498 -1.1038 -0.9077
  515MPD2     N 7710   3.060   0.146  14.759 -0.5802  0.5596  0.8017
  515MPD2    H5 7711   3.141   0.197  14.793  1.0604 -1.1180 -0.5426
  515MPD2    N1 7712   2.707   0.149  14.430  0.2629 -0.6737 -0.3222
  515MPD2    H7 7713   2.667   0.069  14.478 -3.7626  0.5274 -1.6188
  516TMC3    C1 7714   2.517   0.107  14.294  0.1231 -0.8465 -0.8257
  516TMC3    C2 7715   2.416   0.167  14.228 -0.0432  0.5374  0.3829
  516TMC3    C3 7716   2.312   0.094  14.180  0.1575 -0.4719 -0.4256
  516TMC3    C4 7717   2.530   4.712  14.310 -0.3658  0.1934 -0.1732
  516TMC3    C5 7718   2.416   4.643  14.263 -0.7109 -0.8558 -0.0039
  516TMC3    C6 7719   2.313   4.697  14.193  0.1642  0.2015 -0.3655
  516TMC3     C 7720   2.632   0.193  14.324 -0.1686  0.1841 -0.4823
  516TMC3     O 7721   2.644   0.287  14.240 -0.4255 -0.0362 -0.5742
  516TMC3     H 7722   2.417   0.275  14.218  0.4274  0.4452 -0.6062
  516TMC3    H1 7723   2.628   4.668  14.323 -1.0827 -1.6202 -0.7766
  516TMC3    H2 7724   2.228   4.643  14.153 -0.4976 -0.8543  2.4622
  516TMC3    C7 7725   2.392   4.513  14.308  0.1326 -0.0002  0.6448
  516TMC3    C8 7726   2.187   0.161  14.149  0.0928  0.0202  0.1098
  516TMC3    O1 7727   2.320   4.446  14.239  0.9235  0.1875  0.2792
  516TMC3    O2 7728   2.084   0.096  14.177  0.4316  0.0222 -0.1468
  517MPD2     C 7729   2.655   1.156   0.083  0.5180 -0.6094  0.1975
  517MPD2    C1 7730   2.787   1.156   0.094 -0.1629  0.1866 -0.3980
  517MPD2    C2 7731   2.849   1.280   0.137 -0.5874  0.1874 -0.1591
  517MPD2    C3 7732   2.768   1.382   0.187  0.8373  0.3944 -0.1673
  517MPD2    C4 7733   2.631   1.372   0.177  0.6201  0.0499  0.1251
  517MPD2    C5 7734   2.577   1.261   0.120  0.2604 -0.1670 -0.1774
  517MPD2     H 7735   2.957   1.280   0.142 -0.5717 -0.7703 -0.4136
  517MPD2    H1 7736   2.562   1.445   0.219  0.3788  0.6108 -1.2744
  517MPD2    H2 7737   2.608   1.071   0.034  0.3958 -0.3374 -0.1584
  517MPD2    H3 7738   2.469   1.256   0.110  0.2874 -0.3466 -0.3670
  517MPD2     N 7739   2.814   1.497   0.245 -0.1519 -0.7047 -0.4160
  517MPD2    H5 7740   2.742   1.549   0.295 -1.1014 -0.5539 -1.9238
  517MPD2    N1 7741   2.873   1.054   0.052  0.7222 -0.8302 -0.5641
  517MPD2    H7 7742   2.971   1.074   0.070  0.6037 -0.9266  0.1917
  518TMC3    C1 7743   2.950   0.842  17.741  0.0557  0.0572 -0.0447
  518TMC3    C2 7744   2.949   0.713   0.024 -0.5160  0.5684 -0.3105
  518TMC3    C3 7745   3.063   0.633   0.023 -0.2901  0.2068 -0.1184
  518TMC3    C4 7746   3.065   0.894  17.689 -0.2966  0.0821 -0.5281
  518TMC3    C5 7747   3.174   0.813  17.688  0.0296  0.0517  0.2073
  518TMC3    C6 7748   3.180   0.687  17.743 -0.2528  0.2505  0.3498
  518TMC3     C 7749   2.834   0.926   0.012 -0.4189 -0.5443  0.4552
  518TMC3     O 7750   2.724   0.877   0.025 -0.2637 -0.2462  0.1556
  518TMC3     H 7751   2.850   0.680   0.052 -0.2679  0.1763  0.0918
  518TMC3    H1 7752   3.070   0.999  17.660  2.2593 -0.0574 -0.5383
  518TMC3    H2 7753   3.267   0.624  17.734  0.1296  0.7463  0.5896
  518TMC3    C7 7754   3.255   0.836  17.568  0.1156 -0.2862 -0.4601
  518TMC3    C8 7755   3.031   0.502  17.732 -0.2313 -0.0595 -0.1409
  518TMC3    O1 7756   3.290   0.948  17.541  0.0899  0.0322 -0.0163
  518TMC3    O2 7757   3.099   0.462  17.639 -0.2150 -0.2978  0.3833
  519MPD2     C 7758   4.501   4.718  14.529 -0.5467 -0.5621 -0.3742
  519MPD2    C1 7759   4.440   0.001  14.403  0.0932 -0.5391 -0.3217
  519MPD2    C2 7760   4.515   4.714  14.281 -0.0058 -0.7383  0.3001
  519MPD2    C3 7761   4.646   4.667  14.299 -0.5283 -0.3904  0.5265
  519MPD2    C4 7762   4.697   4.643  14.425  0.9055 -0.2612 -0.4235
  519MPD2    C5 7763   4.629   4.672  14.541  0.7634  0.1156 -0.8617
  519MPD2     H 7764   4.472   4.719  14.181 -0.0511 -1.7603  0.2628
  519MPD2    H1 7765   0.053   4.595  14.435  0.3336 -1.0451  1.2250
  519MPD2    H2 7766   4.438   4.732  14.615 -1.8152  1.8539 -1.6833
  519MPD2    H3 7767   4.675   4.626  14.627 -0.2954  1.4050  0.3919
  519MPD2     N 7768   4.727   4.636  14.188 -0.1054  0.0860 -0.1741
  519MPD2    H5 7769   0.070   4.585  14.217  1.1827  0.5664 -3.0218
  519MPD2    N1 7770   4.308   0.050  14.404  0.1722  0.4527 -0.1318
  519MPD2    H7 7771   4.265   0.035  14.495 -0.0628  0.3222 -0.2647
  520TMC3    C1 7772   0.054   4.610  13.966  0.7479  0.3732 -0.2220
  520TMC3    C2 7773   0.028   4.630  13.835  0.2963 -0.4886  0.4229
  520TMC3    C3 7774   0.102   4.577  13.740 -0.0040 -0.8494 -0.9475
  520TMC3    C4 7775   0.120   4.501  13.995  0.1024 -0.0947 -0.6810
  520TMC3    C5 7776   0.183   4.431  13.897  0.6170  0.3424  0.4117
  520TMC3    C6 7777   0.190   4.471  13.764  0.5403  0.4589  0.3766
  520TMC3     C 7778   4.699   4.662  14.058 -0.6545  1.0975  0.0940
  520TMC3     O 7779   4.607   4.722  14.008 -0.3998  0.3219 -0.2257
  520TMC3     H 7780   4.702   4.710  13.803  1.2292 -1.6487 -4.3084
  520TMC3    H1 7781   0.129   4.471  14.099 -1.2058 -0.8146 -0.7734
  520TMC3    H2 7782   0.250   4.418  13.691  1.7302 -1.9096  3.0645
  520TMC3    C7 7783   0.250   4.310  13.933  0.0640 -0.3047 -0.9320
  520TMC3    C8 7784   0.042   4.581  13.610 -0.1768  0.7595 -0.2968
  520TMC3    O1 7785   0.275   4.293  14.050  0.6875 -0.2256 -0.4388
  520TMC3    O2 7786   0.121   4.585  13.514  0.0353 -0.4567  0.2502
  521MPD2     C 7787   0.506   2.897  17.460 -0.0561 -0.3242 -0.2820
  521MPD2    C1 7788   0.475   2.776  17.385 -0.1096  0.2062  0.3578
  521MPD2    C2 7789   0.585   2.692  17.353  0.2297 -0.6274  0.3994
  521MPD2    C3 7790   0.709   2.713  17.412  0.5752 -0.1661  0.4896
  521MPD2    C4 7791   0.735   2.826  17.479 -0.5040 -0.0596  0.3692
  521MPD2    C5 7792   0.635   2.915  17.499  0.1085 -0.4471 -0.4480
  521MPD2     H 7793   0.573   2.604  17.291  1.0273  1.1702 -2.3240
  521MPD2    H1 7794   0.830   2.856  17.521 -1.8542  1.7595  2.1551
  521MPD2    H2 7795   0.435   2.967  17.503 -0.6752 -0.3770 -1.1991
  521MPD2    H3 7796   0.655   2.999  17.565  0.7088 -0.8742 -0.0905
  521MPD2     N 7797   0.810   2.615  17.384  0.0899  0.3495 -0.6978
  521MPD2    H5 7798   0.786   2.540  17.319 -0.0287 -0.9007  0.7970
  521MPD2    N1 7799   0.341   2.726  17.365 -0.4287 -0.2085 -0.3667
  521MPD2    H7 7800   0.270   2.767  17.424 -1.0351 -0.2379 -1.0768
  522TMC3    C1 7801   1.008   2.497  17.385 -0.1550  0.0847  0.2653
  522TMC3    C2 7802   1.150   2.503  17.387  1.3257  0.3496  0.8924
  522TMC3    C3 7803   1.213   2.386  17.364  0.2451  0.3854  0.5973
  522TMC3    C4 7804   0.938   2.378  17.362 -0.2052  0.3096 -0.3368
  522TMC3    C5 7805   1.019   2.268  17.361  0.3036 -0.8340  0.2716
  522TMC3    C6 7806   1.151   2.266  17.353 -0.4908  0.5355  0.5240
  522TMC3     C 7807   0.937   2.609  17.432  0.1669 -0.3754  0.0113
  522TMC3     O 7808   1.002   2.693  17.496 -0.2118 -0.1053  0.3235
  522TMC3     H 7809   1.201   2.598  17.394 -0.6690  1.4927  0.0695
  522TMC3    H1 7810   0.830   2.371  17.376 -0.3069 -0.9551 -1.8048
  522TMC3    H2 7811   1.201   2.174  17.323  0.4737  1.7923 -1.6681
  522TMC3    C7 7812   0.946   2.147  17.326  0.2316  0.3275 -0.2010
  522TMC3    C8 7813   1.355   2.395  17.340 -0.2723 -0.4943 -0.0439
  522TMC3    O1 7814   0.982   2.040  17.376  0.1168 -1.0465 -0.0254
  522TMC3    O2 7815   1.417   2.482  17.389  0.2961  0.3043 -0.1136
  523MPD2     C 7816   2.315   2.706  10.261 -0.2632 -0.0483 -0.4423
  523MPD2    C1 7817   2.253   2.611  10.185 -0.7310  0.4029  0.1081
  523MPD2    C2 7818   2.161   2.644  10.085  0.3115 -0.2224 -0.3287
  523MPD2    C3 7819   2.146   2.783  10.068  0.6733  0.0439  0.2114
  523MPD2    C4 7820   2.212   2.876  10.137 -0.2053 -0.0372  0.0802
  523MPD2    C5 7821   2.303   2.837  10.234  0.5259 -0.4831 -0.2875
  523MPD2     H 7822   2.100   2.571  10.032  1.4440 -1.5642  0.2091
  523MPD2    H1 7823   2.211   2.982  10.114 -2.7268  0.4389  2.3889
  523MPD2    H2 7824   2.391   2.677  10.332 -1.1588  0.8236  0.8526
  523MPD2    H3 7825   2.355   2.913  10.291 -3.0456  2.2033 -0.6231
  523MPD2     N 7826   2.040   2.831   9.980 -0.0367 -0.0374  0.0402
  523MPD2    H5 7827   2.022   2.931   9.984 -0.6674 -0.2120  1.2298
  523MPD2    N1 7828   2.280   2.471  10.208  0.6339 -0.4981 -0.8378
  523MPD2    H7 7829   2.363   2.451  10.263  2.1154  1.4740 -2.3794
  524TMC3    C1 7830   1.886   2.850   9.807  0.2330  0.6416  0.6313
  524TMC3    C2 7831   1.884   2.825   9.670  0.1834  0.6374 -0.7217
  524TMC3    C3 7832   1.796   2.893   9.592  0.3555  0.2022 -0.5092
  524TMC3    C4 7833   1.824   2.959   9.860  0.5323 -0.2764  0.3026
  524TMC3    C5 7834   1.753   3.031   9.777 -0.1049  0.2641 -0.4859
  524TMC3    C6 7835   1.729   3.003   9.646  0.1485 -0.9130 -0.2930
  524TMC3     C 7836   1.988   2.774   9.869  0.3354  0.1395  0.6209
  524TMC3     O 7837   1.985   2.653   9.848 -0.3802  0.0301  0.3073
  524TMC3     H 7838   1.942   2.742   9.632 -1.3244 -0.4122 -0.7538
  524TMC3    H1 7839   1.822   2.977   9.967 -0.5986 -0.1727  0.2655
  524TMC3    H2 7840   1.666   3.073   9.592  0.0906  0.4225  1.5254
  524TMC3    C7 7841   1.655   3.123   9.837 -0.6528 -0.3930 -0.0800
  524TMC3    C8 7842   1.812   2.896   9.452  0.2215  0.3098  0.1258
  524TMC3    O1 7843   1.636   3.096   9.955  0.0267  0.2490  0.0261
  524TMC3    O2 7844   1.910   2.838   9.405 -0.0857 -1.1048 -0.2427
  525MPD2     C 7845   1.291   3.835  14.451  0.4684 -0.4261  0.0262
  525MPD2    C1 7846   1.191   3.879  14.533  0.4483 -0.5027 -0.1949
  525MPD2    C2 7847   1.143   4.009  14.521 -0.0452 -0.0164 -0.0002
  525MPD2    C3 7848   1.189   4.095  14.427  0.4253 -0.3229 -0.3470
  525MPD2    C4 7849   1.281   4.046  14.337 -0.4971 -0.2764  0.5789
  525MPD2    C5 7850   1.326   3.915  14.346  0.3172  0.5634 -1.1220
  525MPD2     H 7851   1.070   4.048  14.591 -0.0966  0.4225 -0.3013
  525MPD2    H1 7852   1.336   4.103  14.263 -0.9196  0.1142  0.5640
  525MPD2    H2 7853   1.338   3.738  14.463  2.5137  0.2546 -2.3029
  525MPD2    H3 7854   1.409   3.875  14.288  0.7095 -0.1651 -0.0708
  525MPD2     N 7855   1.160   4.230  14.440 -0.4661  0.1964 -0.4889
  525MPD2    H5 7856   1.100   4.261  14.516 -0.8441  1.2992 -1.2422
  525MPD2    N1 7857   1.167   3.785  14.644 -0.1546  0.3644  0.6254
  525MPD2    H7 7858   1.209   3.693  14.633 -1.0227 -0.1369  1.4969
  526TMC3    C1 7859   1.080   3.670  14.831 -1.0669 -0.0601  0.8484
  526TMC3    C2 7860   0.972   3.668  14.915 -0.3219  0.2714  0.0217
  526TMC3    C3 7861   0.983   3.573  15.012 -0.2549  0.7166  0.8335
  526TMC3    C4 7862   1.188   3.583  14.823  0.2912  0.1483 -0.3631
  526TMC3    C5 7863   1.199   3.497  14.927  0.1647 -0.6744  1.0417
  526TMC3    C6 7864   1.096   3.494  15.018  0.0754  0.0709 -0.0969
  526TMC3     C 7865   1.084   3.795  14.751 -0.4314 -0.4103 -0.4245
  526TMC3     O 7866   1.005   3.886  14.779  0.6876 -0.2153 -0.2938
  526TMC3     H 7867   0.883   3.729  14.911 -0.3138  0.3177  0.4823
  526TMC3    H1 7868   1.269   3.598  14.752  0.6351 -0.0492 -0.0131
  526TMC3    H2 7869   1.105   3.427  15.103 -0.3351  0.0930 -0.0336
  526TMC3    C7 7870   1.316   3.431  14.972  0.2825 -0.7082  0.4813
  526TMC3    C8 7871   0.939   3.607  15.146  0.2759  0.1894  0.4277
  526TMC3    O1 7872   1.322   3.364  15.072 -0.1826 -0.9131 -0.5600
  526TMC3    O2 7873   1.002   3.561  15.244 -0.0970  0.5116  0.1721
  527MPD2     C 7874   3.642   1.552   1.459  0.0543  0.3702  0.6465
  527MPD2    C1 7875   3.671   1.529   1.322 -0.0018  0.3989 -1.1218
  527MPD2    C2 7876   3.799   1.557   1.277 -0.3719  0.4152 -0.6487
  527MPD2    C3 7877   3.897   1.603   1.366  0.2937 -0.0907 -0.2776
  527MPD2    C4 7878   3.865   1.637   1.494  0.3896 -0.3562  0.6417
  527MPD2    C5 7879   3.738   1.601   1.541 -0.8309  0.8453 -0.2778
  527MPD2     H 7880   3.828   1.543   1.173  1.0676  1.7609 -0.4340
  527MPD2    H1 7881   3.940   1.675   1.563  0.7057  0.1781  0.0021
  527MPD2    H2 7882   3.539   1.549   1.491 -0.7385 -1.6794 -2.1280
  527MPD2    H3 7883   3.717   1.637   1.641 -1.0524  0.7091 -0.2736
  527MPD2     N 7884   4.023   1.635   1.312 -0.2138 -0.6822 -0.0868
  527MPD2    H5 7885   4.039   1.633   1.212  0.4962  0.9223 -0.0159
  527MPD2    N1 7886   3.577   1.489   1.228 -0.0955 -0.3349  0.1180
  527MPD2    H7 7887   3.612   1.475   1.134 -2.3998 -0.1156 -0.7698
  528TMC3    C1 7888   3.381   1.400   1.133 -0.2026  0.2510  0.0465
  528TMC3    C2 7889   3.404   1.466   1.014 -0.4148 -0.6343 -0.4585
  528TMC3    C3 7890   3.311   1.454   0.914 -0.3282 -0.1170  0.0210
  528TMC3    C4 7891   3.267   1.320   1.150  0.5555  0.6096  0.4869
  528TMC3    C5 7892   3.175   1.328   1.043  0.4709  0.0249 -0.4872
  528TMC3    C6 7893   3.196   1.390   0.924 -0.9587  0.5927 -0.1850
  528TMC3     C 7894   3.447   1.443   1.249  0.4889 -0.2243  0.2672
  528TMC3     O 7895   3.380   1.457   1.348  0.1446 -0.9832 -0.6295
  528TMC3     H 7896   3.477   1.546   1.000 -0.8472 -0.0427  0.6353
  528TMC3    H1 7897   3.252   1.279   1.249  2.4345 -0.4559  0.3427
  528TMC3    H2 7898   3.114   1.401   0.854 -0.5260 -3.1117 -1.2871
  528TMC3    C7 7899   3.032   1.302   1.073 -0.5714 -0.4215  0.5572
  528TMC3    C8 7900   3.335   1.524   0.785 -0.5823 -0.4472 -0.1609
  528TMC3    O1 7901   2.942   1.345   1.004  0.9113 -0.0536  0.8001
  528TMC3    O2 7902   3.418   1.615   0.787  0.1068 -0.6654 -0.1718
  529MPD2     C 7903   1.444   0.088   0.183 -0.5943  0.0145  0.7999
  529MPD2    C1 7904   1.408   0.119   0.315 -0.3317 -0.0462 -0.4954
  529MPD2    C2 7905   1.332   0.230   0.340  0.1010 -0.1573  0.1789
  529MPD2    C3 7906   1.268   0.305   0.241  0.3941 -0.6028 -0.5353
  529MPD2    C4 7907   1.295   0.264   0.115 -0.2845  0.2823  0.3062
  529MPD2    C5 7908   1.390   0.165   0.085 -0.0871 -0.0807 -0.2936
  529MPD2     H 7909   1.326   0.260   0.444  0.3363 -3.7754  1.2579
  529MPD2    H1 7910   1.262   0.320   0.028  0.7021 -0.2817 -0.4335
  529MPD2    H2 7911   1.523   0.018   0.158 -2.0473 -1.7092  1.0921
  529MPD2    H3 7912   1.432   0.157  17.743 -2.2318 -0.2545 -1.1777
  529MPD2     N 7913   1.194   0.428   0.264  0.0046 -0.3126 -0.2384
  529MPD2    H5 7914   1.149   0.469   0.182  0.0069  0.9333  0.3785
  529MPD2    N1 7915   1.477   0.049   0.421 -0.1495 -0.3045 -0.7939
  529MPD2    H7 7916   1.470   0.089   0.514 -0.6896 -0.8853 -0.5841
  530TMC3    C1 7917   1.541   4.614   0.554 -0.4155 -0.4505  0.7964
  530TMC3    C2 7918   1.602   4.694   0.649  0.8404 -0.5778  1.2435
  530TMC3    C3 7919   1.655   4.640   0.765 -0.5591 -0.1487 -0.0710
  530TMC3    C4 7920   1.547   4.477   0.563  0.3250 -0.8650 -0.1695
  530TMC3    C5 7921   1.611   4.430   0.676 -0.1384 -0.1654  0.3473
  530TMC3    C6 7922   1.663   4.504   0.780  0.7246  0.1728  0.2258
  530TMC3     C 7923   1.537   4.665   0.415 -0.0701 -0.5756 -0.5701
  530TMC3     O 7924   1.571   4.592   0.324  0.7587  0.4748 -0.5666
  530TMC3     H 7925   1.617   0.061   0.636 -1.7277 -0.6709 -2.6230
  530TMC3    H1 7926   1.507   4.417   0.483 -3.1606  0.7289  0.3854
  530TMC3    H2 7927   1.691   4.464   0.877  0.1508 -1.8503 -0.4358
  530TMC3    C7 7928   1.612   4.284   0.702  0.3341 -0.8606  0.2889
  530TMC3    C8 7929   1.713   4.727   0.867  0.2944  0.5968  0.3683
  530TMC3    O1 7930   1.622   4.216   0.602 -0.2143  0.3244  0.4335
  530TMC3    O2 7931   1.706   0.108   0.843  0.0988 -0.2084 -0.4526
  531MPD2     C 7932   0.345   2.691  13.070 -0.6432 -0.2710 -0.0349
  531MPD2    C1 7933   0.243   2.778  13.070 -0.2918 -0.0592 -0.3322
  531MPD2    C2 7934   0.119   2.725  13.056 -0.2098 -0.0223  0.8029
  531MPD2    C3 7935   0.097   2.587  13.042  0.5886 -0.9525  0.2710
  531MPD2    C4 7936   0.205   2.500  13.049 -0.2297 -0.0922  0.5241
  531MPD2    C5 7937   0.330   2.550  13.053 -1.1490 -0.1054  0.2151
  531MPD2     H 7938   0.032   2.789  13.054  0.1741  0.3897 -2.9647
  531MPD2    H1 7939   0.197   2.392  13.045  1.9120 -0.2521  0.9145
  531MPD2    H2 7940   0.444   2.728  13.092  0.2995 -3.3129  0.8654
  531MPD2    H3 7941   0.412   2.484  13.078 -0.0115  1.0965 -0.3055
  531MPD2     N 7942   4.709   2.539  13.029 -0.4321 -0.6378 -0.2650
  531MPD2    H5 7943   4.643   2.616  13.030  0.2517 -0.0337 -2.4946
  531MPD2    N1 7944   0.260   2.915  13.110 -0.2007 -0.2050  0.0975
  531MPD2    H7 7945   0.352   2.948  13.137 -0.2778  2.0311 -2.3132
  532TMC3    C1 7946   0.207   3.120  13.205  0.1336  0.0915  0.0616
  532TMC3    C2 7947   0.113   3.185  13.273  0.3870 -0.1295  0.1967
  532TMC3    C3 7948   0.131   3.243  13.396  0.6598  0.2044  0.1192
  532TMC3    C4 7949   0.336   3.111  13.256  0.4623  0.1088  0.0301
  532TMC3    C5 7950   0.357   3.174  13.378 -0.4004 -0.4619 -0.0193
  532TMC3    C6 7951   0.258   3.246  13.444 -0.7569 -0.1275  0.5994
  532TMC3     C 7952   0.169   3.011  13.122 -0.3854 -0.2133 -0.6780
  532TMC3     O 7953   0.048   3.010  13.091  0.0597 -0.0769  0.0294
  532TMC3     H 7954   0.015   3.187  13.227 -0.0181 -2.6089  0.9545
  532TMC3    H1 7955   0.424   3.063  13.214  0.2315  0.3646 -0.7478
  532TMC3    H2 7956   0.270   3.281  13.546 -1.2805  1.4287  0.1343
  532TMC3    C7 7957   0.477   3.162  13.445  0.1847 -0.3910  0.0706
  532TMC3    C8 7958   0.039   3.184  13.495  0.0409 -0.3639 -0.2082
  532TMC3    O1 7959   0.529   3.266  13.482 -0.0238  0.1193 -0.5836
  532TMC3    O2 7960   0.085   3.183  13.607  0.3405  0.4350  0.0100
  533TMC3    C1 7961   1.168   4.459  14.392 -0.1437 -0.8805 -0.9346
  533TMC3    C2 7962   1.250   4.567  14.369  0.0921 -0.5068 -1.2552
  533TMC3    C3 7963   1.209   4.687  14.402  0.4221  0.2631 -1.2671
  533TMC3    C4 7964   1.048   4.469  14.450  0.5872 -0.0112 -0.4954
  533TMC3    C5 7965   1.006   4.594  14.490  0.2985  0.5271  0.1843
  533TMC3    C6 7966   1.083   4.701  14.457  0.8778  0.2329  0.2329
  533TMC3     C 7967   1.226   4.330  14.375 -0.2276 -0.0913  0.1559
  533TMC3     O 7968   1.334   4.326  14.318 -0.4812  0.2994  0.0665
  533TMC3     H 7969   1.354   4.548  14.343  0.0392 -1.3485 -0.8549
  533TMC3    H1 7970   0.990   4.389  14.493 -1.0561  2.1060  1.2175
  533TMC3    H2 7971   1.047   0.056  14.496  0.3214  0.3824 -0.6442
  533TMC3    C7 7972   0.963   4.586  14.630 -0.7181 -0.4999  0.0446
  533TMC3    C8 7973   1.294   0.056  14.414  0.3880  0.3195 -0.5265
  533TMC3    O1 7974   0.893   4.494  14.677 -0.2605 -0.0126  0.4165
  533TMC3    O2 7975   1.257   0.152  14.480  0.2962  0.1148 -0.1800
  534MPD2     C 7976   4.052   4.692   0.945 -0.7322  0.0339 -0.7324
  534MPD2    C1 7977   3.989   0.058   1.014 -0.3548 -0.2150 -0.3117
  534MPD2    C2 7978   3.865   0.102   0.971  0.7875  0.1853  0.2113
  534MPD2    C3 7979   3.798   0.045   0.865 -0.5021  0.1283  0.7867
  534MPD2    C4 7980   3.855   4.676   0.807  0.0705 -0.5050 -0.3617
  534MPD2    C5 7981   3.979   4.632   0.850  0.2170 -0.0525 -0.1930
  534MPD2     H 7982   3.827   0.189   1.022  0.3835  0.6926 -0.9667
  534MPD2    H1 7983   3.815   4.623   0.721 -0.3006  1.7105 -1.5668
  534MPD2    H2 7984   4.153   4.659   0.964 -0.6200  0.8758  0.1385
  534MPD2    H3 7985   4.018   4.551   0.789 -2.2286 -1.4174  0.0556
  534MPD2     N 7986   3.684   0.110   0.816  0.6508 -0.2148 -0.4225
  534MPD2    H5 7987   3.644   0.171   0.887  2.4887 -0.3612  0.7340
  534MPD2    N1 7988   4.052   0.137   1.118  0.3192  0.8079  0.5039
  534MPD2    H7 7989   4.006   0.215   1.163  1.3365  0.7243  1.7024
  535TMC3    C1 7990   3.517   0.198   0.677  0.4770  0.4112  1.3619
  535TMC3    C2 7991   3.466   0.249   0.793 -0.5085  0.8300  0.4900
  535TMC3    C3 7992   3.408   0.369   0.791  0.0754 -0.8354 -0.2000
  535TMC3    C4 7993   3.525   0.272   0.559 -0.1877  0.4630 -0.3467
  535TMC3    C5 7994   3.479   0.398   0.569 -0.0888  0.3240  0.7073
  535TMC3    C6 7995   3.408   0.448   0.676 -0.0448  0.2850 -0.3823
  535TMC3     C 7996   3.626   0.104   0.689  0.2261 -0.0871  0.1379
  535TMC3     O 7997   3.665   0.048   0.587 -0.7169 -0.2243  0.2588
  535TMC3     H 7998   3.466   0.182   0.878 -1.6617 -0.0406 -0.2021
  535TMC3    H1 7999   3.575   0.237   0.469  1.9387 -0.3486  1.1612
  535TMC3    H2 8000   3.362   0.546   0.670 -0.0686  0.3309  0.6546
  535TMC3    C7 8001   3.489   0.475   0.443  0.3964  0.0136  0.2611
  535TMC3    C8 8002   3.288   0.371   0.880 -0.1959  0.2760 -0.4811
  535TMC3    O1 8003   3.518   0.405   0.346  0.1706 -0.0855 -0.0891
  535TMC3    O2 8004   3.225   0.269   0.903  0.1570 -0.2024  0.1509
  536MPD2     C 8005   2.804   3.622  16.295 -0.0031  0.1314 -0.3254
  536MPD2    C1 8006   2.677   3.575  16.310  0.6343 -0.4098  1.1020
  536MPD2    C2 8007   2.572   3.631  16.231 -0.0538  0.3738 -0.2545
  536MPD2    C3 8008   2.601   3.725  16.128 -0.1789 -0.1055 -1.1049
  536MPD2    C4 8009   2.731   3.765  16.112  0.1914  0.3414  0.5630
  536MPD2    C5 8010   2.831   3.713  16.194  0.2436  0.6537  0.3231
  536MPD2     H 8011   2.471   3.601  16.256  0.2538 -1.1530 -0.8122
  536MPD2    H1 8012   2.775   3.831  16.038  1.2605 -1.1615 -0.1470
  536MPD2    H2 8013   2.883   3.569  16.346 -0.8823 -1.3540 -0.5090
  536MPD2    H3 8014   2.933   3.744  16.171  0.0301  0.9437 -0.2261
  536MPD2     N 8015   2.503   3.783  16.047 -0.3922 -0.2211  0.0924
  536MPD2    H5 8016   2.522   3.867  15.994 -2.3731 -0.4428 -0.9902
  536MPD2    N1 8017   2.648   3.481  16.410  0.2729 -0.0558  0.2902
  536MPD2    H7 8018   2.723   3.445  16.469 -0.8427 -1.7300  0.6966
  537TMC3    C1 8019   2.534   3.314  16.530  0.2118  0.3782 -0.4727
  537TMC3    C2 8020   2.651   3.296  16.598 -0.1839  0.0256 -0.1279
  537TMC3    C3 8021   2.653   3.205  16.698 -0.0035 -0.2657 -0.0067
  537TMC3    C4 8022   2.416   3.240  16.561 -0.1900 -0.2145  0.4336
  537TMC3    C5 8023   2.424   3.145  16.665  0.3025 -0.0812  0.3428
  537TMC3    C6 8024   2.538   3.138  16.743  1.1019  0.1938 -0.5488
  537TMC3     C 8025   2.530   3.409  16.422  0.5123  0.3121 -0.2019
  537TMC3     O 8026   2.436   3.398  16.346  0.2633  0.0723 -0.4945
  537TMC3     H 8027   2.745   3.337  16.562  0.2006 -0.6853  0.0629
  537TMC3    H1 8028   2.322   3.266  16.513 -1.2295 -2.6703  1.1486
  537TMC3    H2 8029   2.544   3.064  16.822 -2.4583  2.3243  1.6963
  537TMC3    C7 8030   2.298   3.101  16.721  0.5060 -0.4003 -0.0263
  537TMC3    C8 8031   2.766   3.221  16.794 -0.3060 -0.0854 -0.0498
  537TMC3    O1 8032   2.188   3.134  16.672  0.6097 -0.5051 -0.6485
  537TMC3    O2 8033   2.850   3.302  16.755 -0.1174  0.1027 -0.2040
  538TMC3    C1 8034   3.023   2.134  11.102 -1.0067 -0.1594 -0.1770
  538TMC3    C2 8035   3.138   2.109  11.018  0.8182  0.0668  0.0657
  538TMC3    C3 8036   3.141   2.159  10.890  0.2318 -0.4334 -0.2033
  538TMC3    C4 8037   2.929   2.223  11.060  0.3036 -0.7826 -0.3913
  538TMC3    C5 8038   2.950   2.285  10.939  0.3156 -0.6544 -0.4879
  538TMC3    C6 8039   3.044   2.245  10.847 -0.5880  0.0929 -0.3233
  538TMC3     C 8040   3.020   2.099  11.245 -0.1590 -0.1821 -0.2550
  538TMC3     O 8041   2.908   2.091  11.299 -0.7180 -0.0491 -0.2068
  538TMC3     H 8042   3.205   2.028  11.045 -0.7096 -0.9504  0.8086
  538TMC3    H1 8043   2.855   2.267  11.125  0.9273 -2.2070  1.2795
  538TMC3    H2 8044   3.033   2.274  10.743 -1.4797 -0.9279 -0.5127
  538TMC3    C7 8045   2.870   2.396  10.908 -0.5967  0.9932 -0.5767
  538TMC3    C8 8046   3.201   2.067  10.791 -0.1107  0.2097 -0.5273
  538TMC3    O1 8047   2.792   2.390  10.812  0.0249 -0.6355  0.2035
  538TMC3    O2 8048   3.228   1.955  10.831  0.0259  0.5983 -0.1596
  539MPD2     C 8049   2.993   1.461  11.940  0.4556  0.1723  0.8252
  539MPD2    C1 8050   2.991   1.488  11.804  0.9570 -0.6753  0.0178
  539MPD2    C2 8051   2.935   1.608  11.768 -0.8071 -0.3831 -0.5852
  539MPD2    C3 8052   2.888   1.702  11.861 -0.2694  0.4077  0.3622
  539MPD2    C4 8053   2.896   1.673  11.995  0.1993  0.2803 -0.4072
  539MPD2    C5 8054   2.948   1.548  12.026  0.4419 -0.2790  0.9812
  539MPD2     H 8055   2.946   1.642  11.665 -0.3741 -1.7096 -0.9773
  539MPD2    H1 8056   2.864   1.750  12.063  0.9487 -1.2839  1.7077
  539MPD2    H2 8057   3.043   1.370  11.970  0.5308  0.1070  0.5030
  539MPD2    H3 8058   2.942   1.529  12.133  0.0399 -1.2109  0.7943
  539MPD2     N 8059   2.838   1.827  11.824 -0.4386  0.3584 -0.3593
  539MPD2    H5 8060   2.828   1.891  11.902  0.2533  2.0611 -1.6755
  539MPD2    N1 8061   3.036   1.404  11.701  0.0114 -1.0369 -0.0482
  539MPD2    H7 8062   3.023   1.446  11.609  0.3868 -2.5191 -0.7838
  540TMC3    C1 8063   2.754   2.003  11.690 -0.6063 -0.0435 -0.1525
  540TMC3    C2 8064   2.730   2.053  11.565  1.0965  0.7865  0.0542
  540TMC3    C3 8065   2.669   2.171  11.553  0.3371  0.5842  0.5305
  540TMC3    C4 8066   2.704   2.056  11.805  0.5460 -1.2686  0.6523
  540TMC3    C5 8067   2.642   2.175  11.792 -0.4418  0.0396 -0.4981
  540TMC3    C6 8068   2.627   2.235  11.666 -0.4545 -0.0666 -1.0509
  540TMC3     C 8069   2.812   1.871  11.697 -0.3961  0.5022  0.2369
  540TMC3     O 8070   2.813   1.815  11.587  0.0746  0.2612 -0.0316
  540TMC3     H 8071   2.764   2.001  11.476 -0.3889 -0.5476  0.2573
  540TMC3    H1 8072   2.694   1.999  11.896  0.8669  2.1315  2.7948
  540TMC3    H2 8073   2.575   2.328  11.649 -0.7828 -0.3502 -1.5841
  540TMC3    C7 8074   2.525   2.199  11.878 -0.4292  0.0639 -0.7838
  540TMC3    C8 8075   2.634   2.221  11.421 -0.0813 -0.9884 -0.3958
  540TMC3    O1 8076   2.466   2.103  11.929 -0.2218  0.6622  0.1406
  540TMC3    O2 8077   2.625   2.342  11.398  0.1062 -0.4455 -0.3945
  541MPD2     C 8078   1.927   3.096  13.172 -0.5324  0.3744 -0.5689
  541MPD2    C1 8079   1.875   3.002  13.085 -0.0994 -0.0686  0.1274
  541MPD2    C2 8080   1.820   3.047  12.969  1.2171  0.5803  0.3051
  541MPD2    C3 8081   1.815   3.184  12.940  0.1725  0.2791 -0.4233
  541MPD2    C4 8082   1.868   3.276  13.031  0.2147  0.2220  0.0477
  541MPD2    C5 8083   1.923   3.232  13.148 -0.1013 -0.2442 -0.0750
  541MPD2     H 8084   1.791   2.972  12.896 -2.0651  0.3903  1.8125
  541MPD2    H1 8085   1.858   3.383  13.017  1.8335  0.3674  0.0393
  541MPD2    H2 8086   1.979   3.058  13.259  0.1209  0.8255 -0.7599
  541MPD2    H3 8087   1.957   3.301  13.225 -0.5763 -2.8484  2.4514
  541MPD2     N 8088   1.748   3.242  12.831 -0.5019 -0.2724  0.4617
  541MPD2    H5 8089   1.724   3.341  12.833  3.9041  0.7598  0.0891
  541MPD2    N1 8090   1.881   2.866  13.112 -0.0536 -0.1403 -1.0595
  541MPD2    H7 8091   1.856   2.805  13.035 -1.1565  0.6673 -1.3444
  542TMC3    C1 8092   1.626   3.257  12.632 -0.9553  0.6026 -0.5831
  542TMC3    C2 8093   1.635   3.249  12.497  0.4278  0.4442 -0.1095
  542TMC3    C3 8094   1.547   3.321  12.423  0.6115 -0.4695 -0.1772
  542TMC3    C4 8095   1.531   3.340  12.693 -0.1540  0.5279  0.0822
  542TMC3    C5 8096   1.438   3.405  12.620 -1.1403 -0.0081 -0.0697
  542TMC3    C6 8097   1.444   3.392  12.481 -0.2121  0.0093  0.0960
  542TMC3     C 8098   1.699   3.171  12.720  0.4805 -0.2693 -0.2484
  542TMC3     O 8099   1.729   3.058  12.685  0.5792 -0.2189  0.5252
  542TMC3     H 8100   1.699   3.174  12.453 -0.5850 -0.2397 -0.4273
  542TMC3    H1 8101   1.513   3.337  12.800  1.5100 -1.5537  0.3123
  542TMC3    H2 8102   1.371   3.440  12.416  0.1811  1.6523  0.8702
  542TMC3    C7 8103   1.415   3.539  12.666 -0.3383 -0.0884  0.2495
  542TMC3    C8 8104   1.527   3.281  12.283 -0.0968 -0.6623 -0.5001
  542TMC3    O1 8105   1.462   3.572  12.772 -0.6332  0.4491  0.5266
  542TMC3    O2 8106   1.422   3.314  12.231  0.1786  0.5748 -0.0517
  543TMC3    C1 8107   1.100   4.190  17.268 -0.6001 -0.4743  0.0174
  543TMC3    C2 8108   1.100   4.059  17.312 -0.1098  0.5589 -0.2499
  543TMC3    C3 8109   1.076   4.030  17.441 -0.1043 -0.4227 -0.0470
  543TMC3    C4 8110   1.088   4.285  17.365  0.0038  0.4566 -0.3027
  543TMC3    C5 8111   1.054   4.259  17.497  0.3337  0.2358 -0.3256
  543TMC3    C6 8112   1.051   4.129  17.540  0.8369 -1.6373  0.6435
  543TMC3     C 8113   1.211   4.210  17.172  0.5822 -0.1328  0.2798
  543TMC3     O 8114   1.255   4.103  17.126 -0.0856 -0.5087 -0.2029
  543TMC3     H 8115   1.122   3.974  17.248  3.3487 -1.7295  3.9981
  543TMC3    H1 8116   1.107   4.388  17.337  0.1464  0.7273  0.7731
  543TMC3    H2 8117   1.035   4.091  17.640 -2.5081 -1.4979  0.1385
  543TMC3    C7 8118   0.983   4.357  17.579 -0.0929 -0.0785  0.3887
  543TMC3    C8 8119   1.057   3.898  17.480 -0.0358 -0.8406 -0.0608
  543TMC3    O1 8120   0.973   4.350  17.700 -0.4792 -0.8671  0.4606
  543TMC3    O2 8121   1.100   3.866  17.591 -0.1471 -0.0404 -0.4927
  544MPD2     C 8122   0.983   3.409  17.365 -0.0861  0.2098  0.2560
  544MPD2    C1 8123   1.029   3.465  17.485  0.6689  0.1456 -0.0955
  544MPD2    C2 8124   1.046   3.601  17.485  0.2082 -0.4732 -0.1292
  544MPD2    C3 8125   0.998   3.677  17.382 -0.1586  0.4678 -0.0560
  544MPD2    C4 8126   0.940   3.621  17.273  0.6604  0.2730  0.4784
  544MPD2    C5 8127   0.939   3.486  17.262 -0.0533  0.0553  0.1342
  544MPD2     H 8128   1.104   3.639  17.569  1.9614  1.5515 -2.2829
  544MPD2    H1 8129   0.900   3.682  17.192 -1.3170 -2.3016 -0.4647
  544MPD2    H2 8130   0.965   3.303  17.353  1.0940  0.1908 -1.4718
  544MPD2    H3 8131   0.904   3.435  17.173 -2.1319 -0.5400  1.2646
  544MPD2     N 8132   1.009   3.814  17.375  1.2127  0.2566 -0.3144
  544MPD2    H5 8133   0.963   3.857  17.296  1.2225 -1.5553 -1.3086
  544MPD2    N1 8134   1.053   3.382  17.600  0.5834  0.6972  0.0171
  544MPD2    H7 8135   1.029   3.283  17.592 -3.0933  1.4779  1.1629
  545TMC3    C1 8136   1.113   3.302   0.057 -0.3169 -0.3152 -0.3783
  545TMC3    C2 8137   1.225   3.287   0.132  0.0846 -0.4369  0.4802
  545TMC3    C3 8138   1.226   3.179   0.206  0.4763 -0.1010 -1.0094
  545TMC3    C4 8139   1.008   3.217   0.069  0.3209 -0.1822 -0.4448
  545TMC3    C5 8140   1.008   3.113   0.152 -0.2620  0.4669  0.2348
  545TMC3    C6 8141   1.124   3.088   0.213  0.1578 -0.1828  0.0023
  545TMC3     C 8142   1.105   3.422  17.719  0.0349 -0.1262 -0.6552
  545TMC3     O 8143   1.167   3.521  17.757 -0.1549 -0.0480 -0.3839
  545TMC3     H 8144   1.303   3.362   0.130  1.3046 -1.6767  1.0287
  545TMC3    H1 8145   0.918   3.235   0.012  0.0363 -0.3519 -0.0538
  545TMC3    H2 8146   1.138   3.005   0.281 -1.4881 -1.6538 -1.4591
  545TMC3    C7 8147   0.946   2.998   0.099 -0.1030 -0.3425 -0.1372
  545TMC3    C8 8148   1.351   3.137   0.267 -0.6785 -0.7160 -0.7474
  545TMC3    O1 8149   0.887   3.012  17.750  0.5187  0.1265 -0.0795
  545TMC3    O2 8150   1.347   3.089   0.381  0.2548  0.2328  0.2590
  546MPD2     C 8151   2.830   3.747  17.524  0.0950 -0.0819  0.1693
  546MPD2    C1 8152   2.858   3.784  17.391  0.2120  0.4774 -0.2620
  546MPD2    C2 8153   2.890   3.914  17.358  0.2828  0.5540  0.3393
  546MPD2    C3 8154   2.915   4.004  17.456 -0.3448 -0.0045  0.8453
  546MPD2    C4 8155   2.896   3.963  17.589  0.6892  0.3477 -0.8487
  546MPD2    C5 8156   2.850   3.838  17.623 -0.8982 -0.6812 -0.4044
  546MPD2     H 8157   2.898   3.948  17.256  0.5694 -0.0629  0.1573
  546MPD2    H1 8158   2.915   4.031  17.671 -0.2728  0.1458 -0.4534
  546MPD2    H2 8159   2.788   3.651  17.550 -1.1468  0.3519 -0.2625
  546MPD2    H3 8160   2.821   3.820  17.726  3.4861  0.9316  1.1396
  546MPD2     N 8161   2.964   4.135  17.436  0.2998  0.9114  0.2228
  546MPD2    H5 8162   2.961   4.195  17.518  1.6970 -2.4791  2.7674
  546MPD2    N1 8163   2.828   3.684  17.290 -0.1040  0.6357  0.4359
  546MPD2    H7 8164   2.785   3.598  17.322 -2.8815  1.9073  0.1623
  547TMC3    C1 8165   2.743   3.625  17.080 -0.0574 -0.4591 -0.1158
  547TMC3    C2 8166   2.702   3.654  16.956 -0.1046 -0.4190  0.3558
  547TMC3    C3 8167   2.603   3.585  16.885 -0.0755  0.3966  0.5281
  547TMC3    C4 8168   2.688   3.509  17.140  0.0932 -0.1366  0.4748
  547TMC3    C5 8169   2.598   3.436  17.058  0.1015 -1.0804 -0.1224
  547TMC3    C6 8170   2.548   3.477  16.937  0.5009 -0.7312  0.5221
  547TMC3     C 8171   2.825   3.715  17.153  0.4835  0.8614  0.4555
  547TMC3     O 8172   2.850   3.820  17.094  0.1800  0.4430 -0.0896
  547TMC3     H 8173   2.760   3.726  16.899 -1.6737  0.8882  0.4280
  547TMC3    H1 8174   2.750   3.459  17.214  0.8065  1.5874  1.0469
  547TMC3    H2 8175   2.483   3.411  16.880  1.8274 -0.8072 -0.8888
  547TMC3    C7 8176   2.539   3.310  17.100  0.0359 -0.4047  0.0281
  547TMC3    C8 8177   2.556   3.644  16.766 -0.3823 -0.4087 -0.3013
  547TMC3    O1 8178   2.491   3.235  17.014 -0.3249 -0.3892  0.2714
  547TMC3    O2 8179   2.645   3.703  16.700 -0.0139  0.0014  0.3261
  548MPD2     C 8180   2.098   0.289  12.507 -0.2902 -0.5132 -0.0846
  548MPD2    C1 8181   2.066   0.162  12.554  0.6945  0.3128 -0.1523
  548MPD2    C2 8182   2.155   0.056  12.542 -0.4325 -0.5821  0.5222
  548MPD2    C3 8183   2.281   0.080  12.489 -0.0885 -0.0304  0.0294
  548MPD2    C4 8184   2.315   0.204  12.440 -0.4679 -0.0452 -0.2991
  548MPD2    C5 8185   2.222   0.305  12.451 -0.5073  0.0750 -0.6763
  548MPD2     H 8186   2.129   4.694  12.570 -1.3380 -0.0466  1.5999
  548MPD2    H1 8187   2.416   0.232  12.410  0.1692 -1.6295  0.3651
  548MPD2    H2 8188   2.026   0.370  12.517  0.6999  0.7790 -3.4980
  548MPD2    H3 8189   2.246   0.406  12.421 -2.7829  0.4074 -1.4174
  548MPD2     N 8190   2.360   4.708  12.488  0.2918  0.4369  0.1856
  548MPD2    H5 8191   2.324   4.624  12.532  0.7464  0.0520 -0.1667
  548MPD2    N1 8192   1.931   0.140  12.596 -0.1384 -0.4852  0.7453
  548MPD2    H7 8193   1.872   0.222  12.587 -0.1050 -0.5158  0.2430
  549TMC3    C1 8194   1.732   0.020  12.649 -0.8260  0.2249 -0.2166
  549TMC3    C2 8195   1.654   0.100  12.575 -0.1930 -0.5974  0.0181
  549TMC3    C3 8196   1.523   0.067  12.559  0.3452 -0.1090 -0.1810
  549TMC3    C4 8197   1.676   4.659  12.726  0.2889 -0.1028  0.6033
  549TMC3    C5 8198   1.545   4.629  12.708  0.2455  0.3931 -1.0668
  549TMC3    C6 8199   1.462   4.703  12.620  0.3908 -0.2348  0.0463
  549TMC3     C 8200   1.881   0.017  12.635 -0.1704 -0.9700 -0.3117
  549TMC3     O 8201   1.931   4.655  12.672 -0.0042 -0.0700  0.4265
  549TMC3     H 8202   1.702   0.169  12.506  0.5015  0.3617  1.4483
  549TMC3    H1 8203   1.743   4.605  12.792 -0.7560 -1.6668  0.3672
  549TMC3    H2 8204   1.354   4.693  12.618  0.6676 -3.1286  0.0155
  549TMC3    C7 8205   1.495   4.509  12.761 -0.2060 -0.6733  0.2894
  549TMC3    C8 8206   1.437   0.158  12.495  0.6205  0.2660 -1.0592
  549TMC3    O1 8207   1.375   4.501  12.783  0.1442  0.2033  0.1383
  549TMC3    O2 8208   1.340   0.101  12.445  0.3065 -0.1262  0.1481
  550TMC3    C1 8209   0.772   2.503  12.332 -0.2801 -0.1738  0.1584
  550TMC3    C2 8210   0.835   2.623  12.361  0.3348  0.1606 -0.1009
  550TMC3    C3 8211   0.783   2.702  12.459  1.0308 -0.6272  0.3507
  550TMC3    C4 8212   0.646   2.478  12.381  0.1933  0.7121  0.3000
  550TMC3    C5 8213   0.587   2.570  12.466  0.2401 -0.8585 -0.4807
  550TMC3    C6 8214   0.655   2.680  12.520 -0.0083 -0.0671 -0.0241
  550TMC3     C 8215   0.796   2.453  12.194 -0.5486  0.4239 -0.6162
  550TMC3     O 8216   0.692   2.409  12.147  0.1725  0.5835  0.0808
  550TMC3     H 8217   0.918   2.656  12.300  0.7757  0.1968  0.5180
  550TMC3    H1 8218   0.590   2.390  12.352 -0.2139  1.3950 -0.9641
  550TMC3    H2 8219   0.611   2.758  12.582  0.6506  0.5235 -0.2936
  550TMC3    C7 8220   0.455   2.605  12.422 -0.2024 -0.7267 -0.2937
  550TMC3    C8 8221   0.820   2.846  12.463 -0.4483 -0.7044 -0.3210
  550TMC3    O1 8222   0.384   2.676  12.492  0.0987  0.1434 -0.1220
  550TMC3    O2 8223   0.747   2.941  12.496 -0.6710  0.6682 -0.2305
  551TMC3    C1 8224   3.697   0.941  13.357 -0.7555 -0.6154  0.5868
  551TMC3    C2 8225   3.806   0.971  13.278 -0.5483  0.3918  0.5607
  551TMC3    C3 8226   3.898   1.068  13.311  0.3534  0.5270 -0.4598
  551TMC3    C4 8227   3.692   0.994  13.483 -0.0829  0.0977 -0.2668
  551TMC3    C5 8228   3.783   1.093  13.513  0.3456 -0.3163 -0.2341
  551TMC3    C6 8229   3.891   1.129  13.433 -0.0226 -1.1238  0.7968
  551TMC3     C 8230   3.566   0.918  13.282  0.2862 -0.3105 -0.0842
  551TMC3     O 8231   3.487   0.837  13.324  0.2041 -0.3732  0.3007
  551TMC3     H 8232   3.819   0.916  13.185  0.3686  2.2436 -0.4195
  551TMC3    H1 8233   3.598   0.991  13.536 -0.2926  0.3864 -0.6166
  551TMC3    H2 8234   3.973   1.190  13.470  0.1126 -1.6948  1.4506
  551TMC3    C7 8235   3.767   1.160  13.633  0.0905  0.7584  0.3016
  551TMC3    C8 8236   4.015   1.098  13.224 -0.0647 -0.6793  0.0893
  551TMC3    O1 8237   3.707   1.104  13.723  0.5877  0.1034 -0.9689
  551TMC3    O2 8238   4.068   1.004  13.174  0.9932  0.4278 -0.0629
  552MPD2     C 8239   0.778   3.060  13.881  0.6046  0.0825 -0.2850
  552MPD2    C1 8240   0.727   2.944  13.932 -0.0082  0.2065 -0.3817
  552MPD2    C2 8241   0.812   2.850  13.983 -0.4994 -0.3283 -0.0332
  552MPD2    C3 8242   0.948   2.882  13.985 -0.3459 -0.0804  1.0963
  552MPD2    C4 8243   0.997   2.998  13.937  0.1339  0.1903  0.2452
  552MPD2    C5 8244   0.914   3.094  13.887 -0.0651  0.5554 -0.0080
  552MPD2     H 8245   0.778   2.758  14.028 -0.6344 -0.6716 -0.8258
  552MPD2    H1 8246   1.105   3.011  13.936  0.1957 -0.3114  0.6362
  552MPD2    H2 8247   0.707   3.129  13.837 -0.1195 -0.2583  0.3665
  552MPD2    H3 8248   0.955   3.183  13.841 -1.1425 -0.1791 -2.3965
  552MPD2     N 8249   1.050   2.799  14.042 -0.1103  0.0759  0.4846
  552MPD2    H5 8250   1.147   2.825  14.028 -0.2064  0.7233  1.0041
  552MPD2    N1 8251   0.589   2.905  13.921  0.1371 -0.2767  0.0682
  552MPD2    H7 8252   0.563   2.808  13.940 -0.6960  0.2002  1.3406
  553TMC3    C1 8253   0.364   2.914  13.857 -0.0760  0.2524 -0.0899
  553TMC3    C2 8254   0.295   2.928  13.742  0.0711 -0.0448  0.1870
  553TMC3    C3 8255   0.212   2.831  13.695  0.7789 -0.0085  0.5543
  553TMC3    C4 8256   0.339   2.808  13.942  0.1630  0.3134  0.5926
  553TMC3    C5 8257   0.257   2.718  13.898  0.4581  0.8108  0.2857
  553TMC3    C6 8258   0.181   2.728  13.782 -0.2103  1.0792 -0.2682
  553TMC3     C 8259   0.494   2.978  13.855 -0.3138 -0.3497  0.3194
  553TMC3     O 8260   0.499   3.088  13.809 -0.5682 -0.0182 -0.1282
  553TMC3     H 8261   0.338   3.003  13.678 -1.2784 -0.1702 -0.8764
  553TMC3    H1 8262   0.398   2.791  14.031 -0.9322 -1.4257  0.9862
  553TMC3    H2 8263   0.125   2.640  13.755 -2.2925  1.4956  2.7274
  553TMC3    C7 8264   0.245   2.593  13.972  0.0702  0.4077  0.4466
  553TMC3    C8 8265   0.244   2.784  13.563  0.3374  1.0118  0.2364
  553TMC3    O1 8266   0.140   2.583  14.035 -0.1193  0.2645 -0.1755
  553TMC3    O2 8267   0.360   2.794  13.528  0.1153  0.3185  0.0245
  554TMC3    C1 8268   1.627   1.389  11.602 -0.0250  0.1079 -0.0794
  554TMC3    C2 8269   1.584   1.405  11.470  0.1137  0.3127  0.1409
  554TMC3    C3 8270   1.600   1.530  11.419 -0.3524  0.5954 -0.5160
  554TMC3    C4 8271   1.679   1.485  11.675  0.6929 -0.2260 -0.0791
  554TMC3    C5 8272   1.692   1.609  11.612  0.3017 -0.0070 -0.6456
  554TMC3    C6 8273   1.651   1.636  11.482 -0.3116 -0.0116  0.3661
  554TMC3     C 8274   1.625   1.250  11.650  0.2454  0.0730  0.0535
  554TMC3     O 8275   1.533   1.183  11.610  0.6294  0.5431  0.0119
  554TMC3     H 8276   1.533   1.326  11.416  1.9939  0.8334 -2.4535
  554TMC3    H1 8277   1.700   1.468  11.780  0.4447 -0.7736 -0.1154
  554TMC3    H2 8278   1.655   1.732  11.433  1.1716  0.7680  2.0391
  554TMC3    C7 8279   1.776   1.703  11.681 -0.3070  0.4273  0.0016
  554TMC3    C8 8280   1.582   1.558  11.275 -0.2966  0.3227 -0.0166
  554TMC3    O1 8281   1.808   1.680  11.793 -0.2610 -0.3753 -0.6467
  554TMC3    O2 8282   1.633   1.655  11.224  0.3344 -0.1003  0.8287
  555TMC3    C1 8283   1.408   1.367  15.312  0.4528  0.6459  0.1478
  555TMC3    C2 8284   1.490   1.417  15.405  0.0190  0.1027  0.0197
  555TMC3    C3 8285   1.545   1.337  15.501 -0.2374 -0.1058  0.2116
  555TMC3    C4 8286   1.404   1.230  15.298 -0.3654  0.0961  0.0400
  555TMC3    C5 8287   1.460   1.149  15.391  0.2658  0.2396  0.6068
  555TMC3    C6 8288   1.542   1.198  15.491  0.8881  0.8864  0.6833
  555TMC3     C 8289   1.415   1.441  15.190 -0.3377 -0.2819  0.6737
  555TMC3     O 8290   1.516   1.504  15.167  0.3025  0.3492  0.2507
  555TMC3     H 8291   1.504   1.525  15.410  2.0776 -0.1513 -0.1469
  555TMC3    H1 8292   1.345   1.187  15.217  0.3811 -2.4984  0.8672
  555TMC3    H2 8293   1.557   1.128  15.573  0.2464  1.4016  1.2469
  555TMC3    C7 8294   1.453   1.005  15.372 -0.1000  0.6467  0.4987
  555TMC3    C8 8295   1.643   1.399  15.582  0.4846 -0.3582 -0.1330
  555TMC3    O1 8296   1.344   0.953  15.349  0.2298  0.0588 -0.2129
  555TMC3    O2 8297   1.692   1.508  15.555  0.3310  0.1794 -0.9932
  556MPD2     C 8298   4.101   2.811  10.700 -0.2095  0.0286  0.2306
  556MPD2    C1 8299   3.965   2.821  10.706 -0.1156  0.5887 -0.2089
  556MPD2    C2 8300   3.894   2.783  10.596  0.5401 -0.2895 -0.0345
  556MPD2    C3 8301   3.954   2.742  10.474  0.0448  0.4271  0.4699
  556MPD2    C4 8302   4.094   2.723  10.476  0.0264 -0.3056 -0.3789
  556MPD2    C5 8303   4.165   2.764  10.590 -0.3643  0.0469  0.2552
  556MPD2     H 8304   3.786   2.776  10.607  0.7441 -1.9602  0.9826
  556MPD2    H1 8305   4.163   2.689  10.399  2.0358  0.2438  1.1835
  556MPD2    H2 8306   4.156   2.849  10.786 -0.2800  0.1394  0.2269
  556MPD2    H3 8307   4.273   2.770  10.593 -0.2382 -1.7251 -0.5854
  556MPD2     N 8308   3.876   2.693  10.366 -0.1092  0.3750 -0.8492
  556MPD2    H5 8309   3.776   2.697  10.381 -0.0301  0.8226 -0.4209
  556MPD2    N1 8310   3.909   2.877  10.824  0.4040  0.0795 -0.5167
  556MPD2    H7 8311   3.968   2.888  10.905 -0.3255  0.8857 -0.0979
  557TMC3    C1 8312   3.826   2.556  10.179  0.0622 -0.0511  1.2561
  557TMC3    C2 8313   3.884   2.482  10.080  0.6961 -0.0762  0.3028
  557TMC3    C3 8314   3.836   2.354  10.055 -1.0010 -0.4584 -0.0985
  557TMC3    C4 8315   3.724   2.504  10.248  0.7461  1.2967 -0.3629
  557TMC3    C5 8316   3.685   2.376  10.224  0.3907 -0.1299 -0.2008
  557TMC3    C6 8317   3.741   2.293  10.130  0.3840  0.2603  0.1675
  557TMC3     C 8318   3.927   2.635  10.247  0.5781 -0.0987  0.2624
  557TMC3     O 8319   4.043   2.618  10.213  0.3847 -0.5295 -0.2572
  557TMC3     H 8320   3.960   2.530  10.018  0.2426 -1.7663 -1.5532
  557TMC3    H1 8321   3.653   2.565  10.302  2.4613  0.3629  2.9308
  557TMC3    H2 8322   3.683   2.206  10.101  0.1349 -0.3535  2.5168
  557TMC3    C7 8323   3.581   2.326  10.311 -0.1452  0.6871  0.4379
  557TMC3    C8 8324   3.899   2.277   9.953  0.1897 -0.5430  0.2645
  557TMC3    O1 8325   3.525   2.407  10.384  0.3606 -0.0824 -0.0577
  557TMC3    O2 8326   3.959   2.350   9.876  0.2584 -0.3781  0.0228
  558TMC3    C1 8327   1.271   0.527  10.257 -0.4277  0.0357 -0.1099
  558TMC3    C2 8328   1.188   0.525  10.364  0.0539  0.2030  0.0037
  558TMC3    C3 8329   1.060   0.561  10.347 -0.2784  0.5099  0.2720
  558TMC3    C4 8330   1.238   0.570  10.132 -0.3091 -0.1978 -0.1697
  558TMC3    C5 8331   1.111   0.616  10.125 -0.1422 -0.2437 -0.2667
  558TMC3    C6 8332   1.017   0.606  10.227  0.4054  0.0937 -0.8981
  558TMC3     C 8333   1.410   0.499  10.272  0.2286 -0.0766  0.1795
  558TMC3     O 8334   1.489   0.579  10.218  0.5054  0.1922  0.4863
  558TMC3     H 8335   1.225   0.495  10.461  1.2468 -0.8131 -0.7620
  558TMC3    H1 8336   1.310   0.590  10.054 -1.1225 -0.6333 -1.0317
  558TMC3    H2 8337   0.917   0.647  10.219  0.6451  1.0773  1.0884
  558TMC3    C7 8338   1.075   0.677  10.001  0.0672 -0.4986  0.3500
  558TMC3    C8 8339   0.972   0.580  10.463 -0.0344 -0.3487 -0.0970
  558TMC3    O1 8340   1.164   0.683   9.917 -0.0207 -0.5222 -0.8615
  558TMC3    O2 8341   0.851   0.567  10.450 -0.7046  0.3376 -0.4101
  559MPD2     C 8342   1.727   1.465  10.551  0.0895  0.0930 -0.7212
  559MPD2    C1 8343   1.681   1.340  10.593 -0.6326  0.3468  0.3579
  559MPD2    C2 8344   1.753   1.270  10.687 -0.5449  0.7648 -0.5787
  559MPD2    C3 8345   1.869   1.334  10.738 -0.7865  0.1658  0.0586
  559MPD2    C4 8346   1.909   1.464  10.694 -0.1282 -0.1323 -0.1101
  559MPD2    C5 8347   1.835   1.524  10.595  0.2013  0.0411 -1.1555
  559MPD2     H 8348   1.720   1.178  10.733  1.9397 -0.2477 -0.7841
  559MPD2    H1 8349   1.999   1.514  10.727 -0.8874  2.6551 -2.1733
  559MPD2    H2 8350   1.682   1.518  10.468 -2.0293  0.1463  0.4706
  559MPD2    H3 8351   1.852   1.626  10.564 -1.1559  0.8905  0.8753
  559MPD2     N 8352   1.949   1.268  10.838  0.0942 -0.4712 -0.3784
  559MPD2    H5 8353   1.919   1.179  10.878 -0.2186  0.1082  0.6687
  559MPD2    N1 8354   1.560   1.293  10.533  0.6131  0.7834 -0.1874
  559MPD2    H7 8355   1.519   1.354  10.462 -1.6923 -0.6803 -0.1102
  560TMC3    C1 8356   2.085   1.209  10.999 -0.9029 -0.4634  0.0956
  560TMC3    C2 8357   2.044   1.078  10.985  0.0270  0.2285 -0.5643
  560TMC3    C3 8358   2.063   0.986  11.085  0.9343 -0.6860 -0.0056
  560TMC3    C4 8359   2.145   1.248  11.116  0.7117  0.0321  0.2824
  560TMC3    C5 8360   2.149   1.154  11.220 -0.3551 -0.0645 -0.0016
  560TMC3    C6 8361   2.114   1.023  11.201 -0.2570  0.6011  0.0826
  560TMC3     C 8362   2.062   1.309  10.900  0.7038 -0.8988 -0.0762
  560TMC3     O 8363   2.113   1.418  10.921 -0.6703  0.1836 -0.5299
  560TMC3     H 8364   2.010   1.049  10.887 -0.4448 -0.2214 -0.2632
  560TMC3    H1 8365   2.181   1.348  11.135  0.7635  0.2328 -0.8696
  560TMC3    H2 8366   2.128   0.946  11.276  1.3478  0.3365 -0.4973
  560TMC3    C7 8367   2.243   1.176  11.327  0.2642  0.7993  0.0466
  560TMC3    C8 8368   1.991   0.859  11.080  0.5017 -0.2580 -0.6749
  560TMC3    O1 8369   2.236   1.102  11.426 -0.0502  0.1873 -0.2008
  560TMC3    O2 8370   1.967   0.798  11.183  0.9389 -0.2653 -0.2077
  561TMC3    C1 8371   4.555   0.171  10.874 -0.5995  0.2423 -0.0839
  561TMC3    C2 8372   4.450   0.168  10.967 -0.1798  0.2819  0.1707
  561TMC3    C3 8373   4.326   0.165  10.911  0.0712 -0.2506 -0.8190
  561TMC3    C4 8374   4.535   0.164  10.740 -0.2603 -0.2038  0.2252
  561TMC3    C5 8375   4.407   0.165  10.692  0.1731 -0.0258  0.1563
  561TMC3    C6 8376   4.298   0.163  10.775  0.2236  0.0282 -0.6834
  561TMC3     C 8377   4.664   0.257  10.909 -0.4735  0.8655 -0.1406
  561TMC3     O 8378   4.682   0.352  10.835  0.7762  0.3135  0.1243
  561TMC3     H 8379   4.466   0.165  11.074  1.8332  1.3823 -0.1085
  561TMC3    H1 8380   4.623   0.157  10.677 -0.5022 -3.8204  0.2868
  561TMC3    H2 8381   4.195   0.167  10.741 -0.1426 -0.6401  0.3680
  561TMC3    C7 8382   4.388   0.252  10.574  0.1182 -0.1741 -0.4841
  561TMC3    C8 8383   4.211   0.154  10.994  0.3585 -0.5005 -0.1484
  561TMC3    O1 8384   4.272   0.273  10.536  0.3680  0.0656 -0.9197
  561TMC3    O2 8385   4.113   0.100  10.943  0.4658  0.2542 -0.3003
  562TMC3    C1 8386   1.137   1.757  16.122 -0.2749  0.2301  0.1084
  562TMC3    C2 8387   1.046   1.856  16.083  0.0683  0.8610  0.2608
  562TMC3    C3 8388   1.030   1.868  15.943 -0.4464  0.2989 -0.8283
  562TMC3    C4 8389   1.206   1.679  16.028  0.7845 -0.3522 -0.7919
  562TMC3    C5 8390   1.174   1.692  15.896  0.3942  0.3082  0.5771
  562TMC3    C6 8391   1.090   1.791  15.850 -0.1983 -0.7223 -0.0364
  562TMC3     C 8392   1.165   1.725  16.261  0.0290  0.9696  0.0357
  562TMC3     O 8393   1.215   1.616  16.281 -0.1041  0.3875 -0.0621
  562TMC3     H 8394   0.981   1.904  16.155  1.0848  0.2965  1.5604
  562TMC3    H1 8395   1.283   1.612  16.066 -0.1607 -1.5412 -0.9591
  562TMC3    H2 8396   1.049   1.795  15.750  1.5126  0.0134 -0.7132
  562TMC3    C7 8397   1.196   1.585  15.812 -0.5822 -0.2624 -0.2000
  562TMC3    C8 8398   0.905   1.940  15.914 -0.1033 -0.4043 -0.0541
  562TMC3    O1 8399   1.188   1.605  15.694  0.3535  0.0056  0.0204
  562TMC3    O2 8400   0.817   1.934  16.003 -0.7029 -0.1594  0.3226
  563MPD2     C 8401   3.863   2.582  15.768  0.2243 -0.6254  0.0091
  563MPD2    C1 8402   3.867   2.628  15.898  0.3731 -0.1247 -0.2207
  563MPD2    C2 8403   3.968   2.710  15.934 -1.0928 -0.3803 -0.0275
  563MPD2    C3 8404   4.075   2.728  15.845 -1.1133  0.4895  0.3830
  563MPD2    C4 8405   4.067   2.690  15.709  0.1661 -0.3593 -0.1457
  563MPD2    C5 8406   3.959   2.615  15.676 -0.2204  0.6904 -0.2421
  563MPD2     H 8407   3.981   2.746  16.035 -1.0690  0.4810 -0.3404
  563MPD2    H1 8408   4.145   2.712  15.638 -1.5875 -0.8338 -2.2222
  563MPD2    H2 8409   3.780   2.531  15.721 -0.1099 -0.5173  0.4875
  563MPD2    H3 8410   3.940   2.583  15.574 -2.2557 -1.2265  0.7348
  563MPD2     N 8411   4.185   2.801  15.892  0.2653  0.2305 -0.0929
  563MPD2    H5 8412   4.188   2.847  15.982 -0.8557  1.6688 -0.7933
  563MPD2    N1 8413   3.762   2.615  15.988 -0.0301 -0.2890  0.6910
  563MPD2    H7 8414   3.770   2.666  16.075 -1.2602 -0.1673  0.7338
  564TMC3    C1 8415   3.586   2.519  16.100  0.3631  0.2229  0.2608
  564TMC3    C2 8416   3.456   2.492  16.086  0.7566  0.4451  0.0488
  564TMC3    C3 8417   3.402   2.418  16.186 -0.0562 -0.9900  0.1444
  564TMC3    C4 8418   3.665   2.484  16.206  0.6753  0.5068 -0.5823
  564TMC3    C5 8419   3.602   2.408  16.303 -0.4295 -0.2470 -0.3539
  564TMC3    C6 8420   3.467   2.388  16.301 -0.0866  1.3670  0.5103
  564TMC3     C 8421   3.655   2.527  15.974  0.6899  0.1863 -0.0279
  564TMC3     O 8422   3.621   2.453  15.881 -0.3437  0.2900 -0.6231
  564TMC3     H 8423   3.409   2.523  15.993  1.0747 -2.3967 -1.0838
  564TMC3    H1 8424   3.773   2.492  16.210  0.9962 -3.7163 -0.7286
  564TMC3    H2 8425   3.409   2.334  16.375  1.1031 -0.4916  0.0882
  564TMC3    C7 8426   3.668   2.285  16.335  0.2765 -0.8367 -0.4734
  564TMC3    C8 8427   3.327   2.306  16.133  0.6857  0.7765  0.2635
  564TMC3    O1 8428   3.789   2.286  16.363  0.3471 -0.1557 -0.4899
  564TMC3    O2 8429   3.279   2.235  16.220 -0.0558 -0.0843  0.4911
  565TMC3    C1 8430   3.173   4.092   9.701  0.0600 -0.1246 -0.2713
  565TMC3    C2 8431   3.070   4.035   9.784  0.1871  0.4867 -0.3728
  565TMC3    C3 8432   2.941   4.031   9.746  0.2517  0.5067  0.4546
  565TMC3    C4 8433   3.137   4.162   9.585 -0.6257  0.3192 -0.1194
  565TMC3    C5 8434   3.000   4.159   9.551 -0.4208  0.1566 -0.5985
  565TMC3    C6 8435   2.912   4.079   9.619  0.6374 -0.1374 -0.5103
  565TMC3     C 8436   3.313   4.099   9.752  0.5543  0.0848 -0.5011
  565TMC3     O 8437   3.402   4.081   9.674 -0.1253  0.1510  0.0893
  565TMC3     H 8438   3.100   3.961   9.858  1.7079  1.3591 -0.1087
  565TMC3    H1 8439   3.215   4.211   9.527  0.9284 -1.1808  0.6950
  565TMC3    H2 8440   2.809   4.097   9.589  1.0951  1.2392 -1.2308
  565TMC3    C7 8441   2.959   4.200   9.415 -0.0915 -0.3217 -0.3545
  565TMC3    C8 8442   2.854   3.919   9.796  0.3147  0.1711 -0.5152
  565TMC3    O1 8443   2.863   4.138   9.366  0.0201 -0.3145 -0.4006
  565TMC3    O2 8444   2.911   3.841   9.871 -0.2351 -0.9650 -0.5225
  566MPD2     C 8445   1.062   1.221  14.395  0.2019 -0.4718 -0.1188
  566MPD2    C1 8446   1.077   1.358  14.410 -0.1583 -0.0708  0.8543
  566MPD2    C2 8447   0.990   1.453  14.352  0.1622  0.3138  0.3836
  566MPD2    C3 8448   0.896   1.403  14.267  0.0698  0.4667  0.1407
  566MPD2    C4 8449   0.879   1.268  14.249  0.1883 -0.0490 -0.3423
  566MPD2    C5 8450   0.955   1.182  14.319 -0.0390 -0.1899  0.2854
  566MPD2     H 8451   1.001   1.561  14.356  1.7128  0.1534  0.1979
  566MPD2    H1 8452   0.803   1.245  14.175 -0.8675 -3.8881  1.8982
  566MPD2    H2 8453   1.118   1.143  14.444  0.3924  0.2242  0.7804
  566MPD2    H3 8454   0.953   1.074  14.316 -0.1127 -0.1470 -1.0485
  566MPD2     N 8455   0.824   1.485  14.183 -0.6828 -0.0856  0.6166
  566MPD2    H5 8456   0.767   1.437  14.114 -0.2252 -1.7184  1.3810
  566MPD2    N1 8457   1.184   1.406  14.481 -0.1934 -0.5177 -0.3082
  566MPD2    H7 8458   1.233   1.330  14.528 -0.9962 -1.4372 -0.9393
  567TMC3    C1 8459   1.348   1.554  14.571 -0.5414  0.3598  0.6051
  567TMC3    C2 8460   1.400   1.681  14.561  0.5315  0.4016 -0.6395
  567TMC3    C3 8461   1.527   1.699  14.616  0.1192  0.1331  0.7988
  567TMC3    C4 8462   1.401   1.447  14.646 -0.0087  0.3700  0.0979
  567TMC3    C5 8463   1.523   1.477  14.697  0.3017  1.0366  0.1100
  567TMC3    C6 8464   1.585   1.594  14.679  0.2463  0.2271 -0.1399
  567TMC3     C 8465   1.227   1.538  14.490 -0.9332 -0.1124  0.1213
  567TMC3     O 8466   1.196   1.636  14.422 -0.6357 -0.2027  0.2681
  567TMC3     H 8467   1.353   1.761  14.505 -0.9418  0.6162  0.9218
  567TMC3    H1 8468   1.373   1.342  14.638  3.4459 -0.3332 -3.0324
  567TMC3    H2 8469   1.680   1.611  14.728 -0.7513  2.0646  1.1410
  567TMC3    C7 8470   1.583   1.382  14.792 -0.4450  0.4349  0.4223
  567TMC3    C8 8471   1.604   1.802  14.554  0.0620  0.0201 -0.2246
  567TMC3    O1 8472   1.705   1.376  14.801 -0.2300  0.2034  0.1674
  567TMC3    O2 8473   1.536   1.867  14.476 -0.1011 -0.4303  0.6845
  568MPD2     C 8474   3.187   0.902  16.570 -0.8738 -1.0306  0.0635
  568MPD2    C1 8475   3.222   1.021  16.636 -0.9332  0.6220 -0.2936
  568MPD2    C2 8476   3.189   1.145  16.579  0.4387  0.1610  0.1859
  568MPD2    C3 8477   3.126   1.146  16.452  0.0001  0.2950 -0.3917
  568MPD2    C4 8478   3.112   1.027  16.383 -0.7330  0.5934 -0.2649
  568MPD2    C5 8479   3.138   0.904  16.443 -0.0051 -0.2254  0.0839
  568MPD2     H 8480   3.199   1.236  16.637 -1.1379 -0.9228  2.1736
  568MPD2    H1 8481   3.071   1.023  16.283 -0.2451 -0.6900 -0.4128
  568MPD2    H2 8482   3.217   0.806  16.610 -2.0278 -1.5890 -0.4357
  568MPD2    H3 8483   3.113   0.812  16.392  3.9662 -1.1795 -0.1350
  568MPD2     N 8484   3.096   1.272  16.397  0.8197 -0.0206 -0.5194
  568MPD2    H5 8485   3.107   1.353  16.457  0.3321 -2.0962  2.3898
  568MPD2    N1 8486   3.277   1.005  16.767 -0.1134  0.3596  0.6292
  568MPD2    H7 8487   3.285   0.911  16.804  0.9761  0.8807  1.7154
  569TMC3    C1 8488   3.029   1.445  16.258  0.5938  0.2829 -0.2988
  569TMC3    C2 8489   3.039   1.514  16.374  0.1874 -0.0888 -0.3532
  569TMC3    C3 8490   3.102   1.630  16.379  0.4681  0.5045 -0.0555
  569TMC3    C4 8491   3.086   1.499  16.146  0.1566  0.0372 -0.2901
  569TMC3    C5 8492   3.154   1.620  16.157 -0.6953 -0.2211 -0.1484
  569TMC3    C6 8493   3.162   1.693  16.273  0.8503 -0.3815 -0.7199
  569TMC3     C 8494   3.053   1.297  16.270  0.2320 -0.4463 -0.2549
  569TMC3     O 8495   3.060   1.231  16.171 -0.6312 -0.1853  0.0709
  569TMC3     H 8496   2.985   1.487  16.464 -0.4234 -1.4655 -1.1164
  569TMC3    H1 8497   3.082   1.444  16.052 -3.4833  0.1461 -0.2099
  569TMC3    H2 8498   3.238   1.770  16.279 -0.3431  0.7109  0.3742
  569TMC3    C7 8499   3.197   1.689  16.037 -0.8410  0.2372 -0.7421
  569TMC3    C8 8500   3.195   1.611  16.483  0.6715  0.6216  0.2004
  569TMC3    O1 8501   3.224   1.625  15.938 -0.2442  0.2668  0.1516
  569TMC3    O2 8502   3.202   1.495  16.522  0.4129  0.2680  0.5873
  570TMC3    C1 8503   2.585   4.689  16.125 -0.4550  0.4859  0.0266
  570TMC3    C2 8504   2.616   4.736  16.000  0.2329 -0.0269  0.3802
  570TMC3    C3 8505   2.721   0.083  15.989 -0.4135  1.0274  0.2446
  570TMC3    C4 8506   2.640   0.012  16.239  1.0231  0.3308  0.2325
  570TMC3    C5 8507   2.732   0.113  16.217 -0.1240  0.3915  0.1260
  570TMC3    C6 8508   2.776   0.149  16.094  0.2401 -0.0766  0.4946
  570TMC3     C 8509   2.475   4.606  16.142 -0.3249 -0.2088 -0.4431
  570TMC3     O 8510   2.404   4.597  16.046 -0.1833 -0.1718  0.1997
  570TMC3     H 8511   2.571   4.683  15.917  0.5726  0.5296 -0.1602
  570TMC3    H1 8512   2.607   4.731  16.340  0.1929 -1.6439 -0.4316
  570TMC3    H2 8513   2.866   0.210  16.083  0.3010 -0.6120 -2.0256
  570TMC3    C7 8514   2.743   0.217  16.321  0.0733  0.3088 -0.0816
  570TMC3    C8 8515   2.753   0.143  15.861 -0.6050  0.3527  0.2110
  570TMC3    O1 8516   2.700   0.189  16.431 -0.1295  0.3508  0.4313
  570TMC3    O2 8517   2.830   0.234  15.872  0.2834 -0.4744 -0.0164
  571MPD2     C 8518   0.549   2.173  17.454 -0.1927  0.0189  0.5684
  571MPD2    C1 8519   0.556   2.125  17.581 -0.3551  0.7203 -0.7330
  571MPD2    C2 8520   0.525   2.205  17.684 -0.2509 -0.0621 -1.0044
  571MPD2    C3 8521   0.514   2.346  17.661 -0.2257  0.1758  0.4475
  571MPD2    C4 8522   0.517   2.389  17.534  0.1246  0.3269  0.4772
  571MPD2    C5 8523   0.530   2.304  17.429 -0.3460  0.4537 -0.3443
  571MPD2     H 8524   0.518   2.176   0.031  1.1137 -0.4997 -1.0428
  571MPD2    H1 8525   0.523   2.495  17.517  0.3637  0.0890 -0.9162
  571MPD2    H2 8526   0.564   2.103  17.372  2.7089 -1.0730  2.0113
  571MPD2    H3 8527   0.528   2.336  17.326  0.4117  0.4015 -0.3789
  571MPD2     N 8528   0.499   2.451   0.002  0.0252  0.8417  0.1311
  571MPD2    H5 8529   0.517   2.548  17.737  1.2489  0.6600  0.3058
  571MPD2    N1 8530   0.600   1.988  17.599 -0.0664 -0.0410 -0.1528
  571MPD2    H7 8531   0.599   1.934  17.513 -2.7396 -0.4748  0.1543
  572TMC3    C1 8532   0.494   2.557   0.204  0.8175 -0.4146 -0.2753
  572TMC3    C2 8533   0.557   2.544   0.330  0.1153  0.1714  0.0977
  572TMC3    C3 8534   0.617   2.652   0.387  0.7687 -0.2695 -0.2196
  572TMC3    C4 8535   0.502   2.674   0.129  0.2074  0.2346  0.6665
  572TMC3    C5 8536   0.559   2.781   0.199 -0.7761 -0.3696  0.7605
  572TMC3    C6 8537   0.609   2.773   0.328  0.1171 -0.2426 -0.0657
  572TMC3     C 8538   0.492   2.430   0.136 -0.3391 -0.2440  0.3145
  572TMC3     O 8539   0.481   2.328   0.199  0.4314 -0.1174  0.0501
  572TMC3     H 8540   0.581   2.445   0.366  0.3277 -1.0107 -3.3281
  572TMC3    H1 8541   0.440   2.685   0.040 -0.1482  0.5333  0.9487
  572TMC3    H2 8542   0.665   2.855   0.374  2.0519 -2.1135  0.9050
  572TMC3    C7 8543   0.526   2.917   0.139  0.0023  0.2222 -0.0978
  572TMC3    C8 8544   0.718   2.630   0.489  0.5034 -0.1225 -0.6655
  572TMC3    O1 8545   0.454   2.915   0.038  0.0769  0.5435  0.1474
  572TMC3    O2 8546   0.803   2.718   0.495 -0.2324 -0.4001  0.2159
  573MPD2     C 8547   1.719   2.231   0.934 -0.6058 -0.5842 -0.3103
  573MPD2    C1 8548   1.682   2.309   0.823  0.3235 -0.2115 -0.4985
  573MPD2    C2 8549   1.563   2.277   0.753 -0.1473  0.1215 -0.9356
  573MPD2    C3 8550   1.483   2.170   0.783  0.0279 -0.1703  0.4473
  573MPD2    C4 8551   1.523   2.087   0.893  0.1748  0.4368 -0.7232
  573MPD2    C5 8552   1.638   2.123   0.968  0.4457  0.4436  0.4827
  573MPD2     H 8553   1.544   2.335   0.663 -0.8030  0.6275 -0.4666
  573MPD2    H1 8554   1.459   2.007   0.930 -1.2644  0.4318 -3.2659
  573MPD2    H2 8555   1.808   2.238   0.996 -0.5632 -0.1314 -0.4229
  573MPD2    H3 8556   1.660   2.064   1.056 -1.2084  2.8686  2.5220
  573MPD2     N 8557   1.365   2.139   0.705  0.3045  0.1258 -0.2944
  573MPD2    H5 8558   1.330   2.046   0.726  0.4979  0.1433  0.0960
  573MPD2    N1 8559   1.772   2.411   0.787  0.3124 -0.1126 -0.5739
  573MPD2    H7 8560   1.844   2.431   0.855 -0.8265 -1.5710  1.0526
  574TMC3    C1 8561   1.171   2.186   0.572 -0.2528  0.2537  0.5355
  574TMC3    C2 8562   1.122   2.263   0.472 -0.2154 -0.5102  0.8529
  574TMC3    C3 8563   0.991   2.233   0.438 -0.1276 -0.2017  0.9402
  574TMC3    C4 8564   1.107   2.071   0.623 -0.0291 -0.1730  0.1247
  574TMC3    C5 8565   0.978   2.047   0.580  0.0288  0.4712 -0.6930
  574TMC3    C6 8566   0.921   2.129   0.484 -0.1645 -0.2439 -0.1288
  574TMC3     C 8567   1.302   2.228   0.618  0.0806 -0.5098 -0.1991
  574TMC3     O 8568   1.326   2.344   0.593  0.0764  0.3081  0.0391
  574TMC3     H 8569   1.181   2.333   0.414 -2.7570  2.1058  1.4374
  574TMC3    H1 8570   1.157   2.008   0.696 -0.8247  0.4526  1.2139
  574TMC3    H2 8571   0.825   2.112   0.437 -0.1752 -3.0812  0.8804
  574TMC3    C7 8572   0.897   1.960   0.656  0.2629  0.1910 -0.4465
  574TMC3    C8 8573   0.943   2.296   0.322  0.4469  0.8453  0.1591
  574TMC3    O1 8574   0.955   1.877   0.728 -0.1283  0.1435 -0.6542
  574TMC3    O2 8575   0.879   2.220   0.253  0.2721 -0.5066 -0.1929
  575TMC3    C1 8576   2.724   3.183  10.242 -0.1604  0.1646 -0.4871
  575TMC3    C2 8577   2.678   3.075  10.174  0.4506 -0.0435 -0.4284
  575TMC3    C3 8578   2.642   3.100  10.042  0.6505  0.0645  0.1112
  575TMC3    C4 8579   2.736   3.311  10.192 -0.1181 -0.4233  0.6428
  575TMC3    C5 8580   2.701   3.325  10.055  0.3021 -0.4508 -0.0717
  575TMC3    C6 8581   2.650   3.222   9.982 -0.2539  0.7814  0.5509
  575TMC3     C 8582   2.732   3.186  10.385 -0.0155 -0.3519 -0.7919
  575TMC3     O 8583   2.734   3.294  10.437  0.2526 -0.0987 -1.0514
  575TMC3     H 8584   2.654   2.982  10.224  1.3647 -0.4566 -0.7554
  575TMC3    H1 8585   2.782   3.397  10.238 -2.1803  1.4879 -0.8767
  575TMC3    H2 8586   2.631   3.235   9.876 -0.3287 -1.8619  0.2311
  575TMC3    C7 8587   2.700   3.457   9.988  0.5783 -0.0266 -0.0424
  575TMC3    C8 8588   2.562   2.998   9.984  0.0692  0.4158 -0.2901
  575TMC3    O1 8589   2.766   3.540  10.056  0.0540  0.0662  0.0799
  575TMC3    O2 8590   2.576   2.884  10.037 -0.0791  0.0088  0.9267
  576MPD2     C 8591   4.429   0.664  12.291 -0.2491  0.0245  0.0341
  576MPD2    C1 8592   4.387   0.757  12.203  0.2814 -0.0646  0.2465
  576MPD2    C2 8593   4.415   0.890  12.225  0.4447  0.3635 -0.1303
  576MPD2    C3 8594   4.487   0.923  12.341 -0.1090  0.5107 -0.3669
  576MPD2    C4 8595   4.529   0.826  12.430  0.4140  0.4421 -0.0356
  576MPD2    C5 8596   4.503   0.697  12.402 -0.1067  0.5355 -0.1490
  576MPD2     H 8597   4.389   0.968  12.155  0.9012 -0.4850 -1.2519
  576MPD2    H1 8598   4.569   0.853  12.528 -0.1748 -0.1615  0.3725
  576MPD2    H2 8599   4.405   0.560  12.272 -2.8882  0.4898  0.7431
  576MPD2    H3 8600   4.522   0.622  12.478  0.1262  1.3534  0.5983
  576MPD2     N 8601   4.505   1.059  12.366 -0.5953 -1.1688  0.0107
  576MPD2    H5 8602   4.469   1.126  12.299 -0.8481 -1.7886 -0.4738
  576MPD2    N1 8603   4.313   0.738  12.087 -0.3000 -0.6236 -0.5499
  576MPD2    H7 8604   4.284   0.824  12.042  0.7423 -0.8213 -1.6154
  577TMC3    C1 8605   4.207   0.615  11.910  0.5135  0.6807 -0.2484
  577TMC3    C2 8606   4.150   0.499  11.858 -0.5901  0.0511 -0.1609
  577TMC3    C3 8607   4.089   0.508  11.736  0.3923  0.1975 -0.3391
  577TMC3    C4 8608   4.207   0.731  11.837  0.0345  0.3728  0.2547
  577TMC3    C5 8609   4.132   0.738  11.724 -0.2085  0.4289 -0.1656
  577TMC3    C6 8610   4.064   0.629  11.675 -0.2595  0.1935  0.0607
  577TMC3     C 8611   4.265   0.619  12.042  0.2803 -0.2869  0.0143
  577TMC3     O 8612   4.252   0.512  12.100  0.2985 -0.1538  0.0241
  577TMC3     H 8613   4.176   0.406  11.908  1.9864 -0.7779 -3.0487
  577TMC3    H1 8614   4.268   0.816  11.866  0.6827  0.0163 -0.0432
  577TMC3    H2 8615   3.998   0.624  11.589  0.1803  0.4218 -0.2914
  577TMC3    C7 8616   4.103   0.870  11.667  0.2340 -1.4933 -0.1822
  577TMC3    C8 8617   4.054   0.386  11.669 -0.2132 -0.5843  0.5385
  577TMC3    O1 8618   4.204   0.935  11.650 -0.5609 -0.0148  0.0175
  577TMC3    O2 8619   4.057   0.282  11.733  0.1090 -0.2411  0.0104
  578MPD2     C 8620   1.708   0.580   0.937 -0.2774  0.6661  0.3242
  578MPD2    C1 8621   1.769   0.524   0.829 -0.6159 -0.4291 -0.8264
  578MPD2    C2 8622   1.901   0.477   0.842 -0.9597 -0.4047  0.4749
  578MPD2    C3 8623   1.976   0.488   0.962  0.7028  0.0288 -0.8019
  578MPD2    C4 8624   1.916   0.557   1.070 -0.5598  0.3624  0.2054
  578MPD2    C5 8625   1.786   0.605   1.046  0.2271 -0.1830 -0.3820
  578MPD2     H 8626   1.939   0.435   0.750  0.8452  1.1405  0.5172
  578MPD2    H1 8627   1.963   0.589   1.162  2.2697  0.0392 -1.1243
  578MPD2    H2 8628   1.606   0.617   0.942 -0.9315 -0.9486 -0.9986
  578MPD2    H3 8629   1.744   0.669   1.123  0.9670  0.4296 -0.4851
  578MPD2     N 8630   2.114   0.437   0.970 -0.2403 -0.0039 -0.7614
  578MPD2    H5 8631   2.156   0.386   0.893 -1.0503  0.6730 -1.6486
  578MPD2    N1 8632   1.698   0.514   0.706  0.0282 -0.0953  0.1615
  578MPD2    H7 8633   1.611   0.567   0.704 -0.6353 -1.1134  2.3053
  579TMC3    C1 8634   2.332   0.392   1.042 -0.4508  0.5148 -0.4867
  579TMC3    C2 8635   2.436   0.474   1.085 -0.5641 -0.3752 -0.4120
  579TMC3    C3 8636   2.565   0.426   1.069 -1.0393  0.6568 -0.5049
  579TMC3    C4 8637   2.355   0.270   0.981  0.1642  0.0610 -0.5245
  579TMC3    C5 8638   2.480   0.230   0.969 -0.2859  0.6401 -0.2729
  579TMC3    C6 8639   2.585   0.297   1.024 -0.3474  0.0724  0.3507
  579TMC3     C 8640   2.202   0.442   1.078  0.2739 -0.4833 -0.0714
  579TMC3     O 8641   2.183   0.509   1.177  0.4395  0.0002  0.3731
  579TMC3     H 8642   2.422   0.571   1.130  2.0782 -1.1600  2.0752
  579TMC3    H1 8643   2.266   0.211   0.959 -0.5785  0.5360  1.1653
  579TMC3    H2 8644   2.677   0.240   1.022 -0.8695 -0.7713  0.4014
  579TMC3    C7 8645   2.505   0.091   0.929 -0.7941  0.7743  0.0774
  579TMC3    C8 8646   2.672   0.524   1.081 -0.1790 -0.1400 -0.6331
  579TMC3    O1 8647   2.600   0.040   0.984 -0.4165 -0.0853 -0.4817
  579TMC3    O2 8648   2.638   0.640   1.116  0.4045 -0.1573  0.3115
  580TMC3    C1 8649   2.029   4.629  12.220 -0.3135  0.3453 -0.2203
  580TMC3    C2 8650   2.116   4.641  12.117 -0.3225  0.0305  0.5807
  580TMC3    C3 8651   2.168   4.527  12.059  0.5923 -0.2790 -0.2967
  580TMC3    C4 8652   1.983   4.506  12.262  0.0206  0.0522  0.0980
  580TMC3    C5 8653   2.033   4.393  12.197 -0.1474 -0.2221 -0.1981
  580TMC3    C6 8654   2.119   4.404  12.088  0.6242  0.6331 -0.4464
  580TMC3     C 8655   1.939   0.003  12.236  0.6059 -0.2468  0.4070
  580TMC3     O 8656   1.861   4.731  12.332 -0.6538 -0.7065  0.1280
  580TMC3     H 8657   2.155   4.739  12.094  2.1972 -1.2470 -0.5623
  580TMC3    H1 8658   1.922   4.493  12.350  0.4778  2.8556  0.8303
  580TMC3    H2 8659   2.169   4.319  12.043  1.8085 -0.0860  2.2574
  580TMC3    C7 8660   1.979   4.263  12.230  0.3200 -0.6523  0.4202
  580TMC3    C8 8661   2.234   4.530  11.932  0.4197 -0.1752  0.5761
  580TMC3    O1 8662   1.971   4.244  12.351 -0.4988 -0.0085 -0.7747
  580TMC3    O2 8663   2.207   4.451  11.847 -0.2666  0.3739 -0.7186
  581MPD2     C 8664   4.418   4.566  15.042  0.2055 -0.2049  0.0686
  581MPD2    C1 8665   4.413   4.439  15.011  0.0731  0.2055  0.3079
  581MPD2    C2 8666   4.303   4.385  14.939  0.2396  0.6600  0.5749
  581MPD2    C3 8667   4.195   4.472  14.904 -0.2112  0.0608 -0.5308
  581MPD2    C4 8668   4.208   4.602  14.948  0.1105 -0.1581  0.5573
  581MPD2    C5 8669   4.317   4.649  15.005  0.5940 -0.3576  0.1033
  581MPD2     H 8670   4.294   4.282  14.905  3.4495  1.1552 -1.7563
  581MPD2    H1 8671   4.123   4.669  14.949 -1.0120 -1.6033  2.8654
  581MPD2    H2 8672   4.502   4.596  15.104 -0.2196  0.2996  0.4058
  581MPD2    H3 8673   4.313   0.013  15.036  1.4340 -0.5824  0.9935
  581MPD2     N 8674   4.083   4.429  14.833  0.7931 -1.2779 -0.3459
  581MPD2    H5 8675   4.064   4.329  14.830 -0.6078 -0.9764 -1.4909
  581MPD2    N1 8676   4.527   4.367  15.054 -0.1436  0.3393  0.4338
  581MPD2    H7 8677   4.582   4.430  15.112  1.4283  0.1895 -0.8757
  582TMC3    C1 8678   4.661   4.184  15.102  0.3274  0.1747  0.3501
  582TMC3    C2 8679   4.682   4.231  15.231  0.9292 -0.0297  0.8694
  582TMC3    C3 8680   0.034   4.161  15.305 -0.2304  0.0987 -0.1756
  582TMC3    C4 8681   4.725   4.072  15.052  0.2159 -0.1353 -0.0155
  582TMC3    C5 8682   0.068   4.005  15.136  0.0932  0.6208  0.1865
  582TMC3    C6 8683   0.095   4.045  15.260  0.3950 -0.2204  1.1545
  582TMC3     C 8684   4.547   4.233  15.029  0.0999  0.0086 -0.2474
  582TMC3     O 8685   4.500   4.174  14.934  0.0367  0.3176  0.3764
  582TMC3     H 8686   4.605   4.296  15.270  0.9676  0.0191  0.8642
  582TMC3    H1 8687   4.708   4.035  14.952  1.4364 -0.2206 -0.1848
  582TMC3    H2 8688   0.167   3.993  15.322  0.8139  0.1974  1.0110
  582TMC3    C7 8689   0.091   3.865  15.111  0.1698 -0.1089 -0.3287
  582TMC3    C8 8690   0.015   4.180  15.448  0.6105  0.8266  0.0725
  582TMC3    O1 8691   0.191   3.821  15.169 -0.1210 -0.1061  0.1659
  582TMC3    O2 8692   4.673   4.262  15.484 -0.0767  0.4693 -0.1619
  583MPD2     C 8693   4.572   0.799  16.752 -0.5656 -0.4961 -0.1003
  583MPD2    C1 8694   4.593   0.926  16.719  0.5354 -0.5666  0.0462
  583MPD2    C2 8695   4.569   1.019  16.817  0.7772 -0.0585  0.0977
  583MPD2    C3 8696   4.559   0.995  16.954 -0.7529 -0.1565 -0.0198
  583MPD2    C4 8697   4.539   0.862  16.984  0.4224 -0.8262  0.4083
  583MPD2    C5 8698   4.542   0.771  16.883  0.2554 -0.2286  0.5978
  583MPD2     H 8699   4.584   1.122  16.785  0.2657  0.1283  0.4545
  583MPD2    H1 8700   4.530   0.825  17.085 -0.8797  0.0376  0.5987
  583MPD2    H2 8701   4.579   0.712  16.689 -0.3888 -0.7068  0.2123
  583MPD2    H3 8702   4.527   0.668  16.912 -0.1120 -0.9527 -2.2126
  583MPD2     N 8703   4.565   1.100  17.048  0.1925  0.2522  0.1654
  583MPD2    H5 8704   4.574   1.195  17.016  1.3114  0.3007  0.5891
  583MPD2    N1 8705   4.638   0.967  16.595 -0.8053 -0.8152  0.1047
  583MPD2    H7 8706   4.641   1.065  16.569  0.3880 -0.2773  2.2585
  584TMC3    C1 8707   4.576   1.210  17.249  0.1965  0.4806  0.1070
  584TMC3    C2 8708   4.672   1.289  17.200 -0.2562  0.0392 -0.2995
  584TMC3    C3 8709   4.714   1.396  17.275  0.3925  0.0104  0.8403
  584TMC3    C4 8710   4.517   1.233  17.370 -0.1284 -0.1829  0.0809
  584TMC3    C5 8711   4.560   1.336  17.445  1.0647  0.3913  0.0872
  584TMC3    C6 8712   4.656   1.419  17.398 -0.1710 -0.6919  0.3346
  584TMC3     C 8713   4.549   1.086  17.182 -0.7409  1.3070 -0.8291
  584TMC3     O 8714   4.495   1.001  17.246 -0.3339 -0.7481  0.0253
  584TMC3     H 8715   4.724   1.255  17.112 -0.4292  0.9667 -0.7584
  584TMC3    H1 8716   4.448   1.158  17.406  2.1262 -1.1661  2.3197
  584TMC3    H2 8717   4.704   1.497  17.457 -1.8944  0.3322  0.3775
  584TMC3    C7 8718   4.509   1.350  17.584  0.2340 -0.0845 -0.1361
  584TMC3    C8 8719   0.070   1.486  17.213 -0.4488  0.1071 -0.5075
  584TMC3    O1 8720   4.467   1.249  17.638  0.6620  0.7464  0.0374
  584TMC3    O2 8721   0.134   1.431  17.129 -0.3471  0.3930  0.1922
  585MPD2     C 8722   3.712   0.179  17.712  0.6844 -0.5941 -0.1625
  585MPD2    C1 8723   3.762   0.229  17.591 -0.1951  0.3912 -0.0685
  585MPD2    C2 8724   3.820   0.141  17.501 -0.1721 -0.3053  0.3539
  585MPD2    C3 8725   3.810   0.004  17.522 -0.8685  0.8850 -0.1012
  585MPD2    C4 8726   3.763   4.693  17.645 -1.0239 -0.1708  0.0681
  585MPD2    C5 8727   3.716   0.044  17.736  0.4424 -0.3887 -0.5446
  585MPD2     H 8728   3.856   0.178  17.405  0.8459  0.8337  1.1764
  585MPD2    H1 8729   3.766   4.586  17.664  0.2628 -0.1913 -0.2432
  585MPD2    H2 8730   3.658   0.239   0.027 -0.9215 -0.6296 -1.3132
  585MPD2    H3 8731   3.665   0.012   0.069  0.3369  1.7531  0.1524
  585MPD2     N 8732   3.860   4.648  17.431  0.5903 -0.3876 -0.6263
  585MPD2    H5 8733   3.869   4.552  17.461 -4.3709 -0.8173 -0.4590
  585MPD2    N1 8734   3.740   0.365  17.568  0.1163 -0.4375  0.0901
  585MPD2    H7 8735   3.682   0.421  17.630 -0.1317  1.2015 -1.6384
  586TMC3    C1 8736   3.930   4.537  17.254  0.0598  0.4194 -0.0554
  586TMC3    C2 8737   4.007   4.457  17.334  0.7637 -0.2925  0.6096
  586TMC3    C3 8738   4.040   4.336  17.281  0.0896 -0.0687 -0.3131
  586TMC3    C4 8739   3.871   4.498  17.137 -0.4624 -0.2531  0.2540
  586TMC3    C5 8740   3.889   4.374  17.098 -0.5446  0.0967 -0.2988
  586TMC3    C6 8741   3.977   4.296  17.165  0.0807  0.1616 -0.7896
  586TMC3     C 8742   3.884   4.668  17.305  1.3737 -0.4415 -0.0302
  586TMC3     O 8743   3.836   0.009  17.227  0.2198  0.0404 -0.1231
  586TMC3     H 8744   4.068   4.489  17.418 -1.9299  1.9380  1.7501
  586TMC3    H1 8745   3.778   4.543  17.102  0.4418  1.1912 -0.2679
  586TMC3    H2 8746   4.000   4.195  17.132 -2.8545 -0.6437 -0.3814
  586TMC3    C7 8747   3.765   4.300  17.099 -0.1392 -0.9530  0.0894
  586TMC3    C8 8748   4.068   4.229  17.374  0.4243 -0.0203  0.4810
  586TMC3    O1 8749   3.753   4.208  17.179  0.1169  0.0147  0.3420
  586TMC3    O2 8750   4.112   4.125  17.323 -0.3538 -0.1660 -0.3844
  587TMC3    C1 8751   0.906   3.477  15.888 -1.0263  0.3011  0.4742
  587TMC3    C2 8752   0.947   3.555  15.999  0.4131 -0.4111 -0.2031
  587TMC3    C3 8753   1.072   3.529  16.050 -0.1161 -0.0239  0.0300
  587TMC3    C4 8754   0.990   3.388  15.823 -0.0984 -0.2989 -0.2288
  587TMC3    C5 8755   1.115   3.374  15.878  0.4204 -1.1881  0.1068
  587TMC3    C6 8756   1.156   3.439  15.990  0.8014 -1.1208 -0.0201
  587TMC3     C 8757   0.782   3.505  15.825 -1.1244  0.1738 -0.1488
  587TMC3     O 8758   0.772   3.475  15.705  0.1906 -0.0500 -0.2346
  587TMC3     H 8759   0.891   3.638  16.041  1.4042 -0.3631  1.0222
  587TMC3    H1 8760   0.955   3.336  15.736  2.1926 -0.6405 -0.9462
  587TMC3    H2 8761   1.240   3.401  16.048  1.6060  1.2525  0.3750
  587TMC3    C7 8762   1.208   3.284  15.824  0.0099 -0.3905  0.0896
  587TMC3    C8 8763   1.110   3.577  16.179  0.7433  0.0626 -1.2730
  587TMC3    O1 8764   1.288   3.234  15.902 -0.6411  0.2656  0.3134
  587TMC3    O2 8765   1.229   3.595  16.198  0.0872  0.4890  0.0455
  588TMC3    C1 8766   2.797   1.629  10.073 -0.7952  0.0202  0.1338
  588TMC3    C2 8767   2.744   1.517  10.022 -0.0553 -0.5688 -0.4376
  588TMC3    C3 8768   2.831   1.413  10.006 -0.2937  0.2730  0.3925
  588TMC3    C4 8769   2.922   1.654  10.099  0.5859  0.1014 -0.0756
  588TMC3    C5 8770   3.007   1.558  10.061 -0.2543 -0.4729  0.1284
  588TMC3    C6 8771   2.966   1.436  10.021 -0.3166 -0.5503 -0.1882
  588TMC3     C 8772   2.714   1.753  10.058 -0.9798  0.6010 -0.2208
  588TMC3     O 8773   2.629   1.756   9.970  0.0943  0.5235 -0.5322
  588TMC3     H 8774   2.637   1.506  10.009  0.0956 -2.5411 -0.1222
  588TMC3    H1 8775   2.950   1.742  10.156 -0.9947 -0.2213  1.2079
  588TMC3    H2 8776   3.049   1.367  10.008 -0.3405 -0.5265 -0.4518
  588TMC3    C7 8777   3.143   1.600  10.028 -0.2903 -0.0646  0.2229
  588TMC3    C8 8778   2.769   1.284   9.985 -0.1748 -0.1705  0.1637
  588TMC3    O1 8779   3.231   1.519  10.000 -0.2191  0.8308 -0.1552
  588TMC3    O2 8780   2.656   1.292   9.937 -0.1558  0.1968  0.1258
  589TMC3    C1 8781   3.001   2.758   1.177 -0.1827 -0.4129  0.6842
  589TMC3    C2 8782   3.064   2.655   1.246 -0.0303  0.9951  0.6936
  589TMC3    C3 8783   3.071   2.532   1.177 -0.0142  0.0494  0.1877
  589TMC3    C4 8784   2.958   2.743   1.048 -0.4583 -0.6075 -0.4683
  589TMC3    C5 8785   2.968   2.619   0.992 -0.1299  0.0048 -0.4225
  589TMC3    C6 8786   3.029   2.510   1.048  0.3129 -0.5236 -0.3871
  589TMC3     C 8787   2.964   2.882   1.252  0.1422 -0.0249  0.0088
  589TMC3     O 8788   2.871   2.947   1.210  0.2378  0.1774  0.4206
  589TMC3     H 8789   3.083   2.654   1.353 -0.4793 -2.4238  0.7450
  589TMC3    H1 8790   2.910   2.830   1.005  0.3113 -0.8139 -1.7398
  589TMC3    H2 8791   3.029   2.407   1.014 -1.9687 -1.0920  1.3561
  589TMC3    C7 8792   2.908   2.598   0.864  0.4763  0.8871  0.4307
  589TMC3    C8 8793   3.177   2.445   1.214 -0.0137 -0.2198 -0.0585
  589TMC3    O1 8794   2.894   2.482   0.828 -0.3224  0.5057  0.4884
  589TMC3    O2 8795   3.169   2.330   1.176 -0.1006  0.1706  0.3659
  590MPD2     C 8796   2.142   1.697  16.740 -0.0928 -0.0939  0.2422
  590MPD2    C1 8797   2.087   1.810  16.682 -0.0870  0.4034 -0.8270
  590MPD2    C2 8798   2.171   1.910  16.625  0.6704  0.0802 -0.6462
  590MPD2    C3 8799   2.307   1.897  16.639  0.5262 -0.0835 -0.0789
  590MPD2    C4 8800   2.370   1.788  16.704 -0.0742  0.2976  0.8430
  590MPD2    C5 8801   2.285   1.687  16.748  0.1151 -0.1021 -0.7980
  590MPD2     H 8802   2.139   2.000  16.575 -0.8789  1.0972  2.1825
  590MPD2    H1 8803   2.471   1.783  16.743  1.3125  0.7565 -2.6981
  590MPD2    H2 8804   2.081   1.615  16.777 -0.8280 -1.4182 -3.9303
  590MPD2    H3 8805   2.319   1.612  16.820  0.5733 -0.6582 -1.5963
  590MPD2     N 8806   2.377   2.003  16.583 -0.5708 -0.1209 -0.5413
  590MPD2    H5 8807   2.320   2.075  16.541 -0.1806  2.3857  3.2571
  590MPD2    N1 8808   1.945   1.826  16.660  0.5868  0.3276 -0.0097
  590MPD2    H7 8809   1.912   1.916  16.626 -1.5992 -0.9130 -1.1155
  591TMC3    C1 8810   2.546   2.135  16.500 -0.1396  1.1225 -1.0079
  591TMC3    C2 8811   2.665   2.152  16.434  1.1679  0.0765  0.5021
  591TMC3    C3 8812   2.699   2.272  16.381  0.2928  0.8090  0.0087
  591TMC3    C4 8813   2.462   2.239  16.514 -0.3923 -0.0169  0.7160
  591TMC3    C5 8814   2.493   2.358  16.456 -0.0143 -0.0423  0.3932
  591TMC3    C6 8815   2.613   2.376  16.388  0.0311  0.2192 -0.1631
  591TMC3     C 8816   2.516   2.009  16.568 -0.1517  0.3813  0.0362
  591TMC3     O 8817   2.610   1.931  16.588  0.3002 -0.5135  0.3124
  591TMC3     H 8818   2.734   2.071  16.413 -0.8818 -1.9635  1.7323
  591TMC3    H1 8819   2.365   2.230  16.562 -1.7834  0.8758 -1.9191
  591TMC3    H2 8820   2.644   2.471  16.347 -1.6981  0.7843 -0.1920
  591TMC3    C7 8821   2.375   2.435  16.407  0.3650 -0.9851 -0.7343
  591TMC3    C8 8822   2.765   2.249  16.257 -0.2108  0.0699  0.1665
  591TMC3    O1 8823   2.269   2.410  16.466  0.3975 -0.0954 -0.1455
  591TMC3    O2 8824   2.761   2.141  16.197 -0.3055  0.6050  0.1860
  592MPD2     C 8825   2.299   3.990  11.386  0.1192 -0.2674  0.3448
  592MPD2    C1 8826   2.313   4.024  11.513 -0.5112 -0.0848 -0.5471
  592MPD2    C2 8827   2.240   3.954  11.603 -0.2868  0.3542  0.1621
  592MPD2    C3 8828   2.151   3.857  11.570  0.4642 -0.7241  0.3529
  592MPD2    C4 8829   2.148   3.820  11.435 -0.4759 -0.2464  0.2365
  592MPD2    C5 8830   2.224   3.880  11.343 -0.6856 -0.8811 -0.7660
  592MPD2     H 8831   2.265   3.970  11.708  0.4232 -1.9499  0.3546
  592MPD2    H1 8832   2.074   3.749  11.400 -0.8492  0.4356 -0.3717
  592MPD2    H2 8833   2.354   4.046  11.311  0.0657 -1.5153 -0.6193
  592MPD2    H3 8834   2.216   3.851  11.238  0.3064  0.7905 -1.3067
  592MPD2     N 8835   2.087   3.788  11.679 -0.2528  0.0966  0.2958
  592MPD2    H5 8836   2.087   3.831  11.771  0.2686  1.3016 -0.2713
  592MPD2    N1 8837   2.397   4.139  11.548  0.0331  0.5031 -0.7029
  592MPD2    H7 8838   2.411   4.207  11.473 -1.9207  1.3701 -0.2730
  593TMC3    C1 8839   2.534   4.281  11.673  0.2611  0.0350  0.1937
  593TMC3    C2 8840   2.548   4.355  11.789  0.1008 -0.1092  0.3772
  593TMC3    C3 8841   2.593   4.481  11.782 -0.3829 -0.1170  0.3284
  593TMC3    C4 8842   2.562   4.341  11.552  0.0915 -0.0403 -0.0521
  593TMC3    C5 8843   2.610   4.467  11.546 -0.6695  0.6830 -0.0261
  593TMC3    C6 8844   2.626   4.543  11.663  0.1017  0.7021  0.5882
  593TMC3     C 8845   2.450   4.163  11.672  0.1895  0.3088  0.1491
  593TMC3     O 8846   2.441   4.103  11.779  0.6558 -0.2544  0.0347
  593TMC3     H 8847   2.518   4.308  11.882 -1.3596  0.4808  0.2107
  593TMC3    H1 8848   2.584   4.272  11.472 -1.0152  2.2781 -2.3812
  593TMC3    H2 8849   2.648   4.649  11.673  1.3606  0.6277 -1.4026
  593TMC3    C7 8850   2.627   4.533  11.417 -0.3550 -0.3125  0.5695
  593TMC3    C8 8851   2.645   4.533  11.907  0.1038 -0.4659  0.7110
  593TMC3    O1 8852   2.690   4.641  11.420  0.4748 -0.4992 -0.3821
  593TMC3    O2 8853   2.591   4.493  12.007 -0.6268 -0.1079  0.8712
  594MPD2     C 8854   1.691   2.791  13.907  0.1032  0.3077  0.0386
  594MPD2    C1 8855   1.655   2.781  14.036 -0.2976 -0.3992  0.8100
  594MPD2    C2 8856   1.715   2.852  14.126 -0.2218 -0.9984  0.2152
  594MPD2    C3 8857   1.834   2.922  14.102 -0.1815  0.3449  0.6724
  594MPD2    C4 8858   1.870   2.940  13.973  0.8007 -0.3262 -0.0016
  594MPD2    C5 8859   1.804   2.869  13.879  0.7066 -0.6746 -0.8593
  594MPD2     H 8860   1.659   2.866  14.218  1.2116  1.0140  0.8076
  594MPD2    H1 8861   1.938   3.019  13.945 -0.4988  0.3485 -1.2923
  594MPD2    H2 8862   1.635   2.737  13.833  1.0116  1.2977 -1.3680
  594MPD2    H3 8863   1.834   2.889  13.777  0.4462  0.6872 -0.6602
  594MPD2     N 8864   1.892   2.991  14.216 -0.2328 -0.2768  0.0739
  594MPD2    H5 8865   1.843   2.999  14.304 -1.8307 -0.1525 -0.8183
  594MPD2    N1 8866   1.530   2.721  14.062 -0.2682 -0.1107  0.4058
  594MPD2    H7 8867   1.471   2.693  13.984 -2.1859  0.3981  1.6757
  595TMC3    C1 8868   2.154   3.282  14.464 -0.6115  0.2463  0.2005
  595TMC3    C2 8869   2.150   3.201  14.353  0.4956 -0.1468  0.3674
  595TMC3    C3 8870   2.026   3.146  14.332 -0.4971 -0.4591  0.2542
  595TMC3    C4 8871   2.051   3.300  14.551 -1.0951 -0.1617 -0.6160
  595TMC3    C5 8872   1.925   3.245  14.522  0.2451  0.2737 -0.1811
  595TMC3    C6 8873   1.909   3.164  14.414 -0.2095 -0.5981  0.1737
  595TMC3     C 8874   2.279   3.338  14.510  0.0698  0.0143  0.7035
  595TMC3     O 8875   2.275   3.408  14.611  0.5675 -0.1707  0.0206
  595TMC3     H 8876   2.233   3.170  14.290  1.6990  1.2914  1.2446
  595TMC3    H1 8877   2.060   3.374  14.630  0.7981 -2.4607  1.3051
  595TMC3    H2 8878   1.807   3.136  14.389 -0.7107 -0.1298  1.6749
  595TMC3    C7 8879   1.809   3.278  14.595  0.1248  0.6177  0.1342
  595TMC3    C8 8880   2.005   3.072  14.208 -0.4967  0.9975 -0.0020
  595TMC3    O1 8881   1.698   3.284  14.548  0.6059  0.3518  0.2945
  595TMC3    O2 8882   2.087   3.089  14.119 -0.2859  0.1408  0.3127
  596MPD2     C 8883   0.601   0.779  16.810 -0.0414 -0.5772 -0.1847
  596MPD2    C1 8884   0.612   0.901  16.745  0.0270 -0.2264 -0.0152
  596MPD2    C2 8885   0.635   0.901  16.608 -0.3482  0.1833  0.2720
  596MPD2    C3 8886   0.668   0.782  16.544 -0.5080 -0.8462  0.3080
  596MPD2    C4 8887   0.675   0.665  16.614 -0.6162  0.2686 -1.1350
  596MPD2    C5 8888   0.637   0.665  16.741  0.5255  0.8027 -0.2900
  596MPD2     H 8889   0.652   1.002  16.572 -2.1454 -0.2447 -1.8049
  596MPD2    H1 8890   0.696   0.574  16.560 -0.5752  0.3192 -1.2043
  596MPD2    H2 8891   0.591   0.773  16.917 -2.8293  0.5033 -0.3841
  596MPD2    H3 8892   0.637   0.574  16.798  1.0270 -0.2609 -1.9863
  596MPD2     N 8893   0.688   0.786  16.400  0.2219 -0.3088 -0.3993
  596MPD2    H5 8894   0.693   0.695  16.355 -0.9093  0.1072 -1.3600
  596MPD2    N1 8895   0.591   1.025  16.808  1.2439 -0.0354 -0.5955
  596MPD2    H7 8896   0.599   1.104  16.744 -0.5628  1.1199  0.6237
  597TMC3    C1 8897   0.518   1.191  16.978  0.2250 -0.4705  0.0651
  597TMC3    C2 8898   0.523   1.292  16.882 -0.6194  0.2982 -0.4179
  597TMC3    C3 8899   0.493   1.419  16.925 -0.7823 -0.0628  0.1807
  597TMC3    C4 8900   0.476   1.224  17.105 -0.1578 -0.2882 -0.4853
  597TMC3    C5 8901   0.449   1.352  17.140  0.3005  0.5984  0.4944
  597TMC3    C6 8902   0.464   1.454  17.052  0.3372  0.4374  0.3065
  597TMC3     C 8903   0.548   1.044  16.934  0.2571 -0.0388  0.3174
  597TMC3     O 8904   0.526   0.958  17.018  0.2904  0.3768  0.2496
  597TMC3     H 8905   0.564   1.273  16.783  0.9482 -0.2184  0.3240
  597TMC3    H1 8906   0.460   1.135  17.165  0.2510  1.0601  1.6213
  597TMC3    H2 8907   0.480   1.558  17.078  0.3089  0.4772  0.1661
  597TMC3    C7 8908   0.411   1.377  17.274  0.4991  0.4611 -0.0644
  597TMC3    C8 8909   0.540   1.528  16.844 -0.4979 -0.3609  0.0936
  597TMC3    O1 8910   0.399   1.281  17.350 -0.3559  0.2913  0.3665
  597TMC3    O2 8911   0.457   1.619  16.838 -0.4075  0.5175 -0.2559
  598TMC3    C1 8912   3.237   2.554  15.223  0.1717  0.0135 -0.7103
  598TMC3    C2 8913   3.197   2.423  15.250 -0.4399 -0.2619 -0.6715
  598TMC3    C3 8914   3.240   2.334  15.156  0.6139  0.3913 -0.1834
  598TMC3    C4 8915   3.304   2.601  15.111 -0.9314 -0.5134 -0.1517
  598TMC3    C5 8916   3.347   2.508  15.026  0.6589  0.1012 -0.7942
  598TMC3    C6 8917   3.316   2.378  15.047 -0.1529 -0.2767 -0.7195
  598TMC3     C 8918   3.204   2.664  15.314 -0.0755 -0.5108 -0.1717
  598TMC3     O 8919   3.251   2.769  15.288  0.1979 -0.0116 -0.1629
  598TMC3     H 8920   3.138   2.403  15.339  1.7008  1.1521  1.0438
  598TMC3    H1 8921   3.327   2.707  15.102 -0.5903 -0.2659  3.7337
  598TMC3    H2 8922   3.362   2.306  14.980 -1.2594 -1.6029 -0.0658
  598TMC3    C7 8923   3.410   2.548  14.899  0.2724 -0.2331 -0.7228
  598TMC3    C8 8924   3.198   2.195  15.155  0.4751 -0.3922 -0.0669
  598TMC3    O1 8925   3.384   2.481  14.802  0.0661 -0.7331 -0.4359
  598TMC3    O2 8926   3.190   2.136  15.052 -0.0638  0.8327  0.2191
  599MPD2     C 8927   3.567   4.685  15.535 -0.0971  0.4469 -0.2114
  599MPD2    C1 8928   3.498   4.569  15.509 -0.4661 -0.1534  0.6823
  599MPD2    C2 8929   3.371   4.556  15.560  0.2215 -0.2795 -0.5440
  599MPD2    C3 8930   3.319   4.662  15.637  0.2326 -0.8028  0.5820
  599MPD2    C4 8931   3.384   0.038  15.663 -0.6408 -0.0893  0.2161
  599MPD2    C5 8932   3.512   0.036  15.619  0.4511  0.1490  0.6870
  599MPD2     H 8933   3.310   4.468  15.545 -0.4598  0.3898 -1.7422
  599MPD2    H1 8934   3.342   0.116  15.726 -0.9856 -0.2933  0.2393
  599MPD2    H2 8935   3.667   4.696  15.496 -0.3573  3.4991  0.0018
  599MPD2    H3 8936   3.571   0.127  15.633  1.4348 -0.1491 -1.5796
  599MPD2     N 8937   3.195   4.649  15.708  0.2146 -0.3762 -0.2498
  599MPD2    H5 8938   3.160   4.726  15.763  0.0791 -2.1321  2.1195
  599MPD2    N1 8939   3.567   4.468  15.443  0.6178 -0.3423  0.0405
  599MPD2    H7 8940   3.662   4.498  15.423  0.7406 -0.4476  0.4583
  600TMC3    C1 8941   3.017   4.544  15.818 -0.4202  0.7912  0.4859
  600TMC3    C2 8942   2.907   4.459  15.806  0.1558 -0.6598  0.2592
  600TMC3    C3 8943   2.833   4.437  15.919  0.2777 -0.3194  0.0306
  600TMC3    C4 8944   3.057   4.597  15.940 -0.0961 -0.3095  0.5959
  600TMC3    C5 8945   2.982   4.561  16.049 -0.1356  0.3776  0.1972
  600TMC3    C6 8946   2.865   4.487  16.043  0.4413 -0.0381  0.1777
  600TMC3     C 8947   3.104   4.548  15.701 -0.3802 -0.1416  0.6741
  600TMC3     O 8948   3.105   4.449  15.629  0.8749 -0.6185  0.5213
  600TMC3     H 8949   2.869   4.411  15.717 -0.6136 -0.0445  0.2539
  600TMC3    H1 8950   3.131   4.677  15.935  1.0804 -1.3791  0.8627
  600TMC3    H2 8951   2.809   4.474  16.135  0.3783  0.0369  0.1505
  600TMC3    C7 8952   3.006   4.634  16.176  0.7877  0.3191  0.3357
  600TMC3    C8 8953   2.740   4.325  15.908 -0.2785 -0.6740 -0.0608
  600TMC3    O1 8954   2.924   4.625  16.263 -0.5265  0.5601  0.2182
  600TMC3    O2 8955   2.669   4.318  15.809  0.0769  0.3130 -0.0427
  601MPD2     C 8956   0.616   3.421   0.059  0.7054  0.1186 -0.6660
  601MPD2    C1 8957   0.512   3.350   0.003  0.0770  0.4411 -0.3022
  601MPD2    C2 8958   0.504   3.215   0.040 -0.4761  0.5466  0.3209
  601MPD2    C3 8959   0.602   3.156   0.127 -0.1790  0.2808 -0.4863
  601MPD2    C4 8960   0.700   3.233   0.182  1.2700 -0.5402  0.1569
  601MPD2    C5 8961   0.708   3.361   0.140  0.2484 -0.0030 -0.1092
  601MPD2     H 8962   0.424   3.151   0.008  0.4110 -0.0461 -0.7032
  601MPD2    H1 8963   0.767   3.197   0.259 -0.0297 -0.2764  1.4126
  601MPD2    H2 8964   0.632   3.526   0.038  0.5820  0.0847 -0.9349
  601MPD2    H3 8965   0.794   3.415   0.180 -2.6665  1.6790  3.8942
  601MPD2     N 8966   0.606   3.021   0.181  0.4432 -0.1551  0.2421
  601MPD2    H5 8967   0.680   3.004   0.248  0.3550  1.0955  0.6720
  601MPD2    N1 8968   0.416   3.400  17.667  0.4486 -0.2143 -0.3990
  601MPD2    H7 8969   0.358   3.331  17.620  1.6293 -0.0205 -2.1545
  602TMC3    C1 8970   0.300   3.561  17.532  0.1959  0.2040 -0.6596
  602TMC3    C2 8971   0.247   3.690  17.538  0.0407  0.4218 -0.6904
  602TMC3    C3 8972   0.144   3.723  17.457 -0.1564 -0.2939  0.0960
  602TMC3    C4 8973   0.263   3.473  17.437 -0.3516 -0.0894 -0.3713
  602TMC3    C5 8974   0.157   3.508  17.355  0.8227  0.2881  0.1289
  602TMC3    C6 8975   0.098   3.627  17.372  0.0761  0.5567  0.1345
  602TMC3     C 8976   0.401   3.533  17.631 -0.2001  0.1092 -0.1216
  602TMC3     O 8977   0.458   3.629  17.684  0.7686 -0.2668  0.3643
  602TMC3     H 8978   0.293   3.767  17.599 -0.1257  1.7172 -2.2287
  602TMC3    H1 8979   0.305   3.373  17.423  0.4915  0.4815 -1.9544
  602TMC3    H2 8980   4.738   3.643  17.333 -0.2585 -0.9549  0.3630
  602TMC3    C7 8981   0.120   3.434  17.235 -0.3596  0.0048 -0.0059
  602TMC3    C8 8982   0.069   3.853  17.462  0.2571 -0.3131  0.2223
  602TMC3    O1 8983   0.145   3.315  17.225  0.3624  0.4554  0.0232
  602TMC3    O2 8984   0.050   3.893  17.575 -0.1487 -0.4889 -0.2689
  603TMC3    C1 8985   2.597   3.589  11.168  0.0487 -0.1185  0.1459
  603TMC3    C2 8986   2.662   3.570  11.286 -1.0301  0.5907 -0.0856
  603TMC3    C3 8987   2.786   3.624  11.294  0.3408  0.0438  0.0774
  603TMC3    C4 8988   2.639   3.676  11.069  0.0272  0.0704  0.0807
  603TMC3    C5 8989   2.767   3.732  11.083  0.3307  0.0696  0.0743
  603TMC3    C6 8990   2.837   3.696  11.193  0.8545  0.8489 -0.2651
  603TMC3     C 8991   2.479   3.519  11.132 -0.4895  0.1232  0.0992
  603TMC3     O 8992   2.478   3.486  11.015  0.3309 -0.0485  0.1090
  603TMC3     H 8993   2.632   3.498  11.361  0.9047  0.3295  0.4269
  603TMC3    H1 8994   2.564   3.694  10.993 -1.1642  0.5475  1.3674
  603TMC3    H2 8995   2.927   3.751  11.218  1.2758  0.0912 -0.1070
  603TMC3    C7 8996   2.830   3.807  10.978 -0.6647 -0.6275  0.9215
  603TMC3    C8 8997   2.861   3.593  11.408 -0.7386  0.1012 -0.0955
  603TMC3    O1 8998   2.936   3.855  11.012  0.2513  0.3589 -0.0740
  603TMC3    O2 8999   2.808   3.534  11.502  0.0768 -0.1512  0.1769
  604MPD2     C 9000   4.598   2.048  16.263  0.0719  0.1138  0.1675
  604MPD2    C1 9001   4.548   1.939  16.204 -0.5388  1.0684 -0.3403
  604MPD2    C2 9002   4.578   1.923  16.068  0.5935 -0.4600  0.7900
  604MPD2    C3 9003   4.642   2.019  15.993 -0.3466 -1.2368  0.2010
  604MPD2    C4 9004   4.692   2.133  16.061 -0.4689 -0.2497 -0.9729
  604MPD2    C5 9005   4.662   2.152  16.193  0.6574  0.0885  0.0307
  604MPD2     H 9006   4.537   1.835  16.020  0.5588  0.4268 -0.8163
  604MPD2    H1 9007   0.011   2.207  16.009  0.9546 -1.2741 -0.8063
  604MPD2    H2 9008   4.565   2.068  16.364 -0.2077 -1.0229  0.2941
  604MPD2    H3 9009   4.702   2.241  16.240  1.1609 -0.3170  0.3784
  604MPD2     N 9010   4.680   1.985  15.862 -0.2678 -0.1214  0.4634
  604MPD2    H5 9011   4.620   1.912  15.826  0.0997  0.7987 -2.0063
  604MPD2    N1 9012   4.480   1.851  16.287 -0.1601  0.0064 -0.6440
  604MPD2    H7 9013   4.485   1.870  16.386 -0.4511  0.5273 -0.7304
  605TMC3    C1 9014   4.329   1.693  16.357 -0.1455 -0.0080 -0.3618
  605TMC3    C2 9015   4.404   1.704  16.470  0.0989  0.4219 -0.0854
  605TMC3    C3 9016   4.353   1.778  16.575 -0.3364  0.1846 -0.2878
  605TMC3    C4 9017   4.197   1.733  16.348  0.2351  0.4960  1.3843
  605TMC3    C5 9018   4.145   1.789  16.460 -0.2325  0.0328  0.2819
  605TMC3    C6 9019   4.226   1.822  16.573 -0.5510 -0.7481 -0.1659
  605TMC3     C 9020   4.402   1.744  16.243  0.1442 -0.2907  0.5200
  605TMC3     O 9021   4.341   1.737  16.141  0.0845 -0.2550  0.2410
  605TMC3     H 9022   4.509   1.678  16.469 -0.7153 -2.8501 -1.3623
  605TMC3    H1 9023   4.142   1.706  16.259 -0.5860  1.9149  1.4724
  605TMC3    H2 9024   4.189   1.896  16.643 -0.6864 -2.1980  1.3061
  605TMC3    C7 9025   4.026   1.878  16.447  0.0139 -0.2109 -0.2584
  605TMC3    C8 9026   4.453   1.872  16.628  0.3396 -0.3489 -0.0325
  605TMC3    O1 9027   4.037   1.993  16.486  0.1271  0.1937 -0.0058
  605TMC3    O2 9028   4.534   1.907  16.544  0.2009  0.5227 -0.4850
  606TMC3    C1 9029   1.006   0.715  16.978  0.4439  0.1617  0.2111
  606TMC3    C2 9030   1.001   0.734  17.116 -0.0151 -0.5716 -0.3669
  606TMC3    C3 9031   0.963   0.632  17.198 -0.6045  0.2120 -0.0063
  606TMC3    C4 9032   0.936   0.606  16.922  0.0379 -0.6778 -0.1608
  606TMC3    C5 9033   0.901   0.505  17.011  0.3877  0.3469 -0.0684
  606TMC3    C6 9034   0.914   0.514  17.148  0.4540 -0.5169  0.2056
  606TMC3     C 9035   1.024   0.831  16.900  0.3016 -0.1738  0.0063
  606TMC3     O 9036   1.062   0.936  16.953 -0.8479 -0.1795 -0.1590
  606TMC3     H 9037   1.034   0.821  17.172 -0.9085  0.1274 -0.9426
  606TMC3    H1 9038   0.952   0.593  16.815  0.0548  0.3997 -0.2876
  606TMC3    H2 9039   0.882   0.431  17.211  1.2662 -0.4371  0.7291
  606TMC3    C7 9040   0.831   0.387  16.952  0.6578  0.0787 -0.0211
  606TMC3    C8 9041   0.934   0.660  17.337 -0.5439  0.5135 -0.4001
  606TMC3    O1 9042   0.849   0.378  16.832 -0.2157  0.0457  0.1438
  606TMC3    O2 9043   1.031   0.696  17.408 -0.2075 -0.2153 -0.0046
  607MPD2     C 9044   2.277   3.425  11.739  0.4756 -0.1493 -0.3691
  607MPD2    C1 9045   2.365   3.504  11.808  0.1187  0.1202  0.0549
  607MPD2    C2 9046   2.357   3.508  11.947 -0.1571  0.3759  0.4854
  607MPD2    C3 9047   2.287   3.413  12.010  0.2678 -0.3339 -0.1531
  607MPD2    C4 9048   2.208   3.326  11.946 -0.3323  0.1907  0.8291
  607MPD2    C5 9049   2.199   3.327  11.807  0.3358 -0.1197 -0.2637
  607MPD2     H 9050   2.417   3.581  12.000  0.0144  0.1351  0.6222
  607MPD2    H1 9051   2.152   3.253  12.004  0.4488 -0.9292  0.1658
  607MPD2    H2 9052   2.277   3.436  11.631 -1.2401  0.0542 -0.3452
  607MPD2    H3 9053   2.144   3.258  11.745 -0.8204  0.0584  0.5613
  607MPD2     N 9054   2.304   3.414  12.152 -0.1876 -0.1607  0.0059
  607MPD2    H5 9055   2.350   3.492  12.199  0.0102  0.5457 -1.3582
  607MPD2    N1 9056   2.444   3.611  11.755  0.3548 -0.1352 -0.3873
  607MPD2    H7 9057   2.482   3.671  11.828  0.9249 -1.4061  0.3573
  608TMC3    C1 9058   2.577   3.737  11.625 -0.2830  0.4098  0.2143
  608TMC3    C2 9059   2.656   3.757  11.733  0.3928 -0.8159  0.2760
  608TMC3    C3 9060   2.734   3.872  11.734  0.7587 -0.8206 -0.3475
  608TMC3    C4 9061   2.582   3.816  11.517 -0.5983  1.0922  0.5036
  608TMC3    C5 9062   2.671   3.910  11.507  0.0621  0.5631  0.3720
  608TMC3    C6 9063   2.748   3.946  11.617  0.4596  0.1330 -0.9065
  608TMC3     C 9064   2.470   3.639  11.622 -0.0443 -0.5648  0.5608
  608TMC3     O 9065   2.420   3.595  11.515 -0.0963  0.1925 -0.4496
  608TMC3     H 9066   2.670   3.677  11.805 -0.5575 -1.5972 -0.4087
  608TMC3    H1 9067   2.512   3.795  11.437  0.4418 -1.4320  0.2375
  608TMC3    H2 9068   2.799   4.041  11.616 -1.0883  0.9896  1.5027
  608TMC3    C7 9069   2.678   4.000  11.390  0.1011 -0.0164 -0.1165
  608TMC3    C8 9070   2.770   3.934  11.868  0.6281 -0.0576  1.3434
  608TMC3    O1 9071   2.602   3.965  11.301  0.7846 -0.2021 -0.0565
  608TMC3    O2 9072   2.821   4.044  11.875  0.4705 -0.0111 -0.7162
  609TMC3    C1 9073   1.072   3.198   9.058 -0.6558 -0.3975 -0.1322
  609TMC3    C2 9074   1.120   3.309   9.005  0.1919 -0.3854  0.5233
  609TMC3    C3 9075   1.212   3.289   8.905 -0.2705  0.9154 -0.3240
  609TMC3    C4 9076   1.120   3.072   9.028  0.1468  0.2760 -0.2008
  609TMC3    C5 9077   1.215   3.060   8.934 -0.1732  0.0593 -0.3901
  609TMC3    C6 9078   1.263   3.167   8.871 -0.1173 -0.2413  0.1014
  609TMC3     C 9079   0.976   3.191   9.167 -0.2757 -1.0243  0.2604
  609TMC3     O 9080   0.979   3.096   9.239  0.6359  0.2267  0.0947
  609TMC3     H 9081   1.090   3.402   9.051 -1.2558  1.0090 -3.2342
  609TMC3    H1 9082   1.087   2.979   9.075  1.1556 -0.0177 -0.0747
  609TMC3    H2 9083   1.331   3.150   8.788  0.8952  1.7970  0.5095
  609TMC3    C7 9084   1.285   2.930   8.920 -0.5860 -0.1168 -0.0105
  609TMC3    C8 9085   1.277   3.406   8.839 -0.0858 -0.7792 -0.0667
  609TMC3    O1 9086   1.263   2.838   8.995  0.6468 -0.2036  0.1887
  609TMC3    O2 9087   1.396   3.389   8.806  0.2879  0.4706  0.5243
  610TMC3    C1 9088   2.954   3.902  12.998 -0.2904  0.6733 -0.0872
  610TMC3    C2 9089   2.952   4.036  12.965 -0.8874 -0.9518 -0.6947
  610TMC3    C3 9090   3.078   4.095  12.953  0.8557  0.2405 -0.3743
  610TMC3    C4 9091   3.071   3.832  13.019 -0.3269 -0.1545  0.6097
  610TMC3    C5 9092   3.189   3.899  13.000 -0.1451 -0.0019  0.0221
  610TMC3    C6 9093   3.197   4.028  12.974 -0.2611 -0.1988 -0.1297
  610TMC3     C 9094   2.822   3.844  13.030 -0.0606 -0.5160 -0.6421
  610TMC3     O 9095   2.729   3.915  13.064  0.1188  0.0121 -0.1365
  610TMC3     H 9096   2.865   4.101  12.969  1.0595  1.7431 -1.5844
  610TMC3    H1 9097   3.071   3.726  13.040 -0.6768 -0.5551 -1.3262
  610TMC3    H2 9098   3.291   4.079  12.955 -0.6342  0.4661 -0.1852
  610TMC3    C7 9099   3.308   3.835  13.037 -0.0423  0.3182 -0.4549
  610TMC3    C8 9100   3.089   4.236  12.925  0.3188  0.0013  0.0350
  610TMC3    O1 9101   3.337   3.742  12.963  0.1985  0.5486  0.6884
  610TMC3    O2 9102   3.191   4.290  12.966  0.5556  0.2858  0.3646
  611MPD2     C 9103   2.213   3.217  10.287 -0.3011 -0.7539  0.0574
  611MPD2    C1 9104   2.148   3.319  10.232 -0.3658  0.0813 -0.6486
  611MPD2    C2 9105   2.216   3.434  10.202 -0.8703  0.2822 -0.5669
  611MPD2    C3 9106   2.349   3.447  10.218  0.2536 -0.4971 -0.1182
  611MPD2    C4 9107   2.417   3.348  10.283 -0.2685  0.1061  0.1188
  611MPD2    C5 9108   2.350   3.229  10.315 -0.0320 -0.4477  0.1106
  611MPD2     H 9109   2.158   3.515  10.159 -0.2796 -0.2995 -2.4309
  611MPD2    H1 9110   2.521   3.367  10.308 -0.8015 -0.6232  2.9425
  611MPD2    H2 9111   2.163   3.128  10.323  0.8027 -2.0802 -1.6916
  611MPD2    H3 9112   2.396   3.146  10.367  1.0066  0.0810  0.0469
  611MPD2     N 9113   2.422   3.568  10.179 -0.3052  0.5293 -0.2088
  611MPD2    H5 9114   2.515   3.579  10.218 -0.5077 -0.2884  0.4865
  611MPD2    N1 9115   2.008   3.305  10.207 -0.5951  0.4367  0.0801
  611MPD2    H7 9116   1.965   3.216  10.231  0.6751 -0.1458  0.2211
  612TMC3    C1 9117   2.442   3.791  10.102 -0.5441  0.0898  0.2790
  612TMC3    C2 9118   2.550   3.804  10.182 -0.1337 -0.0076 -0.4795
  612TMC3    C3 9119   2.616   3.929  10.176  0.3073  0.2606 -0.2218
  612TMC3    C4 9120   2.396   3.892  10.024 -0.1727  0.1463 -0.1318
  612TMC3    C5 9121   2.471   4.005  10.016 -0.1090 -0.2662 -0.6197
  612TMC3    C6 9122   2.583   4.022  10.085 -0.6530  0.3868  0.8552
  612TMC3     C 9123   2.365   3.667  10.097 -0.6915  0.6572 -0.5221
  612TMC3     O 9124   2.286   3.648  10.010  0.6854  0.1182  0.1271
  612TMC3     H 9125   2.578   3.718  10.242  0.2664  1.0126  0.7903
  612TMC3    H1 9126   2.312   3.882   9.957 -0.8554  2.4322  0.4030
  612TMC3    H2 9127   2.641   4.111  10.065  0.7575 -0.8885 -0.6468
  612TMC3    C7 9128   2.417   4.113   9.932  0.1606 -0.2158  0.3282
  612TMC3    C8 9129   2.713   3.965  10.272 -0.4144  0.3069 -0.3610
  612TMC3    O1 9130   2.502   4.191   9.894 -0.7620  0.5688 -0.4922
  612TMC3    O2 9131   2.794   4.053  10.243 -0.0079  0.1955  0.1004
  613MPD2     C 9132   1.490   0.724  16.791  0.0726 -0.0783 -0.5956
  613MPD2    C1 9133   1.523   0.817  16.699 -0.1302  0.0950 -0.2265
  613MPD2    C2 9134   1.476   0.809  16.571  0.2870 -0.0895 -0.0390
  613MPD2    C3 9135   1.400   0.701  16.532 -0.5614  0.1013 -0.8003
  613MPD2    C4 9136   1.372   0.598  16.626 -1.0139  0.0748 -0.3424
  613MPD2    C5 9137   1.416   0.614  16.753 -0.7837  0.2455 -0.3161
  613MPD2     H 9138   1.496   0.893  16.505  0.7737 -0.0435  0.1657
  613MPD2    H1 9139   1.318   0.507  16.600  0.8472 -0.7399 -1.3412
  613MPD2    H2 9140   1.537   0.731  16.888 -0.0034 -0.3375 -0.5401
  613MPD2    H3 9141   1.397   0.538  16.827  1.5575 -0.7355 -0.7258
  613MPD2     N 9142   1.346   0.680  16.406 -0.2409 -0.3999 -0.4695
  613MPD2    H5 9143   1.295   0.595  16.383  0.3956 -0.3646 -1.9760
  613MPD2    N1 9144   1.618   0.907  16.743  0.1468 -0.3973 -0.0465
  613MPD2    H7 9145   1.623   0.913  16.844  0.3472  0.1338 -0.0851
  614TMC3    C1 9146   1.725   0.982  16.538 -0.6859 -0.4780 -0.2507
  614TMC3    C2 9147   1.777   0.864  16.502 -0.5751  0.0033  0.1474
  614TMC3    C3 9148   1.822   0.853  16.374 -0.8148  0.2114 -0.1148
  614TMC3    C4 9149   1.732   1.091  16.457 -0.1874  0.2607  1.2147
  614TMC3    C5 9150   1.779   1.078  16.333  0.4470 -0.3874 -0.9044
  614TMC3    C6 9151   1.822   0.959  16.293  0.3975  1.2901 -0.4142
  614TMC3     C 9152   1.676   1.009  16.671 -0.5706 -0.5737  0.0255
  614TMC3     O 9153   1.707   1.119  16.713  0.7829  0.0058  0.1115
  614TMC3     H 9154   1.782   0.779  16.570  1.9964 -0.3482 -0.5028
  614TMC3    H1 9155   1.702   1.189  16.492 -1.0581  0.6934 -0.7487
  614TMC3    H2 9156   1.846   0.954  16.187  0.0351 -0.0120 -0.4327
  614TMC3    C7 9157   1.809   1.197  16.255  0.2504  0.1642  0.1145
  614TMC3    C8 9158   1.768   0.746  16.307 -0.6276 -0.1315  0.2143
  614TMC3    O1 9159   1.854   1.289  16.324 -0.3212 -0.2652  0.2495
  614TMC3    O2 9160   1.728   0.762  16.193 -0.1982 -0.4407  0.2592
  615MPD2     C 9161   1.218   2.518  15.902  0.1782  0.0979  0.0884
  615MPD2    C1 9162   1.168   2.643  15.856  0.5659  0.0262 -0.3532
  615MPD2    C2 9163   1.089   2.651  15.744  0.1820 -0.2520 -0.1531
  615MPD2    C3 9164   1.048   2.536  15.673  0.0672 -0.6126  0.6124
  615MPD2    C4 9165   1.090   2.418  15.721  0.2833  0.0721 -0.0505
  615MPD2    C5 9166   1.177   2.403  15.831  0.2577  0.3968  0.6085
  615MPD2     H 9167   1.043   2.747  15.723  2.0656  0.9009  1.0349
  615MPD2    H1 9168   1.062   2.322  15.680  1.5801 -0.5900  0.6026
  615MPD2    H2 9169   1.284   2.513  15.987 -0.6325 -0.7064  0.6650
  615MPD2    H3 9170   1.207   2.302  15.859  0.9735  0.2811 -0.5846
  615MPD2     N 9171   0.968   2.538  15.559  0.3860 -0.2795 -0.1911
  615MPD2    H5 9172   0.944   2.442  15.534  2.0024 -1.0611  1.2446
  615MPD2    N1 9173   1.204   2.765  15.920  0.3146  0.1534 -0.8773
  615MPD2    H7 9174   1.168   2.851  15.881 -0.2488  0.4014  0.1816
  616TMC3    C1 9175   1.279   2.912  16.084  0.0124  0.0288 -0.0123
  616TMC3    C2 9176   1.393   2.974  16.127 -0.0688  0.2001  0.4983
  616TMC3    C3 9177   1.384   3.084  16.211 -0.7965  0.1268  0.0135
  616TMC3    C4 9178   1.153   2.960  16.104 -0.8690 -0.7935  0.3088
  616TMC3    C5 9179   1.148   3.080  16.173 -0.4630  0.0047 -0.1253
  616TMC3    C6 9180   1.255   3.141  16.232 -0.8579 -0.2284  0.3369
  616TMC3     C 9181   1.296   2.784  16.018  0.0979  0.4603 -0.1863
  616TMC3     O 9182   1.370   2.700  16.074 -0.4551  0.1781  0.0619
  616TMC3     H 9183   1.485   2.924  16.100 -0.2587  0.4697 -0.6373
  616TMC3    H1 9184   1.067   2.910  16.061 -1.1548  0.5949 -0.7139
  616TMC3    H2 9185   1.255   3.236  16.283 -0.4360 -0.0259 -0.0367
  616TMC3    C7 9186   1.025   3.158  16.173 -0.2184 -0.5149 -0.2651
  616TMC3    C8 9187   1.485   3.185  16.208 -0.2258 -0.3843 -0.2702
  616TMC3    O1 9188   1.004   3.235  16.264 -0.2237 -0.8556  0.1943
  616TMC3    O2 9189   1.451   3.300  16.187 -0.1376  0.6857  0.2172
  617MPD2     C 9190   3.933   0.651  13.641 -0.2789 -0.4070  0.4130
  617MPD2    C1 9191   3.954   0.604  13.771 -0.1834  0.4663 -0.3002
  617MPD2    C2 9192   3.856   0.582  13.862  0.6366  0.0294 -0.3164
  617MPD2    C3 9193   3.726   0.592  13.820  0.5743  1.1929  0.1976
  617MPD2    C4 9194   3.702   0.639  13.692  0.3669  0.4252  0.6510
  617MPD2    C5 9195   3.805   0.689  13.608 -0.0431 -0.1391  0.6026
  617MPD2     H 9196   3.894   0.536  13.953 -4.0313 -0.7994  1.2210
  617MPD2    H1 9197   3.599   0.653  13.661  0.4268 -0.0583  0.2301
  617MPD2    H2 9198   4.017   0.676  13.578  1.2366 -2.5227  1.5660
  617MPD2    H3 9199   3.777   0.745  13.520  0.1139 -1.2291 -0.1430
  617MPD2     N 9200   3.622   0.549  13.893 -0.1007  0.6136  0.1113
  617MPD2    H5 9201   3.534   0.538  13.844 -1.0148 -0.8231  2.0646
  617MPD2    N1 9202   4.090   0.572  13.794 -0.1757 -0.1612  0.3980
  617MPD2    H7 9203   4.158   0.601  13.725 -0.7137  1.3450  0.4887
  618TMC3    C1 9204   4.287   0.552  13.921 -0.1682 -0.0720  0.0181
  618TMC3    C2 9205   4.384   0.455  13.943  0.4289 -0.0342  0.2057
  618TMC3    C3 9206   4.516   0.496  13.909  0.5905  0.0085  0.5449
  618TMC3    C4 9207   4.318   0.678  13.869 -0.5252 -0.0059 -0.0825
  618TMC3    C5 9208   4.448   0.710  13.848  0.0421  0.1208 -0.6273
  618TMC3    C6 9209   4.547   0.622  13.881  0.1292  0.1871  0.1352
  618TMC3     C 9210   4.148   0.508  13.905 -0.0721  0.1145 -0.0047
  618TMC3     O 9211   4.106   0.415  13.969  0.2136  0.3244  0.1712
  618TMC3     H 9212   4.347   0.356  13.969 -1.2768  0.1235 -1.6182
  618TMC3    H1 9213   4.245   0.753  13.839 -2.9014 -1.2174  2.6345
  618TMC3    H2 9214   4.653   0.640  13.871  0.1028 -0.2271 -0.8702
  618TMC3    C7 9215   4.495   0.849  13.851 -0.4207  0.4878  0.3227
  618TMC3    C8 9216   4.604   0.394  13.867 -0.3881  0.1983  0.2491
  618TMC3    O1 9217   4.426   0.931  13.909 -0.3198 -0.3275  0.1327
  618TMC3    O2 9218   4.616   0.301  13.943  0.0462  0.2223 -0.1715
  619MPD2     C 9219   0.639   2.082  13.949 -0.0094 -0.3399 -0.3376
  619MPD2    C1 9220   0.564   2.154  13.866 -0.0259  0.0399 -0.4294
  619MPD2    C2 9221   0.428   2.171  13.889 -0.1938 -0.5357 -0.4294
  619MPD2    C3 9222   0.366   2.089  13.978 -0.9075 -0.5815 -0.1247
  619MPD2    C4 9223   0.441   2.003  14.061  0.1729  0.8403 -0.5050
  619MPD2    C5 9224   0.582   2.003  14.041 -0.5839 -0.1106  0.4125
  619MPD2     H 9225   0.370   2.233  13.822 -0.6295 -1.0162 -0.4935
  619MPD2    H1 9226   0.397   1.931  14.128  0.4327  2.1845  1.1193
  619MPD2    H2 9227   0.746   2.071  13.937  0.0623 -0.1670  0.1700
  619MPD2    H3 9228   0.643   1.935  14.099 -0.8864  0.0870  0.9608
  619MPD2     N 9229   0.224   2.087  13.993  0.0299 -0.1808 -0.0652
  619MPD2    H5 9230   0.192   2.011  14.051 -3.0164  0.2468 -1.2076
  619MPD2    N1 9231   0.623   2.224  13.756 -0.5618 -0.1074 -0.2656
  619MPD2    H7 9232   0.560   2.283  13.705  0.3299  1.6981  0.7314
  620TMC3    C1 9233   0.769   2.286  13.580 -0.2082  0.7256  0.4025
  620TMC3    C2 9234   0.671   2.262  13.483 -0.7546 -0.1989  0.1689
  620TMC3    C3 9235   0.684   2.337  13.369  0.0637 -0.7777  0.4542
  620TMC3    C4 9236   0.877   2.367  13.563  0.0894 -0.6234  0.2390
  620TMC3    C5 9237   0.887   2.443  13.451 -0.2612  1.0965  0.5024
  620TMC3    C6 9238   0.790   2.422  13.352 -0.0185  1.0275  0.3507
  620TMC3     C 9239   0.751   2.231  13.719  0.5856  0.0140 -0.4020
  620TMC3     O 9240   0.847   2.201  13.785 -0.0000 -0.0923 -0.2054
  620TMC3     H 9241   0.581   2.205  13.504  0.0171 -1.8624 -0.9749
  620TMC3    H1 9242   0.943   2.397  13.643  1.4833 -2.0019 -0.3976
  620TMC3    H2 9243   0.798   2.488  13.266 -1.6407 -1.3547 -1.6285
  620TMC3    C7 9244   0.920   2.582  13.469  0.4224 -0.0654 -0.2995
  620TMC3    C8 9245   0.569   2.428  13.356  0.5650 -0.7309 -0.6739
  620TMC3    O1 9246   1.027   2.609  13.528  0.0603  0.1490 -0.0324
  620TMC3    O2 9247   0.584   2.547  13.367  0.3092  0.1419 -0.2726
  621MPD2     C 9248   0.064   1.398   9.943 -0.8123  0.6416  0.3424
  621MPD2    C1 9249   0.094   1.447   9.816 -0.5078 -0.6940  0.4273
  621MPD2    C2 9250   0.174   1.558   9.806  0.3624  0.0789  0.4040
  621MPD2    C3 9251   0.227   1.627   9.913 -0.6731  0.1892 -0.0684
  621MPD2    C4 9252   0.207   1.572  10.038 -0.3021 -0.1765  0.1286
  621MPD2    C5 9253   0.128   1.456  10.048 -0.8388  0.1463 -0.6982
  621MPD2     H 9254   0.200   1.600   9.710  0.0455  0.0853  0.3213
  621MPD2    H1 9255   0.257   1.621  10.121 -1.0185  0.1193  0.3866
  621MPD2    H2 9256   0.007   1.309   9.968 -0.2523 -0.1923 -1.3379
  621MPD2    H3 9257   0.114   1.431  10.152  1.2719  1.3074 -0.1270
  621MPD2     N 9258   0.298   1.747   9.887  0.2203 -0.0663  0.1165
  621MPD2    H5 9259   0.307   1.775   9.790 -1.0271  0.1572  0.0635
  621MPD2    N1 9260   0.044   1.399   9.695  0.1447 -0.1112  0.1871
  621MPD2    H7 9261   0.055   1.457   9.613 -3.1062  0.5343  0.2074
  622TMC3    C1 9262   4.648   1.279   9.546 -0.2115 -0.7608  0.9029
  622TMC3    C2 9263   4.509   1.247   9.556  0.4197  0.5786  0.9608
  622TMC3    C3 9264   4.432   1.265   9.442 -0.0140 -0.1346  1.0240
  622TMC3    C4 9265   4.710   1.325   9.431 -0.3576  0.5479  0.1197
  622TMC3    C5 9266   4.629   1.329   9.321 -0.7314  0.4442  1.0487
  622TMC3    C6 9267   4.498   1.292   9.327 -0.4826 -0.2045  0.1316
  622TMC3     C 9268   4.708   1.284   9.677 -0.1155 -0.1688 -0.0317
  622TMC3     O 9269   4.690   1.194   9.757 -0.1458  0.0392 -0.2862
  622TMC3     H 9270   4.478   1.200   9.649 -0.0458  3.1477  2.1043
  622TMC3    H1 9271   0.077   1.344   9.421  0.0408 -1.4899  0.5716
  622TMC3    H2 9272   4.438   1.305   9.238  0.0956  0.1850 -0.2052
  622TMC3    C7 9273   4.689   1.364   9.201  0.3503  0.8019 -0.8277
  622TMC3    C8 9274   4.350   1.385   9.467 -0.3445 -0.3453  0.0991
  622TMC3    O1 9275   4.634   1.315   9.103  0.0320 -0.1220 -0.1616
  622TMC3    O2 9276   4.274   1.420   9.377 -0.7840  0.1128  0.3938
  623MPD2     C 9277   0.340   2.872  16.138 -0.3614  0.6053  0.8937
  623MPD2    C1 9278   0.223   2.798  16.142  0.2240  0.6750 -0.9493
  623MPD2    C2 9279   0.225   2.688  16.228 -0.1026  0.1137  0.3655
  623MPD2    C3 9280   0.334   2.655  16.313  0.1189  0.0717 -0.3868
  623MPD2    C4 9281   0.442   2.740  16.318 -0.3801  0.4274 -0.0579
  623MPD2    C5 9282   0.446   2.841  16.224  0.3653  0.1968  0.3996
  623MPD2     H 9283   0.139   2.622  16.234 -0.5446  0.7646  1.1503
  623MPD2    H1 9284   0.531   2.739  16.380 -0.5418  0.5226  0.1750
  623MPD2    H2 9285   0.348   2.952  16.066 -0.1912  1.8395  2.2753
  623MPD2    H3 9286   0.537   2.899  16.213  1.2465 -1.2040  0.3274
  623MPD2     N 9287   0.318   2.543  16.403  0.1741  0.1435  0.2746
  623MPD2    H5 9288   0.230   2.493  16.403  1.0060 -1.3048  0.5040
  623MPD2    N1 9289   0.112   2.855  16.080 -0.3636 -0.2047  0.5324
  623MPD2    H7 9290   0.117   2.952  16.051 -1.4853 -0.1864  0.4160
  624TMC3    C1 9291   0.485   2.240  16.713  0.1504 -0.5691 -0.3298
  624TMC3    C2 9292   0.362   2.186  16.734  0.4072 -0.4589 -0.0316
  624TMC3    C3 9293   0.261   2.230  16.656 -0.3405 -0.0337 -0.6098
  624TMC3    C4 9294   0.511   2.322  16.610  0.5188  0.0925  0.7462
  624TMC3    C5 9295   0.408   2.357  16.527 -0.4522 -0.5656  0.0639
  624TMC3    C6 9296   0.282   2.308  16.538 -0.2805 -0.5512  0.5816
  624TMC3     C 9297   0.596   2.207  16.794  0.1206  0.6250 -0.9026
  624TMC3     O 9298   0.695   2.282  16.787 -0.6321  0.1969 -0.0332
  624TMC3     H 9299   0.344   2.119  16.817 -0.9997  1.7355  1.4251
  624TMC3    H1 9300   0.611   2.355  16.586  0.3629  1.7704  2.3880
  624TMC3    H2 9301   0.200   2.319  16.469  0.4071 -1.3778 -0.3721
  624TMC3    C7 9302   0.427   2.496  16.476  0.1902  0.3137  0.1961
  624TMC3    C8 9303   0.129   2.183  16.684 -0.2569  0.0031 -0.8231
  624TMC3    O1 9304   0.530   2.541  16.520 -0.0575  0.1608 -0.2313
  624TMC3    O2 9305   0.051   2.206  16.593 -0.2133  0.2251  0.0725
  625MPD2     C 9306   0.434   3.476   0.700  0.0015 -1.0421  0.1983
  625MPD2    C1 9307   0.458   3.606   0.712  0.4817 -0.4645 -0.0341
  625MPD2    C2 9308   0.580   3.652   0.749  0.4846  0.0306 -0.6631
  625MPD2    C3 9309   0.684   3.565   0.771 -0.3015 -0.5597 -0.5858
  625MPD2    C4 9310   0.659   3.431   0.759 -0.9164  0.2135 -0.3428
  625MPD2    C5 9311   0.535   3.384   0.724 -0.3197 -0.2296 -0.6087
  625MPD2     H 9312   0.603   3.757   0.764 -1.9144  0.3755  0.6397
  625MPD2    H1 9313   0.730   3.351   0.779 -1.0527  0.4185  0.9194
  625MPD2    H2 9314   0.337   3.438   0.672 -0.6867  1.6810 -1.0978
  625MPD2    H3 9315   0.528   3.276   0.717 -1.4320 -0.2500  0.7016
  625MPD2     N 9316   0.809   3.618   0.797 -0.3056 -0.5649  0.2007
  625MPD2    H5 9317   0.817   3.718   0.781  2.9016 -0.9123 -0.3116
  625MPD2    N1 9318   0.350   3.698   0.685 -0.1733 -0.5639 -0.4501
  625MPD2    H7 9319   0.370   3.795   0.709  1.0773 -1.1620  0.9627
  626TMC3    C1 9320   0.141   3.785   0.628  0.0835 -0.1879 -0.0093
  626TMC3    C2 9321   0.070   3.809   0.516  0.1689  0.1395  0.0806
  626TMC3    C3 9322   4.710   3.898   0.529 -1.1685  0.6433  0.1568
  626TMC3    C4 9323   0.123   3.839   0.746  0.1046  0.0099  0.3761
  626TMC3    C5 9324   0.016   3.928   0.759 -0.1396 -0.5463  0.5689
  626TMC3    C6 9325   4.675   3.965   0.649  0.2803  0.0830  0.0888
  626TMC3     C 9326   0.237   3.675   0.611  0.2900  0.2026 -0.0714
  626TMC3     O 9327   0.214   3.585   0.531 -0.2687 -0.5456  0.4909
  626TMC3     H 9328   0.083   3.762   0.419 -0.0254 -2.0259  1.0972
  626TMC3    H1 9329   0.174   3.802   0.835  1.1854 -2.3721 -1.2392
  626TMC3    H2 9330   4.608   4.050   0.655 -1.3959 -1.1130 -1.6660
  626TMC3    C7 9331   4.735   3.987   0.888  0.0343  0.1795  0.2527
  626TMC3    C8 9332   4.670   3.964   0.408 -0.4942 -0.8453 -0.0069
  626TMC3    O1 9333   0.081   3.976   0.973 -0.4267  1.0304  0.2091
  626TMC3    O2 9334   0.019   3.986   0.329  0.1732  0.0026 -0.3703
  627MPD2     C 9335   3.875   4.002  14.244  0.3466  0.3574  0.0675
  627MPD2    C1 9336   3.786   3.981  14.344  0.0518 -0.2856  0.1565
  627MPD2    C2 9337   3.703   3.870  14.351  0.8586  0.5140  0.1732
  627MPD2    C3 9338   3.714   3.768  14.249  0.3751  0.3950  0.4629
  627MPD2    C4 9339   3.809   3.782  14.151 -0.0621  0.2649 -0.0052
  627MPD2    C5 9340   3.893   3.894  14.155  0.0526 -0.1447 -0.2045
  627MPD2     H 9341   3.635   3.852  14.435 -0.2047 -2.0313 -1.2210
  627MPD2    H1 9342   3.820   3.716  14.065 -3.4052  1.0990 -1.0836
  627MPD2    H2 9343   3.935   4.092  14.246 -3.2181  2.8120 -2.9411
  627MPD2    H3 9344   3.963   3.897  14.072  0.2112  0.7837 -0.0343
  627MPD2     N 9345   3.633   3.654  14.246 -0.2247 -0.0811 -0.8990
  627MPD2    H5 9346   3.664   3.573  14.193 -0.4618 -1.0246  0.4320
  627MPD2    N1 9347   3.771   4.072  14.451 -0.3058  0.6374 -0.0074
  627MPD2    H7 9348   3.701   4.040  14.517  0.3018 -0.1802  0.2386
  628TMC3    C1 9349   3.809   4.258  14.583  0.0072  0.1432  0.3737
  628TMC3    C2 9350   3.910   4.327  14.638 -0.0601 -0.7604 -0.5073
  628TMC3    C3 9351   3.874   4.427  14.725  0.3261 -0.3279 -0.8290
  628TMC3    C4 9352   3.677   4.263  14.626 -0.3252 -0.0465 -0.4297
  628TMC3    C5 9353   3.647   4.376  14.701 -0.3629  0.1036  0.1226
  628TMC3    C6 9354   3.747   4.455  14.759  0.7249  0.7253 -0.1787
  628TMC3     C 9355   3.843   4.183  14.470  0.4236  0.3390  0.0433
  628TMC3     O 9356   3.947   4.224  14.418 -0.3204 -0.0117 -0.1022
  628TMC3     H 9357   4.014   4.318  14.612  0.0791 -0.8869  0.0902
  628TMC3    H1 9358   3.595   4.203  14.588  0.0779 -0.7747 -0.1547
  628TMC3    H2 9359   3.730   4.554  14.799 -1.5128  0.2931 -0.0727
  628TMC3    C7 9360   3.508   4.418  14.678 -0.5022  0.3861  0.0050
  628TMC3    C8 9361   3.981   4.507  14.785  0.0258  0.4339  0.1583
  628TMC3    O1 9362   3.424   4.331  14.650  0.8512  0.3306 -0.0758
  628TMC3    O2 9363   3.968   4.629  14.788  0.1901  0.0561 -0.1551
  629MPD2     C 9364   1.972   3.325  16.141 -0.3241 -0.7293  0.0698
  629MPD2    C1 9365   1.976   3.199  16.208  0.0314 -0.0091  0.0107
  629MPD2    C2 9366   1.853   3.140  16.231  0.6793  0.0423  0.0757
  629MPD2    C3 9367   1.738   3.204  16.204  0.7888 -0.0497 -1.0226
  629MPD2    C4 9368   1.739   3.328  16.137 -0.2084 -0.8435 -0.4178
  629MPD2    C5 9369   1.854   3.389  16.109 -0.3211  0.5353  0.1354
  629MPD2     H 9370   1.845   3.043  16.280  0.3235  0.2109  0.3477
  629MPD2    H1 9371   1.650   3.380  16.104 -0.5600 -1.2438 -0.0969
  629MPD2    H2 9372   2.061   3.378  16.108 -1.1621  0.3454 -0.4764
  629MPD2    H3 9373   1.860   3.484  16.057 -0.6474  0.8182  0.6200
  629MPD2     N 9374   1.618   3.133  16.216 -0.1757  0.0769  0.8737
  629MPD2    H5 9375   1.620   3.040  16.257 -0.5912 -0.3742 -0.1306
  629MPD2    N1 9376   2.096   3.140  16.236  0.1969  0.8499 -0.5070
  629MPD2    H7 9377   2.174   3.198  16.207  1.0600  0.4893  1.1575
  630TMC3    C1 9378   2.253   3.000  16.318  0.1486 -0.1927  0.3311
  630TMC3    C2 9379   2.335   3.050  16.223  0.2304 -0.6145  0.5408
  630TMC3    C3 9380   2.459   2.996  16.221 -0.1800  0.4142 -0.2115
  630TMC3    C4 9381   2.288   2.898  16.406  0.1592  0.1428 -0.3089
  630TMC3    C5 9382   2.419   2.852  16.399  0.1149  0.3805 -0.5287
  630TMC3    C6 9383   2.502   2.899  16.306  0.6851 -0.0836  0.1153
  630TMC3     C 9384   2.105   3.027  16.312  0.2347  1.2721 -0.4842
  630TMC3     O 9385   2.033   2.936  16.346 -0.0696 -0.4069  0.7853
  630TMC3     H 9386   2.307   3.121  16.145  1.4767 -0.0268  0.6200
  630TMC3    H1 9387   2.230   2.888  16.497 -0.1897  0.6874 -0.4661
  630TMC3    H2 9388   2.603   2.860  16.297  1.3535  1.3325  1.4862
  630TMC3    C7 9389   2.462   2.776  16.516  0.4184  0.0224 -0.3277
  630TMC3    C8 9390   2.567   3.058  16.150 -0.4955  0.3489 -0.1181
  630TMC3    O1 9391   2.378   2.711  16.573 -0.2699 -0.4211 -0.4457
  630TMC3    O2 9392   2.666   2.991  16.133 -0.3815  0.3707  0.0256
  631MPD2     C 9393   0.096   2.765  15.364  0.4927 -0.1753 -0.3327
  631MPD2    C1 9394   0.191   2.852  15.325 -0.1385  0.5212 -0.3354
  631MPD2    C2 9395   0.317   2.806  15.290 -0.4096  0.2271  0.1397
  631MPD2    C3 9396   0.345   2.669  15.293 -0.2920  0.3787 -0.0090
  631MPD2    C4 9397   0.253   2.589  15.352  0.2082 -0.9300  0.0434
  631MPD2    C5 9398   0.129   2.633  15.380 -0.5721  0.0138  0.4162
  631MPD2     H 9399   0.390   2.870  15.242 -0.4955  0.8826  0.8921
  631MPD2    H1 9400   0.265   2.482  15.370 -0.8067 -1.4916 -2.5994
  631MPD2    H2 9401   4.739   2.797  15.399  0.3318 -0.5585 -0.4340
  631MPD2    H3 9402   0.052   2.561  15.404  0.2282 -0.2616  2.1399
  631MPD2     N 9403   0.470   2.618  15.247 -0.1897  0.0275  0.4388
  631MPD2    H5 9404   0.520   2.690  15.195 -0.7036 -0.9964 -1.4791
  631MPD2    N1 9405   0.151   2.987  15.308 -0.3164 -0.3056  0.2544
  631MPD2    H7 9406   0.053   3.008  15.321 -0.5997 -3.1159  2.6214
  632TMC3    C1 9407   0.179   3.201  15.222  0.2275 -0.1136  0.4477
  632TMC3    C2 9408   0.060   3.243  15.270 -0.2324  0.1397 -0.5955
  632TMC3    C3 9409   0.023   3.366  15.230 -0.4012  0.1973  0.9196
  632TMC3    C4 9410   0.257   3.271  15.137 -0.6758  0.1665 -0.4217
  632TMC3    C5 9411   0.204   3.386  15.083 -0.2211  0.1662  0.7278
  632TMC3    C6 9412   0.088   3.438  15.135 -0.7350  0.3777 -0.1820
  632TMC3     C 9413   0.240   3.092  15.292  0.8094  0.2719  0.1621
  632TMC3     O 9414   0.362   3.097  15.305  0.4663 -0.2021 -0.4638
  632TMC3     H 9415   0.016   3.192  15.355  2.1952 -2.6055 -0.9618
  632TMC3    H1 9416   0.346   3.222  15.100 -0.9965  0.7389 -1.9528
  632TMC3    H2 9417   0.055   3.537  15.105 -1.3073  0.2124 -0.0938
  632TMC3    C7 9418   0.292   3.467  15.000 -0.6212 -0.0806 -0.5191
  632TMC3    C8 9419   4.657   3.438  15.297  0.6258 -0.1300  0.0957
  632TMC3    O1 9420   0.237   3.533  14.909  0.3434  0.1975  0.1346
  632TMC3    O2 9421   4.566   3.372  15.338  0.1291 -0.4350  0.2849
  633MPD2     C 9422   0.177   0.837  17.373 -1.4173  0.0017 -0.2175
  633MPD2    C1 9423   0.121   0.781  17.261  0.1755  0.0132 -0.4559
  633MPD2    C2 9424   0.065   0.656  17.261  0.5253 -0.1824  0.3018
  633MPD2    C3 9425   0.077   0.578  17.376  0.6541  0.1687 -0.5671
  633MPD2    C4 9426   0.127   0.636  17.491  0.1994 -0.3374  0.3619
  633MPD2    C5 9427   0.170   0.767  17.486  0.3627  0.2210 -0.1258
  633MPD2     H 9428   0.016   0.618  17.172  1.0267 -0.6809  0.2396
  633MPD2    H1 9429   0.126   0.589  17.588 -0.6542 -1.0311  0.0190
  633MPD2    H2 9430   0.236   0.928  17.378  1.1019 -1.6517  0.0902
  633MPD2    H3 9431   0.201   0.810  17.580  2.0762  1.6784 -1.3639
  633MPD2     N 9432   0.048   0.436  17.377 -0.4362 -0.1007  0.2078
  633MPD2    H5 9433   0.085   0.387  17.458  1.6478  1.9565  0.5032
  633MPD2    N1 9434   0.141   0.836  17.134  0.3919 -0.0828  0.0236
  633MPD2    H7 9435   0.121   0.780  17.052 -2.3687 -0.4593  0.9789
  634TMC3    C1 9436   0.179   1.000  16.976  0.0989 -0.4683  0.8962
  634TMC3    C2 9437   0.227   0.898  16.889  0.2088  0.5312  0.4500
  634TMC3    C3 9438   0.241   0.922  16.758  0.1621  0.3387 -0.2608
  634TMC3    C4 9439   0.172   1.128  16.926  0.5060 -1.1884 -0.1963
  634TMC3    C5 9440   0.171   1.148  16.793  0.3838 -0.5232  0.0783
  634TMC3    C6 9441   0.212   1.043  16.709 -0.3520  0.1950  0.2744
  634TMC3     C 9442   0.180   0.967  17.116  0.8629  0.0659  0.2713
  634TMC3     O 9443   0.188   1.062  17.196  0.2600  0.1670 -0.2483
  634TMC3     H 9444   0.248   0.802  16.934 -0.0078 -0.3178 -1.2687
  634TMC3    H1 9445   0.127   1.203  16.990  1.3169 -2.4667  1.8783
  634TMC3    H2 9446   0.223   1.062  16.602 -0.6479  3.4011  0.7951
  634TMC3    C7 9447   0.133   1.270  16.724  0.8876  0.2546  0.3350
  634TMC3    C8 9448   0.255   0.810  16.661 -0.0165  0.3583 -0.5136
  634TMC3    O1 9449   0.111   1.264  16.604  0.7576  0.2407  0.0658
  634TMC3    O2 9450   0.249   0.700  16.717 -0.0249  0.1388 -0.2285
  635TMC3    C1 9451   0.652   1.786  17.697  0.1056  0.3844  0.5159
  635TMC3    C2 9452   0.685   1.738  17.573 -0.3670 -0.3175  0.2806
  635TMC3    C3 9453   0.679   1.608  17.551 -0.7451 -0.1633 -0.3168
  635TMC3    C4 9454   0.616   1.710   0.047 -0.4826 -0.0010  0.4350
  635TMC3    C5 9455   0.608   1.578   0.020  0.0154  0.4075 -0.4032
  635TMC3    C6 9456   0.640   1.525  17.651 -0.0017 -0.2705  0.2160
  635TMC3     C 9457   0.633   1.928  17.714 -0.1269  0.7458  0.9399
  635TMC3     O 9458   0.624   1.976   0.069 -0.2250 -0.0977 -0.0095
  635TMC3     H 9459   0.735   1.803  17.502  0.8790  0.5478  1.9372
  635TMC3    H1 9460   0.596   1.758   0.142 -0.6774  1.4892 -0.3635
  635TMC3    H2 9461   0.632   1.418  17.643 -1.3811 -0.2489  1.4350
  635TMC3    C7 9462   0.540   1.488   0.106  0.4910  0.5161  0.6459
  635TMC3    C8 9463   0.707   1.559  17.416 -0.1434 -0.0726  0.4006
  635TMC3    O1 9464   0.557   1.369   0.084  0.1577  0.5415  0.1722
  635TMC3    O2 9465   0.681   1.642  17.327 -0.8445 -0.1713  0.0838
  636MPD2     C 9466   1.206   1.324  15.676 -0.3812  0.1912 -0.0551
  636MPD2    C1 9467   1.244   1.342  15.808  0.7620  0.1036  0.3978
  636MPD2    C2 9468   1.291   1.229  15.875 -0.1705 -0.0840 -0.2204
  636MPD2    C3 9469   1.300   1.105  15.809 -0.0623 -0.1797  0.2280
  636MPD2    C4 9470   1.258   1.087  15.676  0.8793 -0.0806  0.2101
  636MPD2    C5 9471   1.221   1.205  15.612  0.8102 -0.0431  0.1398
  636MPD2     H 9472   1.317   1.239  15.980 -0.2919 -1.1577 -0.0862
  636MPD2    H1 9473   1.253   0.992  15.625  0.0070 -0.9141  1.8165
  636MPD2    H2 9474   1.171   1.402  15.609 -1.3136  0.6277  0.9490
  636MPD2    H3 9475   1.209   1.201  15.504  1.1530  1.0414  0.0609
  636MPD2     N 9476   1.352   1.010  15.892 -0.1687 -0.2364 -0.2837
  636MPD2    H5 9477   1.365   1.039  15.989  0.1437  3.0759 -1.3241
  636MPD2    N1 9478   1.237   1.467  15.873 -0.3658 -0.2432  0.0204
  636MPD2    H7 9479   1.240   1.464  15.974 -0.5236  2.9718  0.1186
  637TMC3    C1 9480   1.380   0.789  15.967  0.4602 -0.3571 -0.4318
  637TMC3    C2 9481   1.329   0.822  16.089  0.8528  0.0269  0.1897
  637TMC3    C3 9482   1.333   0.724  16.185  0.4157 -0.2131 -0.5502
  637TMC3    C4 9483   1.436   0.668  15.943  0.8823  0.8405  0.1547
  637TMC3    C5 9484   1.427   0.566  16.035 -0.4247 -0.6094  0.1259
  637TMC3    C6 9485   1.376   0.598  16.161 -0.4290  0.1480  0.4960
  637TMC3     C 9486   1.383   0.883  15.855 -0.5379  1.0127  0.1646
  637TMC3     O 9487   1.408   0.848  15.741  0.0962  0.7101  0.0479
  637TMC3     H 9488   1.278   0.913  16.118 -0.5914 -0.9066  0.5649
  637TMC3    H1 9489   1.472   0.643  15.844  1.1544 -0.6101  0.6148
  637TMC3    H2 9490   1.380   0.520  16.237  0.3617 -0.1018  0.1963
  637TMC3    C7 9491   1.449   0.432  15.987 -0.4814 -0.0890  0.4591
  637TMC3    C8 9492   1.359   0.774  16.317 -0.0807 -0.3619  0.4622
  637TMC3    O1 9493   1.421   0.423  15.870  0.2724  0.0247 -0.2093
  637TMC3    O2 9494   1.390   0.894  16.324  0.2554 -0.0369  0.0823
  638MPD2     C 9495   1.108   0.056  14.889 -0.9670  0.2933 -0.0568
  638MPD2    C1 9496   1.054   4.679  14.839  0.1462  0.9054  0.5113
  638MPD2    C2 9497   1.018   4.587  14.931 -0.4813  0.1583 -0.0409
  638MPD2    C3 9498   1.033   4.601  15.069  0.9450  0.0873 -0.5597
  638MPD2    C4 9499   1.086   4.713  15.114  0.1967  0.0054 -0.0754
  638MPD2    C5 9500   1.122   0.070  15.024  0.1782  0.2627  0.3955
  638MPD2     H 9501   0.989   4.486  14.905 -0.5059 -0.3075  1.8085
  638MPD2    H1 9502   1.098   4.737  15.219 -1.2489 -0.5387  0.2075
  638MPD2    H2 9503   1.128   0.137  14.819  0.3327 -1.2134 -1.4152
  638MPD2    H3 9504   1.160   0.166  15.055 -0.3980  0.6307 -0.0446
  638MPD2     N 9505   0.986   4.494  15.151 -0.3339  0.5948  0.2602
  638MPD2    H5 9506   0.945   4.415  15.103 -0.8216  2.4459 -2.3677
  638MPD2    N1 9507   1.039   4.675  14.698 -0.6225 -0.0385  1.0673
  638MPD2    H7 9508   1.094   4.740  14.643  0.6816 -3.3687 -1.5203
  639TMC3    C1 9509   0.979   4.345  15.325  0.1450  0.9100 -0.3047
  639TMC3    C2 9510   0.886   4.281  15.255 -0.0743 -0.7226  0.4406
  639TMC3    C3 9511   0.888   4.143  15.234 -0.1338  0.3032  0.2828
  639TMC3    C4 9512   1.085   4.269  15.374  0.8921  0.4127  0.2336
  639TMC3    C5 9513   1.088   4.138  15.349  0.8082  0.2406 -0.3133
  639TMC3    C6 9514   0.995   4.070  15.281  0.4338 -0.2949  0.3490
  639TMC3     C 9515   1.027   4.469  15.281  0.9024  0.5949 -0.9096
  639TMC3     O 9516   1.107   4.536  15.347 -0.0003 -0.0610 -0.0413
  639TMC3     H 9517   0.799   4.327  15.210  1.0254  1.5541  0.6145
  639TMC3    H1 9518   1.164   4.322  15.426 -0.7837  2.7144  0.4637
  639TMC3    H2 9519   1.012   3.967  15.250 -0.3184 -0.2857 -0.0890
  639TMC3    C7 9520   1.212   4.074  15.372 -0.5292  0.0983 -1.0399
  639TMC3    C8 9521   0.845   4.083  15.108  0.1982 -0.9309  0.0463
  639TMC3    O1 9522   1.207   3.951  15.359 -0.7584  0.1312  0.2616
  639TMC3    O2 9523   0.934   4.028  15.048  0.3065 -0.0245 -0.1045
  640MPD2     C 9524   0.930   3.107  10.094 -0.0315  0.3621  0.6715
  640MPD2    C1 9525   0.921   3.207  10.005  0.6646  0.6787  0.5707
  640MPD2    C2 9526   0.831   3.309  10.028 -0.1784  0.4343  0.7151
  640MPD2    C3 9527   0.775   3.325  10.156 -0.1345  0.2069 -0.2413
  640MPD2    C4 9528   0.804   3.227  10.248 -0.7016  0.1743 -0.9729
  640MPD2    C5 9529   0.877   3.115  10.213  0.0630  0.1105 -0.5188
  640MPD2     H 9530   0.817   3.388   9.955  2.3080 -0.3669 -0.6571
  640MPD2    H1 9531   0.750   3.231  10.341  1.4813  0.6735  0.2748
  640MPD2    H2 9532   1.003   3.028  10.076 -0.8936  0.0715 -1.4780
  640MPD2    H3 9533   0.882   3.033  10.284  1.0235 -0.4159 -1.1988
  640MPD2     N 9534   0.670   3.408  10.197  0.3516 -0.0802  0.4115
  640MPD2    H5 9535   0.622   3.387  10.284  0.9430 -2.4389  0.1918
  640MPD2    N1 9536   0.989   3.193   9.880  0.9407 -0.3879 -0.3486
  640MPD2    H7 9537   1.035   3.107   9.851  2.9747 -0.3148  2.6619
  641TMC3    C1 9538   1.079   3.259   9.680  0.2987  0.6806 -1.0244
  641TMC3    C2 9539   1.163   3.153   9.684 -0.0893  0.3297 -0.3864
  641TMC3    C3 9540   1.246   3.131   9.574  0.0547  0.5844 -0.6963
  641TMC3    C4 9541   1.068   3.341   9.567  0.3082  0.3060 -0.1890
  641TMC3    C5 9542   1.152   3.315   9.461 -0.9467  0.5853 -0.0715
  641TMC3    C6 9543   1.253   3.217   9.469 -0.3101  0.3252  0.0090
  641TMC3     C 9544   0.999   3.293   9.791  0.0393 -0.4247  0.3352
  641TMC3     O 9545   0.973   3.411   9.813 -0.4676  0.1982 -0.0448
  641TMC3     H 9546   1.191   3.117   9.782  1.1771 -0.1063 -0.8961
  641TMC3    H1 9547   0.995   3.421   9.567  1.0219  0.9641 -3.1473
  641TMC3    H2 9548   1.298   3.198   9.372  2.2491 -2.9786  1.8733
  641TMC3    C7 9549   1.172   3.404   9.349 -0.3136  0.4521  0.5872
  641TMC3    C8 9550   1.345   3.024   9.582 -0.1515 -0.2407  0.1630
  641TMC3    O1 9551   1.256   3.370   9.266 -0.1020  0.5164 -0.4005
  641TMC3    O2 9552   1.440   3.035   9.505 -0.2138 -0.2771 -0.1876
  642TMC3    C1 9553   2.518   4.551  12.422 -0.1858 -0.4073 -0.0755
  642TMC3    C2 9554   2.641   4.526  12.368 -0.2595  0.4922  0.5481
  642TMC3    C3 9555   2.672   4.395  12.331 -0.3499  0.0347  0.4358
  642TMC3    C4 9556   2.422   4.451  12.432 -0.2336  0.3347  0.3045
  642TMC3    C5 9557   2.461   4.329  12.392  0.2945 -0.1439  0.7139
  642TMC3    C6 9558   2.578   4.299  12.335  0.4251  0.6500  0.2815
  642TMC3     C 9559   2.482   4.689  12.430 -0.2673  0.0455  0.1509
  642TMC3     O 9560   2.548   0.033  12.368 -0.7699 -0.3158 -0.5088
  642TMC3     H 9561   2.704   4.614  12.354 -2.3313  1.8570 -0.2044
  642TMC3    H1 9562   2.321   4.474  12.464 -0.2903 -0.9888  1.0450
  642TMC3    H2 9563   2.616   4.200  12.314  0.1252  0.3379  1.2581
  642TMC3    C7 9564   2.385   4.219  12.449 -0.5477 -0.3475 -0.1509
  642TMC3    C8 9565   2.803   4.369  12.265 -0.2588  0.6048 -0.7750
  642TMC3    O1 9566   2.318   4.240  12.553  0.0834  0.4571 -0.2264
  642TMC3    O2 9567   2.812   4.288  12.174  0.0481 -0.4544 -0.3919
  643TMC3    C1 9568   2.185   3.420   0.237  0.2209  0.2755 -0.0239
  643TMC3    C2 9569   2.054   3.405   0.200  0.5178 -0.5551  0.1206
  643TMC3    C3 9570   2.032   3.318   0.098 -0.6944  0.0249 -0.2385
  643TMC3    C4 9571   2.294   3.377   0.169  0.3130 -0.2379  0.1906
  643TMC3    C5 9572   2.265   3.292   0.064  0.0025  0.3199  0.7703
  643TMC3    C6 9573   2.133   3.268   0.023 -0.2814  0.0500 -0.2560
  643TMC3     C 9574   2.212   3.535   0.324  0.2077  0.2627 -0.4912
  643TMC3     O 9575   2.147   3.635   0.305  0.5633  0.5330  0.3848
  643TMC3     H 9576   1.972   3.448   0.256  0.5033  0.4487 -0.6726
  643TMC3    H1 9577   2.397   3.393   0.199  1.0062 -1.0828 -1.7295
  643TMC3    H2 9578   2.111   3.214  17.689 -1.2336 -0.3632  0.2146
  643TMC3    C7 9579   2.370   3.266  17.725 -0.4047  0.3128 -0.5442
  643TMC3    C8 9580   1.937   3.373  17.754  0.1491 -0.4244 -0.0730
  643TMC3    O1 9581   2.458   3.348  17.724  0.0222  0.3018 -0.2401
  643TMC3    O2 9582   1.909   3.303  17.659  0.2112 -0.1825 -0.1817
  644MPD2     C 9583   1.210   4.551   9.751  0.0863 -0.1173  0.4951
  644MPD2    C1 9584   1.145   4.435   9.717 -0.5103  0.2864  0.7583
  644MPD2    C2 9585   1.007   4.438   9.702 -0.1937 -0.3280  0.8397
  644MPD2    C3 9586   0.942   4.557   9.725 -0.7060 -0.1664  0.1010
  644MPD2    C4 9587   1.014   4.671   9.768 -0.2428 -0.8778 -0.3105
  644MPD2    C5 9588   1.146   4.670   9.781 -0.2440 -0.6489 -0.1407
  644MPD2     H 9589   0.952   4.350   9.670  1.7478 -0.7066 -1.5250
  644MPD2    H1 9590   0.974   0.027   9.797  0.8243 -0.2869 -0.8054
  644MPD2    H2 9591   1.317   4.541   9.768  0.2713  0.8849 -0.0327
  644MPD2    H3 9592   1.196   0.017   9.823  0.5984 -1.6754  0.9815
  644MPD2     N 9593   0.801   4.573   9.699  0.0153  0.2737 -0.0339
  644MPD2    H5 9594   0.748   4.497   9.658  0.4232  0.0103 -0.0772
  644MPD2    N1 9595   1.223   4.319   9.689 -0.0256  0.2861 -0.3072
  644MPD2    H7 9596   1.317   4.340   9.657  0.3935  0.6114  1.1382
  645TMC3    C1 9597   0.589   4.674   9.685 -0.4017 -0.3513 -0.1368
  645TMC3    C2 9598   0.524   0.040   9.627 -0.2933  0.2758 -0.8026
  645TMC3    C3 9599   0.388   0.022   9.606 -0.0655 -0.2529 -0.0507
  645TMC3    C4 9600   0.533   4.558   9.722 -0.0324 -1.1883  0.4812
  645TMC3    C5 9601   0.402   4.551   9.695 -0.0639 -0.1271  0.3667
  645TMC3    C6 9602   0.325   4.654   9.652  0.5654  0.5289 -0.0892
  645TMC3     C 9603   0.731   4.690   9.703  1.1152  0.7453 -0.1124
  645TMC3     O 9604   0.774   0.058   9.731  0.8192  0.0843  0.7207
  645TMC3     H 9605   0.566   0.140   9.620  0.7558 -0.2512 -1.8775
  645TMC3    H1 9606   0.590   4.479   9.769 -0.5374 -1.4397  0.6658
  645TMC3    H2 9607   0.217   4.653   9.646  0.5959 -0.3125 -0.4257
  645TMC3    C7 9608   0.343   4.428   9.725 -0.3308  0.0910  0.9885
  645TMC3    C8 9609   0.308   0.121   9.539  0.2536 -0.4330 -0.1451
  645TMC3    O1 9610   0.389   4.370   9.823 -0.3307  0.1503  0.1733
  645TMC3    O2 9611   0.192   0.107   9.531  0.0488 -0.3081 -0.9508
  646MPD2     C 9612   1.419   3.352  14.389  0.5455  0.4448  0.3346
  646MPD2    C1 9613   1.338   3.329  14.494 -0.1398 -0.3164  0.0778
  646MPD2    C2 9614   1.217   3.396  14.499  0.2296 -0.7994  0.5385
  646MPD2    C3 9615   1.180   3.490  14.404 -0.4488 -0.3451 -0.1491
  646MPD2    C4 9616   1.282   3.530  14.309  0.2854 -0.0546  0.0879
  646MPD2    C5 9617   1.390   3.450  14.299  0.3774  0.3079 -0.6080
  646MPD2     H 9618   1.140   3.368  14.570  1.0951 -2.9926  0.6096
  646MPD2    H1 9619   1.274   3.615  14.242 -1.0260 -0.3485 -0.1322
  646MPD2    H2 9620   1.514   3.300  14.382  0.8663  0.8310  2.0246
  646MPD2    H3 9621   1.454   3.472  14.215  1.6324 -0.6630  0.1103
  646MPD2     N 9622   1.057   3.559  14.417  0.5005 -0.3241  0.1710
  646MPD2    H5 9623   0.986   3.521  14.479  1.2606 -0.3374  1.0178
  646MPD2    N1 9624   1.387   3.240  14.591 -0.0441 -0.4554  0.3752
  646MPD2    H7 9625   1.484   3.216  14.573 -0.0262 -0.1763  0.1041
  647TMC3    C1 9626   1.405   3.098  14.771 -0.6318  0.5766  0.2096
  647TMC3    C2 9627   1.359   3.060  14.899 -0.1500 -0.4395 -0.2261
  647TMC3    C3 9628   1.451   3.021  14.991  0.9624  0.5976 -0.5278
  647TMC3    C4 9629   1.534   3.070  14.733  0.4566 -0.1143 -0.3492
  647TMC3    C5 9630   1.623   3.026  14.826  0.1030 -0.4529  0.6062
  647TMC3    C6 9631   1.587   3.008  14.958  0.4343  0.1297 -0.4305
  647TMC3     C 9632   1.321   3.185  14.700 -0.5865 -0.1104  0.9618
  647TMC3     O 9633   1.205   3.203  14.738  0.0574 -0.0376  0.5567
  647TMC3     H 9634   1.268   3.103  14.939  1.1077  2.0850 -0.0369
  647TMC3    H1 9635   1.581   3.092  14.638 -0.2672 -1.2683 -0.9720
  647TMC3    H2 9636   1.662   2.987  15.033 -0.4853  3.1606  1.3391
  647TMC3    C7 9637   1.764   2.977  14.792  0.4032 -0.5258 -1.0411
  647TMC3    C8 9638   1.423   2.907  15.073 -0.4062  0.3920 -0.9179
  647TMC3    O1 9639   1.841   2.965  14.887 -0.1076 -0.0017 -0.7442
  647TMC3    O2 9640   1.486   2.883  15.177  0.6863  0.1450  0.0214
  648TMC3    C1 9641   0.686   0.880  16.175 -0.0422  0.6258  0.4808
  648TMC3    C2 9642   0.737   0.762  16.140 -0.5772 -0.1704  0.3198
  648TMC3    C3 9643   0.719   0.728  16.012 -0.5033  0.4508 -0.0672
  648TMC3    C4 9644   0.631   0.973  16.098  0.0304  0.0169  0.0172
  648TMC3    C5 9645   0.615   0.928  15.969  0.4464 -0.0442  0.3991
  648TMC3    C6 9646   0.658   0.805  15.924 -0.1372 -0.0297  0.1731
  648TMC3     C 9647   0.683   0.898  16.322  0.8188 -0.3594 -0.3774
  648TMC3     O 9648   0.663   1.014  16.357  0.0642 -0.0717  0.3614
  648TMC3     H 9649   0.786   0.693  16.208  0.9054  0.9077  0.3587
  648TMC3    H1 9650   0.603   1.070  16.138 -0.0774 -1.1034  2.6615
  648TMC3    H2 9651   0.657   0.761  15.825  0.2258 -0.8716  0.5429
  648TMC3    C7 9652   0.588   1.022  15.867 -0.3766 -0.1837  0.1882
  648TMC3    C8 9653   0.765   0.594  15.967 -0.0832  0.1167  0.3902
  648TMC3    O1 9654   0.615   1.009  15.750 -0.4151  0.1464 -0.4562
  648TMC3    O2 9655   0.866   0.552  16.022 -0.0554  0.3815  0.9895
  649TMC3    C1 9656   3.994   2.362  12.468  0.5503 -0.0371 -0.1163
  649TMC3    C2 9657   4.113   2.432  12.460 -0.1771 -0.0225 -1.1743
  649TMC3    C3 9658   4.206   2.426  12.561 -0.4161 -0.5853 -0.0757
  649TMC3    C4 9659   3.979   2.278  12.580 -1.2859  0.3298  0.4311
  649TMC3    C5 9660   4.070   2.275  12.678 -0.1038 -0.3960 -0.1475
  649TMC3    C6 9661   4.183   2.343  12.673  0.3681 -0.2195 -0.0360
  649TMC3     C 9662   3.873   2.412  12.406 -0.5513 -0.3252  0.0167
  649TMC3     O 9663   3.765   2.370  12.433 -0.1381  0.1046  0.4323
  649TMC3     H 9664   4.138   2.490  12.372  2.8151 -0.3416 -0.5165
  649TMC3    H1 9665   3.888   2.223  12.604 -0.8021  0.0073  1.5136
  649TMC3    H2 9666   4.270   2.348  12.738 -2.8961 -0.3691  4.3621
  649TMC3    C7 9667   4.038   2.227  12.815  0.3767  0.0830 -0.0328
  649TMC3    C8 9668   4.253   2.560  12.595 -0.2983 -0.0300 -0.4984
  649TMC3    O1 9669   3.926   2.246  12.846  0.1870 -0.6138  0.2140
  649TMC3    O2 9670   4.255   2.572  12.715 -0.4280  0.0122  0.4972
  650TMC3    C1 9671   1.874   3.591  12.665  0.4043  0.0602 -0.0891
  650TMC3    C2 9672   1.859   3.709  12.742 -0.9588  0.4172  0.0673
  650TMC3    C3 9673   1.762   3.788  12.696 -0.1233  0.4902  0.9294
  650TMC3    C4 9674   1.803   3.563  12.550  0.4380 -0.4081 -0.9139
  650TMC3    C5 9675   1.714   3.659  12.506 -0.7527 -0.5621 -0.1164
  650TMC3    C6 9676   1.699   3.774  12.577 -0.6344  0.2156  0.3129
  650TMC3     C 9677   2.000   3.517  12.692  0.0437  0.1308 -0.4576
  650TMC3     O 9678   2.082   3.580  12.763  0.3151  0.0903 -0.8428
  650TMC3     H 9679   1.925   3.745  12.819  0.5377  2.2039 -2.0486
  650TMC3    H1 9680   1.821   3.479  12.484 -0.2994  0.2082 -1.9063
  650TMC3    H2 9681   1.621   3.842  12.544  0.5678  1.0450 -0.7895
  650TMC3    C7 9682   1.714   3.686  12.373  0.1411  0.3064  0.4027
  650TMC3    C8 9683   1.770   3.927  12.747 -0.8070  0.1319 -0.2184
  650TMC3    O1 9684   1.675   3.605  12.295 -0.7584  0.4243  0.1718
  650TMC3    O2 9685   1.797   4.007  12.660  1.0561 -0.5746  0.0498
  651MPD2     C 9686   0.638   0.934  10.912  0.9141  0.6816  0.1378
  651MPD2    C1 9687   0.606   0.958  10.779  1.1514 -0.8523 -0.0741
  651MPD2    C2 9688   0.708   0.964  10.693  0.4410 -0.2025 -0.7363
  651MPD2    C3 9689   0.842   0.949  10.725 -0.7371  0.0717  0.6807
  651MPD2    C4 9690   0.866   0.933  10.860  0.1803  0.7163 -0.1816
  651MPD2    C5 9691   0.764   0.921  10.954 -1.0193  0.7597  0.2777
  651MPD2     H 9692   0.687   0.991  10.590  1.9399 -0.6181 -1.1601
  651MPD2    H1 9693   0.966   0.906  10.893 -0.2634  0.6364  1.0933
  651MPD2    H2 9694   0.564   0.918  10.990 -0.9317 -0.6109 -1.8734
  651MPD2    H3 9695   0.783   0.894  11.057 -2.9687 -0.3270  0.3647
  651MPD2     N 9696   0.945   0.977  10.628 -0.1984  0.1074 -0.4680
  651MPD2    H5 9697   0.918   0.989  10.531 -1.4779  0.9931 -0.0044
  651MPD2    N1 9698   0.475   0.968  10.731  0.4096 -0.6156  0.1046
  651MPD2    H7 9699   0.467   0.936  10.635  1.1366 -0.5368  0.0210
  652TMC3    C1 9700   1.354   1.172  10.511 -0.2739  0.7055  0.2743
  652TMC3    C2 9701   1.287   1.060  10.544  0.4992  0.0319  0.8367
  652TMC3    C3 9702   1.151   1.059  10.538  0.6878 -0.3391  0.7722
  652TMC3    C4 9703   1.299   1.291  10.471 -0.1447 -0.1587 -0.5947
  652TMC3    C5 9704   1.158   1.290  10.462  0.6785  0.2626  0.1577
  652TMC3    C6 9705   1.087   1.179  10.509  0.6113 -0.1681  0.7149
  652TMC3     C 9706   1.489   1.176  10.568  0.1983  0.0693 -0.9072
  652TMC3     O 9707   1.525   1.090  10.641 -0.3605  0.6592  0.3517
  652TMC3     H 9708   1.337   0.975  10.589 -1.2760 -1.8706 -0.7474
  652TMC3    H1 9709   1.352   1.383  10.448  2.0018 -0.6825  2.3049
  652TMC3    H2 9710   0.978   1.186  10.506  0.5811 -0.2146  1.8523
  652TMC3    C7 9711   1.095   1.403  10.523  0.7243  0.1093 -0.0397
  652TMC3    C8 9712   1.080   0.983  10.650  0.3025  0.5154 -0.7335
  652TMC3    O1 9713   1.001   1.385  10.597  0.1019  0.3702  0.0307
  652TMC3    O2 9714   1.142   0.950  10.752  0.1150 -0.1642 -0.2252
  653MPD2     C 9715   4.612   0.839   0.090 -0.2413  0.2447  0.3813
  653MPD2    C1 9716   4.594   0.943   0.005 -0.4126 -0.2536 -0.5138
  653MPD2    C2 9717   4.558   0.910  17.634 -0.4051 -0.0043  0.1758
  653MPD2    C3 9718   4.537   0.784  17.588  0.1080 -0.5766  0.1094
  653MPD2    C4 9719   4.564   0.678  17.675  0.3808 -0.5697  0.3677
  653MPD2    C5 9720   4.598   0.711   0.045 -1.2451 -0.0233 -0.3345
  653MPD2     H 9721   4.534   0.988  17.563 -0.1689  0.4445  0.5930
  653MPD2    H1 9722   4.560   0.575  17.641 -2.9964 -0.1589 -0.5185
  653MPD2    H2 9723   4.651   0.849   0.191 -0.1347  1.1264  0.2506
  653MPD2    H3 9724   4.607   0.626   0.111  1.6113 -0.4802 -1.3178
  653MPD2     N 9725   4.485   0.772  17.459  0.4435 -0.3871 -0.5229
  653MPD2    H5 9726   4.491   0.850  17.395 -0.5066  0.8152  0.8584
  653MPD2    N1 9727   4.607   1.078   0.049 -0.1127 -0.1876  0.2853
  653MPD2    H7 9728   4.599   1.148  17.733 -0.8638 -1.7896 -1.1575
  654TMC3    C1 9729   4.335   0.687  17.295 -0.0908 -0.2124 -0.7797
  654TMC3    C2 9730   4.261   0.800  17.281 -0.0061 -0.5280 -0.1802
  654TMC3    C3 9731   4.175   0.811  17.173 -0.1206 -0.3554 -0.1909
  654TMC3    C4 9732   4.310   0.580  17.217 -0.0464  0.1221 -0.1469
  654TMC3    C5 9733   4.226   0.596  17.107 -0.2546 -0.2004  0.0234
  654TMC3    C6 9734   4.162   0.712  17.082 -0.2175 -0.1907  0.6518
  654TMC3     C 9735   4.412   0.663  17.414  0.7632 -0.0490 -0.2399
  654TMC3     O 9736   4.397   0.553  17.461  0.4754  0.5785 -0.6550
  654TMC3     H 9737   4.270   0.872  17.362 -1.6118 -1.6730  1.0133
  654TMC3    H1 9738   4.363   0.487  17.239 -3.4034 -1.8501 -0.3984
  654TMC3    H2 9739   4.095   0.719  16.997 -1.1087  0.0551  1.3731
  654TMC3    C7 9740   4.163   0.480  17.055  0.0306 -0.3262  0.0236
  654TMC3    C8 9741   4.082   0.921  17.162 -0.0892  0.3610 -0.9128
  654TMC3    O1 9742   4.083   0.492  16.959 -0.3841 -0.3776 -0.3881
  654TMC3    O2 9743   4.007   0.909  17.065 -0.3030  0.2287 -0.1626
  655MPD2     C 9744   1.028   0.801  15.869 -0.4731  0.1985 -0.2197
  655MPD2    C1 9745   0.979   0.890  15.780 -0.0850 -0.4656  0.0588
  655MPD2    C2 9746   0.979   0.857  15.650 -0.2406  1.2220  0.7940
  655MPD2    C3 9747   1.037   0.736  15.609  0.7971 -0.2240 -0.8506
  655MPD2    C4 9748   1.089   0.642  15.700 -0.4424  0.0051  0.2035
  655MPD2    C5 9749   1.090   0.674  15.835 -0.4320  0.5443 -0.2996
  655MPD2     H 9750   0.958   0.935  15.578  0.8058 -1.6455 -2.6591
  655MPD2    H1 9751   1.120   0.546  15.662 -1.4747  0.3568 -1.5451
  655MPD2    H2 9752   1.038   0.825  15.974 -2.5365 -1.9245  0.4529
  655MPD2    H3 9753   1.121   0.603  15.910 -1.0226 -0.0692 -0.6426
  655MPD2     N 9754   1.028   0.698  15.474 -0.0102 -0.3972  0.4249
  655MPD2    H5 9755   1.085   0.621  15.441 -1.0758 -1.7360  1.7479
  655MPD2    N1 9756   0.949   1.020  15.812 -0.1388  0.3474  0.6665
  655MPD2    H7 9757   0.912   1.076  15.735 -0.7466 -1.8759 -0.6453
  656TMC3    C1 9758   0.922   1.220  15.923  0.1029 -0.6096 -0.3260
  656TMC3    C2 9759   0.898   1.287  16.036  0.1127 -0.6381 -0.2636
  656TMC3    C3 9760   0.868   1.419  16.044 -0.3432 -0.5227 -0.2945
  656TMC3    C4 9761   0.910   1.278  15.797 -0.0301 -0.1172 -0.0661
  656TMC3    C5 9762   0.873   1.414  15.806  0.2686 -0.4609  0.3372
  656TMC3    C6 9763   0.866   1.487  15.922  0.0342  0.3950 -0.5816
  656TMC3     C 9764   0.954   1.076  15.933 -0.4510 -0.0503 -0.0437
  656TMC3     O 9765   0.965   1.026  16.043  0.0111 -0.8426 -0.1247
  656TMC3     H 9766   0.908   1.232  16.129 -1.1891 -0.8211 -0.2446
  656TMC3    H1 9767   0.919   1.228  15.702  2.0995 -0.7112  0.4498
  656TMC3    H2 9768   0.832   1.590  15.919 -0.4575  0.2232 -0.7704
  656TMC3    C7 9769   0.842   1.478  15.685 -0.1091 -0.2236  0.1595
  656TMC3    C8 9770   0.784   1.477  16.148 -0.0706  0.6509  0.5002
  656TMC3    O1 9771   0.906   1.433  15.591  0.5041  0.0060  0.0494
  656TMC3    O2 9772   0.777   1.603  16.148  0.5101  0.1071  0.0479
  657TMC3    C1 9773   4.567   0.529  15.141 -0.8983 -0.6713  0.0589
  657TMC3    C2 9774   4.543   0.570  15.268  1.0090 -0.2176  0.7856
  657TMC3    C3 9775   4.462   0.685  15.279  1.0004 -0.6700 -0.1332
  657TMC3    C4 9776   4.531   0.595  15.026 -0.3837  0.0891 -0.1132
  657TMC3    C5 9777   4.455   0.706  15.044 -0.7655  0.2536 -0.4186
  657TMC3    C6 9778   4.411   0.749  15.164 -0.1112  0.1401  0.2324
  657TMC3     C 9779   4.666   0.421  15.118 -0.0713 -0.6302  0.1779
  657TMC3     O 9780   0.000   0.407  15.211 -0.1863  0.0055  0.4426
  657TMC3     H 9781   4.549   0.502  15.352 -1.4333  1.0055  1.9627
  657TMC3    H1 9782   4.562   0.559  14.929  1.7281  2.1454 -0.2027
  657TMC3    H2 9783   4.340   0.830  15.164  0.2968  0.4938  0.4672
  657TMC3    C7 9784   4.450   0.793  14.927  0.1161 -0.6021 -0.1512
  657TMC3    C8 9785   4.412   0.729  15.408 -0.4186 -0.1321  0.1356
  657TMC3    O1 9786   4.364   0.877  14.928 -0.3863 -0.0022 -0.3436
  657TMC3    O2 9787   4.372   0.843  15.418 -0.3909  0.6996  0.7606
  658MPD2     C 9788   1.537   0.922  15.029 -0.0509 -0.0954 -0.3343
  658MPD2    C1 9789   1.409   0.971  15.000  0.3118  0.6410  0.1680
  658MPD2    C2 9790   1.398   1.099  14.942  0.1076  0.3605 -0.0905
  658MPD2    C3 9791   1.508   1.177  14.914  0.8120 -0.1311  0.2645
  658MPD2    C4 9792   1.637   1.125  14.951 -0.2156  0.3720  0.3546
  658MPD2    C5 9793   1.646   1.001  15.007 -0.4622 -0.3061  0.3523
  658MPD2     H 9794   1.303   1.136  14.905 -0.2803  0.6499  1.2058
  658MPD2    H1 9795   1.730   1.180  14.937 -0.5521  0.7623 -0.3384
  658MPD2    H2 9796   1.540   0.827  15.080  1.2059 -0.0731 -0.3774
  658MPD2    H3 9797   1.740   0.962  15.044  0.8596  2.6440  0.1346
  658MPD2     N 9798   1.487   1.306  14.852 -0.0597 -0.3099  0.1494
  658MPD2    H5 9799   1.389   1.333  14.853 -0.2314 -0.9114 -0.3134
  658MPD2    N1 9800   1.295   0.895  15.034 -0.1152  0.6154 -0.0029
  658MPD2    H7 9801   1.315   0.801  15.067 -1.7137  0.6174  1.0117
  659TMC3    C1 9802   1.071   0.836  15.058  0.2138  0.6607  0.2444
  659TMC3    C2 9803   1.088   0.774  15.174  0.3815  0.0908 -0.3830
  659TMC3    C3 9804   0.980   0.717  15.241 -0.6913 -0.2318  0.2803
  659TMC3    C4 9805   0.949   0.845  14.998  0.0120 -0.1398 -0.6723
  659TMC3    C5 9806   0.842   0.788  15.059 -0.3957  0.2557  0.7664
  659TMC3    C6 9807   0.855   0.727  15.185  0.1322 -0.1767  0.5116
  659TMC3     C 9808   1.168   0.933  15.016  0.6239 -0.3724  0.2277
  659TMC3     O 9809   1.123   1.037  14.971 -0.2745 -0.4901 -0.3582
  659TMC3     H 9810   1.174   0.795  15.237  0.4587  1.9866 -1.1173
  659TMC3    H1 9811   0.943   0.891  14.900  3.3305 -1.3587 -1.4283
  659TMC3    H2 9812   0.763   0.697  15.234 -0.4379  0.1012 -0.4085
  659TMC3    C7 9813   0.709   0.787  15.000 -0.0109 -0.1651 -0.0115
  659TMC3    C8 9814   0.962   0.768  15.377  0.1507 -0.0548 -0.1866
  659TMC3    O1 9815   0.631   0.706  15.043  0.4891  0.2560  0.4839
  659TMC3    O2 9816   0.898   0.873  15.384  0.5175 -0.4561 -0.4139
  660MPD2     C 9817   3.849   4.714  12.601  0.9370  0.0479 -0.2300
  660MPD2    C1 9818   3.717   4.709  12.571  0.0303  0.3645  0.1336
  660MPD2    C2 9819   3.634   4.656  12.670  0.2584 -0.6540  0.0988
  660MPD2    C3 9820   3.679   4.625  12.792 -0.4481 -0.3540  0.8050
  660MPD2    C4 9821   3.814   4.637  12.817 -0.0226  0.1166  1.1129
  660MPD2    C5 9822   3.901   4.682  12.721  0.2752 -0.2731 -0.3828
  660MPD2     H 9823   3.529   4.647  12.643  0.1306  2.6297 -0.4620
  660MPD2    H1 9824   3.856   4.600  12.910  2.8092 -1.2318 -0.7138
  660MPD2    H2 9825   3.926   4.736  12.527  2.2608 -0.2759  1.0535
  660MPD2    H3 9826   4.007   4.679  12.741 -0.1350 -0.4690  1.8281
  660MPD2     N 9827   3.601   4.572  12.899 -0.6316  0.3812  0.0349
  660MPD2    H5 9828   3.649   4.540  12.982  1.2519 -3.4510 -2.5670
  660MPD2    N1 9829   3.667   0.006  12.447  0.2835 -0.1859 -0.1225
  660MPD2    H7 9830   3.737   0.031  12.377  1.1071 -2.7595 -0.2076
  661TMC3    C1 9831   3.514   0.094  12.281  0.1590 -0.0558  0.4895
  661TMC3    C2 9832   3.574   0.015  12.180 -0.5707 -0.2312 -0.4582
  661TMC3    C3 9833   3.514   0.030  12.058 -0.1350  0.0849 -0.4649
  661TMC3    C4 9834   3.398   0.167  12.264  0.0588  0.7512  0.2601
  661TMC3    C5 9835   3.345   0.159  12.139 -0.5122  0.1461 -0.9046
  661TMC3    C6 9836   3.398   0.093  12.030  0.0273 -0.0251  0.1277
  661TMC3     C 9837   3.535   0.048  12.420 -0.2919  0.2782  0.1041
  661TMC3     O 9838   3.445   0.069  12.500 -0.5152 -0.0213  0.2296
  661TMC3     H 9839   3.651   4.681  12.201 -1.8182 -1.7090 -1.0834
  661TMC3    H1 9840   3.352   0.220  12.346  0.5564  0.5885  0.6424
  661TMC3    H2 9841   3.356   0.098  11.931  2.0124 -0.0509 -0.7146
  661TMC3    C7 9842   3.214   0.198  12.137  0.8660  0.0651 -0.1330
  661TMC3    C8 9843   3.592   4.707  11.951 -0.8083  0.2794  0.0230
  661TMC3    O1 9844   3.173   0.271  12.226 -0.1591 -0.5469  0.2725
  661TMC3    O2 9845   3.646   4.602  11.970  0.1180 -0.3233  0.0153
  662MPD2     C 9846   4.056   4.020   0.085  0.4482 -0.0753  0.0463
  662MPD2    C1 9847   4.113   3.968  17.727  0.6336 -0.3787 -0.1972
  662MPD2    C2 9848   4.114   4.045  17.610  0.3038  0.1002  0.6078
  662MPD2    C3 9849   4.063   4.171  17.613 -0.1019  0.3390  0.0921
  662MPD2    C4 9850   4.002   4.218  17.725 -0.4439  0.6523  0.1825
  662MPD2    C5 9851   4.018   4.149   0.083  0.1000  0.3173 -0.4847
  662MPD2     H 9852   4.170   4.020  17.520  1.3760 -0.6413  1.4819
  662MPD2    H1 9853   3.960   4.317  17.734  3.1158  2.2245 -0.5534
  662MPD2    H2 9854   4.051   3.965   0.178  1.3239  0.8218  0.6319
  662MPD2    H3 9855   3.975   4.184   0.176  1.2982 -1.3694  0.7010
  662MPD2     N 9856   4.056   4.262  17.501  0.0491 -0.4129  0.0368
  662MPD2    H5 9857   4.011   4.348  17.528  0.9263  0.3141 -0.8458
  662MPD2    N1 9858   4.165   3.840  17.719 -0.1274 -0.3607 -0.4518
  662MPD2    H7 9859   4.204   3.810  17.630 -0.9878 -4.7001  0.6207
  663TMC3    C1 9860   4.217   3.617   0.022 -0.6594 -0.0298  0.4968
  663TMC3    C2 9861   4.266   3.531   0.121  0.2871  0.3215  0.4063
  663TMC3    C3 9862   4.329   3.419   0.077  0.5790 -0.2532 -0.0087
  663TMC3    C4 9863   4.214   3.584  17.644  0.5074 -0.2381 -0.1529
  663TMC3    C5 9864   4.248   3.462  17.613 -0.6901 -0.2483  0.1471
  663TMC3    C6 9865   4.306   3.373  17.704  0.3817 -0.2500  0.6088
  663TMC3     C 9866   4.172   3.750   0.062  0.0822 -0.0914  0.1842
  663TMC3     O 9867   4.147   3.764   0.184  0.2162 -0.5195 -0.3023
  663TMC3     H 9868   4.312   3.583   0.205 -0.8416 -0.4671  1.5064
  663TMC3    H1 9869   4.154   3.641  17.574  0.5582  1.3759  1.1072
  663TMC3    H2 9870   4.370   3.292  17.671 -0.9644 -0.6251 -1.0752
  663TMC3    C7 9871   4.196   3.414  17.492  0.3788 -0.4554 -0.4322
  663TMC3    C8 9872   4.322   3.315   0.179  0.1636 -0.0240  0.1872
  663TMC3    O1 9873   4.156   3.488  17.402  0.0818  0.5838  0.2142
  663TMC3    O2 9874   4.391   3.218   0.177 -0.6282  0.2387  0.7799
  664MPD2     C 9875   1.991   2.009  17.272  0.6897 -0.4639  0.4672
  664MPD2    C1 9876   2.046   2.123  17.334  0.4213  0.1142  0.5157
  664MPD2    C2 9877   2.004   2.158  17.459  0.5693  0.1972 -0.5575
  664MPD2    C3 9878   1.914   2.081  17.531  0.8545 -0.1558 -0.9784
  664MPD2    C4 9879   1.863   1.966  17.474  0.2489  0.4250 -0.5069
  664MPD2    C5 9880   1.900   1.934  17.347  0.3850 -0.1017  0.7579
  664MPD2     H 9881   2.025   2.259  17.491 -3.2166  0.4764  1.0048
  664MPD2    H1 9882   1.791   1.905  17.528 -0.9012  0.3408 -2.1595
  664MPD2    H2 9883   2.008   1.973  17.171 -1.0362  0.2605 -0.0713
  664MPD2    H3 9884   1.857   1.843  17.308 -3.0443  0.6843  2.7200
  664MPD2     N 9885   1.879   2.121  17.663  0.1861  0.1656 -0.2082
  664MPD2    H5 9886   1.937   2.196  17.700 -0.7694  1.8009 -2.0228
  664MPD2    N1 9887   2.146   2.205  17.269 -0.5164  0.1588 -0.2635
  664MPD2    H7 9888   2.199   2.276  17.319  0.1704 -0.3509 -0.2667
  665TMC3    C1 9889   1.787   2.117   0.122 -0.5226  0.2618 -0.7300
  665TMC3    C2 9890   1.711   2.045   0.210  0.0194 -0.3980 -0.3253
  665TMC3    C3 9891   1.717   2.082   0.339 -0.1318 -0.2504  0.4656
  665TMC3    C4 9892   1.876   2.216   0.163  0.0520 -0.4783 -0.1076
  665TMC3    C5 9893   1.873   2.245   0.297  0.4177  0.8055  0.0707
  665TMC3    C6 9894   1.797   2.181   0.387 -0.0274 -0.2967  0.0291
  665TMC3     C 9895   1.772   2.087  17.735  0.9739  0.5450  0.0426
  665TMC3     O 9896   1.670   2.029  17.698  0.1915 -0.0711  0.6138
  665TMC3     H 9897   1.656   1.963   0.166 -0.4158 -0.6793  0.7628
  665TMC3    H1 9898   1.958   2.256   0.104 -0.0469 -1.7497 -1.0867
  665TMC3    H2 9899   1.791   2.214   0.491 -0.0844  1.8982 -0.6585
  665TMC3    C7 9900   1.932   2.373   0.338 -0.3109 -0.4171  0.7486
  665TMC3    C8 9901   1.625   2.024   0.434  0.4380 -0.9476 -0.1656
  665TMC3    O1 9902   1.911   2.469   0.257  0.2968 -0.1503  0.1448
  665TMC3    O2 9903   1.669   1.999   0.545  0.5772 -0.0881  0.0321
  666TMC3    C1 9904   0.443   1.932   9.931 -0.2268  0.5268 -0.6806
  666TMC3    C2 9905   0.503   1.917   9.812  0.1435  0.2316  0.6016
  666TMC3    C3 9906   0.569   2.030   9.756 -0.1874  0.8476 -0.1180
  666TMC3    C4 9907   0.472   2.030  10.015 -0.1244 -0.2452 -0.5022
  666TMC3    C5 9908   0.551   2.130   9.972 -0.4319  0.0474  0.5810
  666TMC3    C6 9909   0.593   2.138   9.841  0.3048 -0.9289 -0.4431
  666TMC3     C 9910   0.366   1.827   9.986  0.3183 -0.2817 -0.2575
  666TMC3     O 9911   0.363   1.808  10.107  0.0308  0.1401  0.0294
  666TMC3     H 9912   0.493   1.829   9.750  1.7025  0.6281 -0.2097
  666TMC3    H1 9913   0.431   2.039  10.114 -1.4684 -1.4458 -0.9462
  666TMC3    H2 9914   0.623   2.235   9.804 -0.4162 -0.4236  0.2923
  666TMC3    C7 9915   0.540   2.256  10.042  0.3130 -0.2377 -0.0992
  666TMC3    C8 9916   0.577   2.034   9.613  0.1379  0.6720 -0.0164
  666TMC3    O1 9917   0.442   2.272  10.115 -0.1715  0.1304  0.4485
  666TMC3    O2 9918   0.493   1.962   9.559 -0.0993 -0.2718  0.5343
  667MPD2     C 9919   3.076   2.783  14.150  0.5080 -0.2652  0.4893
  667MPD2    C1 9920   3.101   2.714  14.262 -0.3494 -0.0124 -0.3343
  667MPD2    C2 9921   3.048   2.586  14.278  0.4355  0.3397  0.2414
  667MPD2    C3 9922   2.965   2.537  14.184 -0.2695 -0.6257 -0.7321
  667MPD2    C4 9923   2.925   2.614  14.081  0.4548  0.0932  0.8653
  667MPD2    C5 9924   2.979   2.736  14.063  0.3783  0.2146 -0.1039
  667MPD2     H 9925   3.064   2.528  14.368 -0.0440 -1.2294 -0.6808
  667MPD2    H1 9926   2.846   2.581  14.014  1.1192 -2.0825  1.1691
  667MPD2    H2 9927   3.122   2.874  14.113  0.4583  0.5379  2.4459
  667MPD2    H3 9928   2.949   2.785  13.971 -1.3619 -0.1679  0.2450
  667MPD2     N 9929   2.894   2.420  14.192  0.7763  0.2395 -0.2345
  667MPD2    H5 9930   2.827   2.409  14.116  0.0909  0.4620  0.3350
  667MPD2    N1 9931   3.177   2.774  14.368  0.3255 -0.1475  0.6602
  667MPD2    H7 9932   3.188   2.725  14.456  1.6550  0.5607  0.8887
  668TMC3    C1 9933   3.265   2.942  14.501  0.3768  0.1767  0.2358
  668TMC3    C2 9934   3.355   3.046  14.510  0.2245  0.5569 -0.2184
  668TMC3    C3 9935   3.381   3.092  14.631 -0.6653  0.9724  0.2003
  668TMC3    C4 9936   3.200   2.887  14.608  0.0703  0.6595  0.2596
  668TMC3    C5 9937   3.232   2.939  14.731  0.3255 -0.3782 -0.9046
  668TMC3    C6 9938   3.318   3.046  14.746  0.3622 -0.5040 -0.1551
  668TMC3     C 9939   3.230   2.899  14.367 -0.2163  0.9020  0.4029
  668TMC3     O 9940   3.258   2.968  14.271  0.0882 -0.0658 -0.0509
  668TMC3     H 9941   3.402   3.069  14.415 -2.0631  1.0637 -1.2274
  668TMC3    H1 9942   3.123   2.811  14.609  0.1875  0.5192 -1.2720
  668TMC3    H2 9943   3.320   3.098  14.841 -1.0203 -1.9051  0.6377
  668TMC3    C7 9944   3.158   2.893  14.848  0.2100 -0.5070 -0.0913
  668TMC3    C8 9945   3.479   3.201  14.644 -0.6986  0.0773  0.3715
  668TMC3    O1 9946   3.181   2.958  14.950 -0.1380 -0.5625 -0.1016
  668TMC3    O2 9947   3.462   3.258  14.753  0.0922  0.2630  0.1866
  669TMC3    C1 9948   1.230   2.463  14.319 -0.2656 -0.2120 -0.2147
  669TMC3    C2 9949   1.122   2.529  14.264  0.1319 -0.1062 -0.2513
  669TMC3    C3 9950   1.140   2.620  14.164  0.7450 -0.1841 -1.3059
  669TMC3    C4 9951   1.358   2.510  14.297 -0.4730  0.8803  0.3709
  669TMC3    C5 9952   1.373   2.594  14.187 -0.4304 -0.3603 -0.5115
  669TMC3    C6 9953   1.267   2.649  14.118 -0.5160 -0.5138 -0.5784
  669TMC3     C 9954   1.187   2.374  14.430 -0.5882 -0.1218 -0.1046
  669TMC3     O 9955   1.067   2.356  14.440  0.4019  0.0687  0.2957
  669TMC3     H 9956   1.019   2.498  14.280 -0.5533  1.0801 -2.3192
  669TMC3    H1 9957   1.440   2.474  14.358  0.5742  0.3728 -1.3385
  669TMC3    H2 9958   1.280   2.713  14.032 -3.6560  0.0317 -0.6424
  669TMC3    C7 9959   1.506   2.651  14.181 -0.2492  0.6390 -0.6712
  669TMC3    C8 9960   1.021   2.697  14.128  0.4051  0.3218 -0.0891
  669TMC3    O1 9961   1.582   2.629  14.277  0.0572  0.5846 -0.8237
  669TMC3    O2 9962   0.920   2.671  14.187  0.6882 -0.4722 -0.6732
  670MPD2     C 9963   3.776   0.178  13.621 -0.3136  0.3027  0.6071
  670MPD2    C1 9964   3.904   0.218  13.654 -0.0362  0.6034 -0.0404
  670MPD2    C2 9965   3.936   0.229  13.790  0.2657 -0.7077  0.4890
  670MPD2    C3 9966   3.842   0.196  13.880 -0.2658  0.1558  0.2361
  670MPD2    C4 9967   3.716   0.169  13.849 -0.1534  0.1569  0.1454
  670MPD2    C5 9968   3.682   0.159  13.719 -0.3307  0.3351  0.2391
  670MPD2     H 9969   4.039   0.252  13.815 -0.0036  1.2702 -0.2357
  670MPD2    H1 9970   3.640   0.155  13.925  1.0603 -1.4577  1.0608
  670MPD2    H2 9971   3.747   0.171  13.516 -2.4185  1.8566  1.0892
  670MPD2    H3 9972   3.577   0.149  13.692  0.1661 -0.6680 -1.3558
  670MPD2     N 9973   3.882   0.216  14.021 -0.3911  0.7733 -0.1695
  670MPD2    H5 9974   3.973   0.259  14.034  0.5332 -0.9705 -0.8896
  670MPD2    N1 9975   4.008   0.243  13.560 -0.0236  1.1291  0.1849
  670MPD2    H7 9976   4.092   0.288  13.593 -0.0958  1.3900  0.0172
  671TMC3    C1 9977   3.894   0.198  14.253 -0.4504 -0.0954 -0.0045
  671TMC3    C2 9978   4.032   0.192  14.233 -0.6762  0.8414  0.4332
  671TMC3    C3 9979   4.099   0.109  14.319  0.8854  0.1047  0.0843
  671TMC3    C4 9980   3.832   0.132  14.355 -0.3737 -0.2840 -0.3327
  671TMC3    C5 9981   3.905   0.039  14.424  0.5727 -0.3285 -0.0185
  671TMC3    C6 9982   4.039   0.024  14.406 -0.1051 -0.2354  0.7477
  671TMC3     C 9983   3.815   0.182  14.136  0.0221  0.3038 -0.4066
  671TMC3     O 9984   3.710   0.126  14.144  0.5890 -0.8598 -0.1249
  671TMC3     H 9985   4.077   0.279  14.185 -1.0615  0.3666 -0.7897
  671TMC3    H1 9986   3.726   0.112  14.366 -0.4852  0.7262  0.3994
  671TMC3    H2 9987   4.091   4.684  14.459  1.1332  1.3076  1.8697
  671TMC3    C7 9988   3.846   4.649  14.437 -0.1858 -0.1828  0.3463
  671TMC3    C8 9989   4.236   0.098  14.291  0.3271 -0.3992 -0.0617
  671TMC3    O1 9990   3.749   4.642  14.514 -0.5536 -0.5357  0.2188
  671TMC3    O2 9991   4.272   0.129  14.176 -0.2050  0.3836 -0.0154
  672MPD2     C 9992   4.116   0.534   1.085  0.5425 -0.0104 -0.1811
  672MPD2    C1 9993   4.216   0.487   0.999  0.2607 -0.4780  0.2259
  672MPD2    C2 9994   4.346   0.529   1.012  0.2717 -0.2048  0.2264
  672MPD2    C3 9995   4.385   0.611   1.118  0.1804 -0.1401 -0.0997
  672MPD2    C4 9996   4.284   0.660   1.203 -0.2419  0.5116 -0.1088
  672MPD2    C5 9997   4.153   0.623   1.184 -0.9459 -0.1282 -0.7097
  672MPD2     H 9998   4.420   0.512   0.934  1.3573 -1.9642  1.6578
  672MPD2    H1 9999   4.302   0.723   1.289  0.3044  0.7599 -0.4049
  672MPD2    H210000   4.012   0.503   1.089  0.1663  1.3373  0.4562
  672MPD2    H310001   4.086   0.659   1.262 -0.7956 -1.0639 -0.1507
  672MPD2     N10002   4.517   0.662   1.146  0.4031  0.1006 -0.1659
  672MPD2    H510003   4.524   0.727   1.224  2.8506 -1.0454  0.5634
  672MPD2    N110004   4.198   0.404   0.883  0.2421 -0.2580  0.0944
  672MPD2    H710005   4.280   0.384   0.826  1.4292  2.9520  0.6816
  673TMC3    C110006   4.059   0.287   0.729  0.6312  0.7989 -0.6127
  673TMC3    C210007   4.155   0.190   0.719  1.0316  0.1445  0.0290
  673TMC3    C310008   4.136   0.109   0.614 -0.7513 -0.1960 -0.4721
  673TMC3    C410009   3.953   0.308   0.638 -0.1345  0.0624  0.0037
  673TMC3    C510010   3.963   0.238   0.523 -0.4463 -0.0539 -0.7145
  673TMC3    C610011   4.058   0.140   0.506 -0.3480 -0.2292  0.1744
  673TMC3     C10012   4.065   0.371   0.843 -0.2763  0.5524  0.3689
  673TMC3     O10013   3.960   0.422   0.885 -0.3718  0.9486  0.2183
  673TMC3     H10014   4.221   0.169   0.802 -0.7245  1.5961  1.7786
  673TMC3    H110015   3.875   0.374   0.673 -0.0810 -0.4698  1.1197
  673TMC3    H210016   4.043   0.072   0.423 -2.8332  0.0076  0.4102
  673TMC3    C710017   3.897   0.292   0.401  0.1125 -0.3716  0.8064
  673TMC3    C810018   4.196   4.719   0.610  0.1017 -0.1166  0.0039
  673TMC3    O110019   3.903   0.226   0.299  0.1898 -0.7979  0.2763
  673TMC3    O210020   4.147   4.641   0.528  0.4224  0.3923 -0.8431
  674MPD2     C10021   4.221   0.614   0.147 -0.0600  0.4906  0.6789
  674MPD2    C110022   4.172   0.509   0.064 -0.0094 -0.4045  0.1487
  674MPD2    C210023   4.121   0.552  17.699  0.3887  0.2280 -0.6324
  674MPD2    C310024   4.102   0.683  17.665 -0.7121 -0.2957  0.1225
  674MPD2    C410025   4.135   0.779  17.754  0.4256 -0.2817 -0.7713
  674MPD2    C510026   4.194   0.744   0.114  0.8842 -0.5443  0.1223
  674MPD2     H10027   4.072   0.478  17.637 -0.2663  0.3149 -0.2172
  674MPD2    H110028   4.104   0.883  17.752 -0.0059 -0.3831  0.6580
  674MPD2    H210029   4.278   0.599   0.238  3.2575 -0.4570 -1.5502
  674MPD2    H310030   4.231   0.816   0.186 -0.8504 -0.1254  0.5861
  674MPD2     N10031   4.033   0.705  17.540 -0.2182  0.4792 -0.2521
  674MPD2    H510032   4.018   0.623  17.481 -1.7648  1.1214 -0.7660
  674MPD2    N110033   4.192   0.374   0.109  0.1826 -0.6351  0.3314
  674MPD2    H710034   4.227   0.358   0.202 -0.6557  0.9556  0.9190
  675TMC3    C110035   4.173   0.136   0.121 -0.2303 -0.2139  0.1124
  675TMC3    C210036   4.086   0.025   0.115 -0.3360 -0.4243 -0.4882
  675TMC3    C310037   4.116   4.656   0.193  0.3123 -0.1056 -0.1202
  675TMC3    C410038   4.286   0.130   0.195  0.0018  0.6823 -0.7086
  675TMC3    C510039   4.317   0.010   0.263  0.7052 -0.2435  0.1146
  675TMC3    C610040   4.234   4.640   0.256  0.0010 -0.2422  0.1862
  675TMC3     C10041   4.152   0.257   0.042  0.1199  0.7456  0.2660
  675TMC3     O10042   4.089   0.251  17.695  0.1111 -0.9818 -0.3991
  675TMC3     H10043   3.991   0.034   0.064 -0.7420 -0.9108  0.1813
  675TMC3    H110044   4.345   0.219   0.210  0.2585  0.3698  0.1574
  675TMC3    H210045   4.267   4.548   0.302  2.0761  0.0429 -0.7196
  675TMC3    C710046   4.456   4.740   0.301  0.8601 -0.3675 -0.6476
  675TMC3    C810047   4.007   4.564   0.210  0.2642 -0.5325  0.5334
  675TMC3    O110048   4.512   0.109   0.298  0.4452 -0.6410  0.3101
  675TMC3    O210049   3.934   4.546   0.115  0.1065 -0.1877 -0.0834
  676MPD2     C10050   1.427   3.680  10.951 -0.3465 -0.4783 -0.3368
  676MPD2    C110051   1.312   3.665  11.031  0.7571 -0.0383  0.1276
  676MPD2    C210052   1.219   3.566  10.994 -0.1345  0.5904 -0.4583
  676MPD2    C310053   1.240   3.488  10.881  0.0036  0.7191 -0.0788
  676MPD2    C410054   1.363   3.496  10.810  0.2019 -0.3303  1.1950
  676MPD2    C510055   1.446   3.594  10.848  0.1341 -0.0163 -0.1973
  676MPD2     H10056   1.141   3.551  11.068  0.8151 -2.1825 -0.0136
  676MPD2    H110057   1.382   3.420  10.735  2.1076  2.6484 -1.3312
  676MPD2    H210058   1.512   3.744  10.967  1.6704 -3.4552  0.9431
  676MPD2    H310059   1.541   3.596  10.795  0.8388  2.9860  1.1956
  676MPD2     N10060   1.157   3.388  10.838  0.0459  0.2893 -0.0692
  676MPD2    H510061   1.187   3.335  10.757 -0.1818  0.6220 -0.3713
  676MPD2    N110062   1.287   3.743  11.143 -0.4561 -0.0458 -0.0834
  676MPD2    H710063   1.199   3.729  11.193 -0.1025 -0.0244  0.5420
  677TMC3    C110064   1.336   3.879  11.326 -0.4063  0.0579 -0.2957
  677TMC3    C210065   1.267   3.797  11.409  0.4833  0.3321  0.0758
  677TMC3    C310066   1.247   3.835  11.538  0.4795 -0.5440 -1.1550
  677TMC3    C410067   1.382   4.002  11.369  0.7825 -0.5939  0.6836
  677TMC3    C510068   1.357   4.039  11.497 -0.5727  0.4534 -0.2022
  677TMC3    C610069   1.279   3.959  11.582 -0.1187 -0.1281  0.0833
  677TMC3     C10070   1.381   3.828  11.197  0.1349 -0.6220 -0.4614
  677TMC3     O10071   1.496   3.855  11.159  0.1674 -0.6793  0.1313
  677TMC3     H10072   1.238   3.698  11.376 -1.9590  0.3663  2.1600
  677TMC3    H110073   1.413   4.081  11.302 -2.2146  0.3795  0.4647
  677TMC3    H210074   1.258   3.993  11.683  0.1202 -0.0711  0.1149
  677TMC3    C710075   1.394   4.170  11.543  0.3861  0.8092  0.6736
  677TMC3    C810076   1.257   3.723  11.625  0.6376  0.9524 -0.2994
  677TMC3    O110077   1.353   4.201  11.658  0.3306  0.4365  0.0123
  677TMC3    O210078   1.299   3.616  11.583  0.1484  0.2106  0.0043
  678MPD2     C10079   3.652   2.321   1.357  0.0432 -0.0738 -0.1747
  678MPD2    C110080   3.642   2.458   1.338  0.3465 -0.2403 -0.2430
  678MPD2    C210081   3.518   2.517   1.314  0.0168 -0.4342 -0.3361
  678MPD2    C310082   3.407   2.439   1.294  0.0906 -0.9790 -0.8776
  678MPD2    C410083   3.422   2.301   1.304  0.0488  0.2726 -0.2340
  678MPD2    C510084   3.543   2.245   1.329  0.3156 -0.4198  0.0878
  678MPD2     H10085   3.513   2.625   1.305 -0.9715 -0.4531  0.0685
  678MPD2    H110086   3.340   2.230   1.295  0.4147 -0.1916  0.0977
  678MPD2    H210087   3.745   2.269   1.377  1.3604  2.3034 -0.2131
  678MPD2    H310088   3.552   2.138   1.337  1.5464 -0.1611  2.0196
  678MPD2     N10089   3.286   2.511   1.268 -0.6526  0.1021  0.7776
  678MPD2    H510090   3.285   2.607   1.301  0.9880  0.1856  0.5893
  678MPD2    N110091   3.752   2.553   1.343 -0.5836 -0.0596 -0.0471
  678MPD2    H710092   3.728   2.641   1.298  1.2148 -0.1438 -1.1790
  679TMC3    C110093   4.178   2.744   1.350  0.2331  0.4717 -0.1743
  679TMC3    C210094   4.099   2.631   1.342  0.1454 -0.1337 -0.0757
  679TMC3    C310095   3.966   2.654   1.357 -0.4096  0.1340 -0.2170
  679TMC3    C410096   4.128   2.872   1.378  0.8779  0.0730 -0.2137
  679TMC3    C510097   3.990   2.885   1.383  0.3264  0.3575  0.0871
  679TMC3    C610098   3.906   2.778   1.366  0.3731  0.0364 -0.8806
  679TMC3     C10099   4.289   2.740   1.255  0.0638 -0.1328 -0.4678
  679TMC3     O10100   4.321   2.628   1.224 -0.6131 -0.3026  0.5024
  679TMC3     H10101   4.141   2.531   1.333  0.4257 -0.2680  2.7155
  679TMC3    H110102   4.191   2.960   1.384  1.9985 -0.7551 -0.0358
  679TMC3    H210103   3.798   2.786   1.370  0.5480  2.3158 -0.7109
  679TMC3    C710104   3.916   3.014   1.372  0.4421 -0.7691  0.3879
  679TMC3    C810105   3.883   2.534   1.382 -0.0523 -0.1891  0.8111
  679TMC3    O110106   3.793   3.008   1.361 -0.1175  0.0918 -0.8173
  679TMC3    O210107   3.932   2.429   1.431 -0.1140  0.2033  0.0995
  680MPD2     C10108   3.515   2.493  13.635 -0.5916 -0.1697 -0.2150
  680MPD2    C110109   3.621   2.416  13.664  0.3896 -0.7438 -0.6474
  680MPD2    C210110   3.715   2.455  13.757 -0.1494  0.5336 -0.6797
  680MPD2    C310111   3.705   2.582  13.813 -0.6494 -0.7519  0.5019
  680MPD2    C410112   3.604   2.665  13.776  0.0658  0.2718 -0.6712
  680MPD2    C510113   3.506   2.623  13.680  0.1746 -0.2446  0.2672
  680MPD2     H10114   3.805   2.396  13.773 -0.3319  0.3364 -0.3896
  680MPD2    H110115   3.600   2.764  13.821  0.8752  0.8933 -1.9488
  680MPD2    H210116   3.450   2.460  13.554 -1.3738 -0.8199  0.6678
  680MPD2    H310117   3.426   2.688  13.647  2.4556  2.1073 -0.6433
  680MPD2     N10118   3.804   2.633  13.903  0.0199  0.1869 -0.3042
  680MPD2    H510119   3.788   2.725  13.943  1.3914  0.8966 -1.3937
  680MPD2    N110120   3.633   2.291  13.597  0.1279  0.2050 -0.2654
  680MPD2    H710121   3.728   2.258  13.603  0.1634 -0.0106 -1.9348
  681TMC3    C110122   3.596   2.081  13.505 -0.0354 -0.5006 -0.2610
  681TMC3    C210123   3.522   1.971  13.550  0.9710  0.1537  0.6265
  681TMC3    C310124   3.590   1.852  13.562  0.6533 -0.1278 -0.6375
  681TMC3    C410125   3.724   2.076  13.466  0.7515  1.0955  0.3142
  681TMC3    C510126   3.786   1.956  13.471  0.5272  0.1795 -0.7142
  681TMC3    C610127   3.724   1.845  13.530 -0.3697 -0.2547 -0.5419
  681TMC3     C10128   3.535   2.210  13.538  0.4769  0.2088 -0.2208
  681TMC3     O10129   3.421   2.237  13.509 -0.1070 -0.0702  0.5873
  681TMC3     H10130   3.421   1.973  13.589  0.3741 -1.3488 -0.8225
  681TMC3    H110131   3.780   2.165  13.439  1.0142  0.7820 -0.1867
  681TMC3    H210132   3.768   1.746  13.539  0.0742 -0.1623 -1.6462
  681TMC3    C710133   3.909   1.933  13.396  0.2878  0.5926 -0.1161
  681TMC3    C810134   3.559   1.786  13.686 -0.3560 -0.1682  0.1291
  681TMC3    O110135   3.958   1.824  13.415 -0.4660 -0.6092  0.4737
  681TMC3    O210136   3.447   1.743  13.712 -0.2744 -0.1271 -0.1971
  682MPD2     C10137   0.431   3.505  10.652 -0.4595 -0.5224 -0.1897
  682MPD2    C110138   0.345   3.407  10.703 -0.1068  0.0089  0.2922
  682MPD2    C210139   0.267   3.443  10.811  0.1190  0.3814 -1.0406
  682MPD2    C310140   0.286   3.563  10.872  0.4227  0.2634 -0.0207
  682MPD2    C410141   0.362   3.660  10.806 -0.1914  0.0755  0.3325
  682MPD2    C510142   0.429   3.633  10.695 -0.6520  0.0646 -0.4400
  682MPD2     H10143   0.198   3.373  10.856  1.3642  0.3771  0.8637
  682MPD2    H110144   0.385   3.751  10.860 -1.2624  0.6226 -0.1151
  682MPD2    H210145   0.492   3.484  10.565  0.2125 -1.2467  0.4617
  682MPD2    H310146   0.506   3.696  10.653  1.4296 -1.0365  1.7199
  682MPD2     N10147   0.246   3.591  11.005 -0.4798 -0.2981 -0.1443
  682MPD2    H510148   0.293   3.663  11.058 -0.3981  0.4837 -1.2797
  682MPD2    N110149   0.329   3.277  10.651 -0.1563 -0.7024  0.2748
  682MPD2    H710150   0.267   3.213  10.701 -0.2589  0.3530  1.4998
  683TMC3    C110151   0.395   3.480  11.363  0.3733 -0.2866  0.7329
  683TMC3    C210152   0.338   3.379  11.438 -0.0083  0.0879  0.1751
  683TMC3    C310153   0.217   3.335  11.394 -0.2021  0.1929 -0.1902
  683TMC3    C410154   0.343   3.533  11.248  0.1900  0.4860  0.0150
  683TMC3    C510155   0.216   3.485  11.218 -0.5013  0.3723  0.4857
  683TMC3    C610156   0.148   3.396  11.296  0.0594 -0.1773 -0.7215
  683TMC3     C10157   0.488   3.562  11.430 -0.1710 -0.4941  0.5640
  683TMC3     O10158   0.481   3.679  11.397  0.3036  0.1817 -0.6904
  683TMC3     H10159   0.376   3.349  11.535  0.4805  0.0699 -0.0208
  683TMC3    H110160   0.384   3.617  11.194 -1.7715  1.0748 -0.5535
  683TMC3    H210161   0.059   3.345  11.259  0.7643 -0.6291 -1.7886
  683TMC3    C710162   0.171   3.500  11.080  0.1752 -0.0539 -0.1180
  683TMC3    C810163   0.171   3.200  11.430  0.0749 -0.3974  0.4478
  683TMC3    O110164   0.085   3.423  11.039  0.1390  0.5488  0.3075
  683TMC3    O210165   0.054   3.169  11.412 -0.1832  0.4261 -0.0133
  684MPD2     C10166   4.320   3.304  16.364  0.1789 -0.7135  0.2996
  684MPD2    C110167   4.257   3.235  16.262  0.9655  0.2924 -0.1493
  684MPD2    C210168   4.116   3.246  16.253 -0.0538 -0.3849  0.7693
  684MPD2    C310169   4.039   3.319  16.338  0.6159  0.0388  0.1854
  684MPD2    C410170   4.107   3.384  16.441 -1.0032 -0.3269 -0.0619
  684MPD2    C510171   4.245   3.379  16.447  0.3648  0.0402  0.3109
  684MPD2     H10172   4.071   3.195  16.169 -1.1420  1.9764 -0.0498
  684MPD2    H110173   4.049   3.447  16.507  0.4400  0.8800  0.0384
  684MPD2    H210174   4.426   3.295  16.380  0.2678 -0.8752 -0.3467
  684MPD2    H310175   4.301   3.431  16.525  0.7816 -1.7447  1.1982
  684MPD2     N10176   3.902   3.359  16.325 -0.1899  0.3346  0.4259
  684MPD2    H510177   3.866   3.410  16.405  1.1236  0.0461  1.1896
  684MPD2    N110178   4.318   3.147  16.166  0.6071  0.2741 -0.1369
  684MPD2    H710179   4.252   3.093  16.110 -0.7428 -0.3928  2.0993
  685TMC3    C110180   4.485   3.034  16.052 -0.6571 -0.4649  0.6776
  685TMC3    C210181   4.383   2.968  15.977 -0.6282 -0.6707 -0.3494
  685TMC3    C310182   4.423   2.862  15.905  0.3184 -0.1729 -0.0331
  685TMC3    C410183   4.608   2.976  16.061  1.1251  0.7734 -0.1794
  685TMC3    C510184   4.637   2.861  15.992  0.2757 -0.8897  0.0024
  685TMC3    C610185   4.546   2.808  15.908 -0.5372 -0.4220  0.8926
  685TMC3     C10186   4.454   3.125  16.158 -0.1440 -0.5958 -0.1295
  685TMC3     O10187   4.551   3.176  16.218  0.0160 -0.2074 -0.5659
  685TMC3     H10188   4.284   3.013  15.976 -0.0819  0.5591 -0.1771
  685TMC3    H110189   4.675   3.007  16.140  2.3643 -0.1540 -0.8773
  685TMC3    H210190   4.567   2.709  15.871 -1.9576 -0.9948  1.6033
  685TMC3    C710191   0.001   2.778  16.051 -0.1968 -0.5004  0.4994
  685TMC3    C810192   4.315   2.783  15.838 -0.4298  0.7254  0.7684
  685TMC3    O110193   4.737   2.657  16.033  0.7351  0.7712  0.2653
  685TMC3    O210194   4.360   2.704  15.751  0.2338 -0.0248  0.1331
  686MPD2     C10195   0.807   3.152  15.313 -0.3141  0.9408 -0.0265
  686MPD2    C110196   0.720   3.046  15.307 -0.6634 -0.1321  0.4901
  686MPD2    C210197   0.732   2.951  15.203 -0.3512  0.3592  0.3248
  686MPD2    C310198   0.840   2.965  15.115  0.0771 -0.2870  0.3742
  686MPD2    C410199   0.917   3.077  15.118  0.9769 -0.1010  0.1107
  686MPD2    C510200   0.906   3.171  15.218 -0.0992 -0.1879 -0.8025
  686MPD2     H10201   0.674   2.861  15.195 -4.0159  2.7911 -0.4374
  686MPD2    H110202   0.991   3.093  15.041  0.7074  1.6910  0.2117
  686MPD2    H210203   0.802   3.225  15.393 -1.4445  1.1100 -0.2521
  686MPD2    H310204   0.971   3.256  15.233  1.3533 -1.3169 -0.6529
  686MPD2     N10205   0.880   2.862  15.022  0.2413  0.4968 -0.3540
  686MPD2    H510206   0.941   2.889  14.946  1.2294 -2.6925 -0.6894
  686MPD2    N110207   0.646   3.028  15.425  0.4349  0.6467 -0.1850
  686MPD2    H710208   0.635   3.107  15.488 -0.8712 -0.8129  1.4152
  687TMC3    C110209   0.808   2.662  15.139 -0.3820 -0.6780 -0.2882
  687TMC3    C210210   0.708   2.572  15.132  0.4981 -0.8422 -0.2792
  687TMC3    C310211   0.673   2.513  15.253  0.5660 -0.2883 -0.1096
  687TMC3    C410212   0.895   2.673  15.243  0.2763 -0.0342  0.3807
  687TMC3    C510213   0.878   2.586  15.344  0.2001  0.0043 -0.8604
  687TMC3    C610214   0.760   2.513  15.358  0.3321  0.1408  0.0343
  687TMC3     C10215   0.837   2.730  15.017 -0.4778  0.7568 -0.5325
  687TMC3     O10216   0.837   2.664  14.913 -0.3060 -0.0085  0.0983
  687TMC3     H10217   0.646   2.572  15.044  0.6508 -1.3948 -0.3847
  687TMC3    H110218   0.987   2.730  15.240  0.7391 -0.6738  2.3758
  687TMC3    H210219   0.731   2.472  15.454 -0.3858  2.3579  0.7715
  687TMC3    C710220   0.947   2.634  15.468  0.2006  0.5433  0.3384
  687TMC3    C810221   0.531   2.505  15.289 -0.1216 -0.2390 -0.4096
  687TMC3    O110222   0.986   2.752  15.470 -0.4992 -0.3588  0.2914
  687TMC3    O210223   0.492   2.410  15.356 -0.3009 -0.2455  0.1812
  688MPD2     C10224   0.285   1.688  17.656 -0.0431  0.5285 -0.7585
  688MPD2    C110225   0.260   1.556  17.638 -0.1368  1.1232 -0.8077
  688MPD2    C210226   0.299   1.490  17.523  0.7825 -0.2810  1.3261
  688MPD2    C310227   0.362   1.562  17.418  0.7032  0.4936 -0.4518
  688MPD2    C410228   0.369   1.695  17.433 -0.0495  0.3344 -0.0752
  688MPD2    C510229   0.342   1.753  17.554  0.3775  0.7330 -0.0738
  688MPD2     H10230   0.267   1.387  17.509  0.2479  0.1498 -0.5906
  688MPD2    H110231   0.406   1.752  17.348  2.2809 -1.8049 -0.4839
  688MPD2    H210232   0.262   1.735  17.750 -2.8890 -1.2491 -0.5403
  688MPD2    H310233   0.372   1.856  17.570 -1.3830  1.0608  1.1029
  688MPD2     N10234   0.410   1.508  17.295  0.3457 -0.3633 -0.1568
  688MPD2    H510235   0.441   1.578  17.228  1.3444  0.9086  1.6637
  688MPD2    N110236   0.179   1.488  17.732  0.1099 -0.0648  0.7039
  688MPD2    H710237   0.192   1.387  17.732  1.0870  0.0632  0.7756
  689TMC3    C110238   0.036   1.447   0.160  1.2527  0.0552 -1.1119
  689TMC3    C210239   0.002   1.498   0.283  0.2086  0.7259 -0.4978
  689TMC3    C310240   4.682   1.412   0.366 -0.1615 -0.2944 -0.3304
  689TMC3    C410241   4.717   1.328   0.113 -0.5348 -0.2911  0.2758
  689TMC3    C510242   4.649   1.249   0.200 -0.8251  0.2264 -0.3697
  689TMC3    C610243   4.632   1.287   0.330  0.5703  0.0172 -0.0495
  689TMC3     C10244   0.091   1.545   0.069  0.2203  0.4994 -0.0590
  689TMC3     O10245   0.065   1.665   0.095 -0.5593 -0.0888  0.1517
  689TMC3     H10246   0.052   1.588   0.316  0.2549  0.4406  0.2097
  689TMC3    H110247   0.017   1.292   0.019  0.2909  0.2412  0.4216
  689TMC3    H210248   4.582   1.230   0.407  1.9074  0.6935  1.3331
  689TMC3    C710249   4.627   1.109   0.178  0.0397  0.0405  0.0639
  689TMC3    C810250   4.624   1.478   0.477 -0.3350  0.4127  0.4696
  689TMC3    O110251   4.636   1.039   0.275  0.8388 -0.4863 -0.2102
  689TMC3    O210252   4.597   1.414   0.576  0.1460  0.9342 -0.0731
  690MPD2     C10253   2.456   3.651  15.697  0.7471 -0.0311 -0.0855
  690MPD2    C110254   2.364   3.659  15.596 -0.5589  0.4376 -0.2753
  690MPD2    C210255   2.393   3.737  15.482  0.4222  0.0989  0.0926
  690MPD2    C310256   2.513   3.810  15.475  0.5232 -0.1771  0.2591
  690MPD2    C410257   2.607   3.793  15.572  0.0594 -1.3033  0.2416
  690MPD2    C510258   2.576   3.719  15.686  0.3260  0.4112 -0.0146
  690MPD2     H10259   2.329   3.749  15.395  1.6885 -2.8148 -1.2396
  690MPD2    H110260   2.702   3.844  15.571 -0.9946  0.6579  0.2831
  690MPD2    H210261   2.447   3.587  15.784 -0.8121 -1.1348 -1.0611
  690MPD2    H310262   2.643   3.716  15.771  0.5735 -0.4083 -0.2355
  690MPD2     N10263   2.548   3.883  15.357 -0.6357 -0.7424  0.1794
  690MPD2    H510264   2.481   3.879  15.280  0.5614 -0.7691 -0.8678
  690MPD2    N110265   2.243   3.584  15.593  0.6412 -0.2705  0.4362
  690MPD2    H710266   2.184   3.587  15.511  0.6874 -2.3887  0.3248
  691TMC3    C110267   2.084   3.423  15.642  0.1785 -0.4941 -0.7354
  691TMC3    C210268   2.016   3.459  15.531 -0.0204 -0.5476  0.9735
  691TMC3    C310269   1.904   3.385  15.508  0.9401 -0.2540  0.1737
  691TMC3    C410270   2.042   3.329  15.730  0.3343  0.2928  0.2060
  691TMC3    C510271   1.930   3.253  15.693  0.3332  0.0028  0.0308
  691TMC3    C610272   1.865   3.272  15.566 -0.6873  0.3147  0.2039
  691TMC3     C10273   2.205   3.496  15.687  0.1007  0.0070 -0.1448
  691TMC3     O10274   2.258   3.463  15.792 -0.1445  0.0437 -0.1671
  691TMC3     H10275   2.030   3.554  15.482  0.1559 -1.0218  0.0898
  691TMC3    H110276   2.098   3.313  15.821  1.1058  3.4138  0.2735
  691TMC3    H210277   1.775   3.224  15.529 -0.9893 -0.0955  1.4475
  691TMC3    C710278   1.902   3.143  15.783 -0.7535  0.0691  1.0555
  691TMC3    C810279   1.798   3.445  15.441  0.0209  0.6849  0.3866
  691TMC3    O110280   1.977   3.148  15.882  0.3274  0.1890  0.2095
  691TMC3    O210281   1.825   3.516  15.345 -0.0713 -0.0624 -0.2801
  692TMC3    C110282   3.636   4.254  15.383  0.0888  0.0210  0.2259
  692TMC3    C210283   3.758   4.290  15.431 -0.0657  0.0628  0.1523
  692TMC3    C310284   3.850   4.198  15.451 -0.4477 -0.6424 -0.2095
  692TMC3    C410285   3.591   4.128  15.366 -0.0210  0.0495  0.0462
  692TMC3    C510286   3.684   4.035  15.399  0.7664  1.0056 -0.7033
  692TMC3    C610287   3.805   4.070  15.458 -0.6001  0.4021  0.2420
  692TMC3     C10288   3.526   4.350  15.403 -0.6279  0.4733  0.7693
  692TMC3     O10289   3.414   4.307  15.423  0.1442 -0.1943 -0.6790
  692TMC3     H10290   3.802   4.384  15.397  0.5206 -0.9914 -1.9819
  692TMC3    H110291   3.494   4.101  15.326 -1.2886  0.5511  2.8004
  692TMC3    H210292   3.877   3.992  15.479  0.9354  1.0790 -2.4728
  692TMC3    C710293   3.643   3.894  15.382  0.2468  0.0340  0.3396
  692TMC3    C810294   3.953   4.217  15.549  0.1865 -0.6712 -0.3479
  692TMC3    O110295   3.558   3.870  15.300  0.1232 -0.2386 -0.8255
  692TMC3    O210296   4.040   4.135  15.565 -0.7348  0.3743  0.1362
  693MPD2     C10297   2.645   2.755  11.187  0.3000  0.1925  0.1250
  693MPD2    C110298   2.591   2.657  11.110 -0.8388  0.3035  0.1623
  693MPD2    C210299   2.672   2.580  11.038 -0.0610 -0.1353 -0.2283
  693MPD2    C310300   2.808   2.594  11.047  0.8022 -0.1658  0.8867
  693MPD2    C410301   2.865   2.696  11.127 -0.1869 -0.1958 -0.2889
  693MPD2    C510302   2.779   2.784  11.189 -0.3674 -0.1087  0.4493
  693MPD2     H10303   2.646   2.497  10.975 -1.3945  0.3100 -0.2647
  693MPD2    H110304   2.973   2.696  11.139 -0.3343  2.3590  1.0764
  693MPD2    H210305   2.584   2.814  11.254 -1.4113 -2.4033  0.8446
  693MPD2    H310306   2.806   2.851  11.270 -0.0682 -2.8296  2.6082
  693MPD2     N10307   2.900   2.503  10.993 -0.5853  0.5825  0.6149
  693MPD2    H510308   2.986   2.497  11.047 -0.4159  0.5287  0.3385
  693MPD2    N110309   2.460   2.618  11.112 -0.1075 -0.7088 -0.3291
  693MPD2    H710310   2.431   2.548  11.044 -1.3934  0.3568 -0.8719
  694TMC3    C110311   2.303   2.504  11.216  0.4930 -0.4461 -0.6232
  694TMC3    C210312   2.247   2.455  11.104  0.8889  1.0317  0.8195
  694TMC3    C310313   2.191   2.332  11.099  0.0675  0.6428 -0.6881
  694TMC3    C410314   2.299   2.426  11.328  0.4687  0.7908  0.0450
  694TMC3    C510315   2.232   2.309  11.327  0.1994 -0.3104  0.0008
  694TMC3    C610316   2.164   2.263  11.215 -0.1033 -0.1844 -0.0467
  694TMC3     C10317   2.372   2.626  11.213 -0.3616  0.7553  0.6436
  694TMC3     O10318   2.389   2.679  11.324 -0.3162  0.0471  0.0214
  694TMC3     H10319   2.247   2.513  11.012 -0.1292  2.7494  1.8778
  694TMC3    H110320   2.341   2.459  11.423 -0.6629 -0.4663  0.9835
  694TMC3    H210321   2.102   2.175  11.201 -0.6253  0.0978  0.5204
  694TMC3    C710322   2.238   2.234  11.451  0.6540 -0.1256 -0.3644
  694TMC3    C810323   2.116   2.299  10.978 -0.2286 -0.2669  0.1677
  694TMC3    O110324   2.298   2.283  11.547  0.4089  0.4772 -0.2137
  694TMC3    O210325   2.030   2.219  11.000 -0.2351  0.0201 -0.2744
  695MPD2     C10326   4.579   4.622  13.387 -0.0445  0.7594  0.1736
  695MPD2    C110327   4.551   4.595  13.520  0.0703 -0.3440 -0.6257
  695MPD2    C210328   4.422   4.575  13.553 -0.2126 -0.3087  0.0003
  695MPD2    C310329   4.323   4.596  13.458 -0.3959  0.6955  0.2537
  695MPD2    C410330   4.357   4.640  13.331 -0.0416  0.0065  0.4901
  695MPD2    C510331   4.482   4.631  13.290  0.5540 -0.6240  0.4813
  695MPD2     H10332   4.394   4.541  13.652 -1.6165 -1.7006 -0.8755
  695MPD2    H110333   4.279   4.663  13.259  1.2458 -0.0425 -0.9030
  695MPD2    H210334   4.684   4.618  13.363 -0.5859 -2.1642 -1.7694
  695MPD2    H310335   4.505   4.639  13.184 -0.5602 -0.1810  0.2769
  695MPD2     N10336   4.189   4.582  13.497 -0.2893 -0.3373 -0.2784
  695MPD2    H510337   4.183   4.579  13.598  0.2474 -1.8771 -0.2890
  695MPD2    N110338   4.644   4.574  13.625 -0.4218 -0.2930 -0.8746
  695MPD2    H710339   4.606   4.549  13.716 -0.1073 -2.2656 -1.2808
  696TMC3    C110340   3.966   4.561  13.508 -0.6345 -0.6035  0.3181
  696TMC3    C210341   3.979   4.492  13.625 -0.4543 -0.2453  0.4394
  696TMC3    C310342   3.869   4.475  13.706  0.2485 -0.0805  0.4620
  696TMC3    C410343   3.840   4.596  13.462 -0.2154  0.3897 -0.0163
  696TMC3    C510344   3.730   4.581  13.542  0.5683 -0.5014 -0.5344
  696TMC3    C610345   3.740   4.512  13.664 -0.3864 -0.6302  0.0690
  696TMC3     C10346   4.074   4.589  13.420 -0.4377  0.0682 -0.4950
  696TMC3     O10347   4.052   4.622  13.300 -0.7096  0.1800  0.0029
  696TMC3     H10348   4.078   4.466  13.662  0.4813 -1.5118 -2.9942
  696TMC3    H110349   3.838   4.645  13.365 -0.5053  1.1213  0.3661
  696TMC3    H210350   3.657   4.496  13.733  0.0490 -3.6848 -0.1286
  696TMC3    C710351   3.601   4.620  13.481  0.7196  0.2074 -0.0454
  696TMC3    C810352   3.890   4.427  13.845 -0.0742  0.2399  0.1858
  696TMC3    O110353   3.603   4.657  13.366 -0.1408 -0.1306  0.0611
  696TMC3    O210354   4.000   4.446  13.891 -0.5033  0.9488 -0.0451
  697MPD2     C10355   3.209   1.171  15.551 -0.0707  0.6439 -0.0149
  697MPD2    C110356   3.151   1.157  15.428 -0.4315  0.1362 -0.2902
  697MPD2    C210357   3.168   1.259  15.340 -0.5129 -0.1365 -0.1349
  697MPD2    C310358   3.229   1.377  15.367 -0.0330  0.6991  0.0408
  697MPD2    C410359   3.271   1.395  15.495 -0.2118 -0.5633  0.0922
  697MPD2    C510360   3.254   1.294  15.589 -0.9779  0.6485 -0.0227
  697MPD2     H10361   3.144   1.241  15.236  0.5027  0.3763 -0.4542
  697MPD2    H110362   3.316   1.491  15.517 -1.6108  0.2502 -0.6075
  697MPD2    H210363   3.209   1.098  15.630 -0.7651  1.6156  0.8808
  697MPD2    H310364   3.296   1.303  15.689 -1.4149  0.9014  0.1420
  697MPD2     N10365   3.247   1.468  15.261  0.5450 -0.4950  0.0567
  697MPD2    H510366   3.187   1.458  15.180 -0.3201  1.4053  0.4669
  697MPD2    N110367   3.107   1.036  15.381 -0.4176  0.2250  0.5396
  697MPD2    H710368   3.107   1.029  15.280  0.6152 -1.1451  0.6239
  698TMC3    C110369   3.331   1.657  15.164 -0.8057  0.0257  0.2122
  698TMC3    C210370   3.407   1.766  15.184 -0.7437  0.8408 -1.2242
  698TMC3    C310371   3.433   1.860  15.087  0.5608 -0.9644  0.1287
  698TMC3    C410372   3.271   1.639  15.043  0.4914  0.0450  0.1913
  698TMC3    C510373   3.308   1.716  14.939 -0.3875  0.0007 -0.4374
  698TMC3    C610374   3.388   1.830  14.959 -0.2523 -0.4348 -0.0849
  698TMC3     C10375   3.331   1.568  15.278  0.6257  0.4673  0.3083
  698TMC3     O10376   3.426   1.572  15.356  0.1327 -0.3538 -0.5478
  698TMC3     H10377   3.430   1.784  15.288 -1.1718  2.8782 -1.4885
  698TMC3    H110378   3.228   1.542  15.017  1.5665 -0.0931 -1.0604
  698TMC3    H210379   3.399   1.899  14.876 -1.8070  2.3083  2.0092
  698TMC3    C710380   3.271   1.666  14.809  0.2552  0.5723 -0.2829
  698TMC3    C810381   3.527   1.970  15.101  0.6507  0.7980 -0.7863
  698TMC3    O110382   3.198   1.569  14.807  0.7033  0.0000  0.2764
  698TMC3    O210383   3.559   2.038  15.006  0.4385 -0.2772  0.3819
  699TMC3    C110384   3.414   4.538  13.040  0.1241 -0.0314  0.5630
  699TMC3    C210385   3.490   4.449  13.117 -0.6906  0.0407  0.2704
  699TMC3    C310386   3.440   4.418  13.245 -0.7169  0.4260 -0.0328
  699TMC3    C410387   3.289   4.589  13.077 -0.2721  0.3360  0.4838
  699TMC3    C510388   3.250   4.542  13.199 -0.1030  0.0193 -0.6933
  699TMC3    C610389   3.319   4.458  13.280 -0.4628 -0.1065  0.7289
  699TMC3     C10390   3.463   4.589  12.907 -0.7634  0.3907 -0.3097
  699TMC3     O10391   3.385   4.647  12.833 -0.3215 -0.1779 -0.0323
  699TMC3     H10392   3.580   4.403  13.079  0.2012  1.6777  0.3809
  699TMC3    H110393   3.240   4.660  13.012  0.2775  0.6611  0.4280
  699TMC3    H210394   3.272   4.429  13.374 -0.0469 -1.9487  0.3628
  699TMC3    C710395   3.107   4.562  13.233 -0.4278 -0.3154 -0.7870
  699TMC3    C810396   3.511   4.323  13.328  0.8017  0.3136  0.5222
  699TMC3    O110397   3.078   4.541  13.350 -0.2069 -0.6306 -0.0590
  699TMC3    O210398   3.436   4.255  13.404  0.1890 -0.3301 -0.0049
  700TMC3    C110399   2.686   1.753  17.415  0.1615 -0.3856 -0.7771
  700TMC3    C210400   2.674   1.626  17.449 -1.0556 -0.4537 -0.0133
  700TMC3    C310401   2.691   1.593  17.583  0.2901 -0.2048 -0.1467
  700TMC3    C410402   2.707   1.852  17.502  0.5620 -0.1637 -0.0939
  700TMC3    C510403   2.733   1.815  17.630 -0.0020  1.2016 -0.2370
  700TMC3    C610404   2.728   1.687  17.673  0.9668  0.0023  0.1165
  700TMC3     C10405   2.661   1.786  17.275 -0.5495  0.4725  0.2783
  700TMC3     O10406   2.598   1.709  17.209  0.2830  0.8574 -0.8267
  700TMC3     H10407   2.661   1.552  17.371 -3.3817 -0.7784  0.6791
  700TMC3    H110408   2.712   1.958  17.476  0.7072 -0.1685 -0.0855
  700TMC3    H210409   2.780   1.647   0.002  0.2654 -0.5407  0.2861
  700TMC3    C710410   2.766   1.915  17.727  0.6155 -0.3947 -1.0718
  700TMC3    C810411   2.784   1.482  17.579  0.0008  0.3418 -0.0837
  700TMC3    O110412   2.821   2.018  17.687 -0.5111 -0.7593 -0.1828
  700TMC3    O210413   2.902   1.498  17.604 -0.5375  0.0707  0.1567
  701TMC3    C110414   2.685   0.895  15.189 -0.2118  0.0209  0.1799
  701TMC3    C210415   2.688   0.888  15.052  0.1269 -0.0527 -0.0867
  701TMC3    C310416   2.735   0.994  14.991  0.6067 -0.6865 -0.7994
  701TMC3    C410417   2.705   1.013  15.259  0.1920  0.2219 -0.4221
  701TMC3    C510418   2.738   1.121  15.190 -0.0502 -0.3034 -0.6229
  701TMC3    C610419   2.756   1.117  15.052  0.1667 -0.5635  0.1626
  701TMC3     C10420   2.637   0.767  15.249 -0.1416 -0.9333  0.4464
  701TMC3     O10421   2.617   0.681  15.167  0.0414 -0.0697  0.0217
  701TMC3     H10422   2.689   0.793  14.998  1.6025 -0.8645  1.3596
  701TMC3    H110423   2.683   1.007  15.365 -2.1750 -3.7154 -1.1311
  701TMC3    H210424   2.778   1.200  14.985 -1.1797  0.7543  1.3516
  701TMC3    C710425   2.732   1.256  15.252  0.4785 -0.3109  0.9767
  701TMC3    C810426   2.687   1.008  14.858 -0.3054  0.1125 -0.0931
  701TMC3    O110427   2.755   1.341  15.168  0.3908  0.0275  0.9501
  701TMC3    O210428   2.756   1.067  14.775 -0.1821  0.4278 -0.4666
  702MPD2     C10429   1.398   2.799  10.598 -0.2462 -0.2872  0.4348
  702MPD2    C110430   1.383   2.931  10.632  0.1935 -0.1130 -0.6568
  702MPD2    C210431   1.483   3.022  10.606 -0.4706 -0.2652 -0.2534
  702MPD2    C310432   1.605   2.993  10.552  0.2548  0.0179 -0.3218
  702MPD2    C410433   1.624   2.860  10.515 -0.0681  0.4326  0.3750
  702MPD2    C510434   1.522   2.766  10.543  1.0565 -0.5989  0.1740
  702MPD2     H10435   1.459   3.124  10.634  1.6609 -0.1968  1.3773
  702MPD2    H110436   1.718   2.818  10.482  0.5762 -0.6151  3.5787
  702MPD2    H210437   1.331   2.717  10.619 -1.3512  0.5438  0.1685
  702MPD2    H310438   1.541   2.659  10.534 -1.0633 -1.0501  1.1074
  702MPD2     N10439   1.691   3.095  10.521  0.2283  0.5195 -0.8673
  702MPD2    H510440   1.774   3.073  10.467 -0.6311 -0.7119 -1.6922
  702MPD2    N110441   1.274   2.985  10.699 -0.6604  0.2844 -0.5740
  702MPD2    H710442   1.270   3.086  10.712  1.2849  0.0864  1.6672
  703TMC3    C110443   1.677   3.312  10.438 -0.0859 -0.4126 -0.3068
  703TMC3    C210444   1.569   3.390  10.412  0.3026 -0.2245 -0.2223
  703TMC3    C310445   1.570   3.460  10.293  0.0549 -0.1843 -0.1407
  703TMC3    C410446   1.783   3.304  10.354 -0.3437 -0.3762 -0.6504
  703TMC3    C510447   1.787   3.383  10.246  0.1743 -0.0271  0.1899
  703TMC3    C610448   1.679   3.462  10.214 -0.0117 -0.2364  0.6956
  703TMC3     C10449   1.671   3.229  10.552 -0.0558  0.1342  0.0420
  703TMC3     O10450   1.604   3.277  10.643 -0.2613 -0.3733  0.1291
  703TMC3     H10451   1.476   3.385  10.467  0.8766  0.2818  0.7845
  703TMC3    H110452   1.873   3.269  10.403 -1.0888 -1.0714  0.2441
  703TMC3    H210453   1.673   3.517  10.121 -1.0792  0.2869  1.0787
  703TMC3    C710454   1.917   3.401  10.173 -0.1616 -0.2395 -0.1791
  703TMC3    C810455   1.450   3.522  10.238  0.3398 -0.5406 -0.3325
  703TMC3    O110456   1.939   3.513  10.135 -0.2766  0.4651  0.2256
  703TMC3    O210457   1.442   3.555  10.119  0.3643 -0.1750  0.3132
  704TMC3    C110458   4.548   1.820  11.788 -0.2592 -0.3360  0.6589
  704TMC3    C210459   4.557   1.781  11.661  0.1027 -0.0595  0.5076
  704TMC3    C310460   4.669   1.709  11.622 -0.2636 -0.3095  0.1824
  704TMC3    C410461   4.645   1.778  11.881 -0.6256  0.0087  0.8587
  704TMC3    C510462   0.013   1.702  11.833  0.1062 -0.1950 -0.1715
  704TMC3    C610463   0.029   1.666  11.703  0.1159 -0.3940 -0.3735
  704TMC3     C10464   4.423   1.865  11.851 -0.9201 -0.3703 -0.0389
  704TMC3     O10465   4.426   1.905  11.965 -0.5562 -0.1686 -0.6455
  704TMC3     H10466   4.485   1.806  11.584  0.1145 -0.8762  0.2300
  704TMC3    H110467   4.631   1.808  11.984  1.1816 -1.5660  1.5518
  704TMC3    H210468   0.108   1.606  11.658 -0.3667 -1.4137  0.1555
  704TMC3    C710469   0.054   1.584  11.918  0.6343 -0.1412  0.5461
  704TMC3    C810470   4.639   1.622  11.506 -0.0859  0.0666 -0.9585
  704TMC3    O110471   0.087   1.483  11.859 -0.2041  0.5187 -0.1092
  704TMC3    O210472   4.519   1.601  11.480 -0.2306  0.4663  0.6658
  705MPD2     C10473   3.978   3.958  16.182  0.0858  0.0768 -0.4652
  705MPD2    C110474   3.978   4.078  16.257 -0.3320 -0.6695 -0.0610
  705MPD2    C210475   3.848   4.140  16.258 -0.0956 -0.5134  0.7239
  705MPD2    C310476   3.734   4.093  16.194 -0.2169 -0.0104 -0.0196
  705MPD2    C410477   3.749   3.981  16.123 -0.7049  0.4637  0.4084
  705MPD2    C510478   3.865   3.918  16.120 -0.1579  0.2008  0.3989
  705MPD2     H10479   3.832   4.221  16.330 -0.8553 -0.9520  1.0488
  705MPD2    H110480   3.667   3.937  16.067 -0.2992  0.9889 -0.5937
  705MPD2    H210481   4.063   3.892  16.167  1.3974  1.4695  0.7933
  705MPD2    H310482   3.851   3.824  16.068  3.7104  0.0108 -0.2948
  705MPD2     N10483   3.596   4.147  16.214  0.2042 -1.1971  0.3530
  705MPD2    H510484   3.509   4.102  16.191 -1.4378  2.2260 -0.1750
  705MPD2    N110485   4.093   4.144  16.305  0.2281  0.6410  0.6062
  705MPD2    H710486   4.086   4.239  16.340  1.7348  0.4287  1.4609
  706TMC3    C110487   4.535   4.227  16.189 -0.1525  0.1389 -0.2399
  706TMC3    C210488   4.486   4.340  16.137 -0.3015 -0.1489  0.0398
  706TMC3    C310489   4.371   4.388  16.188 -0.3086  0.0041 -0.3969
  706TMC3    C410490   4.458   4.154  16.279 -0.5180 -0.6083 -0.3740
  706TMC3    C510491   4.320   4.195  16.298  0.2586 -0.3548  0.6474
  706TMC3    C610492   4.280   4.326  16.266 -0.5940 -0.3362 -0.4589
  706TMC3     C10493   4.631   4.148  16.108  0.1027  0.4899 -0.1510
  706TMC3     O10494   4.678   4.051  16.168  0.1850 -0.3008  0.3302
  706TMC3     H10495   4.542   4.403  16.070 -1.1738 -2.2811 -2.6851
  706TMC3    H110496   4.474   4.047  16.286  1.4867 -0.3101 -0.3871
  706TMC3    H210497   4.184   4.366  16.297  1.0299  1.8333  1.7806
  706TMC3    C710498   4.219   4.092  16.294  0.3440 -0.0545 -0.2948
  706TMC3    C810499   4.340   4.524  16.153 -0.7719  0.0886  0.5336
  706TMC3    O110500   4.257   3.981  16.269 -0.3798  0.5668  0.1861
  706TMC3    O210501   4.357   4.565  16.039 -0.0394 -0.9113  0.5023
  707TMC3    C110502   0.932   2.762   0.875 -0.3622 -0.6496  0.6097
  707TMC3    C210503   0.926   2.668   0.975 -0.3020  0.1661  0.3219
  707TMC3    C310504   0.796   2.636   1.015  0.7869  0.3273 -0.0962
  707TMC3    C410505   0.824   2.812   0.806  0.0349 -0.1153 -0.4773
  707TMC3    C510506   0.703   2.766   0.853 -0.3785  0.0392  0.1454
  707TMC3    C610507   0.684   2.690   0.961  0.9606  0.4694  0.5788
  707TMC3     C10508   1.063   2.805   0.840  0.4486 -1.3092  0.4888
  707TMC3     O10509   1.152   2.735   0.881 -0.1417 -0.4432 -0.3283
  707TMC3     H10510   1.013   2.641   1.034 -0.0593  0.0526 -0.0870
  707TMC3    H110511   0.834   2.876   0.719  2.6991  1.3310  0.8635
  707TMC3    H210512   0.590   2.642   0.988 -0.9164  2.9112 -1.5981
  707TMC3    C710513   0.590   2.811   0.769  0.3295 -0.5706 -0.4703
  707TMC3    C810514   0.784   2.519   1.102  0.1895 -0.2390 -0.1058
  707TMC3    O110515   0.592   2.914   0.705 -0.7504 -0.0836 -0.1105
  707TMC3    O210516   0.690   2.528   1.180 -0.4697 -0.0628 -0.2002
  708MPD2     C10517   2.409   2.058  13.701 -0.0315 -0.2827  0.0169
  708MPD2    C110518   2.454   2.189  13.704 -0.7322  0.5257  0.7925
  708MPD2    C210519   2.418   2.267  13.809 -0.3665  0.0365 -0.2805
  708MPD2    C310520   2.353   2.210  13.913 -0.1283  0.3320  0.8533
  708MPD2    C410521   2.299   2.089  13.906  0.6357 -0.0426 -0.3046
  708MPD2    C510522   2.329   2.007  13.801  0.2158  0.3303  0.2788
  708MPD2     H10523   2.433   2.374  13.798  0.7281 -0.0768  0.1116
  708MPD2    H110524   2.238   2.056  13.990 -0.6515  2.5194 -0.2223
  708MPD2    H210525   2.440   1.994  13.619  1.3714 -0.5634  0.7734
  708MPD2    H310526   2.304   1.901  13.803  1.6442 -0.0013  0.2958
  708MPD2     N10527   2.310   2.300  14.017 -0.7955  0.5953 -0.6620
  708MPD2    H510528   2.229   2.269  14.069 -0.3024 -0.1928 -0.3558
  708MPD2    N110529   2.522   2.239  13.595 -0.5352 -0.4467 -0.2671
  708MPD2    H710530   2.511   2.179  13.514  0.3866  0.1451 -0.8174
  709TMC3    C110531   2.562   2.423  13.459  0.2310 -0.2291  0.0143
  709TMC3    C210532   2.534   2.355  13.341  0.6733  0.1280 -0.2929
  709TMC3    C310533   2.505   2.434  13.232  0.2016  1.0462 -0.4167
  709TMC3    C410534   2.552   2.561  13.467 -0.4850 -0.0069 -0.0309
  709TMC3    C510535   2.504   2.631  13.355  0.1329 -0.9588 -0.3991
  709TMC3    C610536   2.476   2.566  13.242 -0.3419  0.2929  0.0627
  709TMC3     C10537   2.579   2.361  13.584  0.3795  0.9245 -0.5340
  709TMC3     O10538   2.606   2.430  13.679  0.5237  0.1261 -0.6865
  709TMC3     H10539   2.555   2.249  13.331  2.7926  0.5777 -0.4420
  709TMC3    H110540   2.585   2.619  13.552  0.2326  1.1868 -1.1275
  709TMC3    H210541   2.429   2.619  13.160 -2.3003 -1.6976 -0.1081
  709TMC3    C710542   2.439   2.767  13.383  0.2060  0.0443 -0.0949
  709TMC3    C810543   2.465   2.361  13.115  0.1686 -0.1875  0.0367
  709TMC3    O110544   2.425   2.853  13.301 -0.5485 -0.6499 -0.0724
  709TMC3    O210545   2.445   2.243  13.135  0.2799 -0.4881  0.2518
  710TMC3    C110546   3.485   3.297   0.736  0.4835 -0.3151 -0.1544
  710TMC3    C210547   3.588   3.282   0.640  0.0285  0.4707 -0.3805
  710TMC3    C310548   3.715   3.287   0.685  0.4092  0.3174 -0.5241
  710TMC3    C410549   3.512   3.321   0.869 -0.3609 -0.1388  0.5364
  710TMC3    C510550   3.646   3.349   0.901  0.2150 -0.3935 -0.0364
  710TMC3    C610551   3.748   3.323   0.812  0.4469 -0.5593 -0.1552
  710TMC3     C10552   3.364   3.355   0.682 -0.5417 -0.0828  0.3688
  710TMC3     O10553   3.320   3.304   0.581 -0.0148 -0.0114  0.3180
  710TMC3     H10554   3.551   3.286   0.538 -2.0556  0.5271  0.3640
  710TMC3    H110555   3.435   3.323   0.945 -1.5644 -0.9158 -0.6604
  710TMC3    H210556   3.850   3.352   0.833  0.9389 -0.9624 -1.9871
  710TMC3    C710557   3.680   3.319   1.043  0.2449 -0.2439  0.1610
  710TMC3    C810558   3.822   3.272   0.590  0.7316 -0.0850 -0.4898
  710TMC3    O110559   3.624   3.233   1.105  0.4955  0.1597  0.3645
  710TMC3    O210560   3.794   3.275   0.472  0.1777 -0.0911 -0.0710
  711TMC3    C110561   3.112   0.007  14.935 -0.5114  0.1588 -1.0509
  711TMC3    C210562   3.126   0.110  15.028  0.2455  0.3044  0.2254
  711TMC3    C310563   3.212   0.094  15.130 -0.2604  0.5447  0.0913
  711TMC3    C410564   3.179   4.631  14.941 -0.3480 -0.6058 -0.0181
  711TMC3    C510565   3.263   4.619  15.045 -0.2953 -1.1252 -0.2647
  711TMC3    C610566   3.281   4.719  15.141  0.2629 -0.5278 -0.5118
  711TMC3     C10567   3.021   0.031  14.823 -0.4643 -0.2157 -0.1082
  711TMC3     O10568   2.945   4.680  14.784  0.0327 -0.0329 -0.6121
  711TMC3     H10569   3.055   0.192  15.027  0.0465  0.1379  1.3285
  711TMC3    H110570   3.173   4.556  14.862 -0.3527 -2.0529  1.3633
  711TMC3    H210571   3.367   4.723  15.207 -0.9560 -0.4181  1.0935
  711TMC3    C710572   3.373   4.523  15.026  0.8158 -0.6226  0.3139
  711TMC3    C810573   3.214   0.198  15.230  0.0475  0.1696 -0.6265
  711TMC3    O110574   3.485   4.560  15.054  0.0708 -0.0381  0.0072
  711TMC3    O210575   3.131   0.290  15.219  0.0556 -0.0398 -0.7961
  712MPD2     C10576   0.044   1.339  13.797  0.1903  0.3020  0.4295
  712MPD2    C110577   4.685   1.399  13.716 -0.6071  0.4887 -0.2872
  712MPD2    C210578   4.635   1.523  13.750  0.9602  0.0342 -0.4497
  712MPD2    C310579   4.671   1.581  13.873  0.0820 -0.1978  0.1175
  712MPD2    C410580   0.030   1.519  13.943 -0.4763 -0.1454  0.6543
  712MPD2    C510581   0.078   1.394  13.910 -0.3026 -0.2941  0.1250
  712MPD2     H10582   4.563   1.570  13.684 -0.3758  0.8706  1.6280
  712MPD2    H110583   0.064   1.558  14.038 -1.8585 -0.1049  1.1390
  712MPD2    H210584   0.083   1.240  13.775 -2.0610  0.1295 -2.8783
  712MPD2    H310585   0.145   1.339  13.975  0.2480  0.0308 -0.1707
  712MPD2     N10586   4.649   1.713  13.915  0.7102  0.4604 -0.2386
  712MPD2    H510587   4.698   1.749  13.997  0.4633  2.1105 -0.8099
  712MPD2    N110588   4.624   1.319  13.610 -0.1113  0.5812 -0.0727
  712MPD2    H710589   4.534   1.344  13.569  0.6448  1.8929 -0.9317
  713TMC3    C110590   4.589   1.943  13.898 -0.5399 -0.5140  0.0099
  713TMC3    C210591   4.710   1.984  13.948  0.2809 -0.1198  0.1444
  713TMC3    C310592   0.003   2.118  13.947  0.0163 -0.0186  0.2833
  713TMC3    C410593   4.486   2.031  13.865 -0.3195 -0.1193 -0.1238
  713TMC3    C510594   4.513   2.166  13.887  0.1088 -0.3834  0.0779
  713TMC3    C610595   4.641   2.210  13.925 -0.3135 -0.1363  0.5880
  713TMC3     C10596   4.566   1.805  13.860  0.2674 -0.4933 -0.2499
  713TMC3     O10597   4.482   1.783  13.775  0.2207 -0.0358 -0.1531
  713TMC3     H10598   0.049   1.910  13.957  0.0262 -0.2708  1.1077
  713TMC3    H110599   4.386   1.996  13.842  0.5637 -1.4265 -2.0125
  713TMC3    H210600   4.667   2.315  13.914 -1.4172  0.3768  2.7698
  713TMC3    C710601   4.396   2.250  13.873 -0.1245 -0.6436  0.2434
  713TMC3    C810602   0.138   2.170  13.938 -0.0353  0.2519  0.0381
  713TMC3    O110603   4.299   2.209  13.812 -0.3079 -0.0985 -0.2241
  713TMC3    O210604   0.152   2.274  13.876  0.3801 -0.0180 -0.0469
  714MPD2     C10605   2.061   0.123   1.204 -0.0995  0.5067 -0.2159
  714MPD2    C110606   2.097   4.736   1.161 -0.1576 -0.0942  0.3248
  714MPD2    C210607   2.010   4.678   1.070 -0.3159 -0.1919 -0.1882
  714MPD2    C310608   1.894   4.733   1.026 -0.5783 -0.0028  0.1237
  714MPD2    C410609   1.850   0.115   1.078 -0.1000 -0.2976 -0.3951
  714MPD2    C510610   1.938   0.182   1.166 -0.1263 -0.0459  0.1947
  714MPD2     H10611   2.042   4.590   1.015 -0.7624  0.0778 -0.8887
  714MPD2    H110612   1.751   0.157   1.068  0.6462  1.6915  0.5338
  714MPD2    H210613   2.122   0.183   1.271  1.1196  2.1600 -2.8417
  714MPD2    H310614   1.915   0.283   1.199 -1.1746  0.1275 -1.0503
  714MPD2     N10615   1.817   4.667   0.931 -0.1929 -0.3231  0.2384
  714MPD2    H510616   1.841   4.570   0.916  3.6316  0.5329  1.0175
  714MPD2    N110617   2.225   4.677   1.194 -0.1919  0.5794  0.3863
  714MPD2    H710618   2.285   4.728   1.259  0.1819  0.3049  0.2553
  715TMC3    C110619   2.411   4.541   1.175 -0.5249 -0.3591  0.1380
  715TMC3    C210620   2.459   4.413   1.176  0.1671  0.2218 -0.4205
  715TMC3    C310621   2.590   4.407   1.198  0.1988  0.2406  0.1658
  715TMC3    C410622   2.478   4.653   1.210 -0.2824 -0.6548 -0.4245
  715TMC3    C510623   2.607   4.634   1.237 -0.2914 -0.7453  0.2062
  715TMC3    C610624   2.669   4.515   1.225 -0.4681  0.1342 -0.5243
  715TMC3     C10625   2.266   4.551   1.167  0.3586  0.8960  0.3441
  715TMC3     O10626   2.210   4.455   1.110  0.1493 -0.5242  0.1127
  715TMC3     H10627   2.381   4.339   1.161  0.7433 -0.5423  0.4006
  715TMC3    H110628   2.450   0.014   1.181 -1.5181 -1.5597 -2.4452
  715TMC3    H210629   2.775   4.515   1.245 -0.5039  1.2893 -0.3334
  715TMC3    C710630   2.687   0.008   1.289 -0.1169 -0.4085  0.0344
  715TMC3    C810631   2.631   4.277   1.211 -0.2301 -0.1754 -0.1403
  715TMC3    O110632   2.806   4.739   1.281  0.2075 -0.5562 -0.7348
  715TMC3    O210633   2.572   4.201   1.135  0.0266  0.3382  0.0636
  716MPD2     C10634   1.425   2.810   9.853 -0.1178  0.0454  0.4776
  716MPD2    C110635   1.403   2.822   9.716 -0.4167  0.1680 -1.4924
  716MPD2    C210636   1.472   2.746   9.623  0.0910 -0.2560 -0.2926
  716MPD2    C310637   1.550   2.641   9.667  0.2434  0.2502  0.1937
  716MPD2    C410638   1.566   2.622   9.809  0.2565 -0.3628  0.2490
  716MPD2    C510639   1.509   2.714   9.892  0.3244 -0.5955 -0.2348
  716MPD2     H10640   1.472   2.773   9.517  1.3663  1.0410  0.0329
  716MPD2    H110641   1.633   2.546   9.847  1.1722  0.3214  0.0021
  716MPD2    H210642   1.373   2.871   9.925  0.0934  2.8169 -1.7016
  716MPD2    H310643   1.518   2.699   9.999 -1.4050  1.5181  0.2070
  716MPD2     N10644   1.619   2.570   9.561  0.0775  0.3244 -0.0074
  716MPD2    H510645   1.594   2.608   9.470  0.8881 -2.2209 -1.2932
  716MPD2    N110646   1.326   2.934   9.684  0.3827 -0.2671 -0.5226
  716MPD2    H710647   1.246   2.950   9.744  0.6537  1.6245 -0.6625
  717TMC3    C110648   1.781   2.455   9.438  0.1600 -0.6557 -0.0108
  717TMC3    C210649   1.700   2.487   9.334  0.3439 -0.2571  0.5468
  717TMC3    C310650   1.753   2.558   9.230 -0.0302  0.0003 -0.5479
  717TMC3    C410651   1.917   2.475   9.429  0.0042 -0.1237  0.1865
  717TMC3    C510652   1.965   2.543   9.324 -0.2980 -0.0330  0.7614
  717TMC3    C610653   1.890   2.588   9.221  0.5402 -0.3228 -0.7092
  717TMC3     C10654   1.717   2.476   9.569  0.2626  0.1076  0.0858
  717TMC3     O10655   1.765   2.419   9.661 -0.2980 -0.7108 -0.0380
  717TMC3     H10656   1.595   2.463   9.334  0.0546  1.0270 -0.9404
  717TMC3    H110657   1.976   2.458   9.519  1.4655  2.5329 -0.2756
  717TMC3    H210658   1.926   2.639   9.132 -1.2990  0.6245 -0.9180
  717TMC3    C710659   2.106   2.583   9.328 -0.0446  0.1358 -0.4680
  717TMC3    C810660   1.667   2.615   9.128  0.1231  0.2740  0.0976
  717TMC3    O110661   2.172   2.525   9.412  0.0198 -0.1938 -0.1520
  717TMC3    O210662   1.553   2.651   9.170 -0.2709 -0.2798 -0.0163
  718MPD2     C10663   1.068   2.149  12.659 -0.2223 -0.0246 -0.5883
  718MPD2    C110664   0.995   2.038  12.688 -0.1468 -0.2483  0.5974
  718MPD2    C210665   1.000   1.996  12.818 -0.1548  0.4945 -0.4653
  718MPD2    C310666   1.055   2.076  12.916 -0.3078 -0.3074 -0.2776
  718MPD2    C410667   1.109   2.199  12.887  0.5994 -0.2423  0.5960
  718MPD2    C510668   1.115   2.237  12.756  0.1115 -0.1640  0.0076
  718MPD2     H10669   0.956   1.902  12.849  1.8623  0.0228  0.9038
  718MPD2    H110670   1.159   2.260  12.962 -2.4016 -0.1716  2.5563
  718MPD2    H210671   1.068   2.180  12.555 -0.8131  1.9036 -0.0073
  718MPD2    H310672   1.173   2.320  12.718  2.7447 -1.3551  1.3922
  718MPD2     N10673   1.057   2.020  13.047 -0.1732  0.4660 -0.5315
  718MPD2    H510674   1.014   1.929  13.056  0.4942  0.3226  1.2866
  718MPD2    N110675   0.933   1.956  12.588 -0.0089 -0.6296  0.4159
  718MPD2    H710676   0.952   1.983  12.492  0.7660 -2.0185  0.1763
  719TMC3    C110677   0.873   1.750  12.503  0.7018 -0.5733 -0.1714
  719TMC3    C210678   0.847   1.628  12.551  0.8053  0.4715  0.1067
  719TMC3    C310679   0.928   1.525  12.529 -0.4959  0.3517 -0.6700
  719TMC3    C410680   0.974   1.762  12.410  0.5051  0.1566  0.1972
  719TMC3    C510681   1.053   1.660  12.379  0.0623 -0.3185 -0.0670
  719TMC3    C610682   1.034   1.544  12.443  0.7151  0.1915 -0.2089
  719TMC3     C10683   0.848   1.849  12.606 -0.3903 -0.4724 -0.1389
  719TMC3     O10684   0.808   1.806  12.712  0.2729 -0.3138 -0.3473
  719TMC3     H10685   0.766   1.611  12.622  1.3169 -0.7704  0.4095
  719TMC3    H110686   0.990   1.862  12.370  1.2488  0.2725  0.7935
  719TMC3    H210687   1.095   1.456  12.424  0.9566  0.2486  0.3010
  719TMC3    C710688   1.184   1.693  12.325  0.2137  0.6072  0.3643
  719TMC3    C810689   0.949   1.435  12.638 -0.3325 -0.0143  0.1725
  719TMC3    O110690   1.188   1.807  12.275 -0.6924  0.0870 -0.4171
  719TMC3    O210691   0.997   1.323  12.633 -0.1949 -0.3377  0.0616
  720MPD2     C10692   4.690   3.145  13.897 -0.1381 -0.8330  0.0829
  720MPD2    C110693   4.701   3.282  13.888 -0.1268  0.7396 -0.7463
  720MPD2    C210694   0.075   3.342  13.935 -0.3316 -0.3529 -0.5327
  720MPD2    C310695   0.170   3.267  14.014 -0.3606 -0.3580  0.4153
  720MPD2    C410696   0.144   3.133  14.034  0.1629  0.2989 -0.4150
  720MPD2    C510697   0.043   3.073  13.965 -0.0026 -0.8478  0.1722
  720MPD2     H10698   0.098   3.446  13.914  1.9844 -0.5245  1.1435
  720MPD2    H110699   0.221   3.074  14.081 -1.8497 -1.0280  1.2319
  720MPD2    H210700   4.607   3.086  13.861 -0.6405 -0.0798  0.0155
  720MPD2    H310701   0.043   2.965  13.965  0.5150 -0.8548  1.2396
  720MPD2     N10702   0.286   3.333  14.075 -0.3397  0.3489 -0.1034
  720MPD2    H510703   0.305   3.426  14.040  0.3715  0.4362  0.5420
  720MPD2    N110704   4.599   3.340  13.815  0.4687  0.7007 -0.0479
  720MPD2    H710705   4.535   3.277  13.768  0.2446  0.2016  0.9124
  721TMC3    C110706   0.490   3.358  14.184  0.3628  0.0375  0.2662
  721TMC3    C210707   0.539   3.358  14.319 -0.1006  0.7004 -0.5951
  721TMC3    C310708   0.667   3.388  14.348  0.4197 -0.3342 -0.2604
  721TMC3    C410709   0.577   3.363  14.079  0.2955 -0.6729  0.3591
  721TMC3    C510710   0.707   3.383  14.119  0.0234  0.0363  1.0140
  721TMC3    C610711   0.754   3.397  14.246  0.0183 -0.1634 -0.3156
  721TMC3     C10712   0.373   3.272  14.164 -0.1247  0.3848  1.1271
  721TMC3     O10713   0.366   3.168  14.227  0.5174 -0.6072 -0.4705
  721TMC3     H10714   0.471   3.333  14.400  1.5527 -1.9548 -0.0156
  721TMC3    H110715   0.545   3.361  13.975 -1.0507 -0.6141  0.7726
  721TMC3    H210716   0.854   3.433  14.265 -0.7040  0.1067  2.9413
  721TMC3    C710717   0.806   3.426  14.012 -0.4002 -1.5495 -0.1762
  721TMC3    C810718   0.717   3.411  14.488  0.4525  0.4535 -1.1535
  721TMC3    O110719   0.921   3.411  14.054 -0.2427  1.2541 -0.4981
  721TMC3    O210720   0.833   3.440  14.509  0.0567 -0.7422  0.0623
  722MPD2     C10721   3.655   2.235  13.116 -0.0843  0.3177  0.4493
  722MPD2    C110722   3.575   2.320  13.192 -0.3685 -0.6455  0.0129
  722MPD2    C210723   3.435   2.302  13.183 -0.4099  0.3371 -0.2805
  722MPD2    C310724   3.375   2.204  13.099 -0.0933 -0.1836 -0.0685
  722MPD2    C410725   3.460   2.132  13.015  0.9349  0.9575 -0.2438
  722MPD2    C510726   3.600   2.151  13.030 -0.4010  0.2331 -0.2012
  722MPD2     H10727   3.368   2.361  13.244 -0.0523  0.1481  0.2924
  722MPD2    H110728   3.428   2.064  12.937  0.6332 -0.4182  1.0920
  722MPD2    H210729   3.763   2.242  13.125 -0.2049  0.2756  2.0068
  722MPD2    H310730   3.660   2.095  12.960 -0.5048 -0.7867  0.5241
  722MPD2     N10731   3.231   2.195  13.107  0.1171 -0.0379  0.3414
  722MPD2    H510732   3.180   2.265  13.161 -0.5893 -1.2305  1.2183
  722MPD2    N110733   3.624   2.415  13.284  0.4430 -0.2249 -0.0361
  722MPD2    H710734   3.553   2.465  13.337  0.7719 -1.1051  1.2303
  723TMC3    C110735   3.021   2.124  13.011 -0.9644  0.0839  0.2347
  723TMC3    C210736   2.944   2.024  12.972  0.4286 -0.6994  0.2718
  723TMC3    C310737   2.813   2.060  12.954 -0.0661  0.4383  0.2649
  723TMC3    C410738   2.985   2.258  13.019 -0.1027  0.8465  0.1567
  723TMC3    C510739   2.856   2.285  13.001  0.4381  0.3938  0.4927
  723TMC3    C610740   2.764   2.186  12.981  0.1118 -0.3508 -0.0205
  723TMC3     C10741   3.166   2.103  13.025  0.0674 -0.0329  0.0358
  723TMC3     O10742   3.213   2.003  12.971  0.7608 -0.8177  0.0149
  723TMC3     H10743   2.983   1.923  12.965 -0.8852 -1.2291  0.6169
  723TMC3    H110744   3.054   2.341  13.030 -0.8342  1.1509  2.4421
  723TMC3    H210745   2.667   2.216  12.944  1.0905 -0.4929 -2.6815
  723TMC3    C710746   2.825   2.405  12.930  0.2436 -0.5738  0.2784
  723TMC3    C810747   2.732   1.985  12.860 -0.2277  0.0184  1.2032
  723TMC3    O110748   2.781   2.388  12.816  0.1648  0.8518 -0.3976
  723TMC3    O210749   2.633   2.039  12.815 -0.4795  0.0188  0.0030
  724TMC3    C110750   3.251   0.016  10.232 -0.5498 -0.6186  0.0989
  724TMC3    C210751   3.261   0.116  10.135 -0.3864 -0.0157 -0.0871
  724TMC3    C310752   3.368   0.199  10.148  0.0524 -0.6025  0.7345
  724TMC3    C410753   3.336   0.010  10.339 -0.5995  0.5852 -0.2538
  724TMC3    C510754   3.449   0.094  10.336  0.0039  1.1516 -0.2135
  724TMC3    C610755   3.464   0.183  10.234 -0.6288 -0.2650 -0.0887
  724TMC3     C10756   3.146   4.660  10.227  0.0113 -0.4560 -0.3503
  724TMC3     O10757   3.130   4.588  10.328  0.0393 -0.2598 -0.0411
  724TMC3     H10758   3.167   0.151  10.093  1.4192  1.0083 -3.2918
  724TMC3    H110759   3.324   4.672  10.413  1.3808  1.8097  1.3393
  724TMC3    H210760   3.550   0.249  10.246  1.0058 -1.6173 -4.2029
  724TMC3    C710761   3.562   0.075  10.426 -0.6534  0.2305  0.3438
  724TMC3    C810762   3.373   0.305  10.050  0.2772 -0.3989 -0.8028
  724TMC3    O110763   3.677   0.103  10.388  0.1935  0.1726  0.1696
  724TMC3    O210764   3.310   0.289   9.949 -0.1696 -0.1543 -0.1076
  725TMC3    C110765   0.852   3.808  12.524  0.0660  0.4298  0.1179
  725TMC3    C210766   0.734   3.816  12.450 -0.7106  0.5529  0.4477
  725TMC3    C310767   0.700   3.693  12.382 -0.1307  0.3790  0.1325
  725TMC3    C410768   0.937   3.701  12.523  0.1225 -0.0683  0.5606
  725TMC3    C510769   0.900   3.585  12.448 -0.0287 -0.1748 -0.8677
  725TMC3    C610770   0.774   3.575  12.389  0.5701 -0.0185 -0.2978
  725TMC3     C10771   0.884   3.909  12.624 -0.5219 -0.1897  0.0711
  725TMC3     O10772   0.823   4.012  12.624  0.1071 -0.1089  0.0872
  725TMC3     H10773   0.661   3.897  12.456 -0.2624  0.8089  2.6357
  725TMC3    H110774   1.039   3.700  12.559  1.1758 -0.0250 -2.4661
  725TMC3    H210775   0.746   3.491  12.326  0.9410  2.1253 -3.3316
  725TMC3    C710776   0.996   3.475  12.434  0.0191 -0.0549  0.2874
  725TMC3    C810777   0.573   3.679  12.310  0.1373 -0.4044 -0.1750
  725TMC3    O110778   1.109   3.496  12.475 -0.0537 -0.2754  0.0551
  725TMC3    O210779   0.522   3.565  12.319 -0.0149  0.1641 -0.0882
  726MPD2     C10780   2.475   0.549  10.040 -0.3377 -0.5970 -0.1144
  726MPD2    C110781   2.361   0.621  10.047  0.2768  0.2457 -0.0386
  726MPD2    C210782   2.234   0.565  10.030  0.1109  0.3349 -0.2174
  726MPD2    C310783   2.225   0.420  10.020  0.2289 -0.5640  0.9280
  726MPD2    C410784   2.345   0.351  10.004  0.1601 -0.4550  0.0644
  726MPD2    C510785   2.467   0.415  10.020  0.2043  0.2374 -1.0451
  726MPD2     H10786   2.148   0.631  10.028  0.1083  0.3441  0.2563
  726MPD2    H110787   2.340   0.248   9.973  0.3703 -0.6332  0.6296
  726MPD2    H210788   2.573   0.594  10.032 -0.1946 -0.9726 -0.4900
  726MPD2    H310789   2.559   0.360  10.007 -0.0521 -0.5620  0.5795
  726MPD2     N10790   2.116   0.337  10.021 -0.4170 -0.0438  0.3393
  726MPD2    H510791   2.135   0.238  10.031  2.0364  0.2987 -0.9084
  726MPD2    N110792   2.369   0.761  10.048  0.4677  0.2334  0.6529
  726MPD2    H710793   2.292   0.817  10.015 -0.8764  0.0988  3.6073
  727TMC3    C110794   2.453   0.975  10.120 -0.4964  0.4170 -0.2840
  727TMC3    C210795   2.542   1.045  10.198 -0.7731  0.0434  0.6228
  727TMC3    C310796   2.526   1.178  10.204 -0.0131 -0.2568 -0.3589
  727TMC3    C410797   2.357   1.037  10.038 -0.4155  0.2260 -0.1228
  727TMC3    C510798   2.339   1.172  10.054  0.2259  0.3188  0.6892
  727TMC3    C610799   2.423   1.247  10.138  0.1499 -0.1231  0.8661
  727TMC3     C10800   2.479   0.834  10.100 -0.2874  0.4975  1.1342
  727TMC3     O10801   2.567   0.789  10.175  0.2342 -0.1788  0.0937
  727TMC3     H10802   2.624   0.998  10.251 -1.2941 -2.2018 -0.5364
  727TMC3    H110803   2.314   0.978   9.957  0.5833 -0.1586 -0.3675
  727TMC3    H210804   2.406   1.354  10.143  1.5960  0.1517 -0.1822
  727TMC3    C710805   2.225   1.241   9.993  0.4547  0.3171 -1.1528
  727TMC3    C810806   2.618   1.253  10.290 -0.5438 -0.5160  0.1133
  727TMC3    O110807   2.222   1.363   9.988  0.3569 -0.5672  0.3346
  727TMC3    O210808   2.705   1.192  10.344  0.1089  0.6856  0.8873
  728TMC3    C110809   2.667   3.980  15.187 -0.1057 -0.7337 -0.4529
  728TMC3    C210810   2.787   3.956  15.121 -0.5799 -0.0343  0.5847
  728TMC3    C310811   2.808   4.022  14.997  0.1999 -0.0638 -0.8218
  728TMC3    C410812   2.566   4.055  15.142 -0.0909 -0.5749 -0.7274
  728TMC3    C510813   2.598   4.128  15.031  0.0481 -0.2720  0.2776
  728TMC3    C610814   2.722   4.118  14.959  0.0117 -0.1766  0.8706
  728TMC3     C10815   2.674   3.934  15.324  0.4662 -0.2650 -1.0354
  728TMC3     O10816   2.782   3.915  15.376  0.4395 -0.0998  0.3384
  728TMC3     H10817   2.860   3.892  15.169 -0.7664  1.2638  2.5797
  728TMC3    H110818   2.473   4.048  15.198 -0.9752 -0.5100 -2.1934
  728TMC3    H210819   2.731   4.171  14.864 -0.5302  0.6760  1.2869
  728TMC3    C710820   2.480   4.166  14.954  0.4630  0.0912  0.1275
  728TMC3    C810821   2.915   3.972  14.903 -0.3362  0.3827 -0.0952
  728TMC3    O110822   2.371   4.123  14.994  0.1940 -0.1802 -0.4308
  728TMC3    O210823   2.916   4.034  14.796 -1.1640  0.1932 -0.6330
  729MPD2     C10824   4.463   0.367  16.595  1.0200  0.2467  0.1660
  729MPD2    C110825   4.534   0.248  16.614 -0.2704  0.5635 -0.5743
  729MPD2    C210826   4.551   0.198  16.744  0.1460 -0.5844 -0.9791
  729MPD2    C310827   4.498   0.270  16.854  0.9681 -1.0881 -0.5671
  729MPD2    C410828   4.428   0.387  16.830  0.2675  0.3787  0.6009
  729MPD2    C510829   4.413   0.435  16.704  0.0847  0.3585 -0.1310
  729MPD2     H10830   4.622   0.119  16.767 -1.9477 -2.1973 -0.1081
  729MPD2    H110831   4.388   0.449  16.911  0.1298 -0.8920  1.5007
  729MPD2    H210832   4.451   0.414  16.498 -0.7198 -0.5391  0.0003
  729MPD2    H310833   4.366   0.529  16.678 -3.6000 -1.5120 -0.2554
  729MPD2     N10834   4.512   0.221  16.984 -0.1017  0.4423  0.1385
  729MPD2    H510835   4.508   0.286  17.061  0.8152  0.0300  0.5261
  729MPD2    N110836   4.596   0.191  16.497 -0.3948 -0.0930 -0.2988
  729MPD2    H710837   4.589   0.238  16.408 -0.2236 -0.4416 -0.4999
  730TMC3    C110838   4.606   0.066  17.150  0.0535  0.2886 -0.0740
  730TMC3    C210839   4.719   4.736  17.135 -0.3421 -0.1120  0.4766
  730TMC3    C310840   0.098   0.053  17.175  0.0218 -1.0580  0.2792
  730TMC3    C410841   4.604   0.173  17.227  0.0704 -0.1894  0.2887
  730TMC3    C510842   4.717   0.224  17.285  0.1556  0.5840 -0.1154
  730TMC3    C610843   0.097   0.173  17.247  0.3187  0.3601  0.2487
  730TMC3     C10844   4.541   0.087  17.021  1.1205 -0.1493  0.5309
  730TMC3     O10845   4.553   4.739  16.944  0.1624 -0.1983  0.0529
  730TMC3     H10846   4.731   4.641  17.083 -0.7437 -0.4464  0.9936
  730TMC3    H110847   4.507   0.216  17.247  0.5013 -0.6745  3.5689
  730TMC3    H210848   0.188   0.226  17.273  1.6025 -2.2991  1.2240
  730TMC3    C710849   4.707   0.370  17.281 -0.4350  0.4615 -0.6064
  730TMC3    C810850   0.207   0.035  17.075 -0.3107  0.3993 -0.2752
  730TMC3    O110851   4.638   0.422  17.191 -0.1661  0.4141 -0.3760
  730TMC3    O210852   0.169   4.720  16.971  0.0667  0.0472  0.1983
  731MPD2     C10853   4.577   3.154  12.687  0.0134 -0.1789  1.0778
  731MPD2    C110854   4.553   3.047  12.601 -0.2553 -0.1384  0.2151
  731MPD2    C210855   4.517   2.932  12.654 -0.3894 -1.1588 -0.4286
  731MPD2    C310856   4.510   2.905  12.792 -0.2087  0.6438 -0.2578
  731MPD2    C410857   4.531   3.019  12.872  0.0938 -0.2884  0.0822
  731MPD2    C510858   4.572   3.136  12.822  0.1065 -0.7183  0.2743
  731MPD2     H10859   4.503   2.848  12.585  2.0108 -1.5772 -0.4149
  731MPD2    H110860   4.525   3.022  12.980  1.9845 -0.7447  0.2052
  731MPD2    H210861   4.626   3.242  12.649 -1.9624  0.6705  0.4943
  731MPD2    H310862   4.591   3.228  12.875 -1.2545 -0.0196 -0.4587
  731MPD2     N10863   4.471   2.785  12.839  0.1663 -0.2186 -0.1732
  731MPD2    H510864   4.468   2.711  12.769 -3.0423  0.1429 -0.4465
  731MPD2    N110865   4.574   3.062  12.462  0.2066  0.2211 -0.6355
  731MPD2    H710866   4.576   2.973  12.413 -2.1828  0.1081 -0.5256
  732TMC3    C110867   4.599   3.187  12.267  0.5739  0.7210 -0.1847
  732TMC3    C210868   4.527   3.264  12.181  0.1109 -0.1424  0.3259
  732TMC3    C310869   4.578   3.271  12.052  0.2968  0.0101  0.7320
  732TMC3    C410870   4.718   3.120  12.239 -0.1791  0.0315  0.6043
  732TMC3    C510871   0.016   3.129  12.108 -1.3551  0.6909  0.2174
  732TMC3    C610872   4.690   3.202  12.014 -0.1405 -0.5612 -0.2933
  732TMC3     C10873   4.551   3.178  12.400  0.0205  0.1624 -0.2524
  732TMC3     O10874   4.500   3.282  12.443 -0.3219  0.3537 -0.1685
  732TMC3     H10875   4.441   3.313  12.226  0.1628 -1.9896  2.4078
  732TMC3    H110876   0.008   3.037  12.303  3.9299  1.5495  0.6670
  732TMC3    H210877   4.721   3.211  11.911  0.5849 -3.9606 -0.3530
  732TMC3    C710878   0.085   3.014  12.055 -0.4949 -0.1548  0.1875
  732TMC3    C810879   4.492   3.297  11.940  0.0687  0.7647 -0.1987
  732TMC3    O110880   0.069   2.996  11.936 -0.4634  0.0496 -0.3900
  732TMC3    O210881   4.540   3.323  11.825  0.1797 -0.2585  0.7064
  733TMC3    C110882   0.993   1.944  13.482 -0.1120 -0.6387  0.1806
  733TMC3    C210883   1.032   2.042  13.391 -0.6285 -0.1303 -0.0078
  733TMC3    C310884   1.100   1.996  13.282 -0.4375 -0.5158 -0.6173
  733TMC3    C410885   1.035   1.813  13.473  0.0902 -0.2914 -0.1251
  733TMC3    C510886   1.104   1.777  13.363 -0.3846 -0.4849  0.2596
  733TMC3    C610887   1.134   1.866  13.262 -1.0098 -0.0797  0.2868
  733TMC3     C10888   0.850   1.959  13.475  0.1472  0.1800  0.1963
  733TMC3     O10889   0.809   2.028  13.385 -0.4017 -0.2991 -0.2275
  733TMC3     H10890   0.999   2.144  13.403  1.3736  0.5726 -0.6070
  733TMC3    H110891   0.994   1.735  13.537  1.0583 -0.4246  0.3256
  733TMC3    H210892   1.205   1.851  13.181 -1.3709 -0.1904 -0.0070
  733TMC3    C710893   1.084   1.647  13.321  0.6553  0.7432  0.2753
  733TMC3    C810894   1.098   2.083  13.163  0.2602 -1.1222 -0.0810
  733TMC3    O110895   1.084   1.556  13.399  0.0357 -0.1515 -0.5222
  733TMC3    O210896   1.140   2.198  13.176 -0.7764  0.4779  0.0783
  734MPD2     C10897   2.714   3.928  12.388 -0.8789  0.3498 -0.2980
  734MPD2    C110898   2.644   3.827  12.331 -0.3332 -1.2440  0.3476
  734MPD2    C210899   2.655   3.800  12.198 -0.1930 -0.3312 -0.0886
  734MPD2    C310900   2.730   3.884  12.112 -0.2043  0.2233  0.4054
  734MPD2    C410901   2.800   3.985  12.167 -0.7878 -0.0544  0.0791
  734MPD2    C510902   2.788   4.007  12.304 -0.8297 -0.0421 -0.1737
  734MPD2     H10903   2.618   3.708  12.155  1.5511 -0.2280 -1.8400
  734MPD2    H110904   2.861   4.054  12.109 -0.2464  0.7326  1.6073
  734MPD2    H210905   2.711   3.949  12.495  3.3036  1.6552 -0.4380
  734MPD2    H310906   2.855   4.080  12.348 -1.7501  1.7864 -1.7750
  734MPD2     N10907   2.730   3.852  11.972  0.4487  0.1486 -0.0085
  734MPD2    H510908   2.673   3.773  11.943 -0.9160  0.8722  0.7050
  734MPD2    N110909   2.564   3.746  12.411  0.0470 -0.2353  0.2633
  734MPD2    H710910   2.575   3.755  12.512 -1.4991 -1.1048  0.4943
  735TMC3    C110911   2.422   3.559  12.452  0.4396  1.2069  0.0900
  735TMC3    C210912   2.314   3.496  12.399 -0.6305 -0.5597  0.1291
  735TMC3    C310913   2.309   3.359  12.380 -0.3695 -0.0448  0.4984
  735TMC3    C410914   2.520   3.483  12.506  0.1660 -0.3708 -0.2910
  735TMC3    C510915   2.516   3.344  12.497 -0.5694  0.3922 -0.5497
  735TMC3    C610916   2.410   3.278  12.428  0.8377  0.8955  0.3685
  735TMC3     C10917   2.463   3.661  12.363 -0.7638 -0.1348 -0.1535
  735TMC3     O10918   2.420   3.656  12.250  0.1172  0.3618 -0.0627
  735TMC3     H10919   2.242   3.569  12.364  1.4630  0.6766 -1.5709
  735TMC3    H110920   2.596   3.538  12.560  1.5270 -1.7985 -0.7635
  735TMC3    H210921   2.422   3.175  12.396  1.0361  0.7277  0.9865
  735TMC3    C710922   2.634   3.270  12.507  0.0355  0.2338  0.0737
  735TMC3    C810923   2.260   3.318  12.248  0.9573 -0.3124 -0.1508
  735TMC3    O110924   2.738   3.332  12.485  0.5410 -0.2605 -0.1411
  735TMC3    O210925   2.181   3.225  12.245  0.2945  0.0213 -0.0314
  736MPD2     C10926   2.692   2.896  12.495 -0.0823 -0.4893 -0.1280
  736MPD2    C110927   2.717   3.035  12.473  0.1740  0.1197 -0.1522
  736MPD2    C210928   2.832   3.071  12.404 -0.1793  0.2725  0.1345
  736MPD2    C310929   2.925   2.976  12.369  0.1481  0.0308  0.1531
  736MPD2    C410930   2.904   2.848  12.408  0.1171  0.4295 -0.3372
  736MPD2    C510931   2.787   2.807  12.462  0.1113 -0.1817 -0.1165
  736MPD2     H10932   2.845   3.173  12.370 -0.6886  0.1152 -0.5280
  736MPD2    H110933   2.980   2.773  12.389  0.3784 -0.0286  2.5422
  736MPD2    H210934   2.597   2.867  12.539 -0.8525  0.7343 -0.9918
  736MPD2    H310935   2.783   2.699  12.471  0.4006 -0.1399  0.4775
  736MPD2     N10936   3.043   3.009  12.299  0.3159  0.2985 -0.9359
  736MPD2    H510937   3.087   2.926  12.261  3.0859  0.8597  1.0531
  736MPD2    N110938   2.621   3.133  12.515 -0.1977  0.0058 -0.0961
  736MPD2    H710939   2.534   3.093  12.550 -0.8405  0.7965 -0.7795
  737TMC3    C110940   3.168   3.171  12.158 -0.6753 -0.0109 -0.1877
  737TMC3    C210941   3.170   3.299  12.112  0.7026 -0.8769 -0.1285
  737TMC3    C310942   3.218   3.321  11.984 -0.2710 -0.3840  0.2059
  737TMC3    C410943   3.213   3.064  12.083  0.0390  0.1633  0.2928
  737TMC3    C510944   3.277   3.097  11.963  0.0268 -0.4494 -0.3281
  737TMC3    C610945   3.279   3.221  11.907  0.1492 -0.2604  0.0033
  737TMC3     C10946   3.077   3.141  12.274 -0.0876  1.1396 -0.3178
  737TMC3     O10947   3.061   3.240  12.343 -0.0721 -0.3079 -0.1436
  737TMC3     H10948   3.132   3.381  12.172  1.8943 -1.8945  1.9719
  737TMC3    H110949   3.223   2.966  12.130  0.6346  0.5717  1.0143
  737TMC3    H210950   3.328   3.240  11.813 -0.6993  0.5567 -0.2814
  737TMC3    C710951   3.369   2.994  11.910  0.7027  0.9969  0.0807
  737TMC3    C810952   3.209   3.450  11.931  0.1353 -0.0038  0.8426
  737TMC3    O110953   3.387   2.896  11.980 -0.5618 -0.1373 -0.1329
  737TMC3    O210954   3.217   3.540  12.011 -0.2431 -0.0277  0.8368
  738MPD2     C10955   3.625   2.126  15.405 -0.5479  0.7456  0.3728
  738MPD2    C110956   3.649   2.086  15.282  0.9043 -0.4611  0.2410
  738MPD2    C210957   3.756   2.137  15.206  0.4505 -0.2152  0.0304
  738MPD2    C310958   3.842   2.224  15.267 -0.0102  0.6643 -0.4146
  738MPD2    C410959   3.814   2.274  15.392 -0.3574  0.0012 -0.6290
  738MPD2    C510960   3.710   2.219  15.461 -0.8039 -0.0802 -1.2812
  738MPD2     H10961   3.779   2.108  15.104  3.2914  3.4146 -0.3690
  738MPD2    H110962   3.875   2.341  15.452  1.6895 -1.9269 -0.5648
  738MPD2    H210963   3.534   2.096  15.457 -0.0416  2.4371  2.2650
  738MPD2    H310964   3.697   2.255  15.563 -0.7166 -1.3887 -0.8098
  738MPD2     N10965   3.967   2.271  15.214 -0.0621 -0.1038  0.3647
  738MPD2    H510966   4.032   2.315  15.277  0.1042 -0.2642  0.3057
  738MPD2    N110967   3.551   1.995  15.233 -0.3557 -0.1275 -0.4899
  738MPD2    H710968   3.496   1.949  15.305  2.0681 -0.2629  1.2633
  739TMC3    C110969   4.133   2.295  15.054  0.1810 -0.1860 -0.2270
  739TMC3    C210970   4.166   2.303  14.916  0.1380  0.5380 -0.1411
  739TMC3    C310971   4.302   2.326  14.887  0.5950 -0.7552  0.2058
  739TMC3    C410972   4.228   2.282  15.156 -0.1313  0.4052 -0.0279
  739TMC3    C510973   4.354   2.285  15.110 -0.1456 -0.2745  0.0430
  739TMC3    C610974   4.400   2.312  14.983 -0.3458 -0.5561  0.3050
  739TMC3     C10975   4.000   2.262  15.085 -0.1448  0.7820 -0.0418
  739TMC3     O10976   3.930   2.222  14.992  0.4306 -0.2094  0.7743
  739TMC3     H10977   4.093   2.308  14.836 -1.1601 -0.5547  0.9702
  739TMC3    H110978   4.200   2.257  15.258 -0.8005 -0.4403 -0.4184
  739TMC3    H210979   4.505   2.308  14.954 -0.0816  2.3446  0.8698
  739TMC3    C710980   4.447   2.310  15.219 -0.4283  0.0761 -0.0797
  739TMC3    C810981   4.326   2.365  14.747  0.3529  0.2884 -0.3036
  739TMC3    O110982   4.398   2.366  15.317 -0.3442  0.3181  0.3519
  739TMC3    O210983   4.235   2.342  14.669  0.3989 -0.5171 -0.3707
  740TMC3    C110984   4.699   3.707  14.304  0.0838  0.4988 -1.0899
  740TMC3    C210985   0.016   3.644  14.416 -0.4838  0.4292  0.3695
  740TMC3    C310986   0.143   3.594  14.403  0.3794  0.9345 -0.0440
  740TMC3    C410987   0.030   3.730  14.193  0.0742 -0.7220  0.3233
  740TMC3    C510988   0.163   3.686  14.182 -0.8950 -0.6038  0.5594
  740TMC3    C610989   0.214   3.612  14.286 -0.7359  0.0400  0.7706
  740TMC3     C10990   4.560   3.753  14.309 -0.3079  0.5375 -0.0895
  740TMC3     O10991   4.519   3.823  14.217 -0.7452  0.3331  0.0783
  740TMC3     H10992   4.698   3.640  14.508  0.8819  0.6845  1.2444
  740TMC3    H110993   4.712   3.761  14.107 -0.1395 -1.4796  0.1944
  740TMC3    H210994   0.296   3.545  14.264 -0.3604  0.7631 -0.0208
  740TMC3    C710995   0.221   3.662  14.051  0.1843 -0.4634 -0.3056
  740TMC3    C810996   0.180   3.472  14.473  0.6409  0.1093 -0.6947
  740TMC3    O110997   0.324   3.600  14.052 -0.0999 -0.2348  0.8006
  740TMC3    O210998   0.298   3.456  14.476  0.0243  0.5581  0.2415
  741TMC3    C110999   4.030   2.607  14.703 -0.0047 -0.3991 -0.1904
  741TMC3    C211000   3.933   2.560  14.619 -0.2262  0.2635 -0.7013
  741TMC3    C311001   3.811   2.513  14.663  0.9540  0.4333 -0.5964
  741TMC3    C411002   4.012   2.610  14.830 -0.1721  0.0203 -0.3911
  741TMC3    C511003   3.893   2.558  14.881 -0.1825 -0.2376 -1.0480
  741TMC3    C611004   3.792   2.505  14.798  0.1150 -0.6867 -0.3384
  741TMC3     C11005   4.137   2.695  14.650  0.9016 -0.0861 -0.0720
  741TMC3     O11006   4.126   2.736  14.534  0.1153 -0.2514 -0.0722
  741TMC3     H11007   3.957   2.565  14.513 -2.1498  2.5238 -1.0524
  741TMC3    H111008   4.085   2.666  14.888  1.0701 -0.9075 -1.0508
  741TMC3    H211009   3.692   2.496  14.837  0.0348  0.7921 -0.1786
  741TMC3    C711010   3.852   2.607  15.010  0.3180  0.4452  0.7515
  741TMC3    C811011   3.714   2.464  14.565  0.2170 -0.7810  0.6405
  741TMC3    O111012   3.943   2.676  15.061 -0.3196 -0.2540 -0.4023
  741TMC3    O211013   3.719   2.505  14.449 -0.2198 -0.1374  0.0260
  742TMC3    C111014   4.066   1.699  15.619  0.4206 -0.2299 -0.1742
  742TMC3    C211015   3.969   1.709  15.523 -0.0163  0.6008  0.6619
  742TMC3    C311016   3.978   1.641  15.408 -0.2712 -0.3130 -0.0749
  742TMC3    C411017   4.163   1.606  15.605  0.1192  0.4742  0.6000
  742TMC3    C511018   4.173   1.549  15.483 -0.1188  0.1432 -0.4729
  742TMC3    C611019   4.083   1.557  15.380  0.2386 -0.1955 -0.6047
  742TMC3     C11020   4.067   1.796  15.728  0.1093 -0.4454  0.4297
  742TMC3     O11021   4.175   1.816  15.782  0.6645  0.8668  0.0180
  742TMC3     H11022   3.907   1.798  15.528 -1.1312 -0.0482 -1.7958
  742TMC3    H111023   4.228   1.590  15.690  0.6696 -3.7602 -0.6240
  742TMC3    H211024   4.102   1.515  15.282 -0.9345 -1.6363 -0.2198
  742TMC3    C711025   4.300   1.497  15.442  0.5796  0.1880 -0.2910
  742TMC3    C811026   3.880   1.675  15.305 -0.6939  0.3410  0.1067
  742TMC3    O111027   4.310   1.436  15.339  0.3128 -0.3859 -0.4930
  742TMC3    O211028   3.795   1.759  15.338  0.2777  0.4130 -0.0363
  743MPD2     C11029   1.770   1.527   1.364  0.5984  0.8210  0.6921
  743MPD2    C111030   1.743   1.657   1.334 -0.4727 -0.7255 -0.5592
  743MPD2    C211031   1.842   1.760   1.359 -0.2034  0.2054 -0.3680
  743MPD2    C311032   1.957   1.728   1.418  0.4516 -0.0860 -0.2381
  743MPD2    C411033   1.991   1.596   1.444  0.0017  0.6644  0.2213
  743MPD2    C511034   1.894   1.496   1.423  0.1827 -0.2220 -0.2461
  743MPD2     H11035   1.835   1.862   1.321  1.2020  0.8699  1.1736
  743MPD2    H111036   2.093   1.569   1.471 -1.2151 -1.6382  2.5619
  743MPD2    H211037   1.703   1.445   1.338 -0.7764  1.9195  0.7361
  743MPD2    H311038   1.916   1.390   1.428  0.0836 -0.2133  0.3419
  743MPD2     N11039   2.042   1.838   1.424 -0.1203  0.7708  0.0795
  743MPD2    H511040   2.022   1.913   1.359 -1.2602  0.5444  0.1542
  743MPD2    N111041   1.623   1.683   1.254  0.2819 -0.0085 -0.5530
  743MPD2    H711042   1.570   1.600   1.232 -0.4800  1.4956 -4.3700
  744TMC3    C111043   1.453   1.788   1.151 -0.5468  0.2430 -0.7490
  744TMC3    C211044   1.359   1.878   1.188  0.1774 -0.8748  0.0026
  744TMC3    C311045   1.245   1.876   1.109  0.4154  1.1843 -0.1937
  744TMC3    C411046   1.445   1.711   1.036 -0.1758  0.0952  0.4169
  744TMC3    C511047   1.339   1.728   0.955  0.4264 -0.0630  0.1355
  744TMC3    C611048   1.230   1.802   0.993  0.3201  0.3601  0.6569
  744TMC3     C11049   1.576   1.808   1.220  0.5183 -0.0099  0.3722
  744TMC3     O11050   1.604   1.914   1.269  0.0486  0.6760  0.5571
  744TMC3     H11051   1.372   1.946   1.272 -1.8117 -1.9237  1.1804
  744TMC3    H111052   1.530   1.655   0.998 -1.0336 -1.0090  0.1186
  744TMC3    H211053   1.147   1.818   0.925  0.9722  2.2293  0.2966
  744TMC3    C711054   1.379   1.744   0.815  0.0487 -0.7366 -0.1811
  744TMC3    C811055   1.158   1.991   1.120  0.5921 -0.0816  0.5009
  744TMC3    O111056   1.503   1.762   0.806  0.4444  0.3033  0.3463
  744TMC3    O211057   1.111   2.027   1.012  0.0529  0.1492  0.3574
  745TMC3    C111058   4.609   1.148  13.449 -0.9030  0.5903 -0.3476
  745TMC3    C211059   4.483   1.117  13.482  0.3389  0.1993  0.8966
  745TMC3    C311060   4.406   1.047  13.395 -0.1133  0.4022  0.0696
  745TMC3    C411061   4.655   1.114  13.323  0.3371 -0.2361 -0.0316
  745TMC3    C511062   4.575   1.049  13.235  0.0849 -0.3952  1.1064
  745TMC3    C611063   4.450   1.004  13.271  0.4461  0.1040 -0.0322
  745TMC3     C11064   4.695   1.209  13.544 -0.6660 -0.0117  0.2964
  745TMC3     O11065   0.080   1.196  13.534 -0.3084  0.0240  0.0948
  745TMC3     H11066   4.459   1.120  13.587 -1.7021  1.5741  0.4050
  745TMC3    H111067   0.020   1.135  13.305  0.4677  1.2235  2.3990
  745TMC3    H211068   4.380   0.957  13.203  0.2529 -0.3285  0.4692
  745TMC3    C711069   4.601   1.073  13.093  0.5294  0.1147  0.6968
  745TMC3    C811070   4.272   1.009  13.447 -0.0247 -0.3039 -0.3205
  745TMC3    O111071   4.532   1.012  13.009 -0.3796  0.1758 -0.1570
  745TMC3    O211072   4.227   0.902  13.416 -0.2230 -0.5191 -0.4905
  746TMC3    C111073   1.011   3.205  10.887  0.3407  0.1705 -0.0550
  746TMC3    C211074   1.114   3.119  10.850  0.5905 -0.1845 -0.0348
  746TMC3    C311075   1.075   2.996  10.810 -0.6223 -0.1851  0.2796
  746TMC3    C411076   0.879   3.160  10.896 -0.3651  0.1656  0.5663
  746TMC3    C511077   0.849   3.032  10.862 -0.5534  0.3406 -0.2401
  746TMC3    C611078   0.946   2.949  10.821 -0.6146  0.0388 -0.4696
  746TMC3     C11079   1.045   3.344  10.910 -0.1519 -0.7805 -0.4397
  746TMC3     O11080   0.975   3.405  10.989  0.4607  0.0442 -0.1505
  746TMC3     H11081   1.214   3.155  10.871  1.0016 -0.9035 -0.7623
  746TMC3    H111082   0.806   3.229  10.937 -0.3687  0.6279 -0.2077
  746TMC3    H211083   0.931   2.844  10.801  0.6234 -0.3010  0.3800
  746TMC3    C711084   0.710   2.980  10.861 -0.5628 -0.1592  0.1657
  746TMC3    C811085   1.175   2.910  10.753  0.1524  0.4427  0.3794
  746TMC3    O111086   0.708   2.866  10.816  0.0966  0.0913 -0.0312
  746TMC3    O211087   1.166   2.787  10.765  0.1573  0.2708 -0.9621
  747TMC3    C111088   3.754   2.994  10.957 -0.2015  0.0378  0.8311
  747TMC3    C211089   3.804   2.934  11.067  0.2837 -0.3750 -0.6569
  747TMC3    C311090   3.808   3.008  11.182 -0.3524  0.8979  0.3444
  747TMC3    C411091   3.697   3.120  10.948 -0.4356  0.1849  0.0704
  747TMC3    C511092   3.705   3.191  11.059 -0.4140  0.1764  0.1747
  747TMC3    C611093   3.753   3.137  11.177  0.5103 -0.3340  0.5951
  747TMC3     C11094   3.778   2.929  10.828  0.2359 -0.2660 -0.2145
  747TMC3     O11095   3.702   2.930  10.735  0.4914 -0.5952  0.3193
  747TMC3     H11096   3.829   2.828  11.067  0.7313 -0.2704 -1.8230
  747TMC3    H111097   3.661   3.149  10.850  0.7846  0.5033 -0.2812
  747TMC3    H211098   3.750   3.191  11.271  1.2845 -0.1886  0.5351
  747TMC3    C711099   3.727   3.337  11.046  0.5126 -0.1295 -0.3107
  747TMC3    C811100   3.814   2.944  11.314 -0.4588 -0.6645 -0.4381
  747TMC3    O111101   3.752   3.393  11.150  0.0202 -0.7681  0.0695
  747TMC3    O211102   3.904   2.872  11.346 -0.0626  0.3530  0.4044
  748MPD2     C11103   1.700   2.867   1.229 -0.2492  0.4490  0.2798
  748MPD2    C111104   1.836   2.893   1.245 -0.3516  0.9771  0.2747
  748MPD2    C211105   1.896   2.985   1.162  0.2674  0.1489  0.3470
  748MPD2    C311106   1.819   3.066   1.084 -0.4678  0.2543  0.2330
  748MPD2    C411107   1.682   3.040   1.063  0.1253 -0.3433 -0.2315
  748MPD2    C511108   1.623   2.943   1.139 -0.0798  0.5379 -0.1952
  748MPD2     H11109   2.003   3.003   1.169  0.2695  0.2011  0.1762
  748MPD2    H111110   1.621   3.091   0.990 -1.0901 -0.5920  0.5960
  748MPD2    H211111   1.653   2.789   1.287 -0.9831  0.2894 -0.5311
  748MPD2    H311112   1.521   2.913   1.116  0.3374 -0.1344 -1.1631
  748MPD2     N11113   1.890   3.183   1.040  0.5735 -0.0503 -0.4180
  748MPD2    H511114   1.989   3.171   1.057  0.6029  3.5405  1.8214
  748MPD2    N111115   1.905   2.822   1.353 -1.0394  0.0085  0.1114
  748MPD2    H711116   1.860   2.741   1.393 -1.6762 -0.4552 -1.5259
  749TMC3    C111117   1.935   3.406   0.954  0.0198 -0.3821  0.2922
  749TMC3    C211118   2.054   3.405   1.027 -0.2418  0.1815 -0.9680
  749TMC3    C311119   2.134   3.518   1.024  0.0803  0.0678 -0.0317
  749TMC3    C411120   1.906   3.514   0.875 -0.2431 -0.0553  0.2585
  749TMC3    C511121   1.989   3.626   0.881  0.5235  0.5690 -0.6008
  749TMC3    C611122   2.108   3.632   0.952 -0.1323 -0.5672  0.2777
  749TMC3     C11123   1.837   3.292   0.974 -0.4408 -0.8383  0.7140
  749TMC3     O11124   1.722   3.316   0.941 -0.0617  0.5967  0.2643
  749TMC3     H11125   2.083   3.322   1.089 -0.3306  1.9671  1.4399
  749TMC3    H111126   1.809   3.514   0.826  0.3525 -2.7508 -0.8964
  749TMC3    H211127   2.170   3.721   0.944 -1.3697  0.3364  0.8903
  749TMC3    C711128   1.969   3.721   0.778 -0.8917 -0.5161 -0.2391
  749TMC3    C811129   2.267   3.494   1.068  0.1307  0.0758  0.0500
  749TMC3    O111130   2.004   3.835   0.812 -0.1007  0.1028 -0.3191
  749TMC3    O211131   2.333   3.595   1.096 -0.1915 -0.2395 -0.4978
  750MPD2     C11132   1.862   0.339  11.011 -0.7606  0.0139 -0.0368
  750MPD2    C111133   1.787   0.303  11.118 -0.7123  0.7017 -0.4729
  750MPD2    C211134   1.708   0.189  11.111 -0.9143 -0.6498 -0.1283
  750MPD2    C311135   1.709   0.111  11.000  0.4777 -1.1235  0.5415
  750MPD2    C411136   1.788   0.154  10.891  0.1806 -0.5828  0.6664
  750MPD2    C511137   1.867   0.261  10.898  0.6203  0.0326 -0.2293
  750MPD2     H11138   1.643   0.156  11.192 -0.6845  2.8687  1.4895
  750MPD2    H111139   1.792   0.100  10.798  1.9311  1.5910 -0.5192
  750MPD2    H211140   1.932   0.422  11.010 -2.7445  1.6857  0.8111
  750MPD2    H311141   1.931   0.290  10.816  1.9776 -1.5397  0.2902
  750MPD2     N11142   1.631   4.735  10.982 -1.1622 -0.5347  0.4229
  750MPD2    H511143   1.663   4.672  10.910 -0.2535  1.3759 -0.8442
  750MPD2    N111144   1.795   0.397  11.227  0.0053 -0.9116  0.0186
  750MPD2    H711145   1.875   0.459  11.224 -0.6206 -0.1925 -2.0218
  751TMC3    C111146   1.482   4.562  11.008 -0.1538 -0.0938  0.1786
  751TMC3    C211147   1.419   4.484  11.104  0.1037  0.2809 -0.4698
  751TMC3    C311148   1.443   4.348  11.115  1.2032  0.5833 -0.6408
  751TMC3    C411149   1.548   4.502  10.904 -0.1431 -0.2810 -0.0050
  751TMC3    C511150   1.583   4.374  10.923  0.7263  0.2705  0.0182
  751TMC3    C611151   1.532   4.298  11.022 -0.1020 -0.1048  0.0508
  751TMC3     C11152   1.527   4.689  11.060 -0.2898 -0.8822 -0.3228
  751TMC3     O11153   1.490   4.729  11.171 -0.2673  0.3302  0.9498
  751TMC3     H11154   1.351   4.535  11.172 -2.6344 -1.7588 -1.6879
  751TMC3    H111155   1.555   4.547  10.806  0.4645  1.1733  0.7060
  751TMC3    H211156   1.563   4.195  11.034 -1.4841 -0.5840 -0.4767
  751TMC3    C711157   1.588   4.304  10.799 -0.1735  0.0749 -1.2525
  751TMC3    C811158   1.330   4.254  11.117 -0.5880  0.3489 -0.2873
  751TMC3    O111159   1.634   4.351  10.701  0.4266 -0.9343  0.4890
  751TMC3    O211160   1.349   4.142  11.073 -0.1704  0.6007  0.6435
  752TMC3    C111161   0.605   4.357  17.103 -0.4203  0.7767 -0.0678
  752TMC3    C211162   0.690   4.283  17.190 -0.0352  0.1569  0.0504
  752TMC3    C311163   0.675   4.288  17.329 -0.0569 -0.1547 -0.2787
  752TMC3    C411164   0.500   4.425  17.158  0.2079 -0.1107  0.4053
  752TMC3    C511165   0.490   4.427  17.297  0.2895 -0.3053 -0.3276
  752TMC3    C611166   0.580   4.365  17.385  0.4610  1.1058  0.0754
  752TMC3     C11167   0.629   4.346  16.962  0.0084  0.3864  0.5432
  752TMC3     O11168   0.737   4.299  16.927  0.3142 -1.0531 -0.1011
  752TMC3     H11169   0.768   4.214  17.160  0.1220  0.1246  0.5402
  752TMC3    H111170   0.435   4.491  17.102 -0.8158 -2.8766 -1.6648
  752TMC3    H211171   0.557   4.359  17.490 -0.6687 -1.1319 -0.2965
  752TMC3    C711172   0.368   4.489  17.342 -0.1281  0.6018  0.2630
  752TMC3    C811173   0.712   4.164  17.395 -0.6593  0.8507 -0.3652
  752TMC3    O111174   0.303   4.548  17.258  0.0505 -0.0372 -0.3243
  752TMC3    O211175   0.754   4.078  17.321  0.8195  0.4878 -0.4187
  753TMC3    C111176   3.178   1.435  13.159  0.1744 -0.8152 -0.0954
  753TMC3    C211177   3.296   1.417  13.225 -0.0321 -0.0682  0.6498
  753TMC3    C311178   3.339   1.283  13.238 -0.4527  0.3292  0.0158
  753TMC3    C411179   3.103   1.331  13.108 -1.3644  0.6400  0.5835
  753TMC3    C511180   3.153   1.201  13.126  0.5359  0.1917  0.1729
  753TMC3    C611181   3.269   1.175  13.195 -0.3155 -0.3733  0.1798
  753TMC3     C11182   3.116   1.565  13.167  0.1595 -0.3224 -0.1892
  753TMC3     O11183   3.190   1.662  13.167  0.3191 -0.1207  0.0558
  753TMC3     H11184   3.337   1.502  13.278  0.0166  0.8147 -0.7961
  753TMC3    H111185   3.029   1.344  13.029 -1.6157 -0.1854  0.6823
  753TMC3    H211186   3.303   1.074  13.212 -0.8350 -0.7792 -1.1937
  753TMC3    C711187   3.068   1.090  13.086 -0.8331  0.2614 -0.4062
  753TMC3    C811188   3.425   1.264  13.351 -0.2536  0.0330 -0.4063
  753TMC3    O111189   2.972   1.113  13.014 -0.2768 -0.1882 -0.0626
  753TMC3    O211190   3.528   1.328  13.346  0.4115  0.8529 -0.1455
  754MPD2     C11191   1.705   0.251  13.011 -0.2005 -0.0045  0.2412
  754MPD2    C111192   1.648   0.163  13.102  0.9247 -0.0376 -0.3159
  754MPD2    C211193   1.534   0.098  13.069  0.1044 -0.1909 -0.4805
  754MPD2    C311194   1.467   0.127  12.948 -0.1582  0.3330  0.6874
  754MPD2    C411195   1.529   0.208  12.858  0.3768 -0.0332 -0.1627
  754MPD2    C511196   1.644   0.274  12.896 -0.7269 -0.0516 -0.3692
  754MPD2     H11197   1.490   0.032  13.142 -0.7273  2.0526  1.0585
  754MPD2    H111198   1.485   0.236  12.763 -0.8277  0.8539  0.6574
  754MPD2    H211199   1.799   0.302  13.026 -0.9141  1.3252  0.2689
  754MPD2    H311200   1.698   0.344  12.832 -0.5225  0.3279  0.2188
  754MPD2     N11201   1.328   0.082  12.922 -0.3471 -0.3838  0.3924
  754MPD2    H511202   1.272   0.132  12.854 -1.5587 -1.2116  0.7858
  754MPD2    N111203   1.711   0.123  13.214  0.1704 -0.6424 -0.1979
  754MPD2    H711204   1.663   0.048  13.265  1.1020 -1.4303 -0.4786
  755MPD2     C11205   0.612   0.547  12.964 -0.4242  0.1045  0.2165
  755MPD2    C111206   0.559   0.423  12.921 -0.4553 -0.0834 -0.1828
  755MPD2    C211207   0.644   0.313  12.910  0.0429 -0.2564  0.2290
  755MPD2    C311208   0.773   0.318  12.953  0.0005 -0.8832 -0.3927
  755MPD2    C411209   0.823   0.440  13.010  0.0535 -0.3314 -0.5782
  755MPD2    C511210   0.742   0.552  13.009 -0.4427 -0.6840 -0.0974
  755MPD2     H11211   0.601   0.225  12.864  0.0292  0.4243 -1.0762
  755MPD2    H111212   0.924   0.448  13.047  0.1723 -4.0372 -0.0905
  755MPD2    H211213   0.549   0.635  12.967 -1.0193 -0.2700 -1.2111
  755MPD2    H311214   0.779   0.651  13.031  0.7940 -0.7498 -1.8862
  755MPD2     N11215   0.853   0.201  12.951  0.2336 -0.5000  0.4633
  755MPD2    H511216   0.941   0.211  13.000  0.7607 -2.1834 -0.1740
  755MPD2    N111217   0.420   0.406  12.907 -0.4337  0.1770 -0.0779
  755MPD2    H711218   0.388   0.310  12.893  1.6653 -0.1748 -2.5736
  756MPD2     C11219   0.963   0.811   9.776 -0.2917  0.3132 -0.0442
  756MPD2    C111220   0.884   0.744   9.870  0.9110 -0.4127  0.1143
  756MPD2    C211221   0.751   0.716   9.847 -0.0545 -0.5238 -0.9394
  756MPD2    C311222   0.689   0.766   9.734 -0.0788  0.4404  0.0111
  756MPD2    C411223   0.767   0.832   9.641  0.5607  0.3502  0.1885
  756MPD2    C511224   0.898   0.855   9.667 -0.1875  0.3355  0.1224
  756MPD2     H11225   0.692   0.658   9.917  0.0066 -0.2315 -0.6487
  756MPD2    H111226   0.736   0.877   9.548 -0.0295  0.1510  0.2853
  756MPD2    H211227   1.066   0.840   9.789  0.0856 -1.1367  0.2237
  756MPD2    H311228   0.958   0.912   9.596  0.7014  0.6562  1.1193
  756MPD2     N11229   0.558   0.719   9.713  0.2828  0.2962 -0.2158
  756MPD2    H511230   0.517   0.654   9.779 -0.1342  0.1038 -0.6585
  756MPD2    N111231   0.942   0.690   9.980  0.3877 -0.2825  0.7874
  756MPD2    H711232   0.884   0.642  10.047 -0.1503 -0.3012  0.3034
  757MPD2     C11233   0.218   4.727   9.969 -0.1976  0.9388  0.8085
  757MPD2    C111234   0.331   0.067   9.969 -0.2196  0.5253  0.7424
  757MPD2    C211235   0.326   0.190   9.914  0.5352  0.6993  0.1361
  757MPD2    C311236   0.210   0.251   9.864 -0.7512 -0.2038  0.8983
  757MPD2    C411237   0.107   0.163   9.862 -0.2769 -0.4359  0.4536
  757MPD2    C511238   0.113   0.033   9.898 -0.1240  0.4693 -0.4050
  757MPD2     H11239   0.414   0.252   9.917  0.1272  1.2757  0.2124
  757MPD2    H111240   0.016   0.198   9.815  0.1515  0.2438  0.1261
  757MPD2    H211241   0.222   4.624  10.002 -0.4875 -0.1455 -2.5164
  757MPD2    H311242   0.032   4.710   9.863 -0.6261  0.4449  0.8114
  757MPD2     N11243   0.220   0.387   9.813 -0.1291  0.3211  0.0841
  757MPD2    H511244   0.310   0.434   9.824  0.3214 -0.0379 -2.1195
  757MPD2    N111245   0.445   0.020  10.030 -0.2433  0.1668  0.1287
  757MPD2    H711246   0.442   4.662  10.057 -0.1247  0.7990  2.4695
  758MPD2     C11247   1.691   4.110  15.943 -1.4256 -0.7173  0.2265
  758MPD2    C111248   1.734   3.987  15.995  0.5336  0.5046  0.3979
  758MPD2    C211249   1.706   3.956  16.123 -0.4790 -0.5346  0.1907
  758MPD2    C311250   1.636   4.045  16.205 -0.5746  0.5871 -0.0408
  758MPD2    C411251   1.590   4.162  16.153  0.1236  0.4303  0.4499
  758MPD2    C511252   1.615   4.187  16.024  0.1600  0.1736  0.0357
  758MPD2     H11253   1.747   3.859  16.151 -1.1958 -1.2280 -1.1652
  758MPD2    H111254   1.544   4.241  16.211 -0.8012  0.6606 -0.5874
  758MPD2    H211255   1.714   4.144  15.842 -2.0650  0.6213  0.5281
  758MPD2    H311256   1.569   4.280  15.991 -1.3680 -0.1301  1.3273
  758MPD2     N11257   1.611   4.019  16.342  0.1811  0.2172  0.3940
  758MPD2    H511258   1.577   4.092  16.405  0.6504  0.6586  0.1368
  758MPD2    N111259   1.838   3.924  15.917 -0.4098 -0.5645  0.6326
  758MPD2    H711260   1.853   3.961  15.823  1.3721  0.9513  1.5105
  759MPD2     C11261   0.349   2.305   9.622  0.1210  0.0168  0.0065
  759MPD2    C111262   0.294   2.334   9.748  0.3641 -0.4693 -0.1622
  759MPD2    C211263   0.349   2.437   9.823  0.2345  0.2088  0.8814
  759MPD2    C311264   0.451   2.519   9.770  0.5950 -0.2735 -0.6229
  759MPD2    C411265   0.502   2.480   9.652 -0.1756 -0.4289 -0.2141
  759MPD2    C511266   0.454   2.379   9.580 -0.2646 -1.0964 -0.6274
  759MPD2     H11267   0.314   2.468   9.922  0.5928  4.1680 -0.2249
  759MPD2    H111268   0.584   2.529   9.601  0.1559 -1.5258 -0.7475
  759MPD2    H211269   0.314   2.216   9.571  1.3948 -1.8006  2.2807
  759MPD2    H311270   0.487   2.349   9.482 -1.2244  0.6890 -1.4958
  759MPD2     N11271   0.495   2.630   9.839  0.4892 -0.0615  0.0386
  759MPD2    H511272   0.438   2.665   9.916  0.0949  0.6960 -0.5936
  759MPD2    N111273   0.201   2.260   9.826  0.1188  0.2977  0.3386
  759MPD2    H711274   0.165   2.309   9.907  0.8182  2.2034 -0.5173
  760MPD2     C11275   4.248   4.552  11.510 -0.8885 -0.5101  0.0780
  760MPD2    C111276   4.383   4.577  11.475  0.1753 -0.5365  0.0813
  760MPD2    C211277   4.463   4.463  11.476  0.1197  0.1085  0.2165
  760MPD2    C311278   4.431   4.337  11.516 -0.2092  0.6607 -0.5067
  760MPD2    C411279   4.300   4.318  11.548 -0.1849 -0.0768  0.2882
  760MPD2    C511280   4.211   4.428  11.538 -0.1827 -0.2559  0.1926
  760MPD2     H11281   4.568   4.480  11.453  0.3832 -0.9252  0.6608
  760MPD2    H111282   4.264   4.218  11.565 -1.5194  0.1587 -1.1822
  760MPD2    H211283   4.173   4.629  11.499  1.2115  1.4568 -0.6191
  760MPD2    H311284   4.105   4.409  11.552 -0.4974  0.5831 -1.1233
  760MPD2     N11285   4.529   4.231  11.543  0.0425  0.6626 -0.6174
  760MPD2    H511286   4.489   4.148  11.586  0.5055 -0.6759 -2.7949
  760MPD2    N111287   4.430   4.710  11.455  0.2484 -0.5778 -0.0361
  760MPD2    H711288   4.354   0.038  11.450 -0.1319 -1.0212 -0.3356
  761MPD2     C11289   0.927   4.060  11.346 -0.1725 -0.5963  0.1276
  761MPD2    C111290   0.981   4.032  11.225 -0.3198  0.4400  0.4259
  761MPD2    C211291   1.090   4.104  11.190  0.6690  0.1357 -0.2995
  761MPD2    C311292   1.129   4.218  11.248  0.0979 -0.2360  0.6811
  761MPD2    C411293   1.059   4.260  11.364 -0.7684  0.1640  0.6166
  761MPD2    C511294   0.965   4.175  11.413 -0.0007  0.2454  0.5017
  761MPD2     H11295   1.130   4.079  11.092  3.4745  0.9251  0.6361
  761MPD2    H111296   1.073   4.358  11.409 -1.8097  0.4246  0.3848
  761MPD2    H211297   0.839   4.007  11.380 -1.7140  1.0310 -1.2877
  761MPD2    H311298   0.910   4.194  11.505 -0.1657 -1.6174  0.7968
  761MPD2     N11299   1.233   4.304  11.199  0.0742  0.3253  0.6960
  761MPD2    H511300   1.257   4.381  11.261  2.2219 -0.9452  1.4469
  761MPD2    N111301   0.934   3.913  11.154  0.2841 -0.2074 -0.3627
  761MPD2    H711302   0.847   3.877  11.191 -0.8206  1.7500 -1.0484
  762MPD2     C11303   0.951   3.558  10.363 -0.2109 -0.2241 -0.2797
  762MPD2    C111304   1.031   3.585  10.473  0.5192 -0.2007 -0.2503
  762MPD2    C211305   1.166   3.580  10.458  0.3890  0.1717  0.0162
  762MPD2    C311306   1.226   3.558  10.338  0.1118  0.0617 -0.6745
  762MPD2    C411307   1.145   3.539  10.227 -0.4316  0.0827 -0.2433
  762MPD2    C511308   1.011   3.536  10.239  0.7025 -0.1883  0.4971
  762MPD2     H11309   1.220   3.610  10.547 -0.7480  0.2037  0.6918
  762MPD2    H111310   1.185   3.529  10.127  0.3204 -0.1988  0.0796
  762MPD2    H211311   0.843   3.573  10.362  0.0236  1.4010  0.2661
  762MPD2    H311312   0.950   3.513  10.152  0.7043  0.7395  0.2548
  762MPD2     N11313   1.366   3.553  10.339 -0.2276  0.0863 -0.1969
  762MPD2    H511314   1.401   3.551  10.434  0.4660  1.0802 -0.4295
  762MPD2    N111315   0.982   3.611  10.602  0.0432 -0.0323 -0.0149
  762MPD2    H711316   1.048   3.641  10.673  3.0185 -0.8092 -2.4682
  763MPD2     C11317   3.571   4.118  15.774  0.3076  0.5879 -0.2933
  763MPD2    C111318   3.453   4.196  15.765  0.4608  0.0169  0.1110
  763MPD2    C211319   3.442   4.321  15.822  0.8896  0.5339 -0.2009
  763MPD2    C311320   3.547   4.372  15.896 -0.0402  0.3957  0.0888
  763MPD2    C411321   3.663   4.295  15.902  0.2850 -0.6811  0.4097
  763MPD2    C511322   3.674   4.172  15.839 -0.6526  0.4940 -0.2458
  763MPD2     H11323   3.347   4.372  15.816 -0.6473 -2.3597 -0.3497
  763MPD2    H111324   3.739   4.319  15.975 -0.7128  3.3261  0.1496
  763MPD2    H211325   3.596   4.029  15.718  1.2189  0.5284  0.2079
  763MPD2    H311326   3.760   4.109  15.860 -2.0658 -0.8974  1.3485
  763MPD2     N11327   3.555   4.497  15.959  0.1759  0.3172 -0.5110
  763MPD2    H511328   3.651   4.521  15.983  0.1566 -1.0833  0.9335
  763MPD2    N111329   3.349   4.162  15.682  0.9412  0.0731  0.2713
  763MPD2    H711330   3.299   4.236  15.634 -0.4095 -2.1443 -1.7311
  764MPD2     C11331   1.178   1.281   0.064 -0.0363 -0.2059 -0.2650
  764MPD2    C111332   1.149   1.158   0.007 -0.7715  0.0998  0.5804
  764MPD2    C211333   1.116   1.052   0.085  0.6372  0.2296 -0.3494
  764MPD2    C311334   1.106   1.062   0.227  0.2319 -0.6318 -0.6608
  764MPD2    C411335   1.126   1.182   0.277  1.2323 -0.1935 -1.2239
  764MPD2    C511336   1.159   1.288   0.200 -0.9242  0.2575  0.0525
  764MPD2     H11337   1.097   0.957   0.037  2.1204  0.1247 -0.7157
  764MPD2    H111338   1.109   1.203   0.382  3.1132 -0.3575 -0.8878
  764MPD2    H211339   1.217   1.369   0.015  0.4666  0.0796  0.6502
  764MPD2    H311340   1.165   1.385   0.250 -2.6167 -0.2428  1.2075
  764MPD2     N11341   1.078   0.943   0.296  0.2222 -0.0257  0.3206
  764MPD2    H511342   1.072   0.857   0.243  0.6225 -0.4843  1.0042
  764MPD2    N111343   1.159   1.129  17.636 -0.3515  0.0442  0.0359
  764MPD2    H711344   1.114   1.041  17.615 -1.9294  0.3446  2.1544
  765MPD2     C11345   1.323   3.634  15.433  0.0282  1.0250  0.1448
  765MPD2    C111346   1.364   3.620  15.564  0.2877 -0.4342  0.0986
  765MPD2    C211347   1.483   3.558  15.590  0.1912 -0.3940 -0.1566
  765MPD2    C311348   1.566   3.524  15.488 -0.3195  0.2312 -0.4019
  765MPD2    C411349   1.534   3.561  15.360 -0.1994  0.0902 -0.7363
  765MPD2    C511350   1.413   3.611  15.332 -0.3746  0.0867  0.7681
  765MPD2     H11351   1.512   3.526  15.689  0.8042 -0.3523 -0.3259
  765MPD2    H111352   1.600   3.542  15.276  0.2186 -1.9694  0.0583
  765MPD2    H211353   1.233   3.692  15.411 -0.2717  0.6997  0.5088
  765MPD2    H311354   1.378   3.634  15.232 -0.1464  0.4981  0.7832
  765MPD2     N11355   1.684   3.454  15.521 -0.8824 -0.0788 -0.0760
  765MPD2    H511356   1.683   3.411  15.613 -2.5817 -1.5162 -0.7693
  765MPD2    N111357   1.277   3.662  15.668  0.2843  0.8030  0.5140
  765MPD2    H711358   1.181   3.691  15.653 -0.1576  0.0703  1.8745
  766MPD2     C11359   0.636   3.859  15.480  0.1737 -0.5396  1.0392
  766MPD2    C111360   0.765   3.819  15.488 -0.9125  0.0835  0.6116
  766MPD2    C211361   0.830   3.767  15.377  0.4110  0.0109 -0.2349
  766MPD2    C311362   0.760   3.739  15.261  0.1480 -0.6492  0.4877
  766MPD2    C411363   0.626   3.765  15.259  0.2091  0.1721  0.1917
  766MPD2    C511364   0.560   3.828  15.365 -0.7810  0.8120 -0.3543
  766MPD2     H11365   0.934   3.736  15.382  0.2186 -0.6012 -0.0398
  766MPD2    H111366   0.579   3.734  15.166  0.9785  0.8039 -0.4062
  766MPD2    H211367   0.580   3.905  15.561 -1.3448  1.7854 -1.3476
  766MPD2    H311368   0.456   3.858  15.368 -0.8164  0.7667 -1.1897
  766MPD2     N11369   0.826   3.682  15.144  0.2819 -0.1800  0.3311
  766MPD2    H511370   0.771   3.687  15.059 -3.5489 -1.6767  2.7568
  766MPD2    N111371   0.825   3.837  15.615  0.2544 -0.0390  0.7191
  766MPD2    H711372   0.775   3.892  15.684 -2.3000  0.5244 -1.5717
  767MPD2     C11373   0.507   3.950  15.035 -0.1602 -0.6756  0.4215
  767MPD2    C111374   0.640   3.981  15.011  0.1837 -0.7774  0.0077
  767MPD2    C211375   0.696   3.932  14.899  0.2686  0.3217  0.2198
  767MPD2    C311376   0.621   3.868  14.805 -1.9122 -0.7765  0.0304
  767MPD2    C411377   0.485   3.848  14.828 -0.6627  0.7133 -0.2802
  767MPD2    C511378   0.429   3.887  14.943 -0.1436 -0.1400  0.3579
  767MPD2     H11379   0.799   3.959  14.876  0.3710  1.3809  1.9419
  767MPD2    H111380   0.421   3.817  14.746 -2.3682 -0.0661  1.3248
  767MPD2    H211381   0.467   3.976  15.132  0.6675 -1.1964  0.9002
  767MPD2    H311382   0.326   3.869  14.971 -0.2786  1.5787  0.9888
  767MPD2     N11383   0.677   3.827  14.681 -0.0784 -0.6896  0.0560
  767MPD2    H511384   0.772   3.862  14.678 -0.1041 -0.7812 -1.9766
  767MPD2    N111385   0.708   4.063  15.099 -0.3176 -0.0427 -0.1562
  767MPD2    H711386   0.652   4.108  15.170  0.3152 -1.3244  1.1533
  768MPD2     C11387   0.587   2.370  10.505  0.8148  0.8005 -0.4881
  768MPD2    C111388   0.558   2.324  10.630 -0.5040 -0.3176  1.0459
  768MPD2    C211389   0.662   2.280  10.707  0.2585  0.3130 -0.0698
  768MPD2    C311390   0.797   2.295  10.668  0.5620 -0.2251  0.3572
  768MPD2    C411391   0.817   2.338  10.542  0.3001 -0.4750 -0.0844
  768MPD2    C511392   0.714   2.364  10.460 -1.1065  0.3174 -0.6640
  768MPD2     H11393   0.647   2.247  10.809 -0.2380  0.1907 -0.1815
  768MPD2    H111394   0.919   2.346  10.507  0.4802  1.7038  0.9453
  768MPD2    H211395   0.515   2.412  10.436  1.8701  1.2164 -1.3373
  768MPD2    H311396   0.728   2.389  10.356  1.1800  3.1537  0.3161
  768MPD2     N11397   0.904   2.276  10.755 -0.1826 -0.1244  0.3618
  768MPD2    H511398   0.998   2.307  10.731  0.0556 -0.4695  0.8482
  768MPD2    N111399   0.428   2.325  10.684 -0.2642  0.0929  0.1444
  768MPD2    H711400   0.419   2.283  10.776 -2.1335 -1.7038 -0.8475
  769MPD2     C11401   2.312   0.919  14.517  0.3948 -0.0222 -0.3728
  769MPD2    C111402   2.273   0.883  14.644  0.3927  0.0793  0.1052
  769MPD2    C211403   2.347   0.912  14.754 -0.2710  0.1535  0.4751
  769MPD2    C311404   2.477   0.963  14.738 -0.6535  0.2414 -0.3647
  769MPD2    C411405   2.515   1.000  14.609 -0.5960  0.0142  0.4300
  769MPD2    C511406   2.432   0.988  14.503  0.5098 -0.0147  0.0966
  769MPD2     H11407   2.310   0.887  14.853 -0.4595  0.4977  0.4905
  769MPD2    H111408   2.610   1.046  14.583  0.3897 -1.9703  0.5059
  769MPD2    H211409   2.245   0.905  14.433  0.3377 -3.4210  0.2039
  769MPD2    H311410   2.454   1.020  14.401  0.9063 -0.8986 -0.0963
  769MPD2     N11411   2.560   0.957  14.850 -0.4944 -0.4786 -0.3865
  769MPD2    H511412   2.512   0.928  14.934  1.4475 -1.7530  0.2907
  769MPD2    N111413   2.143   0.821  14.648  0.4997  0.1483 -0.7453
  769MPD2    H711414   2.086   0.820  14.564 -0.7784 -1.1260  0.1341
  770MPD2     C11415   1.600   0.089  15.159  0.8007 -0.0723  0.3089
  770MPD2    C111416   1.719   0.085  15.091  0.1225  0.1286  0.1861
  770MPD2    C211417   1.767   0.202  15.036 -0.2831  0.3391  0.0677
  770MPD2    C311418   1.695   0.324  15.031 -0.1378  0.1719  0.1816
  770MPD2    C411419   1.576   0.329  15.098  0.0715 -0.1271 -0.1421
  770MPD2    C511420   1.535   0.213  15.160 -0.5157  0.2337 -0.6386
  770MPD2     H11421   1.866   0.204  14.993  0.0642  1.4133  0.9349
  770MPD2    H111422   1.511   0.416  15.090 -0.1358 -0.3446 -0.8475
  770MPD2    H211423   1.562   0.003  15.211  0.8117 -0.4076 -0.2336
  770MPD2    H311424   1.430   0.214  15.185 -0.5939  0.1108 -0.9558
  770MPD2     N11425   1.757   0.424  14.960  0.2866 -0.0585 -0.6991
  770MPD2    H511426   1.844   0.405  14.912  0.6126 -0.0747 -0.1015
  770MPD2    N111427   1.792   4.700  15.090 -0.0731 -0.3471  0.2616
  770MPD2    H711428   1.751   4.617  15.132 -2.0736 -0.1239 -1.2489
  771MPD2     C11429   3.440   3.335  13.721  0.4337 -0.1015  0.5924
  771MPD2    C111430   3.356   3.438  13.738 -1.0380  0.2886 -1.0426
  771MPD2    C211431   3.239   3.439  13.663 -0.9976 -0.1689  0.0698
  771MPD2    C311432   3.204   3.345  13.570  0.0220  0.6082  0.5716
  771MPD2    C411433   3.290   3.239  13.563  0.2842  0.4156  0.4157
  771MPD2    C511434   3.406   3.238  13.629  1.1936  0.1671 -0.4212
  771MPD2     H11435   3.171   3.523  13.675 -1.0703 -0.3490  0.9692
  771MPD2    H111436   3.281   3.164  13.485 -2.0762 -1.5361  2.5619
  771MPD2    H211437   3.525   3.311  13.784 -1.4665 -2.9496  2.1102
  771MPD2    H311438   3.468   3.150  13.617  0.7954 -0.0663 -0.7703
  771MPD2     N11439   3.078   3.354  13.502  0.2329  0.6072 -0.1166
  771MPD2    H511440   3.017   3.430  13.529 -1.4557 -0.3009 -1.3862
  771MPD2    N111441   3.382   3.552  13.814  0.2334  0.1829  0.4007
  771MPD2    H711442   3.306   3.619  13.810  0.5114  0.5394  1.0370
  772MPD2     C11443   3.180   4.079  14.289 -0.0910  0.7558  0.7085
  772MPD2    C111444   3.168   3.969  14.206  0.5928  0.3813 -1.4272
  772MPD2    C211445   3.049   3.902  14.191  0.0063  0.5422  0.6295
  772MPD2    C311446   2.940   3.956  14.258 -0.6483  0.2476  0.2739
  772MPD2    C411447   2.954   4.049  14.351  0.1039 -0.4555 -0.1983
  772MPD2    C511448   3.075   4.106  14.370  0.3520 -0.3091 -0.5336
  772MPD2     H11449   3.036   3.819  14.123 -0.9201 -0.6589  2.2810
  772MPD2    H111450   2.866   4.083  14.404 -0.9077 -2.8106 -0.3587
  772MPD2    H211451   3.265   4.145  14.289  0.3538  0.1847  0.0568
  772MPD2    H311452   3.087   4.197  14.429 -1.1621 -0.1033 -0.5257
  772MPD2     N11453   2.806   3.911  14.244 -0.2885  0.1122  0.4106
  772MPD2    H511454   2.738   3.968  14.292 -0.5248 -1.2773  1.6994
  772MPD2    N111455   3.268   3.926  14.122 -0.4359 -0.1814  0.2022
  772MPD2    H711456   3.248   3.835  14.081 -1.5032 -0.8871  2.3025
  773MPD2     C11457   2.364   4.225   0.436 -0.3089 -0.6750 -0.0670
  773MPD2    C111458   2.325   4.131   0.337 -0.9592  0.0367 -1.0685
  773MPD2    C211459   2.391   4.012   0.342  0.2013  0.1029 -0.3689
  773MPD2    C311460   2.506   3.992   0.417 -0.1989 -0.3382  0.4869
  773MPD2    C411461   2.539   4.087   0.515  0.3469 -0.6901 -0.3157
  773MPD2    C511462   2.462   4.204   0.527  0.2209  0.1096  0.1553
  773MPD2     H11463   2.373   3.930   0.273  0.0526 -0.8432  0.7857
  773MPD2    H111464   2.636   4.081   0.564 -0.6433  0.0978  1.7742
  773MPD2    H211465   2.317   4.322   0.441 -0.2769 -0.6437 -0.3978
  773MPD2    H311466   2.485   4.287   0.593 -0.8328  0.3958  0.1605
  773MPD2     N11467   2.578   3.874   0.398  0.0179  0.2924  0.5605
  773MPD2    H511468   2.537   3.819   0.324  0.6679  0.0633  0.3722
  773MPD2    N111469   2.220   4.145   0.242  0.8084 -0.8480 -0.3495
  773MPD2    H711470   2.195   4.061   0.190 -1.2112 -0.6721  0.3723
  774MPD2     C11471   1.988   4.024  13.563 -0.3393  0.3809  0.3674
  774MPD2    C111472   1.861   4.061  13.588  0.3448 -0.3804 -0.0633
  774MPD2    C211473   1.827   4.193  13.570 -0.0577  1.1413 -0.3699
  774MPD2    C311474   1.918   4.291  13.541  0.7813 -0.5226  0.6520
  774MPD2    C411475   2.054   4.253  13.518 -0.3760 -0.2338  0.5376
  774MPD2    C511476   2.086   4.117  13.529 -0.2225  0.0425  0.4517
  774MPD2     H11477   1.723   4.215  13.593 -0.7515 -1.5103 -0.8848
  774MPD2    H111478   2.129   4.330  13.504 -2.0359  1.1010 -1.1664
  774MPD2    H211479   2.013   3.920  13.582  1.4009  0.8382  0.5997
  774MPD2    H311480   2.185   4.073  13.521 -0.6985 -1.0819  0.7562
  774MPD2     N11481   1.876   4.428  13.538 -0.5688  0.4407 -0.3894
  774MPD2    H511482   1.779   4.452  13.556 -0.2224  1.0071  0.7251
  774MPD2    N111483   1.768   3.958  13.610 -0.4355 -0.3854  0.2571
  774MPD2    H711484   1.802   3.862  13.617  0.2170 -0.3467 -2.4972
  775MPD2     C11485   2.565   0.103  15.561  0.5461  0.1305 -0.0693
  775MPD2    C111486   2.667   0.152  15.637  1.2803 -0.3389 -0.2389
  775MPD2    C211487   2.748   0.258  15.593 -0.6081 -0.0641  0.3482
  775MPD2    C311488   2.726   0.312  15.466 -0.0990 -0.6846  0.2767
  775MPD2    C411489   2.629   0.254  15.386 -0.3594  0.2074  0.6571
  775MPD2    C511490   2.548   0.158  15.439  0.4920  0.3496 -0.5919
  775MPD2     H11491   2.818   0.309  15.658 -0.0420  0.3743 -0.5933
  775MPD2    H111492   2.600   0.304  15.294  0.4364  1.5016  1.1132
  775MPD2    H211493   2.493   0.035  15.605  0.4529 -0.1994 -0.7197
  775MPD2    H311494   2.461   0.126  15.383 -0.0246  2.5731 -1.0547
  775MPD2     N11495   2.817   0.401  15.414  0.3110 -0.7723 -0.7685
  775MPD2    H511496   2.811   0.404  15.312 -0.8209 -0.8579 -0.6970
  775MPD2    N111497   2.680   0.091  15.763  0.0249  0.6400  0.4762
  775MPD2    H711498   2.619   0.012  15.779 -0.6854  0.6505 -2.1331
  776MPD2     C11499   1.674   1.006  11.127 -0.0839 -0.6229 -0.4984
  776MPD2    C111500   1.731   1.007  11.254 -0.2080 -0.2039  0.3405
  776MPD2    C211501   1.790   1.124  11.303 -0.2916  0.8559  0.0708
  776MPD2    C311502   1.801   1.239  11.225 -0.1441  0.0066  0.2429
  776MPD2    C411503   1.751   1.227  11.096  0.3517 -0.2495 -0.6066
  776MPD2    C511504   1.689   1.112  11.040  0.2416 -0.6558 -0.2483
  776MPD2     H11505   1.844   1.122  11.397 -0.8911 -0.8564  0.3741
  776MPD2    H111506   1.763   1.311  11.028  2.1456 -0.2218 -0.2420
  776MPD2    H211507   1.617   0.917  11.105  1.3789 -1.2626 -1.7535
  776MPD2    H311508   1.655   1.115  10.937 -0.3991  1.3597  0.0133
  776MPD2     N11509   1.861   1.360  11.269  0.1978 -0.9164  0.3520
  776MPD2    H511510   1.873   1.434  11.200  2.0582 -0.7467  0.8436
  776MPD2    N111511   1.715   0.888  11.330 -0.1595 -0.1689 -0.1540
  776MPD2    H711512   1.664   0.811  11.290 -0.7522 -0.3288  0.9074
  777MPD2     C11513   2.180   2.726   0.588 -0.4612 -0.2983 -0.2678
  777MPD2    C111514   2.233   2.609   0.630 -0.4153 -0.4161  0.0717
  777MPD2    C211515   2.177   2.487   0.589 -0.5292  0.0874 -0.0773
  777MPD2    C311516   2.074   2.490   0.505  0.1988  0.3854 -0.1831
  777MPD2    C411517   2.008   2.607   0.473  0.3573  0.0952 -0.6417
  777MPD2    C511518   2.064   2.722   0.519  0.2274 -0.4378 -0.2246
  777MPD2     H11519   2.227   2.392   0.607 -0.4397  0.6984  2.8851
  777MPD2    H111520   1.916   2.617   0.416  0.3055  0.5422 -0.4769
  777MPD2    H211521   2.217   2.821   0.625  2.4859 -1.4298 -0.3176
  777MPD2    H311522   2.015   2.816   0.496  0.1016  0.0281  1.9855
  777MPD2     N11523   2.025   2.368   0.448 -0.3036  0.2242  0.4570
  777MPD2    H511524   2.052   2.280   0.491  0.2121  1.2432  2.2336
  777MPD2    N111525   2.338   2.625   0.728  0.1180  0.3515  0.1304
  777MPD2    H711526   2.377   2.717   0.743  0.4050  0.4786 -1.3902
  778MPD2     C11527   3.612   3.454  14.588 -0.1288  0.1019  0.9284
  778MPD2    C111528   3.637   3.336  14.517 -0.2133  0.0992  0.0382
  778MPD2    C211529   3.750   3.333  14.433  0.2001  0.0839  0.0335
  778MPD2    C311530   3.829   3.442  14.417  0.3312 -1.1015 -0.0351
  778MPD2    C411531   3.795   3.553  14.490  0.0474 -0.1320 -0.4022
  778MPD2    C511532   3.689   3.564  14.574 -0.4456  0.1134 -0.9566
  778MPD2     H11533   3.784   3.249  14.373  0.2200 -0.3038  0.5971
  778MPD2    H111534   3.842   3.648  14.468  1.3916 -0.5163  0.8464
  778MPD2    H211535   3.523   3.459  14.650 -3.0622 -1.1085 -3.1735
  778MPD2    H311536   3.666   3.659  14.620  0.3149 -0.8106  1.3156
  778MPD2     N11537   3.944   3.452  14.331 -0.5060 -0.4244  0.3261
  778MPD2    H511538   3.983   3.545  14.328  0.5446 -0.8798 -0.5681
  778MPD2    N111539   3.557   3.225  14.534  0.3384 -0.2759 -0.8811
  778MPD2    H711540   3.577   3.153  14.465  1.3882 -0.2819 -0.5647
  779MPD2     C11541   2.729   1.811  13.932 -0.2713 -0.5259 -0.0593
  779MPD2    C111542   2.857   1.777  13.969 -0.0716 -0.0407  0.1899
  779MPD2    C211543   2.957   1.882  13.972  0.6716 -0.2205  0.2322
  779MPD2    C311544   2.924   2.003  13.922  0.2980 -0.4718  0.1209
  779MPD2    C411545   2.799   2.027  13.866 -0.4329  0.4171  1.0564
  779MPD2    C511546   2.702   1.932  13.867 -0.4024 -0.5162  0.4378
  779MPD2     H11547   3.059   1.858  13.998  0.5011 -0.1466  0.9580
  779MPD2    H111548   2.756   2.116  13.821 -1.9715  0.6768  3.0104
  779MPD2    H211549   2.649   1.739  13.943 -0.4513 -0.3052  0.0912
  779MPD2    H311550   2.605   1.959  13.827  0.1224 -1.5442 -1.5196
  779MPD2     N11551   3.026   2.102  13.926  0.0272 -0.0374 -0.3155
  779MPD2    H511552   3.111   2.076  13.975  0.0419  0.5260 -0.0292
  779MPD2    N111553   2.885   1.646  14.017 -0.5449  0.2594  0.1458
  779MPD2    H711554   2.981   1.643  14.051  0.3880  3.6038 -2.1229
  780MPD2     C11555   2.407   1.809   0.911 -0.9621 -0.2509 -0.4426
  780MPD2    C111556   2.399   1.753   0.785 -0.1161  0.5939  0.4996
  780MPD2    C211557   2.503   1.734   0.702  0.6411  0.7581  0.3129
  780MPD2    C311558   2.629   1.772   0.744  0.0011  0.2210  0.1305
  780MPD2    C411559   2.636   1.837   0.867  0.6719  0.0968  0.0147
  780MPD2    C511560   2.520   1.851   0.953 -0.8643  0.3869 -0.3507
  780MPD2     H11561   2.493   1.691   0.603  0.6265  2.3703 -0.3808
  780MPD2    H111562   2.730   1.872   0.907  0.7337 -0.4140  0.3205
  780MPD2    H211563   2.323   1.842   0.971  0.0268 -0.4433  1.0718
  780MPD2    H311564   2.529   1.911   1.043  0.9925 -0.0470 -0.2406
  780MPD2     N11565   2.739   1.738   0.662 -0.1501  0.3937 -0.2066
  780MPD2    H511566   2.720   1.707   0.567  1.6057  1.1495 -0.8153
  780MPD2    N111567   2.267   1.709   0.761  0.6194  0.0688 -0.0197
  780MPD2    H711568   2.200   1.704   0.837  0.5413 -1.8825 -0.2112
  781MPD2     C11569   4.237   3.675  11.765  0.0522 -0.5683  0.2341
  781MPD2    C111570   4.169   3.796  11.786  0.2173 -0.4684 -0.4499
  781MPD2    C211571   4.099   3.857  11.684  0.6095 -0.1627 -0.5118
  781MPD2    C311572   4.115   3.810  11.552  0.6234  0.4411 -0.7980
  781MPD2    C411573   4.165   3.679  11.537  0.5215 -0.4255 -0.1395
  781MPD2    C511574   4.223   3.614  11.642  0.2891 -0.0147  0.4040
  781MPD2     H11575   4.042   3.944  11.714  0.3158 -0.6415  0.3140
  781MPD2    H111576   4.158   3.640  11.436 -1.0319 -0.1503 -0.1327
  781MPD2    H211577   4.292   3.627  11.845  0.8806 -0.2819 -0.1656
  781MPD2    H311578   4.275   3.521  11.626  0.0236  0.0002 -0.5708
  781MPD2     N11579   4.076   3.886  11.440  0.7896  0.3274 -0.3650
  781MPD2    H511580   4.094   3.842  11.350  0.3827 -0.0341 -0.2707
  781MPD2    N111581   4.167   3.860  11.911  0.1212  0.1491 -0.1888
  781MPD2    H711582   4.108   3.942  11.917  1.5748  1.1042  1.0240
  782MPD2     C11583   1.366   4.352  10.030  0.1765  0.1401  0.1776
  782MPD2    C111584   1.499   4.334  10.036 -0.3291  0.3002  0.1943
  782MPD2    C211585   1.581   4.445  10.045  0.3292 -0.1909  0.5754
  782MPD2    C311586   1.539   4.571  10.057 -0.5547 -0.2263  0.5968
  782MPD2    C411587   1.403   4.591  10.047  0.0842  0.0715 -0.7688
  782MPD2    C511588   1.316   4.481  10.035  0.2205  0.3214 -0.0093
  782MPD2     H11589   1.689   4.434  10.039  0.4515  1.0869  0.4389
  782MPD2    H111590   1.350   4.685  10.048 -2.2528 -1.2562  0.3996
  782MPD2    H211591   1.298   4.273   9.999  1.2549 -0.3145 -1.0073
  782MPD2    H311592   1.210   4.505  10.034 -0.6569 -3.4999 -0.9992
  782MPD2     N11593   1.627   4.668  10.093 -1.1050  0.3507  0.3712
  782MPD2    H511594   1.719   4.626  10.093 -1.7271 -0.9612 -1.6999
  782MPD2    N111595   1.553   4.197  10.038  0.5864 -0.2213  0.2199
  782MPD2    H711596   1.480   4.127  10.044  1.2884 -0.9366  0.4764
  783MPD2     C11597   1.404   3.992  10.769 -0.4426 -0.2356  0.0483
  783MPD2    C111598   1.494   4.089  10.718 -0.1006 -0.1623 -0.0683
  783MPD2    C211599   1.563   4.075  10.605 -0.0681  0.3214  0.2372
  783MPD2    C311600   1.547   3.957  10.535  1.0268  0.7268 -0.4179
  783MPD2    C411601   1.447   3.872  10.574 -0.8623 -0.1465  0.0439
  783MPD2    C511602   1.373   3.887  10.690  1.2718 -0.1503 -0.0654
  783MPD2     H11603   1.623   4.152  10.556  1.1231  0.2087  1.5232
  783MPD2    H111604   1.411   3.789  10.513  2.2001 -2.8969  1.9596
  783MPD2    H211605   1.331   4.024  10.842  1.6865  1.4603  1.4339
  783MPD2    H311606   1.299   3.814  10.719  0.9314  0.3154  0.2366
  783MPD2     N11607   1.608   3.938  10.409 -0.5749  0.3579 -0.0816
  783MPD2    H511608   1.670   4.012  10.377  1.1034 -0.7904  0.5257
  783MPD2    N111609   1.502   4.192  10.810  0.5890 -0.2574  0.2768
  783MPD2    H711610   1.445   4.186  10.894  1.0518  1.2582  0.6980
  784MPD2     C11611   4.565   4.381   0.691 -0.3259 -0.0294  0.3384
  784MPD2    C111612   4.608   4.505   0.747  0.4186 -0.2434  0.1766
  784MPD2    C211613   4.520   4.611   0.748 -0.1359 -0.1579  0.6368
  784MPD2    C311614   4.399   4.606   0.688 -0.0206  0.1188  0.4455
  784MPD2    C411615   4.357   4.482   0.629  0.5351  0.4908  0.2117
  784MPD2    C511616   4.439   4.371   0.638  0.4143 -0.0914 -0.6594
  784MPD2     H11617   4.547   4.706   0.793  1.2905 -1.1224  1.7932
  784MPD2    H111618   4.259   4.456   0.590 -1.3279  0.7900  4.6805
  784MPD2    H211619   4.636   4.300   0.692 -0.7441 -0.3701  2.2607
  784MPD2    H311620   4.404   4.271   0.612 -0.7410  0.0005  0.5472
  784MPD2     N11621   4.312   4.717   0.686  0.3649 -0.0709 -0.3294
  784MPD2    H511622   4.336   0.061   0.738  1.8588 -1.0710  0.6006
  784MPD2    N111623   0.000   4.522   0.799  0.1633  0.7415  0.0241
  784MPD2    H711624   0.040   4.612   0.826  0.5845 -0.2192  2.6387
  785MPD2     C11625   4.280   3.290  10.809  0.3194  0.4392 -0.7939
  785MPD2    C111626   4.187   3.351  10.735  0.0711  0.6739 -0.6787
  785MPD2    C211627   4.158   3.277  10.620 -0.1336  0.1407  0.1519
  785MPD2    C311628   4.212   3.152  10.584 -0.1640  0.1765  0.6144
  785MPD2    C411629   4.304   3.097  10.666  0.1152  0.6229  0.3837
  785MPD2    C511630   4.342   3.167  10.774 -0.5024 -0.4847 -0.6641
  785MPD2     H11631   4.104   3.323  10.538 -2.4536 -0.8615  1.1096
  785MPD2    H111632   4.357   3.004  10.647 -0.4996  0.0210  1.6120
  785MPD2    H211633   4.321   3.343  10.894  1.5873 -1.2187 -0.3756
  785MPD2    H311634   4.420   3.137  10.844 -0.5682  1.0215  0.0528
  785MPD2     N11635   4.176   3.108  10.456 -0.4396  0.4197 -0.4580
  785MPD2    H511636   4.097   3.155  10.413 -0.7151  0.5374  0.1609
  785MPD2    N111637   4.131   3.478  10.768 -0.2552 -0.3780 -0.1450
  785MPD2    H711638   4.179   3.531  10.840  0.9481 -1.4055 -0.1837
  786MPD2     C11639   3.795   1.710  14.804  0.1095  0.9613  0.0450
  786MPD2    C111640   3.826   1.580  14.833 -0.3487 -0.2492 -0.1265
  786MPD2    C211641   3.856   1.542  14.962 -0.5396  0.2421  0.4024
  786MPD2    C311642   3.850   1.637  15.062 -0.1457 -0.0061  0.0104
  786MPD2    C411643   3.827   1.768  15.033 -0.0401 -0.0321 -1.2909
  786MPD2    C511644   3.800   1.808  14.898  0.1208  0.5599  0.4221
  786MPD2     H11645   3.868   1.438  14.989  0.4600 -0.3791 -2.4394
  786MPD2    H111646   3.828   1.842  15.112 -1.0610 -2.7681  1.2395
  786MPD2    H211647   3.760   1.746  14.708  0.5991  1.1621 -0.0584
  786MPD2    H311648   3.784   1.914  14.882 -1.3932  0.4339  1.1036
  786MPD2     N11649   3.886   1.595  15.192  0.3922  0.0003  0.6883
  786MPD2    H511650   3.925   1.503  15.209  0.1348 -0.4860 -1.3201
  786MPD2    N111651   3.839   1.477  14.734 -0.2233 -0.0421  0.2808
  786MPD2    H711652   3.864   1.383  14.765  0.4932  0.2153  0.4754
  787MPD2     C11653   3.460   0.957  14.835 -0.6092  0.1497 -0.3655
  787MPD2    C111654   3.576   0.940  14.767  0.3438 -0.5113 -0.1467
  787MPD2    C211655   3.654   0.826  14.793  0.8966  0.3161  0.6281
  787MPD2    C311656   3.616   0.727  14.880 -0.2898  0.0515  0.2379
  787MPD2    C411657   3.506   0.754  14.955  0.7226  0.0735  0.5546
  787MPD2    C511658   3.427   0.867  14.931 -0.1620  0.5444 -0.3096
  787MPD2     H11659   3.748   0.812  14.741  0.8859 -0.5209  0.8413
  787MPD2    H111660   3.470   0.678  15.023 -0.3297 -0.7692 -0.9616
  787MPD2    H211661   3.409   1.053  14.828  0.4403  0.6791 -0.6034
  787MPD2    H311662   3.339   0.898  14.986 -0.0466 -0.0366  0.1925
  787MPD2     N11663   3.700   0.615  14.896 -0.2561 -0.6423  0.1107
  787MPD2    H511664   3.790   0.620  14.849 -0.6443 -0.0765 -0.5730
  787MPD2    N111665   3.620   1.043  14.678 -0.2811  0.1595  0.1866
  787MPD2    H711666   3.587   1.139  14.687  2.3806  1.2548 -1.5486
  788MPD2     C11667   1.114   4.257   0.910 -1.0278  0.0469 -0.0880
  788MPD2    C111668   1.171   4.197   0.801 -0.5335  0.2029  0.2272
  788MPD2    C211669   1.200   4.280   0.696  0.0570 -0.1585 -0.2829
  788MPD2    C311670   1.162   4.409   0.684  0.3769 -0.4089 -0.1312
  788MPD2    C411671   1.112   4.470   0.796 -0.1201  0.0525  0.1372
  788MPD2    C511672   1.097   4.395   0.906 -0.7981  0.3850  0.0284
  788MPD2     H11673   1.258   4.232   0.618  0.1788 -0.7616  0.1753
  788MPD2    H111674   1.096   4.577   0.800 -0.9004 -0.0316 -0.7132
  788MPD2    H211675   1.100   4.201   1.002 -1.9045 -1.3356 -1.0650
  788MPD2    H311676   1.077   4.444   1.001  1.1846  1.8992 -0.3477
  788MPD2     N11677   1.177   4.492   0.567  0.1479  0.7215  0.8004
  788MPD2    H511678   1.157   4.590   0.585  0.6377  1.0616 -0.5059
  788MPD2    N111679   1.173   4.057   0.787  0.4977 -0.3118 -0.2279
  788MPD2    H711680   1.222   4.007   0.713 -0.6486  1.1461 -1.9560
  789MPD2     C11681   1.130   3.742  16.441 -0.5331 -0.2191 -0.6351
  789MPD2    C111682   1.014   3.684  16.384  0.4017 -0.0429 -0.3618
  789MPD2    C211683   0.894   3.720  16.444  0.0693  0.2241  0.5492
  789MPD2    C311684   0.891   3.811  16.556 -0.4649  0.5274 -0.3060
  789MPD2    C411685   1.007   3.861  16.609 -0.3121  0.0576  0.3196
  789MPD2    C511686   1.128   3.817  16.556  0.1924 -0.2069  0.2972
  789MPD2     H11687   0.802   3.672  16.413 -0.8718  3.5599 -1.8197
  789MPD2    H111688   0.997   3.920  16.699  0.6189  0.3939  0.2023
  789MPD2    H211689   1.232   3.723  16.410 -0.3560 -0.2808 -0.0118
  789MPD2    H311690   1.219   3.852  16.603  0.1233 -0.0718  0.3305
  789MPD2     N11691   0.772   3.845  16.620  0.7245 -0.1182  0.6545
  789MPD2    H511692   0.782   3.912  16.695 -0.0458  1.1210 -0.3564
  789MPD2    N111693   1.007   3.609  16.261  0.7462 -0.3320  0.0285
  789MPD2    H711694   0.916   3.569  16.241  0.7219  0.2758 -1.0840
  790MPD2     C11695   2.552   1.034  13.613 -0.1381  0.5217  0.4518
  790MPD2    C111696   2.503   0.909  13.618 -0.5801 -0.0862  0.1982
  790MPD2    C211697   2.395   0.870  13.540 -0.6566 -0.8150 -0.0061
  790MPD2    C311698   2.315   0.969  13.483 -0.4512 -0.5561 -1.2043
  790MPD2    C411699   2.362   1.092  13.471  0.2582  0.4779 -0.8636
  790MPD2    C511700   2.482   1.126  13.535 -0.1561 -0.8018  0.4903
  790MPD2     H11701   2.359   0.767  13.542  0.5388 -1.2136  0.8298
  790MPD2    H111702   2.301   1.158  13.411  1.5964  2.4677 -0.0187
  790MPD2    H211703   2.636   1.067  13.673  0.3337 -2.9298  1.6971
  790MPD2    H311704   2.515   1.229  13.541 -1.5223 -0.3031 -0.5348
  790MPD2     N11705   2.201   0.926  13.407 -0.0735 -0.4475  0.0238
  790MPD2    H511706   2.196   0.827  13.386 -1.1616 -0.1879 -0.9347
  790MPD2    N111707   2.587   0.815  13.686  0.2836 -0.0335 -0.0228
  790MPD2    H711708   2.673   0.846  13.730  0.9599 -1.1547 -0.5594
  791MPD2     C11709   1.422   1.011  13.234  0.2612  0.1500  0.0469
  791MPD2    C111710   1.487   0.900  13.187  0.2566 -0.1294 -0.3612
  791MPD2    C211711   1.419   0.815  13.098 -0.3242  0.1740  0.5959
  791MPD2    C311712   1.286   0.837  13.055  0.0685 -0.5552  0.2456
  791MPD2    C411713   1.240   0.961  13.097  0.4415 -0.1920 -0.5123
  791MPD2    C511714   1.297   1.037  13.189 -0.3102  0.0870 -0.3483
  791MPD2     H11715   1.466   0.722  13.065  0.9761  0.2511  2.2349
  791MPD2    H111716   1.146   0.997  13.059 -1.2125 -2.2593  1.6346
  791MPD2    H211717   1.465   1.094  13.290  2.8094 -2.3449  1.8096
  791MPD2    H311718   1.262   1.138  13.206  2.1982  0.8181  0.3314
  791MPD2     N11719   1.222   0.759  12.960 -0.3985  0.0357 -0.1473
  791MPD2    H511720   1.277   0.682  12.923  2.2122  2.1213 -0.5597
  791MPD2    N111721   1.623   0.881  13.221 -0.1686  0.3999 -0.2029
  791MPD2    H711722   1.666   0.945  13.287  1.5743 -2.0117  0.9877
  792MPD2     C11723   1.847   0.704  10.789  0.4147  0.4570  0.1121
  792MPD2    C111724   1.851   0.735  10.921  0.3352 -0.3478 -0.5077
  792MPD2    C211725   1.753   0.693  11.005  0.6756 -0.6144  0.5407
  792MPD2    C311726   1.659   0.598  10.957  0.7734 -0.1074  0.1727
  792MPD2    C411727   1.672   0.554  10.829 -0.1482 -0.2152 -0.7355
  792MPD2    C511728   1.765   0.607  10.744  0.1782  0.6512 -0.7131
  792MPD2     H11729   1.760   0.723  11.108  0.7797 -1.4140  0.7715
  792MPD2    H111730   1.606   0.482  10.784  0.1399 -0.1914 -1.1920
  792MPD2    H211731   1.925   0.731  10.719  0.7730  0.8199  0.6508
  792MPD2    H311732   1.769   0.570  10.642  0.8912  1.2839 -0.9130
  792MPD2     N11733   1.552   0.547  11.034 -0.3452  0.2406 -0.0751
  792MPD2    H511734   1.487   0.484  10.988  0.3639  0.7620 -1.7916
  792MPD2    N111735   1.958   0.823  10.954 -0.0550  0.7673 -0.1452
  792MPD2    H711736   2.005   0.864  10.874  0.4830 -0.8541 -0.6501
  793MPD2     C11737   0.842   0.574  10.727  0.5106 -0.7372 -0.2062
  793MPD2    C111738   0.969   0.614  10.704  0.3479 -0.1755  0.8570
  793MPD2    C211739   1.039   0.642  10.824  0.2580 -0.0638 -0.8327
  793MPD2    C311740   0.984   0.626  10.954 -0.4865  0.4954  0.2404
  793MPD2    C411741   0.853   0.586  10.970 -0.0652  0.2020  0.1621
  793MPD2    C511742   0.788   0.557  10.851  0.8064  0.6287  0.3725
  793MPD2     H11743   1.144   0.662  10.804  0.6719  0.5706  1.9242
  793MPD2    H111744   0.791   0.578  11.059  1.2908  1.7472  1.2497
  793MPD2    H211745   0.781   0.534  10.646 -2.0555 -0.7102  1.7029
  793MPD2    H311746   0.692   0.510  10.868  2.5883 -1.8646  3.4392
  793MPD2     N11747   1.070   0.630  11.063 -0.3415  0.5165  0.3636
  793MPD2    H511748   1.169   0.642  11.044  0.3987 -1.6753  2.7892
  793MPD2    N111749   1.034   0.609  10.584 -0.1139 -0.3803 -0.3392
  793MPD2    H711750   1.136   0.613  10.579 -0.1576  1.4588  0.1372
  794MPD2     C11751   2.273   4.608  17.276  0.9947 -0.4336 -0.0336
  794MPD2    C111752   2.140   4.575  17.304 -0.6289 -0.0035  0.1322
  794MPD2    C211753   2.044   4.616  17.207  0.3802  0.0405  0.2874
  794MPD2    C311754   2.076   4.699  17.099  0.2935 -0.1071 -0.8193
  794MPD2    C411755   2.207   4.729  17.078 -0.2721  0.9754  0.4627
  794MPD2    C511756   2.306   4.688  17.169  0.4671  0.6523 -0.6356
  794MPD2     H11757   1.943   4.583  17.227 -0.1152  2.0694  1.1447
  794MPD2    H111758   2.235   0.046  16.990  0.1232  1.2347  0.7566
  794MPD2    H211759   2.358   4.572  17.334  1.9350  0.6360 -0.7434
  794MPD2    H311760   2.411   4.710  17.160  0.0796  2.6286 -0.3560
  794MPD2     N11761   1.976   0.008  17.013 -0.2787 -0.4928  0.2889
  794MPD2    H511762   2.012   0.072  16.944 -1.6362 -2.5680 -2.3465
  794MPD2    N111763   2.095   4.493  17.414  0.3906 -0.6652  0.2639
  794MPD2    H711764   1.997   4.467  17.419  0.0980  0.6903  1.4347
  795MPD2     C11765   4.261   2.730  13.786 -0.4466  0.0133 -0.1768
  795MPD2    C111766   4.210   2.612  13.737 -0.7305  0.8643 -0.5387
  795MPD2    C211767   4.253   2.494  13.784  0.1115 -0.5871  0.0659
  795MPD2    C311768   4.352   2.487  13.877 -0.2563 -0.0907  0.1885
  795MPD2    C411769   4.406   2.607  13.923  0.3724  0.1425 -0.3231
  795MPD2    C511770   4.364   2.728  13.876  0.6930 -0.4088  0.2357
  795MPD2     H11771   4.217   2.405  13.733 -0.3838 -0.1594 -0.3383
  795MPD2    H111772   4.495   2.610  13.985  1.0711  0.2347 -1.3449
  795MPD2    H211773   4.247   2.823  13.732  0.9886  0.2294 -0.1740
  795MPD2    H311774   4.404   2.825  13.904  1.8968 -0.9624  0.4607
  795MPD2     N11775   4.418   2.375  13.921 -0.1408  0.3772 -0.3318
  795MPD2    H511776   4.501   2.388  13.978  1.3146 -5.4282 -1.1422
  795MPD2    N111777   4.095   2.613  13.649  0.3244 -0.3733 -0.3654
  795MPD2    H711778   4.078   2.531  13.591  0.8444 -0.9790  0.3360
  796MPD2     C11779   3.530   3.458  15.628  0.1725 -0.2737 -0.1115
  796MPD2    C111780   3.571   3.553  15.723 -0.0765  0.1611 -0.3175
  796MPD2    C211781   3.629   3.670  15.666  0.1313 -0.5132  0.1611
  796MPD2    C311782   3.631   3.694  15.531  0.7513  0.4728 -0.0906
  796MPD2    C411783   3.565   3.610  15.448  0.4902 -0.0058  0.8794
  796MPD2    C511784   3.521   3.495  15.496 -0.1477 -0.3835  0.1193
  796MPD2     H11785   3.681   3.738  15.733 -0.2675  0.8798 -0.9317
  796MPD2    H111786   3.557   3.627  15.341  1.7382  2.1159  1.1388
  796MPD2    H211787   3.478   3.367  15.655  0.2766  0.2509  1.8529
  796MPD2    H311788   3.475   3.434  15.419  0.2442  1.8907 -1.9080
  796MPD2     N11789   3.685   3.821  15.491  0.9498 -0.8670 -0.4931
  796MPD2    H511790   3.730   3.870  15.567 -1.9880 -0.1793  0.8175
  796MPD2    N111791   3.573   3.528  15.861 -0.7950  0.4127 -0.0695
  796MPD2    H711792   3.533   3.444  15.901  1.1071  0.8497  2.7396
  797MPD2     C11793   4.681   3.356  17.015  0.3466  0.1524 -0.2610
  797MPD2    C111794   4.727   3.487  17.035 -0.5955  0.5727 -0.3440
  797MPD2    C211795   4.671   3.591  16.963 -0.2157 -0.7128  0.3119
  797MPD2    C311796   4.572   3.572  16.867  0.7906 -0.1482 -0.4506
  797MPD2    C411797   4.525   3.439  16.847  0.0586  0.1939  0.2374
  797MPD2    C511798   4.588   3.335  16.918 -0.2366 -0.2497  1.0030
  797MPD2     H11799   4.701   3.693  16.984 -0.6151 -0.8427  1.5328
  797MPD2    H111800   4.441   3.411  16.784  1.7404 -0.8630 -1.5151
  797MPD2    H211801   4.722   3.270  17.067 -1.6849 -1.9038 -2.0313
  797MPD2    H311802   4.569   3.236  16.880 -3.2697  0.2090  1.2465
  797MPD2     N11803   4.523   3.687  16.795 -0.0715  0.2504 -0.3282
  797MPD2    H511804   4.583   3.766  16.815  0.6016 -0.2657 -0.3066
  797MPD2    N111805   0.074   3.522  17.140  0.8196  0.6813  0.2586
  797MPD2    H711806   0.115   3.615  17.147 -0.3990  1.2659 -0.4556
  798MPD2     C11807   4.418   4.106  17.259  0.3293  0.0527 -0.2493
  798MPD2    C111808   4.502   4.069  17.156  0.5498 -0.1307 -0.8165
  798MPD2    C211809   4.619   4.009  17.199  0.4452 -0.1318 -0.1225
  798MPD2    C311810   4.646   3.980  17.330 -0.2184 -0.3733  0.4731
  798MPD2    C411811   4.569   4.030  17.433  0.5590  0.0755  0.6687
  798MPD2    C511812   4.455   4.090  17.393  0.0817 -0.3259  0.0666
  798MPD2     H11813   4.692   3.974  17.127  1.0642  0.5523  0.1688
  798MPD2    H111814   4.572   3.999  17.537 -2.4664  0.9119  1.0059
  798MPD2    H211815   4.331   4.166  17.234 -0.1505 -0.9099 -0.8845
  798MPD2    H311816   4.386   4.118  17.471 -3.1567 -0.9278 -2.5681
  798MPD2     N11817   0.016   3.886  17.346 -0.6616  1.0261 -0.1575
  798MPD2    H511818   0.052   3.844  17.261 -0.9500 -0.0942  0.2674
  798MPD2    N111819   4.464   4.086  17.024 -0.3274 -0.0850 -0.1830
  798MPD2    H711820   4.381   4.142  17.008  0.7031  1.6437  0.5069
  799MPD2     C11821   3.265   4.563  14.610  0.1345 -0.0615  0.1354
  799MPD2    C111822   3.388   4.614  14.581  0.2039  1.0355 -0.3191
  799MPD2    C211823   3.402   4.721  14.491 -0.6825 -0.0963 -0.2242
  799MPD2    C311824   3.289   0.044  14.435  0.2815  0.6335  0.2810
  799MPD2    C411825   3.170   4.727  14.460  0.2212  0.5303  0.2237
  799MPD2    C511826   3.159   4.617  14.541 -0.0648  0.3040  0.3266
  799MPD2     H11827   3.499   0.017  14.459  0.3333 -1.8656  0.8570
  799MPD2    H111828   3.082   0.026  14.409  0.5178  2.6107  1.2875
  799MPD2    H211829   3.246   4.477  14.674 -0.2448  0.5761  0.8763
  799MPD2    H311830   3.059   4.585  14.569 -0.4571 -2.5258 -4.3476
  799MPD2     N11831   3.298   0.151  14.343 -1.3204 -0.4793 -0.2773
  799MPD2    H511832   3.209   0.178  14.303 -0.3899  1.4766 -1.0654
  799MPD2    N111833   3.504   4.549  14.637 -0.2806 -0.8304 -0.1731
  799MPD2    H711834   3.597   4.588  14.638 -0.5067 -0.2696 -1.6378
  800MPD2     C11835   4.047   1.050  13.903  0.1890  1.2940  0.3333
  800MPD2    C111836   4.124   1.163  13.878  0.6796  0.3676  0.4750
  800MPD2    C211837   4.165   1.190  13.744 -0.2430 -0.8163  0.2919
  800MPD2    C311838   4.155   1.089  13.654  0.1945  0.0841  0.2405
  800MPD2    C411839   4.081   0.975  13.680  0.1482  0.7577 -0.3390
  800MPD2    C511840   4.018   0.963  13.797 -0.1067 -0.0975  1.0495
  800MPD2     H11841   4.227   1.274  13.715 -1.2596 -0.9949 -2.4040
  800MPD2    H111842   4.065   0.897  13.606 -1.6823 -0.1341  0.9564
  800MPD2    H211843   4.002   1.027  13.999 -1.0805  0.0697 -0.5753
  800MPD2    H311844   3.954   0.877  13.810 -1.6966  0.6618 -1.5650
  800MPD2     N11845   4.236   1.109  13.537  0.5575 -0.3566 -0.0801
  800MPD2    H511846   4.282   1.199  13.537 -0.7146  0.3065  2.7101
  800MPD2    N111847   4.164   1.249  13.979 -0.2071  0.0982  0.6832
  800MPD2    H711848   4.157   1.213  14.073  1.1865  1.3980  1.2926
  801MPD2     C11849   4.533   2.004  14.227 -0.2618 -0.5260  0.7526
  801MPD2    C111850   4.413   1.941  14.208 -0.2184 -0.0644 -0.3314
  801MPD2    C211851   4.298   2.013  14.226 -0.4655  0.4490  0.8339
  801MPD2    C311852   4.302   2.149  14.252  0.3498 -0.0018  0.6376
  801MPD2    C411853   4.422   2.209  14.273  0.0797 -0.2913  0.8039
  801MPD2    C511854   4.534   2.139  14.257 -0.0545  0.3891 -0.3151
  801MPD2     H11855   4.204   1.962  14.210 -0.7509  1.5464 -0.9729
  801MPD2    H111856   4.441   2.310  14.308  1.1916  0.2548 -1.3787
  801MPD2    H211857   4.629   1.954  14.227 -0.4563 -0.8968  0.1778
  801MPD2    H311858   4.630   2.188  14.273 -0.2333  0.0253  1.8616
  801MPD2     N11859   4.182   2.215  14.287 -0.0045  0.3738 -0.0667
  801MPD2    H511860   4.187   2.302  14.338 -3.0682  0.1595  0.5856
  801MPD2    N111861   4.395   1.802  14.171 -0.0549 -0.0738  0.0855
  801MPD2    H711862   4.298   1.772  14.179  0.3796 -1.0301  1.8464
  802MPD2     C11863   4.097   2.667   0.698  0.4554  0.4256  0.0936
  802MPD2    C111864   4.011   2.562   0.668  0.0610  0.3157  0.4511
  802MPD2    C211865   4.031   2.489   0.554  0.2152  0.5926  0.5577
  802MPD2    C311866   4.111   2.527   0.452 -0.0944  0.0930  1.1771
  802MPD2    C411867   4.186   2.637   0.480 -0.8097 -0.5265  0.4678
  802MPD2    C511868   4.180   2.703   0.601  0.7364  0.2201  0.1062
  802MPD2     H11869   3.966   2.405   0.532  1.3250  0.2257 -1.2777
  802MPD2    H111870   4.251   2.668   0.399 -2.1789  0.4354 -0.2669
  802MPD2    H211871   4.095   2.721   0.792  0.0797 -2.0699  1.5514
  802MPD2    H311872   4.247   2.787   0.617  0.3026  0.3060  1.5061
  802MPD2     N11873   4.125   2.448   0.334  0.4981  0.5872  0.3755
  802MPD2    H511874   4.091   2.353   0.340 -0.4320  0.8880 -0.0693
  802MPD2    N111875   3.915   2.500   0.756  0.1510 -0.0351 -0.1563
  802MPD2    H711876   3.858   2.424   0.718 -2.0083  1.4059  0.2271
  803MPD2     C11877   4.409   0.530  11.557  0.1193  0.4399  0.1314
  803MPD2    C111878   4.439   0.664  11.569  0.8971  0.2223  0.6460
  803MPD2    C211879   4.524   0.706  11.673  0.5977  0.1287 -0.0157
  803MPD2    C311880   4.569   0.616  11.764  0.2538  0.4759 -1.0379
  803MPD2    C411881   4.532   0.481  11.761  0.3647 -0.0391  0.3624
  803MPD2    C511882   4.454   0.443  11.652  0.5340 -0.1307 -0.1212
  803MPD2     H11883   4.543   0.812  11.683 -3.3319  0.8343  0.1025
  803MPD2    H111884   4.553   0.408  11.838  2.6431  1.5662  1.2564
  803MPD2    H211885   4.355   0.475  11.481 -1.0533  0.4034  0.9877
  803MPD2    H311886   4.421   0.341  11.635  2.1529 -0.5672 -0.5861
  803MPD2     N11887   4.636   0.654  11.881 -0.6676 -0.4724 -0.2119
  803MPD2    H511888   4.653   0.588  11.956 -0.6928  2.2591  2.1920
  803MPD2    N111889   4.404   0.760  11.468  0.5614  0.2448 -0.0753
  803MPD2    H711890   4.445   0.851  11.483  2.4578 -0.8665  1.6025
  804MPD2     C11891   0.230   1.714  17.119  0.1727 -0.0708  0.4739
  804MPD2    C111892   0.128   1.725  17.218 -0.0768  0.2357  0.0144
  804MPD2    C211893   0.116   1.844  17.286 -0.0505 -0.4874 -0.0335
  804MPD2    C311894   0.189   1.961  17.243  0.4459 -0.6074 -0.1301
  804MPD2    C411895   0.284   1.944  17.142 -0.1418 -0.5688  0.7187
  804MPD2    C511896   0.303   1.823  17.083  0.3776 -0.0700  0.2684
  804MPD2     H11897   0.048   1.861  17.368 -0.3735  0.4432 -0.4962
  804MPD2    H111898   0.347   2.029  17.117  0.6967 -0.9534  1.5303
  804MPD2    H211899   0.259   1.622  17.070  2.1467  1.0348 -0.4502
  804MPD2    H311900   0.374   1.825  17.001  0.2417  0.3293  0.1592
  804MPD2     N11901   0.161   2.084  17.299 -0.3322 -0.4843 -0.8020
  804MPD2    H511902   0.089   2.088  17.370 -1.4878 -0.1866 -1.9782
  804MPD2    N111903   0.061   1.611  17.267 -0.5087  0.1544  0.1059
  804MPD2    H711904   4.732   1.627  17.339 -1.4443  2.1005 -1.2328
  805MPD2     C11905   3.229   0.356  15.482  0.4794  0.0474  0.2206
  805MPD2    C111906   3.334   0.298  15.411  0.2002  0.8735  0.2082
  805MPD2    C211907   3.458   0.318  15.464 -0.0670  0.2945 -0.4793
  805MPD2    C311908   3.480   0.407  15.575 -0.3308 -0.2803 -0.1980
  805MPD2    C411909   3.375   0.466  15.635  0.1041 -0.3400  0.1286
  805MPD2    C511910   3.249   0.451  15.579 -0.1208 -0.0733 -0.5395
  805MPD2     H11911   3.548   0.269  15.428  1.3164  0.3097  2.8833
  805MPD2    H111912   3.395   0.541  15.710 -1.4886  0.1228  0.0944
  805MPD2    H211913   3.125   0.332  15.468  0.7668  1.5700 -4.5480
  805MPD2    H311914   3.163   0.475  15.640  0.0210 -0.9531 -0.0037
  805MPD2     N11915   3.612   0.414  15.625  0.1277  0.1424 -0.4206
  805MPD2    H511916   3.690   0.378  15.571  0.4728  0.9939 -0.4910
  805MPD2    N111917   3.326   0.212  15.302  0.4622  0.1746 -0.0174
  805MPD2    H711918   3.411   0.163  15.278 -0.3905 -2.2723  1.9352
  806MPD2     C11919   3.680   4.288   0.493  0.0268  0.5039  0.1231
  806MPD2    C111920   3.786   4.318   0.568  0.7014  0.1866  0.6898
  806MPD2    C211921   3.896   4.383   0.510 -0.0315  0.5879 -0.9827
  806MPD2    C311922   3.896   4.426   0.379 -0.3421 -0.2786 -0.5228
  806MPD2    C411923   3.789   4.384   0.301 -0.1615 -0.6325  0.0935
  806MPD2    C511924   3.688   4.308   0.357 -0.1927  0.6739  0.1009
  806MPD2     H11925   3.981   4.415   0.568 -1.0842 -1.0632  1.4897
  806MPD2    H111926   3.784   4.396   0.193 -0.9475  1.3733  0.3366
  806MPD2    H211927   3.602   4.235   0.547 -0.5652  1.0450 -0.2037
  806MPD2    H311928   3.607   4.273   0.295 -1.1465 -0.3113  1.9143
  806MPD2     N11929   3.998   4.511   0.337 -0.0092 -0.0294 -0.0517
  806MPD2    H511930   4.067   4.545   0.403 -0.5897 -1.1544  1.1204
  806MPD2    N111931   3.780   4.299   0.706  0.4894 -0.3493  0.3748
  806MPD2    H711932   3.692   4.270   0.748 -0.1969  0.1999 -0.6761
  807MPD2     C11933   3.494   3.740   1.119  0.3841  0.1110  0.1098
  807MPD2    C111934   3.615   3.769   1.182  0.1403  0.1110 -0.6656
  807MPD2    C211935   3.654   3.695   1.293 -0.2483  0.1131  0.7757
  807MPD2    C311936   3.576   3.586   1.332 -0.1499 -1.2678 -0.4548
  807MPD2    C411937   3.463   3.553   1.258  0.1337 -0.6415 -0.3186
  807MPD2    C511938   3.420   3.628   1.153 -0.3414  0.1078  0.1772
  807MPD2     H11939   3.745   3.718   1.347 -0.3822  0.9357  0.6615
  807MPD2    H111940   3.405   3.467   1.288 -0.7428 -0.1297 -0.5716
  807MPD2    H211941   3.450   3.799   1.039  2.4459  0.9027 -0.4596
  807MPD2    H311942   3.327   3.601   1.104 -0.2906 -1.2559  0.8393
  807MPD2     N11943   3.610   3.508   1.449  0.2592  0.7309 -0.1320
  807MPD2    H511944   3.680   3.548   1.510  0.9956 -2.2370  1.0049
  807MPD2    N111945   3.701   3.882   1.159 -0.1066 -0.2009  0.3398
  807MPD2    H711946   3.779   3.894   1.223  1.3011 -0.3410 -1.3603
  808MPD2     C11947   4.155   1.373  10.035  0.2494  0.2421 -0.0942
  808MPD2    C111948   4.065   1.449  10.106  1.2060  0.0776 -0.8951
  808MPD2    C211949   4.085   1.584  10.116 -0.1319 -0.5531 -0.3102
  808MPD2    C311950   4.189   1.647  10.049 -0.5961  0.4167 -0.2137
  808MPD2    C411951   4.273   1.567   9.969  0.2266 -0.2451  0.1629
  808MPD2    C511952   4.256   1.430   9.971 -0.6712  0.0104 -0.6081
  808MPD2     H11953   4.010   1.639  10.172 -1.0429 -0.7852 -1.2887
  808MPD2    H111954   4.364   1.610   9.927 -0.9121  1.1247 -0.9032
  808MPD2    H211955   4.154   1.265  10.038  1.1842  0.2920  2.1705
  808MPD2    H311956   4.325   1.368   9.915  0.7524  0.5669  0.5389
  808MPD2     N11957   4.209   1.787  10.056  0.6852 -0.7316 -0.3371
  808MPD2    H511958   4.285   1.821   9.997  2.1565 -0.3534  1.7826
  808MPD2    N111959   3.962   1.389  10.179  0.0354  0.0384  0.0611
  808MPD2    H711960   3.908   1.455  10.236 -0.7856 -1.6977  1.2868
  809MPD2     C11961   4.693   2.542   9.650 -0.7097  0.4111 -0.0511
  809MPD2    C111962   4.670   2.407   9.627 -0.2979 -0.1212 -0.1727
  809MPD2    C211963   4.601   2.327   9.724  0.5031 -0.0986  0.1414
  809MPD2    C311964   4.542   2.394   9.829  0.0731  0.0191 -0.7603
  809MPD2    C411965   4.566   2.528   9.849 -0.0455  0.7571  0.2192
  809MPD2    C511966   4.642   2.599   9.763  0.3793  0.6989  0.4783
  809MPD2     H11967   4.591   2.221   9.703 -1.1547 -0.0454  0.5913
  809MPD2    H111968   4.523   2.587   9.929 -0.1040  0.3298  0.5054
  809MPD2    H211969   0.011   2.601   9.580  2.1545 -0.9596  1.1782
  809MPD2    H311970   4.660   2.702   9.791  0.1894 -0.3360  4.3806
  809MPD2     N11971   4.455   2.334   9.919  0.4333 -0.8684 -0.0908
  809MPD2    H511972   4.401   2.406   9.966  1.7454  0.4818 -0.6700
  809MPD2    N111973   4.724   2.344   9.512 -0.0934 -0.5868  0.1070
  809MPD2    H711974   0.000   2.244   9.513  0.7916 -0.4395  0.8702
  810MPD2     C11975   3.474   0.630  10.550 -0.2866 -0.3305 -0.1246
  810MPD2    C111976   3.380   0.690  10.472  0.0732  0.3878  0.2717
  810MPD2    C211977   3.379   0.829  10.460  0.0965  0.1812 -0.0282
  810MPD2    C311978   3.463   0.906  10.543 -0.2100 -0.2146  0.8958
  810MPD2    C411979   3.550   0.847  10.637  0.0270 -0.5186  0.5296
  810MPD2    C511980   3.551   0.709  10.641  0.0134 -0.0612  0.0439
  810MPD2     H11981   3.338   0.881  10.374 -0.5693  1.7428  1.2358
  810MPD2    H111982   3.612   0.900  10.709  2.3796  0.0023 -1.8701
  810MPD2    H211983   3.490   0.523  10.554  2.4928  0.1417  1.6343
  810MPD2    H311984   3.616   0.660  10.712 -0.9161  0.6575  1.3808
  810MPD2     N11985   3.451   1.052  10.554 -0.1276 -0.5202  0.2062
  810MPD2    H511986   3.499   1.103  10.627 -1.9150  0.3179  0.8006
  810MPD2    N111987   3.292   0.615  10.391 -0.6042  0.2611 -0.3370
  810MPD2    H711988   3.226   0.669  10.338 -0.1365  2.5862  1.4413
  811MPD2     C11989   2.739   0.778   9.902 -0.0358  0.9434  0.0631
  811MPD2    C111990   2.826   0.800  10.008 -0.3114  0.3403  0.2593
  811MPD2    C211991   2.867   0.933  10.052  0.5566  0.3271 -0.3931
  811MPD2    C311992   2.810   1.041   9.983  0.0742  0.8672 -0.2447
  811MPD2    C411993   2.715   1.017   9.886  0.1740 -0.3833  0.3436
  811MPD2    C511994   2.675   0.886   9.846  0.0198 -0.3950 -0.1118
  811MPD2     H11995   2.945   0.950  10.125  0.2921 -0.1252 -0.0084
  811MPD2    H111996   2.675   1.101   9.830  0.6550  1.4058  2.6950
  811MPD2    H211997   2.711   0.678   9.871  2.9429  1.0470 -2.9610
  811MPD2    H311998   2.602   0.873   9.767 -0.5823 -0.9947  0.5463
  811MPD2     N11999   2.844   1.171  10.018  1.3351  0.6671  0.6648
  811MPD2    H512000   2.935   1.174  10.064  2.0390 -2.0055 -0.5720
  811MPD2    N112001   2.879   0.682  10.052  0.3461 -0.5820 -0.1916
  811MPD2    H712002   2.838   0.597  10.015  0.7139 -0.8454  0.0144
  812MPD2     C12003   2.492   0.495  12.216  0.0011 -0.4767  0.4880
  812MPD2    C112004   2.523   0.611  12.283  0.5096  0.4672 -0.0226
  812MPD2    C212005   2.632   0.612  12.365 -0.5820 -0.2567  0.2914
  812MPD2    C312006   2.705   0.497  12.392  0.4678 -0.2660  0.2437
  812MPD2    C412007   2.675   0.378  12.319 -0.0874  0.0705  1.2258
  812MPD2    C512008   2.571   0.383  12.228  0.4608 -0.5049  1.2519
  812MPD2     H12009   2.657   0.700  12.423  0.8429 -2.1922  2.6550
  812MPD2    H112010   2.733   0.288  12.337  1.1119  0.9850  1.9054
  812MPD2    H212011   2.405   0.499  12.150  1.6153  0.5247 -1.5600
  812MPD2    H312012   2.560   0.304  12.155 -2.2146  1.9329 -0.9966
  812MPD2     N12013   2.817   0.514  12.473 -0.4834  0.6474  0.5594
  812MPD2    H512014   2.843   0.608  12.501 -2.3470  1.0808  0.8081
  812MPD2    N112015   2.442   0.723  12.254  0.2857 -0.7555 -0.2458
  812MPD2    H712016   2.370   0.706  12.185  1.1352 -0.6373 -1.1595
  813MPD2     C12017   1.994   2.267  12.550  0.0658  0.2581  0.2444
  813MPD2    C112018   1.972   2.404  12.557 -0.0695  0.1625  0.2031
  813MPD2    C212019   1.930   2.456  12.681  0.1500 -0.4992  0.9105
  813MPD2    C312020   1.903   2.372  12.790  0.4412  0.3963 -0.0364
  813MPD2    C412021   1.901   2.232  12.767 -0.1860 -0.2449 -0.6298
  813MPD2    C512022   1.958   2.187  12.653 -0.0026 -0.7072  0.2159
  813MPD2     H12023   1.919   2.564  12.692 -0.0214 -0.2421 -1.7147
  813MPD2    H112024   1.874   2.159  12.842  0.4467  2.8319  2.6054
  813MPD2    H212025   2.044   2.222  12.465 -1.1240 -1.6118  0.5301
  813MPD2    H312026   1.974   2.081  12.640  0.6059 -0.5170 -0.5844
  813MPD2     N12027   1.855   2.429  12.909  0.4663 -0.5115  0.6817
  813MPD2    H512028   1.834   2.528  12.909 -3.2873 -1.3016 -1.2815
  813MPD2    N112029   2.007   2.499  12.460  0.2785  0.4613  0.0969
  813MPD2    H712030   2.022   2.593  12.497 -3.0044  1.2356 -0.5566
  814MPD2     C12031   2.117   3.797  12.409  0.1800  0.2748  0.6314
  814MPD2    C112032   2.149   3.834  12.281 -0.0088 -0.3206  0.3843
  814MPD2    C212033   2.226   3.947  12.274  0.8657  0.4930  0.7027
  814MPD2    C312034   2.271   4.015  12.381  0.1071 -0.7200  0.1435
  814MPD2    C412035   2.239   3.973  12.504  0.0398  0.1202  0.5204
  814MPD2    C512036   2.169   3.855  12.518 -0.0537  0.0396  0.0942
  814MPD2     H12037   2.249   3.988  12.176  0.6302  0.3922  0.6045
  814MPD2    H112038   2.273   4.024  12.593  0.3495  1.8720 -0.6069
  814MPD2    H212039   2.056   3.708  12.418  2.1978 -1.0973  0.6685
  814MPD2    H312040   2.158   3.819  12.620  0.2464 -1.4464 -0.3930
  814MPD2     N12041   2.357   4.122  12.351  0.2723  0.6823 -0.3394
  814MPD2    H512042   2.393   4.140  12.258 -0.8156  0.4070 -0.8114
  814MPD2    N112043   2.108   3.768  12.164  0.1478  0.4110 -0.4545
  814MPD2    H712044   2.107   3.813  12.073 -0.9169  0.1621 -0.5596
  815MPD2     C12045   2.347   2.518  11.898 -0.0082  0.1396  0.2154
  815MPD2    C112046   2.366   2.385  11.903 -0.5664  0.1157  0.0753
  815MPD2    C212047   2.256   2.305  11.925  0.4114 -0.2541 -0.2601
  815MPD2    C312048   2.136   2.352  11.928 -0.3398 -0.1935 -0.1016
  815MPD2    C412049   2.113   2.492  11.933  0.3924  0.3669 -0.2015
  815MPD2    C512050   2.223   2.570  11.925 -0.3947  0.2516 -0.0864
  815MPD2     H12051   2.267   2.198  11.934 -0.4036 -0.3496 -0.4130
  815MPD2    H112052   2.019   2.542  11.948  0.6008  0.8039 -0.3539
  815MPD2    H212053   2.421   2.591  11.869  0.2672 -0.5665 -0.8709
  815MPD2    H312054   2.202   2.676  11.925 -2.0445 -0.0627  2.1854
  815MPD2     N12055   2.018   2.266  11.937 -0.1964 -0.2101  0.6536
  815MPD2    H512056   2.034   2.171  11.968  0.2534 -1.2156 -2.5793
  815MPD2    N112057   2.488   2.337  11.867  0.5361 -0.2085  1.1899
  815MPD2    H712058   2.562   2.397  11.832 -1.6817  1.1870 -1.0088
  816MPD2     C12059   2.694   1.136  17.495  0.7899 -0.2577  0.4912
  816MPD2    C112060   2.778   1.244  17.499 -0.2146 -0.4550 -0.1146
  816MPD2    C212061   2.909   1.226  17.449  0.0082 -0.4648  0.0767
  816MPD2    C312062   2.942   1.105  17.390 -0.3395  0.1841 -0.5635
  816MPD2    C412063   2.856   0.998  17.393  0.1559  0.1064  1.1285
  816MPD2    C512064   2.737   1.014  17.455  0.0811  0.3109  0.3801
  816MPD2     H12065   2.975   1.313  17.446  2.0272 -2.0774 -2.1471
  816MPD2    H112066   2.880   0.901  17.352  0.6063  0.1842  1.2069
  816MPD2    H212067   2.590   1.154  17.522  0.1188  1.0096 -2.9710
  816MPD2    H312068   2.675   0.925  17.449  0.7337 -0.1021 -0.2702
  816MPD2     N12069   3.069   1.096  17.324 -0.4298 -0.0962 -0.5002
  816MPD2    H512070   3.127   1.179  17.318  0.7287 -0.9487 -0.9043
  816MPD2    N112071   2.721   1.364  17.542  0.1772  0.4051  0.1912
  816MPD2    H712072   2.621   1.382  17.539  0.0101 -0.5527 -0.1863
  817MPD2     C12073   1.422   3.280   9.907  0.0215 -0.2431  0.0853
  817MPD2    C112074   1.499   3.303   9.794 -0.2934  0.0083  0.0063
  817MPD2    C212075   1.472   3.412   9.712  0.4656  0.1963 -0.5130
  817MPD2    C312076   1.373   3.504   9.746  0.1450 -0.1031 -0.5312
  817MPD2    C412077   1.289   3.475   9.852 -0.6561  0.5021  0.6497
  817MPD2    C512078   1.318   3.364   9.928 -0.1062 -0.0536  0.2316
  817MPD2     H12079   1.526   3.433   9.620  2.7217  1.3766  1.0721
  817MPD2    H112080   1.212   3.545   9.881 -0.3218  1.6491 -1.2086
  817MPD2    H212081   1.448   3.199   9.974  1.3217  0.5946  0.6039
  817MPD2    H312082   1.261   3.351  10.020 -0.6722 -1.1014 -0.2789
  817MPD2     N12083   1.361   3.623   9.671 -0.3262 -0.6377 -0.6256
  817MPD2    H512084   1.429   3.645   9.599 -1.8436  0.4607 -1.7301
  817MPD2    N112085   1.609   3.224   9.752 -0.3115 -0.3762 -0.3832
  817MPD2    H712086   1.644   3.233   9.657  0.0591  1.6810 -0.0363
  818MPD2     C12087   0.755   2.706  10.178 -0.1863 -0.1277  0.5462
  818MPD2    C112088   0.637   2.652  10.220 -0.0629  0.9119 -0.0496
  818MPD2    C212089   0.607   2.520  10.179  0.3238  0.1737 -0.3189
  818MPD2    C312090   0.686   2.463  10.081  0.2250 -0.0738 -0.2526
  818MPD2    C412091   0.800   2.517  10.035 -0.1023  0.5064 -0.6803
  818MPD2    C512092   0.833   2.644  10.086  0.0177  0.0859 -0.1444
  818MPD2     H12093   0.520   2.469  10.220  1.0448 -0.1751  0.7730
  818MPD2    H112094   0.863   2.478   9.956  0.7762  1.2263 -0.3441
  818MPD2    H212095   0.793   2.805  10.201  2.0487 -0.9538  0.3588
  818MPD2    H312096   0.914   2.703  10.044  1.3767 -3.0856 -1.9505
  818MPD2     N12097   0.650   2.336  10.030  0.0057 -0.2030 -0.1822
  818MPD2    H512098   0.723   2.286   9.979  0.9333 -0.1775  1.1096
  818MPD2    N112099   0.557   2.720  10.313  0.1148 -0.6169 -0.4904
  818MPD2    H712100   0.468   2.679  10.340 -0.6577 -0.5308 -2.8642
  819MPD2     C12101   4.247   4.628  15.452  0.8098 -0.0882  0.1675
  819MPD2    C112102   4.298   4.505  15.421  0.9624  0.3171  0.0508
  819MPD2    C212103   4.418   4.471  15.472 -0.8502 -0.8639  0.4326
  819MPD2    C312104   4.491   4.556  15.552  0.4212 -0.7012  0.6471
  819MPD2    C412105   4.444   4.680  15.578  0.4875  0.1154 -0.0228
  819MPD2    C512106   4.318   4.704  15.535 -0.0827  0.5185 -0.9675
  819MPD2     H12107   4.470   4.381  15.443  1.5165  0.8453 -0.6547
  819MPD2    H112108   4.493   0.006  15.649 -1.5412  3.5493 -1.8469
  819MPD2    H212109   4.148   4.660  15.422  0.8097  1.2181  1.5552
  819MPD2    H312110   4.289   0.061  15.572  0.4186  0.6365 -0.8800
  819MPD2     N12111   4.612   4.508  15.606  0.5012 -0.3646 -0.3022
  819MPD2    H512112   4.649   4.423  15.567  1.4385 -0.4899  0.8565
  819MPD2    N112113   4.228   4.412  15.339  0.4321 -0.2985 -0.7850
  819MPD2    H712114   4.146   4.447  15.289  1.3081  0.2515 -1.8495
  820MPD2     C12115   3.324   4.156  14.987 -0.0159 -0.0236 -0.3480
  820MPD2    C112116   3.399   4.269  15.001 -0.5874  0.6857  0.6745
  820MPD2    C212117   3.536   4.270  15.027  0.2337 -0.5525  0.8489
  820MPD2    C312118   3.601   4.149  15.044 -1.1078 -0.0146 -0.1794
  820MPD2    C412119   3.529   4.036  15.024  0.3935  0.1131  0.2903
  820MPD2    C512120   3.394   4.042  14.997  0.0699 -0.0049  0.4597
  820MPD2     H12121   3.585   4.366  15.034 -0.0345 -0.3360 -0.2823
  820MPD2    H112122   3.581   3.941  15.024  1.1575  0.5436  1.2813
  820MPD2    H212123   3.217   4.158  14.969 -0.1085 -0.9399  0.1361
  820MPD2    H312124   3.336   3.951  14.985 -1.5209  0.9173  1.1514
  820MPD2     N12125   3.739   4.129  15.066 -0.0059 -0.0942 -0.1079
  820MPD2    H512126   3.759   4.031  15.084 -1.5003 -0.4847 -0.6122
  820MPD2    N112127   3.325   4.392  15.001  0.0639  0.0209  0.0720
  820MPD2    H712128   3.226   4.381  14.980  0.0332 -1.5710  0.9720
  821MPD2     C12129   4.732   1.191  12.853 -0.3095  0.2374 -0.3000
  821MPD2    C112130   4.709   1.254  12.975 -0.4036  0.2141 -0.3010
  821MPD2    C212131   0.028   1.374  13.000  0.4043 -0.3698 -0.8214
  821MPD2    C312132   0.104   1.438  12.909  0.1487 -0.3147  0.5150
  821MPD2    C412133   0.129   1.382  12.788 -0.3076 -0.0349 -0.3013
  821MPD2    C512134   0.069   1.264  12.758  0.3928 -0.3662 -0.0803
  821MPD2     H12135   0.017   1.413  13.101  1.0875 -0.2115 -0.8061
  821MPD2    H112136   0.191   1.419  12.708  0.7807  1.4150  1.2219
  821MPD2    H212137   4.695   1.095  12.820 -0.3128 -0.5954  2.1684
  821MPD2    H312138   0.080   1.214  12.662 -1.2160  0.6882 -0.8138
  821MPD2     N12139   0.171   1.559  12.936  0.5313 -0.1307  0.2027
  821MPD2    H512140   0.230   1.587  12.859 -0.2082  0.3095 -0.1931
  821MPD2    N112141   4.649   1.196  13.090 -0.2548  0.7825  0.3101
  821MPD2    H712142   4.645   1.252  13.175  3.9946  4.0851 -1.6475
  822MPD2     C12143   0.484   1.263  15.711 -0.4443  0.5969 -0.2385
  822MPD2    C112144   0.449   1.238  15.839 -0.9120 -0.1555  0.2787
  822MPD2    C212145   0.380   1.337  15.900 -0.0577  0.3428 -0.3592
  822MPD2    C312146   0.361   1.457  15.845 -0.0530  0.0280 -0.0751
  822MPD2    C412147   0.391   1.487  15.711 -0.1206 -0.6495 -0.2704
  822MPD2    C512148   0.444   1.381  15.648  0.0254 -0.6447  0.7079
  822MPD2     H12149   0.344   1.316  16.000  0.8730 -2.2932 -0.5627
  822MPD2    H112150   0.370   1.582  15.662 -0.1942 -0.1843  0.6664
  822MPD2    H212151   0.543   1.198  15.647  1.5374  1.3880  0.7833
  822MPD2    H312152   0.478   1.390  15.546  0.1349 -1.1921  0.6969
  822MPD2     N12153   0.305   1.549  15.939  0.4118  0.0484 -0.0731
  822MPD2    H512154   0.285   1.512  16.031 -0.9802  1.9613  0.3834
  822MPD2    N112155   0.495   1.119  15.910  0.0124  0.2245 -0.0553
  822MPD2    H712156   0.455   1.102  16.001 -1.2506 -0.3743 -0.7259
  823MPD2     C12157   0.070   1.790  16.697 -0.3204 -0.4242  0.4404
  823MPD2    C112158   0.067   1.701  16.600 -0.4020 -0.0150 -0.3845
  823MPD2    C212159   0.078   1.565  16.634  0.7034  0.4604 -0.1304
  823MPD2    C312160   0.097   1.519  16.762  0.3331  0.4130  0.4998
  823MPD2    C412161   0.080   1.612  16.858 -0.8499 -0.3470 -0.1457
  823MPD2    C512162   0.067   1.745  16.827 -0.0154  0.1964  0.3174
  823MPD2     H12163   0.076   1.491  16.555 -1.1094  0.7136 -0.3411
  823MPD2    H112164   0.078   1.583  16.962  0.9491  2.1466  0.5797
  823MPD2    H212165   0.057   1.897  16.682 -0.4094 -0.1959  2.1656
  823MPD2    H312166   0.061   1.818  16.907 -2.7901 -2.0471  2.1482
  823MPD2     N12167   0.122   1.385  16.801  0.2609 -0.1374  0.1354
  823MPD2    H512168   0.147   1.372  16.899  0.1778 -0.0820  0.1638
  823MPD2    N112169   0.072   1.751  16.472 -0.1297 -0.2983  0.1876
  823MPD2    H712170   0.062   1.852  16.463 -0.3935 -0.3661 -0.2749
  824MPD2     C12171   0.559   0.362  15.735  0.5206  0.1711  0.1670
  824MPD2    C112172   0.673   0.414  15.802  0.3387  0.2199 -0.3194
  824MPD2    C212173   0.798   0.363  15.770  0.0803  0.3404  0.2095
  824MPD2    C312174   0.813   0.260  15.678 -0.2387  0.2318 -0.6283
  824MPD2    C412175   0.701   0.211  15.611  0.1503 -0.8869 -0.4483
  824MPD2    C512176   0.577   0.258  15.653  0.1193 -0.2237 -0.1037
  824MPD2     H12177   0.888   0.405  15.813 -0.2224  1.2326 -0.0433
  824MPD2    H112178   0.687   0.142  15.529  2.2957 -1.2603 -0.4837
  824MPD2    H212179   0.463   0.409  15.750 -0.3561 -1.3969 -0.5115
  824MPD2    H312180   0.493   0.214  15.600  1.2126  0.0664 -2.0764
  824MPD2     N12181   0.943   0.229  15.634 -0.9788 -1.0460  0.0880
  824MPD2    H512182   1.025   0.270  15.677 -3.6148  1.1407  3.0467
  824MPD2    N112183   0.663   0.528  15.888 -0.2852  0.5185  0.4263
  824MPD2    H712184   0.576   0.578  15.875 -0.3311  1.3825  4.1606
  825MPD2     C12185   1.685   0.545  15.403 -0.0272  0.7939  0.1110
  825MPD2    C112186   1.555   0.580  15.412  0.5098 -0.2986  0.2887
  825MPD2    C212187   1.506   0.709  15.397  0.3214 -0.0277  0.1761
  825MPD2    C312188   1.603   0.814  15.370 -0.1702 -0.3495  0.0025
  825MPD2    C412189   1.735   0.773  15.367 -0.1287 -0.3143  0.4403
  825MPD2    C512190   1.776   0.648  15.376 -0.0659  0.3050  0.4572
  825MPD2     H12191   1.404   0.741  15.415 -0.2637 -2.0765  0.4153
  825MPD2    H112192   1.817   0.845  15.369 -0.3768  0.1002 -4.5342
  825MPD2    H212193   1.718   0.442  15.414  0.5133  0.8430 -1.0632
  825MPD2    H312194   1.882   0.629  15.364 -0.1907  0.3752 -0.7869
  825MPD2     N12195   1.577   0.952  15.373  0.0044 -0.6040 -1.0890
  825MPD2    H512196   1.658   1.012  15.367 -1.7400  2.0500  2.1110
  825MPD2    N112197   1.469   0.461  15.430  0.3340  0.1303  0.9012
  825MPD2    H712198   1.519   0.376  15.455 -2.1086 -1.6240 -0.2769
  826MPD2     C12199   0.769   0.966  13.585 -0.2060  0.1376  0.0089
  826MPD2    C112200   0.825   1.010  13.701 -0.2691 -0.1485 -0.8891
  826MPD2    C212201   0.791   1.136  13.742  0.1008 -0.0553  0.2248
  826MPD2    C312202   0.696   1.211  13.670  0.3704  0.5140  0.5842
  826MPD2    C412203   0.633   1.166  13.560  0.7655 -0.6409 -0.3109
  826MPD2    C512204   0.676   1.041  13.514 -0.3247  0.3684  0.8560
  826MPD2     H12205   0.856   1.190  13.810 -2.2158  3.6323 -0.4229
  826MPD2    H112206   0.550   1.221  13.518  0.7160 -0.6527 -0.2287
  826MPD2    H212207   0.773   0.865  13.547 -3.7422  0.5681 -1.5880
  826MPD2    H312208   0.631   0.988  13.431  0.6058 -1.9128  1.8113
  826MPD2     N12209   0.672   1.345  13.711 -0.2329  0.0081  0.0152
  826MPD2    H512210   0.626   1.413  13.651 -1.8769 -0.7685  0.4162
  826MPD2    N112211   0.913   0.934  13.774 -0.3240  0.9090  0.1619
  826MPD2    H712212   0.948   0.852  13.726  1.4619  1.6736  0.1754
  827MPD2     C12213   1.556   2.220  10.020  0.4974  0.4417  0.7993
  827MPD2    C112214   1.475   2.121  10.071  0.1483 -0.4273  0.2906
  827MPD2    C212215   1.383   2.055   9.987  0.1418  0.1416 -0.5975
  827MPD2    C312216   1.349   2.106   9.864  1.0754  0.0133  0.2614
  827MPD2    C412217   1.433   2.200   9.808  0.1406  0.0986  0.1963
  827MPD2    C512218   1.535   2.253   9.885 -0.1706  0.2714 -0.3376
  827MPD2     H12219   1.327   1.970  10.024  0.2204  1.0705  1.6519
  827MPD2    H112220   1.423   2.235   9.706 -0.5820 -1.0292 -0.1141
  827MPD2    H212221   1.634   2.271  10.075 -0.1356  0.0234  2.0646
  827MPD2    H312222   1.608   2.314   9.833  1.5973 -0.6131  1.0940
  827MPD2     N12223   1.244   2.037   9.797  0.0310  0.4626 -0.4779
  827MPD2    H512224   1.176   1.992   9.856  2.0601  0.1930  1.6814
  827MPD2    N112225   1.508   2.086  10.204  0.0130  0.2399  0.3930
  827MPD2    H712226   1.575   2.136  10.261  0.9547 -0.2037 -0.3273
  828MPD2     C12227   0.268   1.876  11.606  0.5333  0.2916  0.0269
  828MPD2    C112228   0.153   1.939  11.567  0.2749  0.2735  0.4049
  828MPD2    C212229   0.107   1.920  11.438 -0.4778  0.3394  0.0274
  828MPD2    C312230   0.178   1.845  11.347 -0.2790  0.2637  0.1934
  828MPD2    C412231   0.293   1.779  11.393  0.0192  0.2695  0.7491
  828MPD2    C512232   0.332   1.791  11.520 -0.2695 -0.0698 -0.0747
  828MPD2     H12233   0.012   1.970  11.424 -0.5511 -0.1416 -1.1768
  828MPD2    H112234   0.358   1.716  11.334 -1.0103 -0.0795 -0.0106
  828MPD2    H212235   0.298   1.877  11.710 -2.8336 -0.6614  1.0360
  828MPD2    H312236   0.428   1.754  11.555 -0.7058 -1.0030  0.1274
  828MPD2     N12237   0.132   1.813  11.220  0.3093 -0.3108  0.2344
  828MPD2    H512238   0.199   1.754  11.172  1.3636  0.3144  0.9168
  828MPD2    N112239   0.073   2.022  11.647 -0.5433 -0.4140  0.2860
  828MPD2    H712240   4.720   2.047  11.614 -0.5545  0.4901  1.0218
  829MPD2     C12241   4.063   2.387  11.440  0.0022 -0.0381 -0.3199
  829MPD2    C112242   4.062   2.405  11.575 -0.1134 -0.3942 -0.8250
  829MPD2    C212243   4.167   2.359  11.655  0.5275 -0.2795  1.5789
  829MPD2    C312244   4.271   2.285  11.598 -0.3084  0.0615  0.1242
  829MPD2    C412245   4.273   2.272  11.462  0.7704  0.5715 -0.0937
  829MPD2    C512246   4.173   2.321  11.381 -0.1959 -0.3603 -0.6461
  829MPD2     H12247   4.169   2.366  11.763  0.2562 -1.5394  1.6665
  829MPD2    H112248   4.357   2.233  11.407  1.7875  0.6029  1.4433
  829MPD2    H212249   3.986   2.422  11.372 -0.1625  2.9146  1.3998
  829MPD2    H312250   4.180   2.314  11.273  0.3950  0.4614 -0.6541
  829MPD2     N12251   4.384   2.235  11.674 -0.0394 -0.2123  0.6779
  829MPD2    H512252   4.462   2.196  11.622 -0.6981 -1.6108  0.7193
  829MPD2    N112253   3.940   2.448  11.626  0.0039  0.1884  0.0397
  829MPD2    H712254   3.867   2.446  11.555  1.1876 -1.2158 -1.1109
  830MPD2     C12255   0.702   4.345  15.718  0.6128 -0.2143 -0.0429
  830MPD2    C112256   0.593   4.380  15.643 -0.2955 -0.1775 -0.3465
  830MPD2    C212257   0.602   4.457  15.528  0.0105 -0.1034 -0.0923
  830MPD2    C312258   0.723   4.512  15.491  0.1332 -0.2939  0.3519
  830MPD2    C412259   0.830   4.485  15.570  0.5251  0.2199 -0.4427
  830MPD2    C512260   0.823   4.397  15.674  0.2594 -0.0496 -0.2599
  830MPD2     H12261   0.515   4.501  15.480 -1.3972 -3.7501 -0.9324
  830MPD2    H112262   0.925   4.536  15.557  0.5733  0.0340 -0.8054
  830MPD2    H212263   0.702   4.286  15.809 -1.5706 -1.5334 -0.8895
  830MPD2    H312264   0.914   4.389  15.732 -1.5705  0.2329  2.7010
  830MPD2     N12265   0.723   4.604  15.389  0.0168 -0.1002  0.0896
  830MPD2    H512266   0.799   4.672  15.390  0.2455 -0.3615  0.2971
  830MPD2    N112267   0.468   4.344  15.710 -0.5641 -0.3298  0.0477
  830MPD2    H712268   0.474   4.325  15.809 -0.5645 -0.4878  0.0180
  831MPD2     C12269   0.568   1.504  16.361 -0.5267 -0.0617  0.2939
  831MPD2    C112270   0.574   1.405  16.263  0.7874  0.2589 -0.1899
  831MPD2    C212271   0.470   1.324  16.236 -0.0768 -0.2301  0.5022
  831MPD2    C312272   0.348   1.336  16.303  0.1719  0.8012  0.2398
  831MPD2    C412273   0.342   1.435  16.400  0.3562  0.1380  0.2174
  831MPD2    C512274   0.453   1.516  16.431  0.8790  0.6392  0.2161
  831MPD2     H12275   0.494   1.254  16.157  2.0218  1.2134 -0.1341
  831MPD2    H112276   0.251   1.448  16.458  0.9701  1.9436  0.7564
  831MPD2    H212277   0.651   1.567  16.389  0.8682 -1.2324 -1.1799
  831MPD2    H312278   0.436   1.584  16.513  1.0121  2.4746 -1.2796
  831MPD2     N12279   0.235   1.249  16.285 -0.5834  0.0868 -0.4668
  831MPD2    H512280   0.145   1.257  16.331  1.0546 -0.0712  2.7934
  831MPD2    N112281   0.697   1.383  16.197 -0.4242  0.0013 -0.4469
  831MPD2    H712282   0.704   1.292  16.152 -1.6295  0.7693 -2.1863
  832MPD2     C12283   3.804   2.191  17.340  0.4080  0.1003  0.4067
  832MPD2    C112284   3.758   2.324  17.340  0.1290 -0.5121  0.4439
  832MPD2    C212285   3.665   2.369  17.253 -0.4031  0.7074  0.2205
  832MPD2    C312286   3.613   2.274  17.162  0.6074 -0.5174  0.1158
  832MPD2    C412287   3.668   2.146  17.155  0.0082 -0.0543  0.4757
  832MPD2    C512288   3.763   2.105  17.244 -0.0194 -0.5173  0.6910
  832MPD2     H12289   3.613   2.462  17.271 -0.1234  1.0309 -0.6362
  832MPD2    H112290   3.626   2.068  17.092  1.8760 -0.2233 -0.5489
  832MPD2    H212291   3.871   2.154  17.418  2.5850 -0.0766 -1.5381
  832MPD2    H312292   3.799   2.003  17.242  2.0453  0.2981 -2.6233
  832MPD2     N12293   3.510   2.301  17.065  0.1272 -0.0814  1.1086
  832MPD2    H512294   3.482   2.223  17.006 -0.0070  0.9533 -0.2174
  832MPD2    N112295   3.789   2.416  17.442 -0.3372  0.3322 -0.2148
  832MPD2    H712296   3.754   2.510  17.432  3.1423  1.7873  1.1554
  833MPD2     C12297   0.384   4.188  12.515 -0.7136 -0.0373 -0.6717
  833MPD2    C112298   0.338   4.240  12.397  0.6643  0.3214 -0.2084
  833MPD2    C212299   0.431   4.243  12.293 -0.3275  0.2758 -0.0502
  833MPD2    C312300   0.554   4.202  12.303  0.1521 -0.3632  0.9020
  833MPD2    C412301   0.605   4.136  12.414  0.9375  0.4868  0.2727
  833MPD2    C512302   0.516   4.128  12.520 -0.3304 -0.3702  0.1774
  833MPD2     H12303   0.410   4.294  12.200 -4.4930 -0.1328  0.7000
  833MPD2    H112304   0.704   4.097  12.432  0.6383 -1.3539 -2.1227
  833MPD2    H212305   0.322   4.188  12.604 -0.6375 -1.3614 -0.6182
  833MPD2    H312306   0.534   4.078  12.615  0.9167 -0.3457 -0.0403
  833MPD2     N12307   0.633   4.218  12.185  0.3012 -0.3672 -0.5043
  833MPD2    H512308   0.588   4.244  12.098 -4.0567  0.0193  1.8655
  833MPD2    N112309   0.204   4.290  12.385 -0.1080  0.7259 -0.0755
  833MPD2    H712310   0.151   4.297  12.471  0.2485  0.0121  0.1940
  834MPD2     C12311   0.783   3.479  11.618  0.0548 -0.1674 -0.1905
  834MPD2    C112312   0.685   3.557  11.564  0.2681  0.6529  0.0263
  834MPD2    C212313   0.695   3.695  11.592 -0.0315  0.1128  0.5054
  834MPD2    C312314   0.798   3.748  11.672  0.3374 -0.3709  0.0191
  834MPD2    C412315   0.899   3.667  11.718  0.1583  0.6024  0.7385
  834MPD2    C512316   0.888   3.532  11.689  0.3477  0.1262 -0.8052
  834MPD2     H12317   0.620   3.764  11.554  0.9068  2.0236  2.1602
  834MPD2    H112318   0.977   3.696  11.786  1.0497  2.4211 -1.0483
  834MPD2    H212319   0.771   3.372  11.604 -2.8299 -0.0378  1.1788
  834MPD2    H312320   0.969   3.465  11.716  0.6243  0.9972  0.5034
  834MPD2     N12321   0.794   3.890  11.695  0.7152 -0.4622 -0.3472
  834MPD2    H512322   0.701   3.930  11.695 -0.1089 -2.3521  0.7795
  834MPD2    N112323   0.575   3.494  11.507 -0.2334 -0.0443  0.0591
  834MPD2    H712324   0.571   3.394  11.494  0.3501  0.1263 -1.4783
  835MPD2     C12325   0.142   1.957  10.539  0.4553  0.6154 -0.2555
  835MPD2    C112326   0.043   2.005  10.624 -0.0727  0.9485  0.1433
  835MPD2    C212327   0.081   2.057  10.744 -0.1189  0.3568 -1.3088
  835MPD2    C312328   0.215   2.058  10.780 -0.3355 -0.3001  0.0106
  835MPD2    C412329   0.315   1.997  10.699  0.4553  0.1904 -0.3259
  835MPD2    C512330   0.275   1.952  10.578  0.0642 -0.4680  0.8390
  835MPD2     H12331   0.006   2.112  10.799 -0.1709  1.1122 -2.1482
  835MPD2    H112332   0.420   2.001  10.723  0.3689  1.0189 -0.0719
  835MPD2    H212333   0.119   1.922  10.438 -0.3129 -3.9605  1.4928
  835MPD2    H312334   0.336   1.890  10.514  1.7844 -0.6074  2.6087
  835MPD2     N12335   0.258   2.115  10.900 -0.1573 -0.0115  0.3793
  835MPD2    H512336   0.355   2.095  10.924 -0.0643  0.3798  0.3242
  835MPD2    N112337   4.648   2.009  10.582  0.3318 -0.1955 -0.1375
  835MPD2    H712338   4.591   2.074  10.636  0.3740  1.1698 -1.7421
  836MPD2     C12339   4.568   2.456  11.496  0.3936 -0.2489  0.5641
  836MPD2    C112340   4.701   2.433  11.528  0.7834 -0.5051  0.5149
  836MPD2    C212341   4.735   2.453  11.659 -0.8731 -0.8791 -0.0954
  836MPD2    C312342   4.662   2.532  11.747 -0.4958  0.2495 -0.6283
  836MPD2    C412343   4.535   2.570  11.702 -0.3043 -0.2193  0.2183
  836MPD2    C512344   4.487   2.531  11.584  0.1328  1.1326 -0.8682
  836MPD2     H12345   0.095   2.423  11.690 -0.2351  0.3002 -1.0028
  836MPD2    H112346   4.475   2.636  11.763  0.3410  1.1872 -0.6679
  836MPD2    H212347   4.527   2.438  11.397 -2.4699  1.7621  1.3575
  836MPD2    H312348   4.384   2.560  11.568 -0.4219 -0.2443  0.2240
  836MPD2     N12349   4.695   2.561  11.882  0.0406  0.2288 -0.4772
  836MPD2    H512350   4.625   2.614  11.934 -0.2013 -1.6480  1.1128
  836MPD2    N112351   0.043   2.357  11.436 -0.5216  0.3862  0.2691
  836MPD2    H712352   0.004   2.325  11.348  1.0202  0.8000 -0.5523
  837MPD2     C12353   3.393   1.788   9.974 -0.7417  0.4398  0.0066
  837MPD2    C112354   3.264   1.825   9.999 -0.0149  0.1570  0.3420
  837MPD2    C212355   3.230   1.955  10.016 -0.1221  0.6118  0.0665
  837MPD2    C312356   3.322   2.060  10.011 -0.8339  0.6549 -0.1953
  837MPD2    C412357   3.453   2.025   9.985 -0.3405  0.4547 -0.9571
  837MPD2    C512358   3.476   1.890   9.958  0.1508  0.6915  0.3179
  837MPD2     H12359   3.128   1.979  10.044 -0.0915  1.1594 -0.2954
  837MPD2    H112360   3.529   2.095   9.953 -1.1844  1.8003 -0.0074
  837MPD2    H212361   3.413   1.682   9.966  1.7760  0.8576  1.0416
  837MPD2    H312362   3.569   1.865   9.908 -0.0692 -1.5611  1.0314
  837MPD2     N12363   3.269   2.191  10.029  0.0903 -0.2672 -0.3574
  837MPD2    H512364   3.182   2.185  10.082  0.5198 -1.4574  0.2121
  837MPD2    N112365   3.147   1.738  10.021 -0.2842  0.1225 -0.1468
  837MPD2    H712366   3.063   1.787  10.051  1.5866  1.2282  3.3063
  838MPD2     C12367   2.425   0.087  11.548  0.3718  0.7008  0.0172
  838MPD2    C112368   2.335   4.722  11.553 -0.7930  0.3740  0.3337
  838MPD2    C212369   2.305   4.651  11.670 -0.2337 -0.7795 -0.3428
  838MPD2    C312370   2.351   4.699  11.791  0.8451  0.8842 -0.1278
  838MPD2    C412371   2.443   0.057  11.784 -0.3403 -0.1651  0.2675
  838MPD2    C512372   2.481   0.120  11.666 -0.5916  0.4024 -0.1228
  838MPD2     H12373   2.231   4.572  11.667 -1.4034  0.2651  0.9353
  838MPD2    H112374   2.497   0.089  11.872  1.0031  2.3684 -1.4765
  838MPD2    H212375   2.456   0.137  11.457  1.7248 -0.5428 -0.2156
  838MPD2    H312376   2.552   0.202  11.672 -0.5158  0.4114 -1.0657
  838MPD2     N12377   2.312   4.640  11.916  0.5094  0.9596 -0.1532
  838MPD2    H512378   2.351   4.685  11.998  2.3476  0.8804 -0.9867
  838MPD2    N112379   2.273   4.671  11.440 -0.3354 -0.1402 -0.5138
  838MPD2    H712380   2.217   4.587  11.456  0.7413 -0.6392  0.5718
  839MPD2     C12381   1.507   4.455  11.572 -0.1930  1.2688 -1.1807
  839MPD2    C112382   1.552   4.358  11.483  0.0605 -0.6998 -0.4840
  839MPD2    C212383   1.654   4.390  11.395 -0.1585 -0.5001 -0.4822
  839MPD2    C312384   1.699   4.520  11.393 -0.7286 -0.0120 -1.2345
  839MPD2    C412385   1.650   4.612  11.473  0.0725  0.3937  0.3586
  839MPD2    C512386   1.560   4.580  11.571  0.4945 -0.0629  0.4925
  839MPD2     H12387   1.692   4.315  11.327 -2.6784 -2.2332  0.0427
  839MPD2    H112388   1.692   4.712  11.470 -1.4398  1.0514  1.2535
  839MPD2    H212389   1.429   4.424  11.640  1.8010 -2.9576 -0.8518
  839MPD2    H312390   1.543   4.654  11.649  0.8738 -0.6810  1.1573
  839MPD2     N12391   1.808   4.551  11.310  0.4167 -0.1326  0.1562
  839MPD2    H512392   1.848   4.644  11.322  0.2661  0.2584 -2.4772
  839MPD2    N112393   1.494   4.226  11.472  0.2731  0.3877 -0.3254
  839MPD2    H712394   1.529   4.167  11.397 -0.0926  1.9523 -1.7488
  840MPD2     C12395   2.002   2.305  10.482 -0.4313 -1.2777  0.2346
  840MPD2    C112396   1.947   2.221  10.580  0.0636 -0.0791  0.2876
  840MPD2    C212397   1.994   2.240  10.706 -0.0162 -0.2586 -0.0043
  840MPD2    C312398   2.100   2.322  10.735 -0.3695  0.2196 -0.1768
  840MPD2    C412399   2.153   2.399  10.635 -0.4733 -0.2371 -0.3628
  840MPD2    C512400   2.105   2.392  10.510 -0.1840 -0.6003  0.7520
  840MPD2     H12401   1.946   2.193  10.792  0.3547 -0.6319 -0.0006
  840MPD2    H112402   2.225   2.480  10.645 -0.3491 -0.4180  0.1650
  840MPD2    H212403   1.977   2.291  10.377 -1.4356 -1.8003  0.5417
  840MPD2    H312404   2.151   2.465  10.444  0.4803 -0.7954  1.0016
  840MPD2     N12405   2.158   2.349  10.858  0.1901 -0.3843  0.5789
  840MPD2    H512406   2.241   2.407  10.863 -1.2187  1.8400 -1.6652
  840MPD2    N112407   1.835   2.134  10.539  0.1869 -0.4475  0.0687
  840MPD2    H712408   1.806   2.147  10.443 -1.7748 -0.9722  0.6062
  841MPD2     C12409   2.339   1.854  14.694 -0.1231  0.2083 -0.1801
  841MPD2    C112410   2.304   1.795  14.569 -0.3427  0.1873 -0.2690
  841MPD2    C212411   2.339   1.857  14.451  0.1553 -0.0093 -0.2738
  841MPD2    C312412   2.403   1.982  14.444  0.6515 -0.1470  0.2294
  841MPD2    C412413   2.441   2.036  14.564  0.1114 -0.3390 -0.3056
  841MPD2    C512414   2.412   1.969  14.681 -0.2001 -0.2508 -0.2548
  841MPD2     H12415   2.336   1.799  14.360  0.4208 -1.2999  0.5272
  841MPD2    H112416   2.501   2.124  14.582 -0.3403 -0.2859  0.9892
  841MPD2    H212417   2.318   1.828  14.797  1.3689  1.4526  0.4348
  841MPD2    H312418   2.427   2.026  14.772 -0.1372  0.3194 -0.6220
  841MPD2     N12419   2.432   2.031  14.313 -0.3860 -0.5331  0.5099
  841MPD2    H512420   2.436   1.956  14.245  1.2427  0.0475 -0.0467
  841MPD2    N112421   2.235   1.675  14.563 -0.1090 -0.4810  0.4125
  841MPD2    H712422   2.201   1.650  14.471  0.4492  0.3032 -0.0002
  842MPD2     C12423   2.788   2.794  16.676  0.7545  0.7983  0.7626
  842MPD2    C112424   2.663   2.745  16.652 -0.0544 -0.1262  0.3474
  842MPD2    C212425   2.621   2.634  16.720 -0.2550 -0.2547 -0.7732
  842MPD2    C312426   2.705   2.580  16.812  0.2932 -0.1265 -0.2684
  842MPD2    C412427   2.830   2.638  16.838 -0.1962  0.1414  0.2265
  842MPD2    C512428   2.872   2.746  16.767 -0.8982  0.1650  0.4363
  842MPD2     H12429   2.537   2.580  16.677 -0.0804 -1.4027  0.3433
  842MPD2    H112430   2.886   2.587  16.915  0.3534 -1.0702 -0.9735
  842MPD2    H212431   2.833   2.868  16.610  1.5002 -0.5192 -0.2149
  842MPD2    H312432   2.970   2.786  16.788 -0.6879  0.4773 -1.1284
  842MPD2     N12433   2.662   2.476  16.901  0.2359 -0.6175 -0.4829
  842MPD2    H512434   2.720   2.454  16.981  1.9692 -1.0414 -1.8514
  842MPD2    N112435   2.594   2.805  16.545  0.3850 -0.4534 -0.6446
  842MPD2    H712436   2.631   2.887  16.499  0.1294  1.5614  2.7129
  843MPD2     C12437   4.574   3.642  17.680  0.1514 -0.5482  0.2621
  843MPD2    C112438   4.671   3.550  17.699 -0.0214 -0.0201  0.9215
  843MPD2    C212439   0.029   3.582   0.036 -0.3363  0.3786 -0.8695
  843MPD2    C312440   0.035   3.701   0.100 -0.3567 -0.0521 -0.2545
  843MPD2    C412441   4.669   3.789   0.084 -0.8728  0.6103 -0.7255
  843MPD2    C512442   4.567   3.757  17.752 -0.1509 -0.4484  0.6685
  843MPD2     H12443   0.108   3.507   0.037 -0.1989  0.5208 -1.0687
  843MPD2    H112444   4.672   3.893   0.114  0.2612  0.1460  0.7432
  843MPD2    H212445   4.505   3.621  17.599  1.1308  0.3437 -0.7946
  843MPD2    H312446   4.490   3.831  17.731  0.3040 -0.1381  0.1017
  843MPD2     N12447   0.146   3.743   0.182  0.1055 -0.5346 -0.0412
  843MPD2    H512448   0.148   3.841   0.209 -1.5472  0.1389 -2.3435
  843MPD2    N112449   4.664   3.434  17.621 -0.8873 -0.4062 -0.0420
  843MPD2    H712450   4.593   3.421  17.550 -0.9428 -0.8619  0.0978
  844MPD2     C12451   3.445   1.608  16.635 -0.2568  0.4327 -0.1271
  844MPD2    C112452   3.388   1.723  16.589  0.4043  0.0402  0.9707
  844MPD2    C212453   3.448   1.840  16.628  0.0113  0.4442  0.8847
  844MPD2    C312454   3.560   1.849  16.709  0.5013 -0.4128 -0.5926
  844MPD2    C412455   3.609   1.726  16.758 -0.3558  0.1670  0.2953
  844MPD2    C512456   3.550   1.606  16.725  0.0697  0.0959  0.3797
  844MPD2     H12457   3.406   1.927  16.580  1.6562  1.1768  0.7923
  844MPD2    H112458   3.696   1.707  16.819 -0.8236  2.4947  1.6750
  844MPD2    H212459   3.396   1.512  16.618  1.0397 -0.3291  0.4397
  844MPD2    H312460   3.584   1.514  16.771  1.4082 -0.5822 -1.9443
  844MPD2     N12461   3.620   1.975  16.730 -0.4010 -0.6263 -0.2822
  844MPD2    H512462   3.569   2.051  16.686 -0.7739 -0.6120  0.1765
  844MPD2    N112463   3.278   1.718  16.507  0.0663  0.4526  0.5578
  844MPD2    H712464   3.234   1.807  16.484  0.2473  0.0769 -1.1903
  845MPD2     C12465   3.582   2.986  16.767 -0.3615  0.2652 -0.7126
  845MPD2    C112466   3.602   2.938  16.895 -0.1571 -0.4535  0.2027
  845MPD2    C212467   3.615   2.796  16.907 -0.3977 -0.1893  0.4334
  845MPD2    C312468   3.612   2.715  16.796 -0.1101 -0.6831 -0.3627
  845MPD2    C412469   3.581   2.771  16.676 -0.0404 -0.2895  0.3887
  845MPD2    C512470   3.566   2.902  16.662  0.5763  0.1835  0.4339
  845MPD2     H12471   3.630   2.742  17.000 -1.0275  2.1997  1.9133
  845MPD2    H112472   3.554   2.713  16.589  1.3953 -2.9031  1.6881
  845MPD2    H212473   3.569   3.094  16.765 -3.5469 -0.0747  1.4177
  845MPD2    H312474   3.536   2.941  16.565  0.4095 -0.3666  0.2605
  845MPD2     N12475   3.649   2.577  16.813 -0.4488  0.9337 -0.4121
  845MPD2    H512476   3.668   2.539  16.906 -1.6757 -0.9754 -0.9484
  845MPD2    N112477   3.617   3.030  16.999  0.1908  0.2254 -0.1305
  845MPD2    H712478   3.598   3.128  16.980  2.0089  0.6540  0.2862
  846MPD2     C12479   0.234   3.641  13.534 -0.3161  0.8017 -0.1303
  846MPD2    C112480   0.134   3.725  13.568 -0.5127  0.2728  0.1105
  846MPD2    C212481   0.110   3.740  13.702 -0.2043 -0.3392  0.0534
  846MPD2    C312482   0.184   3.685  13.799  1.1139  0.6138  0.2082
  846MPD2    C412483   0.294   3.608  13.765 -0.4469 -0.2246 -0.4650
  846MPD2    C512484   0.312   3.582  13.630 -0.0218 -0.2855 -0.6054
  846MPD2     H12485   0.023   3.797  13.733  0.0972 -0.6126  1.3888
  846MPD2    H112486   0.361   3.561  13.835 -1.1960  0.2133  0.5464
  846MPD2    H212487   0.264   3.645  13.430  0.5684 -2.4024  0.0185
  846MPD2    H312488   0.400   3.532  13.593  0.0109 -1.1464  0.6705
  846MPD2     N12489   0.146   3.701  13.939  0.2132  0.0106  0.2555
  846MPD2    H512490   0.064   3.758  13.959  0.4732  0.9210 -1.2732
  846MPD2    N112491   0.050   3.788  13.478  0.1330 -0.3630  0.0980
  846MPD2    H712492   4.721   3.851  13.517  0.5472  0.9042 -1.2068
  847MPD2     C12493   0.202   0.610  13.838  0.7113  0.7412 -0.7766
  847MPD2    C112494   0.219   0.557  13.963  0.0030 -0.2171 -0.0298
  847MPD2    C212495   0.312   0.448  13.971  0.0153 -0.2834 -0.1163
  847MPD2    C312496   0.375   0.397  13.861 -0.1535  0.0090  0.2667
  847MPD2    C412497   0.339   0.444  13.740  0.2151 -0.1129 -0.6186
  847MPD2    C512498   0.254   0.556  13.728  0.3580  0.3930  0.3268
  847MPD2     H12499   0.327   0.409  14.070  0.3307  0.2662  0.0543
  847MPD2    H112500   0.371   0.390  13.652 -0.1091 -1.5369  0.1246
  847MPD2    H212501   0.137   0.694  13.816  0.8721  0.4837 -2.2560
  847MPD2    H312502   0.213   0.584  13.631  0.0613 -0.1749  0.2848
  847MPD2     N12503   0.463   0.287  13.874 -0.2287  0.2207 -0.7151
  847MPD2    H512504   0.487   0.247  13.784  1.2066 -0.7726  0.1039
  847MPD2    N112505   0.171   0.611  14.084  0.0809 -0.1462 -0.3588
  847MPD2    H712506   0.194   0.556  14.166 -1.0485 -1.0642 -0.6532
  848MPD2     C12507   3.230   2.649  16.392  0.0798 -0.2099  0.8840
  848MPD2    C112508   3.254   2.719  16.506  0.6343 -0.1361  0.3017
  848MPD2    C212509   3.296   2.844  16.497  0.1278  0.4610 -0.0026
  848MPD2    C312510   3.310   2.907  16.372  0.4872 -0.2666  0.5290
  848MPD2    C412511   3.272   2.837  16.263  0.5624 -0.8465 -0.2281
  848MPD2    C512512   3.243   2.702  16.271  0.1495  0.1893  0.2181
  848MPD2     H12513   3.323   2.903  16.584  0.7595  0.4930 -0.2201
  848MPD2    H112514   3.273   2.875  16.161 -0.2469  1.7242  0.7304
  848MPD2    H212515   3.194   2.547  16.397 -2.3976  0.7085  1.6258
  848MPD2    H312516   3.231   2.647  16.179  0.5820 -0.6646  0.6699
  848MPD2     N12517   3.326   3.040  16.344 -0.0596  0.0616  0.5816
  848MPD2    H512518   3.327   3.068  16.247  0.3593 -2.8264 -0.2494
  848MPD2    N112519   3.241   2.664  16.634 -0.1977  0.1318  0.0469
  848MPD2    H712520   3.250   2.724  16.716  1.5622  1.2166 -0.9223
  849MPD2     C12521   2.395   2.984  13.587 -0.4595 -0.0969 -0.5482
  849MPD2    C112522   2.352   2.856  13.599  0.2850  0.0465  0.0843
  849MPD2    C212523   2.288   2.817  13.718 -0.7641  0.1559 -0.0865
  849MPD2    C312524   2.263   2.908  13.824 -0.4194  0.1039 -0.2307
  849MPD2    C412525   2.301   3.038  13.807  0.2956  0.1464 -0.1683
  849MPD2    C512526   2.358   3.076  13.683  0.1862 -0.3745 -0.2001
  849MPD2     H12527   2.260   2.713  13.731 -0.1664 -0.0960 -0.8145
  849MPD2    H112528   2.282   3.112  13.884  0.4359 -0.9245  0.8922
  849MPD2    H212529   2.463   3.006  13.505  2.4677  0.4788  2.0484
  849MPD2    H312530   2.378   3.183  13.675  0.5873 -0.5546 -1.6551
  849MPD2     N12531   2.205   2.866  13.945  0.6037  0.2147  0.6400
  849MPD2    H512532   2.216   2.930  14.023 -0.3826  0.2258  0.7704
  849MPD2    N112533   2.381   2.755  13.507 -0.6421  0.4996 -0.6811
  849MPD2    H712534   2.383   2.660  13.542 -0.0546  1.4855  2.0046
  850MPD2     C12535   0.313   1.011  14.764 -0.3205 -0.3110 -0.2339
  850MPD2    C112536   0.326   0.927  14.869  0.2622  0.2560 -0.1008
  850MPD2    C212537   0.445   0.862  14.897  0.0996  0.2051  0.2792
  850MPD2    C312538   0.559   0.903  14.833  0.0628  0.2181  0.8546
  850MPD2    C412539   0.552   0.998  14.740  0.1680  0.2589 -0.5139
  850MPD2    C512540   0.424   1.043  14.701 -0.8241  0.5900  0.3880
  850MPD2     H12541   0.445   0.788  14.976 -1.1780  1.2321  1.2360
  850MPD2    H112542   0.646   1.028  14.695  0.9153 -1.8561 -0.3617
  850MPD2    H212543   0.220   1.060  14.738 -0.0327 -0.4231 -1.4921
  850MPD2    H312544   0.418   1.115  14.621 -1.4545 -0.1497 -0.2331
  850MPD2     N12545   0.682   0.876  14.897 -0.6251 -0.2661  0.4894
  850MPD2    H512546   0.760   0.928  14.856  0.0678 -0.3279  1.7438
  850MPD2    N112547   0.219   0.894  14.958 -0.5138 -0.0805 -0.3628
  850MPD2    H712548   0.238   0.816  15.020  0.3792 -1.6087 -2.5694
  851MPD2     C12549   0.540   0.708  15.509  0.3604 -0.2353 -0.0267
  851MPD2    C112550   0.457   0.660  15.409  0.1232  0.4457  1.1336
  851MPD2    C212551   0.493   0.550  15.339  0.4069  0.7029 -0.2098
  851MPD2    C312552   0.616   0.492  15.352  0.8033  0.4570  0.3184
  851MPD2    C412553   0.691   0.531  15.455 -0.5297 -0.0889  0.2918
  851MPD2    C512554   0.658   0.643  15.524  0.6206  0.7603 -0.8531
  851MPD2     H12555   0.429   0.512  15.261  1.2424  0.7681 -0.9209
  851MPD2    H112556   0.780   0.475  15.480 -0.8938 -0.6008  0.4228
  851MPD2    H212557   0.514   0.798  15.564 -2.5383 -2.6731  2.6148
  851MPD2    H312558   0.732   0.684  15.592  0.2128 -0.1719  0.1686
  851MPD2     N12559   0.644   0.379  15.267 -0.5006  0.0932 -0.5076
  851MPD2    H512560   0.560   0.354  15.217 -2.7138  2.1712  2.1538
  851MPD2    N112561   0.340   0.731  15.384  0.0995  0.3888  0.1362
  851MPD2    H712562   0.312   0.809  15.442 -1.5612 -0.3670  0.3728
  852MPD2     C12563   4.367   3.264   9.708 -0.1439 -0.0092 -0.5281
  852MPD2    C112564   4.386   3.268   9.846  0.1060 -0.9452 -0.7037
  852MPD2    C212565   4.499   3.341   9.887  0.8613  0.4529 -0.3408
  852MPD2    C312566   4.585   3.402   9.801  0.2456  0.2764 -0.2600
  852MPD2    C412567   4.568   3.389   9.667  0.6531 -0.4291 -0.0200
  852MPD2    C512568   4.459   3.317   9.626  0.1443 -0.7861 -0.0330
  852MPD2     H12569   4.519   3.356   9.992  0.7259  1.8608 -0.5238
  852MPD2    H112570   4.633   3.435   9.594 -0.7849 -0.3233 -1.2480
  852MPD2    H212571   4.287   3.213   9.654 -0.4798  0.5390 -0.5425
  852MPD2    H312572   4.448   3.301   9.519  1.4661 -1.5083 -0.0585
  852MPD2     N12573   4.679   3.486   9.866 -0.9062  0.7898 -0.1232
  852MPD2    H512574   4.691   3.481   9.967  0.5041 -2.0850 -0.4469
  852MPD2    N112575   4.304   3.202   9.943  0.4248  0.1022  0.1218
  852MPD2    H712576   4.325   3.218  10.041 -1.7554  0.1304  0.5800
  853MPD2     C12577   1.790   3.127  12.074  0.3836  0.0894  0.2359
  853MPD2    C112578   1.667   3.184  12.102 -0.4495 -0.0910  0.2153
  853MPD2    C212579   1.567   3.176  12.007 -0.2382  0.0235  0.0167
  853MPD2    C312580   1.587   3.121  11.886  0.3611  0.2918  0.6772
  853MPD2    C412581   1.712   3.059  11.859 -0.6884 -0.0339 -0.3148
  853MPD2    C512582   1.813   3.065  11.954 -0.3846 -0.9034  0.3819
  853MPD2     H12583   1.473   3.226  12.028  0.0745  0.6700 -0.1143
  853MPD2    H112584   1.730   3.015  11.761 -1.8242  0.8777 -0.9364
  853MPD2    H212585   1.873   3.121  12.143 -0.6503 -1.0005  1.3752
  853MPD2    H312586   1.908   3.018  11.931 -0.5754 -0.4847 -1.2367
  853MPD2     N12587   1.491   3.104  11.789 -0.0657  0.0928 -0.3271
  853MPD2    H512588   1.528   3.051  11.711  1.2043 -0.3698  0.5944
  853MPD2    N112589   1.646   3.234  12.226  0.4476 -0.2717  0.3205
  853MPD2    H712590   1.726   3.238  12.289  0.3048  0.3796  0.4631
  854MPD2     C12591   3.572   3.961  13.250  0.2572  0.3345  0.1199
  854MPD2    C112592   3.497   3.861  13.190  0.0028 -0.0369 -0.0209
  854MPD2    C212593   3.544   3.733  13.178 -0.2219 -0.6432  0.2010
  854MPD2    C312594   3.668   3.699  13.239 -0.4003 -1.0952  0.0388
  854MPD2    C412595   3.740   3.795  13.306  0.2372  0.8458  0.6139
  854MPD2    C512596   3.689   3.925  13.309 -0.2745 -0.0914  0.5897
  854MPD2     H12597   3.481   3.663  13.124 -0.5393 -2.2778  2.6718
  854MPD2    H112598   3.845   3.779  13.327  0.8767  0.4022 -3.0643
  854MPD2    H212599   3.552   4.067  13.241 -0.6695  0.1709  0.2291
  854MPD2    H312600   3.750   4.002  13.354  0.3007 -0.4362  0.4039
  854MPD2     N12601   3.722   3.565  13.228 -0.6579  0.3899  0.1299
  854MPD2    H512602   3.812   3.547  13.270  0.9210  4.2249 -1.5757
  854MPD2    N112603   3.380   3.904  13.128 -0.6039 -0.9404  0.2020
  854MPD2    H712604   3.333   3.984  13.170  1.1826  0.6400 -0.8176
  855MPD2     C12605   4.148   3.238  13.886 -0.4174  0.1534  0.0171
  855MPD2    C112606   4.097   3.123  13.828 -0.5064  0.3326 -1.0335
  855MPD2    C212607   4.054   3.129  13.698  0.2435  0.1952 -1.0246
  855MPD2    C312608   4.053   3.250  13.625  0.2962 -0.6452 -0.1172
  855MPD2    C412609   4.098   3.368  13.688  0.1229  0.3016  0.7828
  855MPD2    C512610   4.146   3.357  13.818 -0.7946  0.2333  0.0786
  855MPD2     H12611   4.025   3.038  13.646  3.7346 -0.7784 -1.2417
  855MPD2    H112612   4.110   3.456  13.626  1.8947 -0.4098  0.1241
  855MPD2    H212613   4.166   3.250  13.992  2.7380 -2.3295 -0.2227
  855MPD2    H312614   4.181   3.443  13.873 -3.0442  0.5419  1.0147
  855MPD2     N12615   4.002   3.267  13.486 -0.1739  0.0697 -0.1505
  855MPD2    H512616   3.974   3.360  13.459 -0.0464  0.4511  1.0333
  855MPD2    N112617   4.090   3.003  13.903  0.2743  0.5757 -0.0959
  855MPD2    H712618   4.046   2.924  13.857  1.7131  0.8560 -1.9626
  856MPD2     C12619   0.857   4.179  13.275 -0.5308  0.3283 -0.5359
  856MPD2    C112620   0.900   4.282  13.359  0.7397  0.5937  0.3707
  856MPD2    C212621   0.857   4.413  13.340  0.0439  1.1030 -0.2126
  856MPD2    C312622   0.762   4.441  13.243  0.2527 -0.9082  0.4845
  856MPD2    C412623   0.707   4.334  13.162 -0.1624  0.0820  0.0576
  856MPD2    C512624   0.751   4.206  13.188 -0.1621  0.2092 -0.1336
  856MPD2     H12625   0.884   4.490  13.412  1.1398  1.9087 -1.4760
  856MPD2    H112626   0.621   4.346  13.097 -0.0992  2.7404  0.4480
  856MPD2    H212627   0.898   4.079  13.285  1.0821  1.0254 -0.2645
  856MPD2    H312628   0.716   4.126  13.123 -0.3224  1.5951 -1.7507
  856MPD2     N12629   0.716   4.567  13.222  0.1612 -0.6571  0.0251
  856MPD2    H512630   0.638   4.559  13.158 -0.4562  1.1962  0.5653
  856MPD2    N112631   0.993   4.258  13.462 -0.0597  0.8727 -0.4694
  856MPD2    H712632   1.030   4.341  13.508 -0.9422  0.8063  0.3445
  857MPD2     C12633   2.571   1.514  12.691  0.1991  0.1817 -0.0638
  857MPD2    C112634   2.700   1.505  12.735  0.3706 -0.5987 -0.1855
  857MPD2    C212635   2.767   1.625  12.781  0.4809  0.4329 -0.0275
  857MPD2    C312636   2.708   1.749  12.785  0.2127  0.1115 -0.3141
  857MPD2    C412637   2.582   1.753  12.733 -0.3656 -0.2766 -0.7242
  857MPD2    C512638   2.519   1.639  12.688 -0.0418  0.5169  0.7289
  857MPD2     H12639   2.870   1.630  12.814  0.3943  0.7409  0.1948
  857MPD2    H112640   2.535   1.850  12.726 -2.0812 -0.8711  2.3257
  857MPD2    H212641   2.531   1.417  12.668  0.6545 -0.1577  0.5679
  857MPD2    H312642   2.415   1.649  12.659  0.0120 -1.1197 -0.0411
  857MPD2     N12643   2.780   1.858  12.836 -0.1902 -0.2140  0.1675
  857MPD2    H512644   2.871   1.846  12.880  0.7249  2.0413 -1.1429
  857MPD2    N112645   2.765   1.380  12.732  0.1644 -0.3451  0.4715
  857MPD2    H712646   2.705   1.308  12.692  1.9344 -1.5287 -0.0226
  858MPD2     C12647   3.838   0.261  16.561 -0.3830  0.1958  0.2515
  858MPD2    C112648   3.750   0.163  16.551  0.0431 -0.2747 -0.4064
  858MPD2    C212649   3.708   0.105  16.670 -0.0417 -1.0392 -0.1098
  858MPD2    C312650   3.747   0.153  16.792 -0.4556  0.5774  0.3639
  858MPD2    C412651   3.836   0.256  16.796 -0.6943 -0.3906  0.4436
  858MPD2    C512652   3.886   0.311  16.680 -0.1945 -0.1791 -0.2578
  858MPD2     H12653   3.644   0.017  16.663 -2.1797  0.5105 -0.0095
  858MPD2    H112654   3.868   0.306  16.887 -1.0042  1.9947 -0.7434
  858MPD2    H212655   3.867   0.312  16.470 -1.0576 -0.9104 -0.5797
  858MPD2    H312656   3.941   0.405  16.687 -0.8418  0.1139  0.9398
  858MPD2     N12657   3.690   0.112  16.917  0.1811 -0.7260  0.1723
  858MPD2    H512658   3.728   0.165  16.994 -3.3673  0.9706  0.7607
  858MPD2    N112659   3.732   0.108  16.422 -0.0397  0.0637 -0.0130
  858MPD2    H712660   3.768   0.155  16.340 -0.0692  2.1616  1.1915
  859MPD2     C12661   2.372   2.178  15.362  0.2995 -0.8677  0.6792
  859MPD2    C112662   2.385   2.158  15.227 -0.4050  0.2617  0.4037
  859MPD2    C212663   2.431   2.042  15.177 -0.2673 -0.1777 -0.5319
  859MPD2    C312664   2.439   1.930  15.263 -0.2058 -1.0544 -0.5744
  859MPD2    C412665   2.416   1.943  15.397  0.4320 -0.4315 -0.1900
  859MPD2    C512666   2.389   2.067  15.447 -0.0489 -0.4247  0.1158
  859MPD2     H12667   2.442   2.023  15.071  2.9728 -1.7277  0.0994
  859MPD2    H112668   2.438   1.862  15.465  1.0609  0.2849  0.4612
  859MPD2    H212669   2.342   2.264  15.420 -0.3635 -0.8671  0.3354
  859MPD2    H312670   2.381   2.089  15.553 -0.8096  1.3188 -0.2916
  859MPD2     N12671   2.479   1.802  15.226  0.0134  0.0495  0.3935
  859MPD2    H512672   2.472   1.728  15.294 -0.8948 -0.5274 -0.3227
  859MPD2    N112673   2.365   2.270  15.149  0.3037  0.2311  0.2294
  859MPD2    H712674   2.351   2.350  15.209  1.1131  0.7305 -0.2494
  860MPD2     C12675   4.253   3.273  11.753  0.5749 -0.3316  0.3567
  860MPD2    C112676   4.247   3.267  11.892 -0.1254 -0.3773  0.1155
  860MPD2    C212677   4.128   3.237  11.953  0.1361  0.3643 -0.5492
  860MPD2    C312678   4.010   3.222  11.882 -0.1429 -0.0058  0.5169
  860MPD2    C412679   4.024   3.212  11.743  0.4610  0.6153  0.5680
  860MPD2    C512680   4.141   3.236  11.681  0.3019  0.5887 -0.1374
  860MPD2     H12681   4.112   3.250  12.059  1.5810  3.7192 -0.7633
  860MPD2    H112682   3.939   3.185  11.681  0.3621  0.0855  0.9415
  860MPD2    H212683   4.343   3.311  11.705 -0.6104  1.3348 -0.5314
  860MPD2    H312684   4.148   3.244  11.573 -0.3054 -0.6706 -0.2752
  860MPD2     N12685   3.885   3.205  11.950  0.4828  0.0272  0.9854
  860MPD2    H512686   3.884   3.219  12.050 -0.8282  1.4566  0.7584
  860MPD2    N112687   4.358   3.282  11.980  0.4412  0.1699 -0.2214
  860MPD2    H712688   4.342   3.255  12.077 -1.3839  1.0585 -0.2675
  861MPD2     C12689   3.128   1.448  10.974  0.6011  0.1048  0.1307
  861MPD2    C112690   3.037   1.402  11.068  1.0009  0.0066  0.5919
  861MPD2    C212691   2.900   1.403  11.026 -0.0182  0.8233 -0.8643
  861MPD2    C312692   2.861   1.443  10.901  0.0440 -0.8807  0.1396
  861MPD2    C412693   2.961   1.485  10.814  0.1728 -0.7136  0.2310
  861MPD2    C512694   3.088   1.489  10.850 -1.3029  0.4325 -0.0861
  861MPD2     H12695   2.829   1.364  11.098  0.0353  0.0275 -1.2313
  861MPD2    H112696   2.936   1.520  10.714 -2.2203  0.2017  1.1469
  861MPD2    H212697   3.234   1.454  10.992  0.6441 -0.1515 -0.0485
  861MPD2    H312698   3.162   1.532  10.784 -0.1706  1.1534  1.6646
  861MPD2     N12699   2.727   1.461  10.861 -0.1030 -0.0211 -0.4213
  861MPD2    H512700   2.712   1.517  10.778 -1.4791  1.6826  0.9884
  861MPD2    N112701   3.063   1.348  11.197 -0.0451  0.4955  0.2509
  861MPD2    H712702   2.990   1.302  11.251  2.9244 -1.2881  2.6810
  862MPD2     C12703   2.149   1.395  10.400 -0.4808  0.0974  0.3873
  862MPD2    C112704   2.235   1.333  10.483 -0.1117 -0.5054 -0.5602
  862MPD2    C212705   2.264   1.197  10.474 -0.0407  0.6613 -0.3568
  862MPD2    C312706   2.197   1.112  10.385 -0.5923 -0.1022 -0.6165
  862MPD2    C412707   2.098   1.166  10.304 -0.2450 -0.0596 -0.0632
  862MPD2    C512708   2.084   1.309  10.303 -0.0777 -0.3855 -0.1870
  862MPD2     H12709   2.345   1.161  10.537 -0.8674 -0.3628  0.1327
  862MPD2    H112710   2.041   1.108  10.232 -0.6300  0.9904 -0.5979
  862MPD2    H212711   2.141   1.502  10.391  1.4960  0.3153  1.2693
  862MPD2    H312712   2.021   1.350  10.225  1.7778 -1.0747 -2.0504
  862MPD2     N12713   2.232   0.977  10.380  0.1569  0.5929  0.0988
  862MPD2    H512714   2.302   0.952  10.450 -1.1035  0.7800  1.4198
  862MPD2    N112715   2.308   1.414  10.578  0.0562  0.4342  0.8029
  862MPD2    H712716   2.375   1.363  10.636  1.7501  0.5732 -1.0293
  863MPD2     C12717   2.184   3.771  16.445 -0.6316 -0.3663 -0.3451
  863MPD2    C112718   2.120   3.743  16.566  0.4985  0.1946  0.1116
  863MPD2    C212719   2.207   3.700  16.673 -0.5072  0.1740  0.4507
  863MPD2    C312720   2.348   3.697  16.650  0.1589 -0.3925 -0.0302
  863MPD2    C412721   2.403   3.730  16.530  0.3660  0.4624  0.3979
  863MPD2    C512722   2.318   3.762  16.428 -0.4447 -0.5244 -1.0081
  863MPD2     H12723   2.166   3.666  16.767  1.4043  0.6964  1.4811
  863MPD2    H112724   2.509   3.727  16.508  1.4215  2.7484  5.1664
  863MPD2    H212725   2.120   3.808  16.366  0.3410  1.2147 -0.3850
  863MPD2    H312726   2.364   3.778  16.331 -1.5987  0.2995 -1.4304
  863MPD2     N12727   2.424   3.653  16.758  0.1565  0.0532 -0.2242
  863MPD2    H512728   2.382   3.620  16.844  0.0174  0.7667 -0.0188
  863MPD2    N112729   1.979   3.781  16.582 -0.1385  0.6246 -0.3372
  863MPD2    H712730   1.928   3.800  16.497  0.5023  1.1196 -0.6133
  864MPD2     C12731   2.614   4.444  17.272  0.6258 -0.8418  0.6002
  864MPD2    C112732   2.655   4.426  17.136 -0.6695 -0.3676 -0.8015
  864MPD2    C212733   2.711   4.533  17.068  0.3192  0.0728  0.0965
  864MPD2    C312734   2.731   4.652  17.134  0.2335 -0.1101  0.1980
  864MPD2    C412735   2.699   4.667  17.265  0.1520  0.4146 -0.5888
  864MPD2    C512736   2.637   4.567  17.328  0.1493 -0.2514 -0.1043
  864MPD2     H12737   2.751   4.521  16.968 -1.5680 -0.2719 -0.6238
  864MPD2    H112738   2.711   0.025  17.310 -0.0425 -0.0619  0.4962
  864MPD2    H212739   2.565   4.368  17.332 -0.7906 -0.9669 -0.7335
  864MPD2    H312740   2.608   4.576  17.432 -1.9416  2.2707 -0.8921
  864MPD2     N12741   2.787   0.030  17.072 -0.6048  0.5408 -0.2143
  864MPD2    H512742   2.797   0.109  17.135 -0.1349  0.9786 -0.8377
  864MPD2    N112743   2.617   4.306  17.073 -0.6519 -0.0440 -0.1855
  864MPD2    H712744   2.561   4.247  17.134  0.9811 -2.3987 -0.9353
  865MPD2     C12745   2.849   0.579  16.298 -1.1351 -0.8878  0.7273
  865MPD2    C112746   2.797   0.460  16.354  0.1388 -0.0456  0.1543
  865MPD2    C212747   2.764   0.463  16.488  0.2081 -0.0400 -0.7506
  865MPD2    C312748   2.787   0.562  16.569  0.5321 -0.1776  0.6021
  865MPD2    C412749   2.843   0.680  16.519  0.9461  0.0315 -0.0567
  865MPD2    C512750   2.878   0.687  16.379  0.5169 -0.2994  0.5011
  865MPD2     H12751   2.712   0.380  16.534  1.0155 -1.2116 -1.9576
  865MPD2    H112752   2.864   0.762  16.586  1.0380 -0.3794  0.4172
  865MPD2    H212753   2.864   0.585  16.191  1.1232  0.5985  1.1438
  865MPD2    H312754   2.921   0.776  16.336  0.5439 -0.2620  0.6063
  865MPD2     N12755   2.790   0.557  16.712  0.1407  0.3878  0.0046
  865MPD2    H512756   2.845   0.628  16.761  2.7918 -1.7885  0.1949
  865MPD2    N112757   2.781   0.344  16.278  0.2051 -0.0529 -0.3003
  865MPD2    H712758   2.802   0.357  16.179 -0.4133 -0.9868 -0.5552
  866MPD2     C12759   3.701   1.781  11.441 -0.3383 -0.4522  0.5874
  866MPD2    C112760   3.681   1.737  11.309 -0.3784  0.1736  0.4737
  866MPD2    C212761   3.550   1.740  11.260  0.4868  0.8931 -0.6603
  866MPD2    C312762   3.452   1.782  11.354 -0.6759  0.2974 -0.1753
  866MPD2    C412763   3.474   1.800  11.492  0.0840  0.1599  0.4373
  866MPD2    C512764   3.602   1.800  11.536 -0.3264 -0.9558 -0.0006
  866MPD2     H12765   3.515   1.712  11.162  2.3277 -1.8637 -0.5294
  866MPD2    H112766   3.392   1.810  11.562  0.9755  0.2343  1.4733
  866MPD2    H212767   3.802   1.775  11.479  0.2760 -0.6446 -1.0510
  866MPD2    H312768   3.639   1.802  11.638  0.2248  1.0837 -0.2424
  866MPD2     N12769   3.313   1.789  11.324 -0.2613 -0.5790  0.2888
  866MPD2    H512770   3.243   1.809  11.395 -0.1841 -0.1684  0.2473
  866MPD2    N112771   3.787   1.679  11.238  0.1993 -0.5136 -0.0291
  866MPD2    H712772   3.880   1.679  11.279  0.2722  4.3047 -0.1685
  867MPD2     C12773   1.792   0.595  17.252  0.7655 -0.7413  0.4154
  867MPD2    C112774   1.677   0.557  17.186  0.0169  0.5512 -0.0895
  867MPD2    C212775   1.565   0.629  17.213  0.3847  0.3098  0.2879
  867MPD2    C312776   1.576   0.743  17.295 -0.2505 -0.2337  0.1671
  867MPD2    C412777   1.695   0.788  17.347 -0.2251  0.4371 -0.2738
  867MPD2    C512778   1.812   0.711  17.325 -0.1945 -0.0742 -0.6261
  867MPD2     H12779   1.472   0.599  17.166  1.9770  1.1703 -3.3689
  867MPD2    H112780   1.700   0.882  17.401  1.4543  0.1751  0.0207
  867MPD2    H212781   1.885   0.539  17.244  1.3236  0.1043  1.0715
  867MPD2    H312782   1.910   0.738  17.363 -1.0768  2.1301  0.0677
  867MPD2     N12783   1.465   0.821  17.331  0.2306 -0.1477 -1.0703
  867MPD2    H512784   1.475   0.900  17.393 -1.0789 -0.3504 -0.5986
  867MPD2    N112785   1.698   0.454  17.093  0.1073 -0.0941 -0.1872
  867MPD2    H712786   1.793   0.420  17.079  0.2743  0.7079 -1.0248
  868MPD2     C12787   2.812   4.694  13.063  0.0031  0.8730  0.1987
  868MPD2    C112788   2.885   4.630  13.160  0.2028 -0.1313  0.4561
  868MPD2    C212789   2.817   4.574  13.267 -0.4633 -0.1513  1.0241
  868MPD2    C312790   2.684   4.599  13.293  0.0903  0.6693  0.4756
  868MPD2    C412791   2.619   4.687  13.205 -0.4360 -0.4423  0.2417
  868MPD2    C512792   2.681   4.729  13.085 -0.1156  0.8607  0.2542
  868MPD2     H12793   2.864   4.520  13.349 -2.5684 -1.2801  1.4677
  868MPD2    H112794   2.517   4.725  13.206  0.0262  0.7783  1.0783
  868MPD2    H212795   2.861   4.728  12.972 -1.2658 -0.5612 -1.0415
  868MPD2    H312796   2.628   0.057  13.018  0.7264  2.0343  0.7689
  868MPD2     N12797   2.609   4.537  13.403 -0.2061 -0.4247  0.3063
  868MPD2    H512798   2.657   4.476  13.469 -0.4550 -0.0277  0.8580
  868MPD2    N112799   3.021   4.616  13.140 -0.7179 -0.0908 -0.2663
  868MPD2    H712800   3.058   4.650  13.052  1.1001  0.1964  0.6059
  869MPD2     C12801   3.861   2.012   0.725 -0.4846 -0.0273  0.1205
  869MPD2    C112802   3.878   2.076   0.605 -0.5352 -0.0974 -0.7179
  869MPD2    C212803   3.997   2.150   0.595  1.0010 -0.3181  0.3858
  869MPD2    C312804   4.105   2.126   0.685 -0.1623  0.3481 -0.8804
  869MPD2    C412805   4.082   2.061   0.800 -0.2143  0.7366  0.4579
  869MPD2    C512806   3.955   2.018   0.825 -0.2591 -0.2310  0.1607
  869MPD2     H12807   4.025   2.176   0.493  0.9246 -2.7266 -0.2536
  869MPD2    H112808   4.159   2.060   0.877  0.3141  0.0128 -0.0752
  869MPD2    H212809   3.766   1.969   0.753 -0.3015 -2.1353 -2.5813
  869MPD2    H312810   3.932   1.965   0.916 -1.7956  0.1588 -0.0083
  869MPD2     N12811   4.232   2.179   0.665 -0.3443 -0.3040 -0.2202
  869MPD2    H512812   4.288   2.187   0.750 -0.4069  0.5554 -0.2632
  869MPD2    N112813   3.790   2.056   0.499 -0.3015 -0.0806  0.0373
  869MPD2    H712814   3.719   1.986   0.519 -0.7265  0.0128 -1.1341
  870MPD2     C12815   3.727   0.402   1.595 -0.3480  0.1203 -0.3192
  870MPD2    C112816   3.838   0.468   1.541  0.6576  0.4556 -0.0829
  870MPD2    C212817   3.820   0.599   1.508 -0.0143  0.2965  0.0456
  870MPD2    C312818   3.711   0.675   1.548 -0.4117  0.5236  0.3327
  870MPD2    C412819   3.608   0.613   1.616 -0.1201 -0.0978 -0.1097
  870MPD2    C512820   3.623   0.479   1.641 -0.3737 -0.5369  0.6437
  870MPD2     H12821   3.906   0.657   1.476  0.3762  0.9191  2.2619
  870MPD2    H112822   3.520   0.667   1.648 -0.9460 -1.7612  0.3816
  870MPD2    H212823   3.737   0.295   1.609 -2.4388  0.0052  0.2140
  870MPD2    H312824   3.547   0.418   1.687  1.4963 -1.5318  2.4169
  870MPD2     N12825   3.715   0.818   1.521 -0.2582  0.1247  0.0189
  870MPD2    H512826   3.785   0.843   1.451 -0.9252  0.2325 -0.6118
  870MPD2    N112827   3.962   0.397   1.531  0.2539  0.1167 -0.2207
  870MPD2    H712828   3.954   0.299   1.559  1.8429 -0.6787 -2.5075
  871MPD2     C12829   0.359   0.805  16.311 -0.5532 -0.6290  1.1720
  871MPD2    C112830   0.309   0.752  16.430 -0.6674  0.7258  0.6811
  871MPD2    C212831   0.271   0.624  16.441  0.8796  0.3221  0.3140
  871MPD2    C312832   0.279   0.544  16.332 -0.1537  0.3221 -0.1176
  871MPD2    C412833   0.308   0.602  16.210 -0.2153  0.4630  0.7752
  871MPD2    C512834   0.348   0.727  16.199 -0.5117  1.6179 -0.1297
  871MPD2     H12835   0.236   0.583  16.535 -2.9991 -0.0780 -1.2594
  871MPD2    H112836   0.308   0.553  16.114  0.1695  1.3664  0.3085
  871MPD2    H212837   0.395   0.906  16.293 -0.2801 -0.7061  1.2857
  871MPD2    H312838   0.381   0.761  16.101  0.2835  1.0533 -0.0515
  871MPD2     N12839   0.235   0.410  16.338  0.1949 -0.3514 -0.3567
  871MPD2    H512840   0.185   0.372  16.418 -1.7751 -0.3168 -1.5731
  871MPD2    N112841   0.297   0.844  16.533  0.0194 -0.1467 -1.2246
  871MPD2    H712842   0.311   0.943  16.513 -1.0535  0.2730  0.1278
  872MPD2     C12843   0.997   3.550  13.558 -0.1936 -0.0621 -0.0505
  872MPD2    C112844   1.060   3.541  13.685  0.6027  0.4301 -0.4898
  872MPD2    C212845   0.974   3.512  13.792 -0.0289  1.2935 -0.3171
  872MPD2    C312846   0.846   3.463  13.778 -0.0185  0.1070  0.5623
  872MPD2    C412847   0.792   3.462  13.651 -0.1062 -0.3958  0.7642
  872MPD2    C512848   0.871   3.510  13.546  0.3029 -0.7743 -0.1823
  872MPD2     H12849   1.023   3.527  13.887 -2.3123  1.5743  0.8007
  872MPD2    H112850   0.691   3.431  13.627  0.6817 -0.8405 -2.0371
  872MPD2    H212851   1.048   3.582  13.468 -0.2286 -0.6156 -0.2699
  872MPD2    H312852   0.832   3.519  13.446  0.0131 -0.7192 -0.0658
  872MPD2     N12853   0.761   3.432  13.884 -0.3108  0.0253  0.1012
  872MPD2    H512854   0.666   3.401  13.864 -0.3185 -0.3245  0.6847
  872MPD2    N112855   1.196   3.586  13.718  0.4050 -0.0223 -0.0577
  872MPD2    H712856   1.234   3.558  13.808  1.3610  0.6113 -0.2725
  873MPD2     C12857   2.901   2.830   0.577 -0.2960 -0.1432 -0.2255
  873MPD2    C112858   2.861   2.720   0.658  0.0157  0.1316 -0.1459
  873MPD2    C212859   2.770   2.632   0.609 -0.8747  0.7216 -0.0270
  873MPD2    C312860   2.722   2.650   0.478 -0.1112  0.9388 -0.0697
  873MPD2    C412861   2.761   2.758   0.397  0.3167 -0.3590 -0.4101
  873MPD2    C512862   2.861   2.842   0.446 -0.3011 -0.1895  0.9504
  873MPD2     H12863   2.733   2.556   0.677 -0.5547 -2.3215 -3.2188
  873MPD2    H112864   2.736   2.772   0.293  3.1772 -0.9973 -1.1807
  873MPD2    H212865   2.974   2.903   0.608  1.6048 -1.7590 -0.9225
  873MPD2    H312866   2.899   2.925   0.387  0.7210 -1.1404  0.2726
  873MPD2     N12867   2.628   2.556   0.432 -0.6512  0.2240  0.0785
  873MPD2    H512868   2.563   2.586   0.359  0.6423  1.6413 -0.4886
  873MPD2    N112869   2.918   2.706   0.787 -0.9448  0.2792 -0.2702
  873MPD2    H712870   2.974   2.784   0.821  1.7574 -2.7545  2.1143
  874MPD2     C12871   2.627   3.368  15.965 -0.3459  0.2064 -0.2041
  874MPD2    C112872   2.643   3.272  16.064 -0.3158  0.6016  0.3224
  874MPD2    C212873   2.765   3.262  16.126  0.9249  0.0095 -0.0907
  874MPD2    C312874   2.866   3.346  16.089 -0.0094  0.6063 -0.9166
  874MPD2    C412875   2.850   3.433  15.986  0.7715  0.1851 -0.0525
  874MPD2    C512876   2.737   3.432  15.914  0.2716  0.8351 -0.2634
  874MPD2     H12877   2.778   3.200  16.214  1.4132  0.1675 -0.0514
  874MPD2    H112878   2.932   3.489  15.942  0.7077  2.2643  2.4209
  874MPD2    H212879   2.533   3.387  15.915  0.2213 -3.7122 -2.7475
  874MPD2    H312880   2.727   3.500  15.831 -2.7553  2.4165  1.3781
  874MPD2     N12881   2.985   3.340  16.165  0.4388  0.1118 -0.4995
  874MPD2    H512882   2.990   3.277  16.244  1.4817 -0.4556 -1.0086
  874MPD2    N112883   2.539   3.183  16.090  0.1453  0.6694 -0.4034
  874MPD2    H712884   2.449   3.228  16.083  0.9441  2.5693  1.3737
  875MPD2     C12885   3.414   1.481  14.364 -0.1373 -0.2652 -0.1172
  875MPD2    C112886   3.293   1.488  14.419 -0.6494 -0.3111  0.0022
  875MPD2    C212887   3.268   1.561  14.533  0.0919 -0.5844  0.9970
  875MPD2    C312888   3.375   1.624  14.595 -0.1137  0.9528  0.3595
  875MPD2    C412889   3.492   1.633  14.525 -0.3557 -0.1125  0.2702
  875MPD2    C512890   3.515   1.554  14.421 -0.0124 -0.4241 -0.5539
  875MPD2     H12891   3.169   1.568  14.576 -0.5426  1.7739 -0.7973
  875MPD2    H112892   3.574   1.687  14.570 -0.4858 -1.0827  1.6940
  875MPD2    H212893   3.446   1.419  14.281  3.6179 -2.0425  2.6328
  875MPD2    H312894   3.613   1.561  14.376 -0.4273 -1.0715 -1.5446
  875MPD2     N12895   3.364   1.692  14.722 -0.2932  0.3882 -0.0483
  875MPD2    H512896   3.437   1.761  14.740  0.0096  0.5361 -1.8135
  875MPD2    N112897   3.182   1.434  14.354 -0.0979  0.2179 -0.4699
  875MPD2    H712898   3.093   1.447  14.401 -0.9825 -1.8218 -1.5532
  876MPD2     C12899   2.162   2.745  16.073 -0.2394 -1.0098 -0.4577
  876MPD2    C112900   2.295   2.740  16.048 -0.7158 -0.1523  0.0409
  876MPD2    C212901   2.379   2.662  16.128  0.3099 -0.3854  0.3919
  876MPD2    C312902   2.318   2.579  16.217  0.1784 -0.8953 -0.0366
  876MPD2    C412903   2.185   2.565  16.235  0.1379  0.2354 -0.6783
  876MPD2    C512904   2.114   2.661  16.171  0.5245 -0.1454  0.5693
  876MPD2     H12905   2.486   2.677  16.119 -0.0952  0.2067 -3.4080
  876MPD2    H112906   2.135   2.506  16.311  0.8104  0.3366 -0.1655
  876MPD2    H212907   2.091   2.807  16.019 -0.2467  0.3921  1.1615
  876MPD2    H312908   2.008   2.671  16.191  0.6762  4.3188 -0.9960
  876MPD2     N12909   2.407   2.509  16.297 -0.5238 -0.1286  0.9225
  876MPD2    H512910   2.507   2.505  16.277 -0.5550  0.1725  0.7107
  876MPD2    N112911   2.355   2.826  15.953  0.3164 -0.4152  0.2046
  876MPD2    H712912   2.287   2.877  15.896  0.4673 -0.7982 -0.3174
  877MPD2     C12913   2.132   3.129  15.430 -0.4554 -0.0945 -0.7575
  877MPD2    C112914   2.243   3.203  15.420 -0.7203  0.3118 -0.7446
  877MPD2    C212915   2.278   3.261  15.300 -0.3799 -1.0469 -0.9955
  877MPD2    C312916   2.212   3.228  15.184  0.7023 -0.0761  0.1568
  877MPD2    C412917   2.102   3.139  15.191  0.6544  0.1623 -0.7325
  877MPD2    C512918   2.061   3.097  15.315  0.1683 -0.3544 -0.3759
  877MPD2     H12919   2.369   3.318  15.292 -0.7626  0.2718  3.8448
  877MPD2    H112920   2.039   3.117  15.106 -1.8757  2.0152  0.6660
  877MPD2    H212921   2.097   3.092  15.526 -0.2549  0.6268 -0.4029
  877MPD2    H312922   1.972   3.034  15.322  0.1892 -0.1208  2.0767
  877MPD2     N12923   2.243   3.280  15.053 -0.0077  0.0313  0.6694
  877MPD2    H512924   2.210   3.237  14.968 -1.8208  1.0999  0.8396
  877MPD2    N112925   2.339   3.213  15.522  0.2536 -0.3461  0.3547
  877MPD2    H712926   2.415   3.278  15.506 -1.5335  1.2950 -1.4368
  878MPD2     C12927   2.336   2.267  12.639 -0.2840 -0.1312  0.6873
  878MPD2    C112928   2.391   2.390  12.637 -0.2479 -0.1328  0.0428
  878MPD2    C212929   2.439   2.443  12.760 -0.0932  0.3492 -0.3472
  878MPD2    C312930   2.415   2.373  12.875  0.3946  0.5439 -0.3300
  878MPD2    C412931   2.334   2.262  12.870  0.8560  0.7252 -0.2306
  878MPD2    C512932   2.308   2.201  12.751 -0.4892 -0.3703 -0.4918
  878MPD2     H12933   2.490   2.539  12.766 -2.0683  1.2803  1.5709
  878MPD2    H112934   2.293   2.212  12.957 -0.9474  0.1782 -1.4092
  878MPD2    H212935   2.275   2.224  12.560  1.9352 -1.6676 -0.1899
  878MPD2    H312936   2.241   2.118  12.730 -2.7018  1.3302 -0.0944
  878MPD2     N12937   2.458   2.430  13.000 -0.1975  0.1818  0.0858
  878MPD2    H512938   2.505   2.520  12.991  0.7016 -0.4401 -1.5079
  878MPD2    N112939   2.376   2.460  12.517 -0.1828  0.1300  0.1754
  878MPD2    H712940   2.328   2.414  12.440  1.9809  0.3972 -1.3327
  879MPD2     C12941   3.103   3.117  17.156 -0.1148  0.2229 -0.4301
  879MPD2    C112942   3.071   3.234  17.090 -0.0835 -0.0802  0.7253
  879MPD2    C212943   2.966   3.235  17.000  0.1747 -0.6153 -0.0357
  879MPD2    C312944   2.898   3.117  16.969 -0.0890  0.7766  0.4022
  879MPD2    C412945   2.932   2.998  17.034  0.5773  0.9079 -0.6916
  879MPD2    C512946   3.040   3.002  17.117 -0.2640 -0.2580  0.2254
  879MPD2     H12947   2.921   3.325  16.961  1.0971  0.2731  0.9636
  879MPD2    H112948   2.882   2.907  17.003  1.3143  1.4275 -3.3852
  879MPD2    H212949   3.186   3.110  17.226 -1.9325 -2.2227  1.5002
  879MPD2    H312950   3.070   2.910  17.166  1.1489 -0.0427 -0.2288
  879MPD2     N12951   2.786   3.115  16.877 -0.6129  0.8120 -0.7121
  879MPD2    H512952   2.726   3.033  16.874 -1.1121  1.1764 -0.7020
  879MPD2    N112953   3.132   3.353  17.139 -0.6199  0.0517 -0.2389
  879MPD2    H712954   3.195   3.344  17.217 -0.6688  1.2397 -0.0777
  880MPD2     C12955   3.845   0.711   0.130  0.0531 -0.2797  0.6256
  880MPD2    C112956   3.840   0.748   0.257  0.5330 -0.8129 -0.4002
  880MPD2    C212957   3.831   0.650   0.357 -0.3638 -0.0515  0.4771
  880MPD2    C312958   3.838   0.513   0.316  0.1781 -0.2504  0.1536
  880MPD2    C412959   3.838   0.481   0.182 -0.4568 -1.1541  0.3805
  880MPD2    C512960   3.828   0.579   0.093 -0.0762 -0.3767 -0.0672
  880MPD2     H12961   3.836   0.680   0.461  1.7100  0.0822  0.3399
  880MPD2    H112962   3.841   0.380   0.143 -0.2311 -1.2871  0.7457
  880MPD2    H212963   3.869   0.787   0.056  0.6246 -1.1101 -0.0389
  880MPD2    H312964   3.826   0.553  17.745  1.0860  0.2127 -0.2326
  880MPD2     N12965   3.850   0.414   0.423  0.1218  0.0339  0.4236
  880MPD2    H512966   3.862   0.464   0.510 -0.2282 -1.5269  1.3648
  880MPD2    N112967   3.864   0.886   0.289 -0.1456  0.5211 -0.1641
  880MPD2    H712968   3.878   0.952   0.214  1.6314 -1.1735 -1.3105
  881MPD2     C12969   4.459   1.643   0.044 -0.4705  0.3802 -0.5982
  881MPD2    C112970   4.454   1.513   0.008  0.1832 -0.3798 -0.3359
  881MPD2    C212971   4.404   1.428   0.109  0.0581 -0.5627  0.8245
  881MPD2    C312972   4.324   1.470   0.217  0.3773 -0.2778  0.0819
  881MPD2    C412973   4.320   1.608   0.238  0.0305 -0.0603  0.1457
  881MPD2    C512974   4.394   1.689   0.157  0.5471  0.6241 -0.4110
  881MPD2     H12975   4.413   1.320   0.106 -2.3416 -0.7440  0.1001
  881MPD2    H112976   4.252   1.642   0.315 -0.4775 -1.5302  0.3503
  881MPD2    H212977   4.494   1.712  17.725 -2.0801 -0.6813 -2.3017
  881MPD2    H312978   4.395   1.797   0.161  1.8246  0.6275 -0.9008
  881MPD2     N12979   4.254   1.394   0.314  0.2806 -0.4559  0.8773
  881MPD2    H512980   4.229   1.448   0.396 -1.1272 -1.3353  1.0162
  881MPD2    N112981   4.515   1.475  17.639  0.1893  0.1622 -0.9389
  881MPD2    H712982   4.533   1.552  17.575 -2.9563  1.0901 -0.7261
  882MPD2     C12983   2.773   3.445  14.415 -0.1147 -0.0688  0.0361
  882MPD2    C112984   2.694   3.472  14.527 -0.5016 -0.5236  0.4765
  882MPD2    C212985   2.560   3.436  14.523 -0.2417 -0.6164  0.0049
  882MPD2    C312986   2.510   3.356  14.417  1.0980  0.0445 -0.1921
  882MPD2    C412987   2.594   3.319  14.313  0.2941  0.6931 -0.5069
  882MPD2    C512988   2.718   3.373  14.310 -0.5652  0.1426 -0.4110
  882MPD2     H12989   2.504   3.461  14.612  0.2127  1.3463 -0.2646
  882MPD2    H112990   2.564   3.263  14.225 -1.7589 -0.0927  0.6930
  882MPD2    H212991   2.878   3.472  14.417  0.1708 -1.0779 -1.4901
  882MPD2    H312992   2.777   3.355  14.221  0.3518  1.9311 -0.1723
  882MPD2     N12993   2.381   3.302  14.421 -0.1784 -0.0434  0.2524
  882MPD2    H512994   2.352   3.232  14.353  2.1807 -0.6112 -0.1830
  882MPD2    N112995   2.749   3.539  14.643  0.0641  0.3813 -0.6062
  882MPD2    H712996   2.826   3.601  14.621  0.3339  0.1160 -0.4078
  883MPD2     C12997   3.992   3.568  15.997 -0.3704 -0.3262 -0.6566
  883MPD2    C112998   4.092   3.580  15.906 -0.6738 -0.1246 -0.4761
  883MPD2    C212999   4.219   3.614  15.952  0.3040 -0.4854 -0.4991
  883MPD2    C313000   4.244   3.640  16.083  0.3005  1.0490 -0.0118
  883MPD2    C413001   4.139   3.636  16.172 -0.3004  0.0744  0.1772
  883MPD2    C513002   4.014   3.604  16.124 -0.0301  0.5784  0.0217
  883MPD2     H13003   4.306   3.621  15.887 -1.0668  2.6414 -2.0022
  883MPD2    H113004   4.142   3.671  16.275 -0.0819 -0.0626  0.2163
  883MPD2    H213005   3.892   3.552  15.958 -0.3841 -1.4828 -0.1698
  883MPD2    H313006   3.928   3.625  16.187 -0.8885  2.0859 -1.6546
  883MPD2     N13007   4.372   3.677  16.123 -0.7147  0.1107 -0.1409
  883MPD2    H513008   4.442   3.666  16.051 -1.1854 -1.6767 -0.3281
  883MPD2    N113009   4.074   3.553  15.770 -0.1283  0.0855 -0.0222
  883MPD2    H713010   4.150   3.573  15.707 -0.0349 -0.3922 -0.0633
  884MPD2     C13011   1.712   4.026  15.287 -0.0892 -0.5366  1.2752
  884MPD2    C113012   1.679   4.148  15.240 -0.8188 -0.5331 -0.6430
  884MPD2    C213013   1.548   4.194  15.256  0.3620 -0.2676  1.1088
  884MPD2    C313014   1.452   4.112  15.315 -0.4951  0.2419 -0.3653
  884MPD2    C413015   1.492   3.982  15.360 -0.5405  0.0571 -0.7648
  884MPD2    C513016   1.622   3.943  15.345 -0.7203  0.6664 -0.1050
  884MPD2     H13017   1.516   4.288  15.211 -1.2528 -0.9522  0.8474
  884MPD2    H113018   1.425   3.911  15.407  2.9547 -1.8084  1.4497
  884MPD2    H213019   1.813   3.990  15.274 -0.5266 -1.8466  1.4445
  884MPD2    H313020   1.643   3.840  15.371  3.0748  1.1448 -1.2725
  884MPD2     N13021   1.321   4.156  15.341  0.3434  0.1584 -0.2369
  884MPD2    H513022   1.313   4.255  15.320  0.1628 -0.0286 -1.0544
  884MPD2    N113023   1.764   4.237  15.177 -0.1941  0.4826 -0.0069
  884MPD2    H713024   1.732   4.334  15.172  0.7441  0.8158  0.5088
  885MPD2     C13025   4.351   4.123   0.358  0.1866 -0.3183 -0.0367
  885MPD2    C113026   4.479   4.102   0.327 -0.0661 -0.3891  0.6138
  885MPD2    C213027   4.539   4.158   0.216 -0.5120  0.0229  0.5615
  885MPD2    C313028   4.462   4.256   0.140  0.2242  0.4538 -0.5774
  885MPD2    C413029   4.331   4.279   0.183 -0.1908 -0.3103  0.0900
  885MPD2    C513030   4.275   4.214   0.289  0.2608 -0.3188  0.0802
  885MPD2     H13031   4.640   4.127   0.192 -0.9164 -0.8497 -0.0038
  885MPD2    H113032   4.258   4.335   0.125  0.4256  1.7626  1.3220
  885MPD2    H213033   4.302   4.062   0.434  0.4168  0.0687  0.4185
  885MPD2    H313034   4.170   4.229   0.313  0.2518 -1.4519  0.7588
  885MPD2     N13035   4.515   4.314   0.017 -0.1935 -0.1216 -0.2942
  885MPD2    H513036   4.603   4.280  17.737 -0.0027  0.1278 -0.0778
  885MPD2    N113037   4.544   4.017   0.422  0.1545  0.1972  0.1073
  885MPD2    H713038   4.498   3.982   0.505 -2.3041 -1.8439 -2.1385
  886MPD2     C13039   1.205   2.446  15.163  0.0621 -0.1916 -0.7954
  886MPD2    C113040   1.305   2.517  15.235 -0.3467  0.9049  0.1783
  886MPD2    C213041   1.336   2.645  15.191  0.5561 -0.0488 -0.5509
  886MPD2    C313042   1.287   2.700  15.071  0.2909  0.0226 -0.5053
  886MPD2    C413043   1.195   2.632  15.003  0.0561 -0.1721 -0.1601
  886MPD2    C513044   1.161   2.506  15.043  0.7619 -0.3338  0.0460
  886MPD2     H13045   1.406   2.700  15.253 -1.8619  2.5113 -0.0940
  886MPD2    H113046   1.144   2.666  14.914  1.1373 -0.7786 -1.0214
  886MPD2    H213047   1.175   2.342  15.167 -1.6277  0.4135  2.1199
  886MPD2    H313048   1.085   2.454  14.987 -0.6944 -1.1349  2.7648
  886MPD2     N13049   1.321   2.826  15.022 -0.4443  0.4313  0.4722
  886MPD2    H513050   1.281   2.855  14.934  0.5563  0.6579  0.0943
  886MPD2    N113051   1.367   2.461  15.350  0.1778  0.1672 -0.0362
  886MPD2    H713052   1.431   2.525  15.395  0.2106  0.7673 -0.9221
  887MPD2     C13053   1.685   2.730  15.959 -0.5984 -0.3474  0.0038
  887MPD2    C113054   1.665   2.727  15.823 -0.8937  0.1416 -0.0080
  887MPD2    C213055   1.700   2.836  15.755 -0.4115 -0.0103  0.2738
  887MPD2    C313056   1.773   2.940  15.813 -0.1112  0.7988 -1.5050
  887MPD2    C413057   1.786   2.942  15.946  0.5354 -0.0836  0.1489
  887MPD2    C513058   1.745   2.837  16.020  0.0357  0.1358  0.4111
  887MPD2     H13059   1.685   2.843  15.648  0.9788  1.3321  0.1822
  887MPD2    H113060   1.825   3.028  15.999 -3.2069  1.9791 -0.4127
  887MPD2    H213061   1.647   2.648  16.020 -0.0429 -1.4921 -1.1873
  887MPD2    H313062   1.742   2.831  16.129 -0.0021  0.9642  0.4502
  887MPD2     N13063   1.823   3.043  15.728 -0.0627  0.0354 -0.2401
  887MPD2    H513064   1.808   3.048  15.628  1.3645  1.9293 -0.3498
  887MPD2    N113065   1.597   2.620  15.760 -0.1142 -0.5068 -0.0310
  887MPD2    H713066   1.596   2.636  15.659  0.3997  1.1156  0.2134
  888MPD2     C13067   3.519   2.700  14.664  0.3269 -0.1189 -0.0641
  888MPD2    C113068   3.538   2.729  14.794 -0.2098 -0.5203  0.1185
  888MPD2    C213069   3.619   2.837  14.831 -0.4928 -1.0726 -0.8339
  888MPD2    C313070   3.681   2.915  14.738  0.6922 -0.0780 -0.1988
  888MPD2    C413071   3.663   2.880  14.604 -0.3417 -0.0047 -0.3243
  888MPD2    C513072   3.579   2.776  14.571  0.0171 -0.9970 -0.0964
  888MPD2     H13073   3.637   2.849  14.937 -1.9558  1.1069 -0.8313
  888MPD2    H113074   3.710   2.931  14.521 -0.6094  0.4603 -0.1946
  888MPD2    H213075   3.468   2.609  14.633 -0.6925  0.1517  0.8164
  888MPD2    H313076   3.574   2.745  14.467 -2.0996  2.7127 -1.1228
  888MPD2     N13077   3.760   3.018  14.784 -0.2272  0.4351 -0.1658
  888MPD2    H513078   3.744   3.043  14.881 -0.0476  1.0722 -0.2970
  888MPD2    N113079   3.480   2.666  14.904  0.2085 -0.0407 -0.0788
  888MPD2    H713080   3.491   2.710  14.995  0.0938  0.3901 -0.2740
  889MPD2     C13081   2.684   2.664  12.885 -0.3557 -0.1299  0.0420
  889MPD2    C113082   2.774   2.638  12.990  0.4209  0.4797  0.9555
  889MPD2    C213083   2.772   2.734  13.092  0.6233 -0.2631 -0.0752
  889MPD2    C313084   2.704   2.855  13.085  0.0732 -0.3378 -0.5593
  889MPD2    C413085   2.618   2.872  12.980 -1.2971  0.3634 -0.2337
  889MPD2    C513086   2.613   2.784  12.877 -0.5122 -0.0314 -0.0096
  889MPD2     H13087   2.853   2.728  13.164  0.7741  0.9553 -0.1381
  889MPD2    H113088   2.554   2.958  12.969  1.2249  1.9274 -2.6491
  889MPD2    H213089   2.690   2.597  12.801 -2.2309 -2.0423  1.4318
  889MPD2    H313090   2.547   2.805  12.793  0.0543 -1.0693 -0.7215
  889MPD2     N13091   2.728   2.959  13.180  0.1619 -0.5787 -0.8694
  889MPD2    H513092   2.800   2.937  13.247  1.7195 -0.0102 -2.3306
  889MPD2    N113093   2.831   2.514  13.016  0.6596  0.5603  0.5286
  889MPD2    H713094   2.875   2.495  13.106 -0.1913 -0.6245  0.6859
  890MPD2     C13095   2.279   4.337  14.513 -0.0101  0.0263 -0.3715
  890MPD2    C113096   2.406   4.393  14.531  0.0703  0.1091 -0.7609
  890MPD2    C213097   2.485   4.360  14.637 -0.0822 -0.0101  0.2575
  890MPD2    C313098   2.434   4.272  14.727 -0.0486 -0.3798  0.1036
  890MPD2    C413099   2.308   4.217  14.720 -0.7257  0.4478 -0.2570
  890MPD2    C513100   2.231   4.251  14.608 -0.7391  0.6852  0.1644
  890MPD2     H13101   2.583   4.401  14.657 -0.5282  0.9600  0.4453
  890MPD2    H113102   2.259   4.143  14.783 -0.8371  0.9787  0.2794
  890MPD2    H213103   2.213   4.371  14.434 -0.4565  3.1959  1.3819
  890MPD2    H313104   2.131   4.211  14.606  0.4552 -2.2212 -2.2193
  890MPD2     N13105   2.508   4.243  14.841 -0.3329  0.3570 -0.2508
  890MPD2    H513106   2.599   4.287  14.846 -0.0947 -0.2083  0.4345
  890MPD2    N113107   2.454   4.482  14.429  0.2310 -0.0563 -0.5465
  890MPD2    H713108   2.525   4.548  14.459  2.2093 -1.3971 -2.2199
  891MPD2     C13109   0.656   1.905  16.995 -1.0458 -0.2601  0.4486
  891MPD2    C113110   0.661   2.040  16.956  0.9912  0.1647  0.2201
  891MPD2    C213111   0.726   2.124  17.044 -0.2594  0.8469  0.6738
  891MPD2    C313112   0.783   2.074  17.161 -0.5761  0.3543  0.7217
  891MPD2    C413113   0.779   1.941  17.191  0.0815 -0.3248  0.2144
  891MPD2    C513114   0.714   1.858  17.110 -0.7311 -1.0243 -0.3881
  891MPD2     H13115   0.725   2.232  17.030  2.8819  0.5766 -1.6919
  891MPD2    H113116   0.835   1.898  17.273 -0.0202 -0.3796  0.2545
  891MPD2    H213117   0.609   1.831  16.931  0.3243 -0.5099 -0.2634
  891MPD2    H313118   0.720   1.751  17.122 -2.1706 -1.0059  0.5633
  891MPD2     N13119   0.843   2.172  17.242  0.8956 -0.0061 -0.6186
  891MPD2    H513120   0.820   2.268  17.218 -0.6512 -0.2821 -0.2288
  891MPD2    N113121   0.591   2.075  16.840 -0.2810 -0.5947 -0.4875
  891MPD2    H713122   0.520   2.010  16.809 -1.2226 -0.5552  1.5809
  892MPD2     C13123   1.602   3.384  15.051 -0.0640 -0.1355  0.1481
  892MPD2    C113124   1.555   3.411  14.920  0.4592  0.4821 -0.2546
  892MPD2    C213125   1.647   3.399  14.814  0.2676  0.7355  0.0096
  892MPD2    C313126   1.763   3.326  14.835 -0.2626  0.0299  0.6169
  892MPD2    C413127   1.797   3.284  14.960  0.1515 -0.6743 -1.1016
  892MPD2    C513128   1.724   3.315  15.066  1.1131 -0.0974  0.5830
  892MPD2     H13129   1.630   3.432  14.712  0.8430 -0.0052 -0.3249
  892MPD2    H113130   1.897   3.245  14.973 -0.2729 -1.2858  0.3390
  892MPD2    H213131   1.545   3.400  15.142 -1.6127 -1.8494 -0.5019
  892MPD2    H313132   1.773   3.308  15.162 -1.0944  0.9111  1.7614
  892MPD2     N13133   1.842   3.284  14.728 -0.1033  0.1054 -0.2915
  892MPD2    H513134   1.938   3.256  14.748 -0.8643 -0.8937  2.0145
  892MPD2    N113135   1.422   3.460  14.895  0.7654 -0.5030  0.2010
  892MPD2    H713136   1.418   3.507  14.805  2.2063 -1.9492 -0.6095
  893MPD2     C13137   2.945   1.022   1.295  0.5610  0.5256 -0.4359
  893MPD2    C113138   2.923   1.125   1.208  0.1885 -0.6987 -0.1887
  893MPD2    C213139   2.789   1.168   1.183 -0.4396 -0.0889 -0.2253
  893MPD2    C313140   2.683   1.099   1.247 -1.0813 -0.4858  0.4665
  893MPD2    C413141   2.710   0.989   1.328  0.0779 -0.0829 -0.3954
  893MPD2    C513142   2.840   0.954   1.351 -0.1155  0.2083 -0.2159
  893MPD2     H13143   2.768   1.245   1.109 -0.7931 -0.2899 -0.3319
  893MPD2    H113144   2.630   0.928   1.370  0.3879  0.6822  1.2655
  893MPD2    H213145   3.045   0.993   1.323 -0.3636 -0.8884  1.3846
  893MPD2    H313146   2.868   0.863   1.403  0.4547  1.6482  2.0239
  893MPD2     N13147   2.550   1.135   1.224 -0.2295 -0.2205  0.5037
  893MPD2    H513148   2.483   1.077   1.273 -0.5514 -1.8016 -1.7918
  893MPD2    N113149   3.033   1.200   1.162 -0.0896  0.4184  0.0336
  893MPD2    H713150   3.124   1.175   1.199  1.0917  0.2241 -2.9698
  894MPD2     C13151   1.522   3.873   0.991 -1.3503 -0.5595 -0.7740
  894MPD2    C113152   1.466   3.978   1.053 -0.1932  0.4407  0.5983
  894MPD2    C213153   1.476   4.105   1.000  0.4161  0.4896  0.3008
  894MPD2    C313154   1.531   4.126   0.871 -0.5604  0.1126  0.2302
  894MPD2    C413155   1.581   4.015   0.811 -1.0717  0.0955  0.2873
  894MPD2    C513156   1.578   3.895   0.866 -0.3002 -0.3876  0.8992
  894MPD2     H13157   1.428   4.187   1.053  0.7309  0.9831 -0.1810
  894MPD2    H113158   1.647   4.022   0.725  1.1938  0.1336  2.0163
  894MPD2    H213159   1.527   3.767   1.017  0.7304 -0.3646 -0.4244
  894MPD2    H313160   1.640   3.821   0.818 -1.4127 -0.1089 -0.9692
  894MPD2     N13161   1.548   4.261   0.823 -0.5736 -0.1603 -0.2528
  894MPD2    H513162   1.513   4.339   0.876  0.9387  1.9230 -2.3409
  894MPD2    N113163   1.381   3.959   1.166  0.6330  0.0320  0.1420
  894MPD2    H713164   1.335   4.045   1.195 -0.3275 -0.3999 -0.1066
  895MPD2     C13165   0.749   3.065  13.536  0.2050  0.0349  0.2599
  895MPD2    C113166   0.655   2.985  13.489  0.0176  0.5192  0.4845
  895MPD2    C213167   0.682   2.857  13.445  0.4370  0.9258 -0.2981
  895MPD2    C313168   0.802   2.796  13.467 -0.4718  0.1030 -0.0900
  895MPD2    C413169   0.898   2.876  13.526 -0.5537 -0.1284 -0.2148
  895MPD2    C513170   0.876   3.007  13.552 -0.2902 -0.5209 -1.3782
  895MPD2     H13171   0.604   2.787  13.415  0.8126 -0.0944  1.1224
  895MPD2    H113172   0.995   2.843  13.561  0.4461  0.9726 -1.9511
  895MPD2    H213173   0.729   3.163  13.577  2.0012  0.0234  1.1620
  895MPD2    H313174   0.964   3.064  13.578 -1.0923  1.1116 -2.2136
  895MPD2     N13175   0.813   2.659  13.433  0.1365 -0.0149 -0.9266
  895MPD2    H513176   0.730   2.605  13.410  1.9322 -3.1916  0.0903
  895MPD2    N113177   0.527   3.031  13.459 -0.3016  0.0242  0.1404
  895MPD2    H713178   0.471   2.956  13.420 -1.4260  0.6074  0.6511
  896MPD2     C13179   3.162   0.682   1.016  0.0820 -0.1978  0.1033
  896MPD2    C113180   3.153   0.552   0.972  0.4284  0.1795  0.2212
  896MPD2    C213181   3.029   0.488   0.978  0.6540  0.1045 -0.4077
  896MPD2    C313182   2.916   0.543   1.037 -0.2035  0.1993 -0.5035
  896MPD2    C413183   2.930   0.668   1.088  0.4486  0.0220 -0.8806
  896MPD2    C513184   3.050   0.735   1.071 -0.7402 -0.0266 -0.1568
  896MPD2     H13185   3.017   0.390   0.933 -0.2703 -0.1904  0.4817
  896MPD2    H113186   2.849   0.718   1.139  1.6826 -1.1041  2.2388
  896MPD2    H213187   3.249   0.745   1.010  0.3085 -0.3422  2.0068
  896MPD2    H313188   3.037   0.838   1.102 -0.4887 -0.7654  2.3971
  896MPD2     N13189   2.791   0.476   1.044  0.4140 -0.5790  0.5220
  896MPD2    H513190   2.780   0.383   1.004  0.8134 -0.3833 -0.0378
  896MPD2    N113191   3.270   0.502   0.906 -0.1702  0.6156 -0.5249
  896MPD2    H713192   3.353   0.555   0.885  2.4967 -3.3391  0.1050
  897MPD2     C13193   3.487   1.969  10.376  0.4045  0.7154  0.2860
  897MPD2    C113194   3.484   2.111  10.394  0.3254 -0.7287  0.1477
  897MPD2    C213195   3.396   2.161  10.494 -0.0360  0.7534  0.5132
  897MPD2    C313196   3.322   2.071  10.573  0.5251 -0.2411  0.0874
  897MPD2    C413197   3.329   1.942  10.556 -0.1095  0.1245  0.3399
  897MPD2    C513198   3.404   1.890  10.452 -0.4810 -0.1605 -0.3312
  897MPD2     H13199   3.400   2.263  10.531 -1.0091  0.6738  0.8369
  897MPD2    H113200   3.281   1.876  10.628 -0.9662  1.6408  1.1484
  897MPD2    H213201   3.558   1.924  10.307 -0.8253 -0.4778 -0.1950
  897MPD2    H313202   3.414   1.782  10.445  0.4907 -0.0617 -0.4323
  897MPD2     N13203   3.245   2.131  10.676  0.4888 -0.4680 -0.1036
  897MPD2    H513204   3.241   2.233  10.672 -0.9144 -0.5731 -1.4735
  897MPD2    N113205   3.563   2.186  10.307  0.0950 -0.2752 -0.7389
  897MPD2    H713206   3.631   2.133  10.253 -0.7092 -2.9923  0.9368
  898MPD2     C13207   0.847   2.487   0.100  0.0144 -0.8309  0.5022
  898MPD2    C113208   0.916   2.521   0.223 -0.5657  0.5123 -0.5156
  898MPD2    C213209   0.941   2.654   0.251  0.1421 -0.1197 -0.0813
  898MPD2    C313210   0.920   2.756   0.158 -0.3818 -0.3091  0.2385
  898MPD2    C413211   0.867   2.711   0.039 -0.4424 -0.1107 -0.0632
  898MPD2    C513212   0.822   2.583   0.007 -0.2350 -0.1140 -0.6161
  898MPD2     H13213   0.993   2.675   0.344 -0.3285 -2.1044  0.6137
  898MPD2    H113214   0.850   2.786  17.720 -3.0672  0.3068  0.9136
  898MPD2    H213215   0.820   2.383   0.081  3.0484 -1.8611  1.7865
  898MPD2    H313216   0.788   2.562  17.664 -1.6614  2.0393 -0.6042
  898MPD2     N13217   0.964   2.887   0.184 -0.3853  0.0969 -0.4168
  898MPD2    H513218   0.991   2.914   0.278  0.1081  2.3374 -1.1909
  898MPD2    N113219   0.963   2.428   0.321  0.9861 -0.2972 -1.4533
  898MPD2    H713220   1.020   2.461   0.399 -1.4181 -0.1859  0.2464
  899MPD2     C13221   2.424   3.091  17.242 -0.9649  0.0570  0.5211
  899MPD2    C113222   2.480   3.204  17.306 -0.0013  1.0689 -0.1095
  899MPD2    C213223   2.471   3.225  17.442  0.8910 -0.1544  0.2001
  899MPD2    C313224   2.395   3.132  17.515  0.4508 -0.2053  0.4658
  899MPD2    C413225   2.342   3.023  17.451 -0.0175 -0.2939 -0.7487
  899MPD2    C513226   2.363   2.996  17.317  0.3280  0.0257 -0.0179
  899MPD2     H13227   2.517   3.315  17.481 -0.6902  1.0867 -0.8430
  899MPD2    H113228   2.297   2.941  17.507  0.1693 -1.5378 -2.4168
  899MPD2    H213229   2.430   3.072  17.136 -0.2569  1.9872  0.2157
  899MPD2    H313230   2.317   2.909  17.271 -2.0236  1.2610  0.0350
  899MPD2     N13231   2.349   3.156  17.652  0.1860  0.5242  0.1260
  899MPD2    H513232   2.290   3.085  17.694  0.6120 -0.3060 -0.6656
  899MPD2    N113233   2.537   3.305  17.233  0.3370 -0.1254  0.0180
  899MPD2    H713234   2.565   3.389  17.284  2.3000 -0.2170 -0.9147
  900MPD2     C13235   1.415   0.529  12.490 -0.3014 -0.8705  0.7832
  900MPD2    C113236   1.388   0.398  12.455 -0.7641 -0.1054 -0.2214
  900MPD2    C213237   1.264   0.380  12.393  0.4267  0.4725  0.0632
  900MPD2    C313238   1.184   0.480  12.355 -0.1909 -0.1626 -0.0369
  900MPD2    C413239   1.224   0.609  12.383 -0.1589 -0.1768 -0.5346
  900MPD2    C513240   1.337   0.634  12.453 -0.1546  0.1571  1.1596
  900MPD2     H13241   1.226   0.282  12.366  0.7055  0.2803  0.3699
  900MPD2    H113242   1.160   0.685  12.340  0.0551  0.6693  0.6527
  900MPD2    H213243   1.507   0.548  12.543 -0.4155 -2.8102  1.6461
  900MPD2    H313244   1.360   0.739  12.466  0.9354  0.0551 -0.0177
  900MPD2     N13245   1.061   0.446  12.278  0.5591 -0.7203  0.1518
  900MPD2    H513246   1.056   0.354  12.236 -1.1643 -0.7680  0.4438
  900MPD2    N113247   1.472   0.290  12.499  0.1292  0.3769 -0.3247
  900MPD2    H713248   1.563   0.315  12.538 -0.8583  3.8452 -0.2504
  901MPD2     C13249   1.525   4.052  12.995 -0.1344 -0.0630  0.3654
  901MPD2    C113250   1.614   4.059  12.889 -0.2553 -0.6087  0.1149
  901MPD2    C213251   1.640   4.182  12.830 -0.6032 -0.1575  1.2387
  901MPD2    C313252   1.570   4.294  12.862 -0.3739  1.1393 -0.1505
  901MPD2    C413253   1.462   4.283  12.950  0.3243  0.9500 -0.0163
  901MPD2    C513254   1.439   4.165  13.018  0.0945  0.4352  0.3583
  901MPD2     H13255   1.718   4.201  12.757  1.0783  0.4208  3.1718
  901MPD2    H113256   1.392   4.363  12.971 -0.8224 -0.4294  1.4359
  901MPD2    H213257   1.500   3.959  13.044 -0.4075 -1.1901 -1.9305
  901MPD2    H313258   1.361   4.170  13.094 -1.1916  1.5320 -1.0424
  901MPD2     N13259   1.592   4.413  12.782 -0.4070  0.6603  0.3656
  901MPD2    H513260   1.683   4.424  12.739 -1.2060  2.5391 -0.8884
  901MPD2    N113261   1.684   3.940  12.855 -0.5369  0.8554  0.0257
  901MPD2    H713262   1.661   3.854  12.903  5.1513  0.4598  2.0461
  902MPD2     C13263   1.143   3.223  12.390  0.2534 -0.0612 -0.3345
  902MPD2    C113264   1.013   3.232  12.384  0.2614  0.1996 -0.1065
  902MPD2    C213265   0.945   3.114  12.384  0.0961 -0.2529 -0.4733
  902MPD2    C313266   1.015   2.987  12.394  0.6022  0.1354  0.4768
  902MPD2    C413267   1.157   2.985  12.406  0.3101  0.0071  0.9824
  902MPD2    C513268   1.214   3.107  12.401  0.2052  0.2997 -0.6059
  902MPD2     H13269   0.838   3.115  12.370  0.1530  1.5008 -0.7453
  902MPD2    H113270   1.216   2.902  12.442  0.5689 -0.6319 -0.9232
  902MPD2    H213271   1.205   3.311  12.386  1.1620 -0.6527  0.9708
  902MPD2    H313272   1.320   3.115  12.425  0.4009 -1.2574 -0.9611
  902MPD2     N13273   0.952   2.863  12.420 -0.0759 -0.0351  0.5282
  902MPD2    H513274   1.025   2.793  12.431 -0.4431 -0.5512 -0.3378
  902MPD2    N113275   0.946   3.355  12.391  0.2590  0.3898 -1.0104
  902MPD2    H713276   0.846   3.348  12.377  0.0986 -1.1263  0.8960
  903MPD2     C13277   0.403   2.612  12.065 -0.4643 -0.3606 -0.6509
  903MPD2    C113278   0.379   2.650  12.195 -0.6960  0.9457 -0.3052
  903MPD2    C213279   0.310   2.767  12.221 -0.6347 -0.1254 -0.5649
  903MPD2    C313280   0.262   2.842  12.116 -0.4692  0.4080  0.1802
  903MPD2    C413281   0.282   2.799  11.983 -0.4871 -0.0050  0.3434
  903MPD2    C513282   0.348   2.679  11.960 -0.4792  0.3283 -0.1533
  903MPD2     H13283   0.296   2.807  12.321  0.8810 -0.1591 -0.3350
  903MPD2    H113284   0.223   2.847  11.905 -1.5454 -1.7691  0.0671
  903MPD2    H213285   0.468   2.528  12.043  1.5337  0.6651  1.3177
  903MPD2    H313286   0.348   2.632  11.862  1.3680 -0.2241  0.1030
  903MPD2     N13287   0.174   2.948  12.140 -0.4755  0.5716  0.9242
  903MPD2    H513288   0.160   2.974  12.237 -3.3570 -0.4054  0.7904
  903MPD2    N113289   0.451   2.581  12.287 -0.4198  0.0436 -0.0313
  903MPD2    H713290   0.505   2.506  12.245  0.1467  0.8384 -0.7102
  904MPD2     C13291   0.508   2.584  13.806  0.3744 -0.7669 -0.1549
  904MPD2    C113292   0.491   2.534  13.936  0.0353 -0.3408 -0.8197
  904MPD2    C213293   0.606   2.477  13.993 -0.0289 -0.4173  0.2239
  904MPD2    C313294   0.728   2.492  13.934  0.4687 -0.3722  0.0290
  904MPD2    C413295   0.741   2.561  13.813 -0.3698 -0.4529 -0.8865
  904MPD2    C513296   0.631   2.600  13.754  0.0568  0.2279  0.3381
  904MPD2     H13297   0.600   2.440  14.095 -0.2513 -1.3594 -0.1354
  904MPD2    H113298   0.832   2.565  13.754 -0.4317  0.5470 -0.9108
  904MPD2    H213299   0.429   2.606  13.735 -0.7482 -1.6121  0.8203
  904MPD2    H313300   0.649   2.647  13.658  0.8927 -2.3564 -0.7921
  904MPD2     N13301   0.837   2.422  13.999 -0.2156  0.3248 -0.0735
  904MPD2    H513302   0.823   2.358  14.076  0.2733  1.8759  1.3144
  904MPD2    N113303   0.367   2.522  14.001  0.3018 -0.1276  0.1377
  904MPD2    H713304   0.364   2.462  14.083 -0.6868 -2.2212 -1.4252
  905MPD2     C13305   0.069   2.498  13.407  0.4358  0.3731  0.8221
  905MPD2    C113306   0.175   2.579  13.444 -0.0632  0.2413  0.3143
  905MPD2    C213307   0.301   2.535  13.414 -0.7513 -0.3380 -0.1106
  905MPD2    C313308   0.322   2.412  13.351  0.2350  0.7981 -0.3783
  905MPD2    C413309   0.213   2.339  13.318 -0.2573 -0.8214 -0.3196
  905MPD2    C513310   0.089   2.375  13.351 -0.6876 -0.0537 -0.0378
  905MPD2     H13311   0.382   2.597  13.450 -0.9121 -0.0273 -0.2808
  905MPD2    H113312   0.226   2.240  13.275  0.5284 -0.1459 -1.6420
  905MPD2    H213313   4.705   2.528  13.418  0.2651  0.1375 -0.1713
  905MPD2    H313314   0.010   2.308  13.320  1.5340 -1.7478 -2.1092
  905MPD2     N13315   0.451   2.366  13.330 -0.6214  0.1227 -0.5534
  905MPD2    H513316   0.462   2.269  13.301 -0.1265  0.2095 -0.6361
  905MPD2    N113317   0.146   2.698  13.516  0.0278 -0.4410 -0.0617
  905MPD2    H713318   0.048   2.710  13.537 -0.2626  0.1411 -1.7303
  906MPD2     C13319   2.171   2.049  11.671 -0.0262 -0.1098  0.2132
  906MPD2    C113320   2.093   2.052  11.555 -0.1937  0.7842 -0.1362
  906MPD2    C213321   1.972   1.985  11.545  0.5589  0.0498 -0.7077
  906MPD2    C313322   1.931   1.895  11.642 -0.5820  0.0917  0.0422
  906MPD2    C413323   2.005   1.895  11.761 -0.5481  0.5413  0.3208
  906MPD2    C513324   2.127   1.972  11.775 -0.5291  0.4561 -0.1217
  906MPD2     H13325   1.915   1.985  11.453  0.7629  0.4796 -0.8338
  906MPD2    H113326   1.980   1.838  11.850  1.6831  0.7709  1.1117
  906MPD2    H213327   2.268   2.096  11.685  0.3859 -0.5888 -1.0810
  906MPD2    H313328   2.181   1.977  11.868  0.1010 -2.2301 -0.3521
  906MPD2     N13329   1.836   1.798  11.601  0.8042  0.0506  0.2157
  906MPD2    H513330   1.785   1.818  11.515 -0.9174 -1.8121  0.8016
  906MPD2    N113331   2.137   2.137  11.446  0.1865  0.2961  0.2411
  906MPD2    H713332   2.081   2.134  11.362  1.2239  2.8779 -0.5131
  907MPD2     C13333   1.813   1.473  15.822 -0.4037  0.5584  0.4841
  907MPD2    C113334   1.723   1.365  15.816 -0.4073  0.0822  0.2396
  907MPD2    C213335   1.716   1.274  15.913  0.0308 -0.6601 -0.0740
  907MPD2    C313336   1.781   1.292  16.028  0.5217  0.0877  0.3095
  907MPD2    C413337   1.859   1.403  16.047 -0.5364  0.5614  0.1485
  907MPD2    C513338   1.874   1.492  15.942  0.0221 -0.0229 -0.2400
  907MPD2     H13339   1.651   1.188  15.904 -1.3449  0.6247 -2.6413
  907MPD2    H113340   1.915   1.425  16.137  1.7409  1.8570 -1.5829
  907MPD2    H213341   1.832   1.539  15.738  0.2827 -1.9632 -1.3203
  907MPD2    H313342   1.955   1.563  15.949 -1.8074  2.1240 -0.8747
  907MPD2     N13343   1.762   1.186  16.122  0.1964 -0.2659  1.0645
  907MPD2    H513344   1.714   1.103  16.089 -0.2807  0.6119 -0.4219
  907MPD2    N113345   1.648   1.327  15.703  0.5088 -0.4643  0.1495
  907MPD2    H713346   1.588   1.245  15.709  1.2538 -1.2627 -3.4179
  908MPD2     C13347   4.013   1.876   9.669 -0.3615  0.3993 -0.4955
  908MPD2    C113348   3.925   1.831   9.770  0.2501 -0.8451 -0.5546
  908MPD2    C213349   3.889   1.918   9.871  0.2194 -0.1108  0.2347
  908MPD2    C313350   3.929   2.052   9.857  0.6591 -0.2241  0.4678
  908MPD2    C413351   4.000   2.092   9.751 -0.2410 -0.3405  0.2300
  908MPD2    C513352   4.057   2.003   9.666  0.4738 -0.2920 -0.0445
  908MPD2     H13353   3.834   1.880   9.956  0.7312 -1.4117 -0.0127
  908MPD2    H113354   4.029   2.196   9.738  1.0982 -0.7193  0.1925
  908MPD2    H213355   4.047   1.798   9.602  0.0786  0.4808 -0.3696
  908MPD2    H313356   4.129   2.039   9.593  0.5939  0.6304  0.5395
  908MPD2     N13357   3.882   2.142   9.962  1.2028  0.1103 -0.0923
  908MPD2    H513358   3.837   2.112  10.047 -0.4035  3.2786  0.1639
  908MPD2    N113359   3.893   1.694   9.773  0.5533  0.8004  0.2103
  908MPD2    H713360   3.924   1.634   9.698 -0.6946 -0.7544  0.9462
  909MPD2     C13361   4.069   0.091  11.250 -0.0340 -0.0609 -0.0802
  909MPD2    C113362   4.144   0.204  11.230  0.2271  0.5318  0.2142
  909MPD2    C213363   4.140   0.309  11.324  0.1407  0.8992  0.1696
  909MPD2    C313364   4.064   0.292  11.441  0.1712  0.0385  0.3181
  909MPD2    C413365   3.998   0.176  11.467 -0.2878 -0.5423 -0.6568
  909MPD2    C513366   3.992   0.075  11.366 -0.7214 -0.1043 -0.3262
  909MPD2     H13367   4.184   0.402  11.290 -2.1601  2.3696  1.2736
  909MPD2    H113368   3.948   0.158  11.562 -0.8811 -3.1253 -1.4380
  909MPD2    H213369   4.069   0.005  11.184 -0.9053  1.3052 -1.8517
  909MPD2    H313370   3.945   4.720  11.391  0.9216 -0.8318  0.0508
  909MPD2     N13371   4.070   0.396  11.534 -0.6505 -0.1856  0.0481
  909MPD2    H513372   4.103   0.488  11.507  0.6500 -0.1125  1.9097
  909MPD2    N113373   4.218   0.223  11.115 -0.3330 -0.0753 -0.1906
  909MPD2    H713374   4.286   0.297  11.122  0.2154 -0.6691  0.6598
  910MPD2     C13375   0.647   2.060  15.815  0.4336 -0.1825 -0.4796
  910MPD2    C113376   0.764   2.046  15.740 -0.3686 -0.5340 -0.3090
  910MPD2    C213377   0.758   2.070  15.598 -0.4613 -0.5597 -0.3850
  910MPD2    C313378   0.643   2.108  15.535  0.2127 -0.6250  0.2138
  910MPD2    C413379   0.533   2.124  15.609  0.6677 -0.4946  0.4480
  910MPD2    C513380   0.537   2.102  15.746  0.0112  0.9041 -0.3068
  910MPD2     H13381   0.852   2.067  15.546 -0.3200  1.0782 -0.2078
  910MPD2    H113382   0.438   2.159  15.572  1.4960 -0.1157 -1.2910
  910MPD2    H213383   0.633   2.037  15.920  1.3972 -0.1889 -0.3477
  910MPD2    H313384   0.446   2.095  15.804  0.9359  3.2077  1.3991
  910MPD2     N13385   0.640   2.141  15.400  0.2321  0.4744  0.3983
  910MPD2    H513386   0.554   2.186  15.373  0.1352 -0.0691 -0.1900
  910MPD2    N113387   0.888   1.995  15.789 -0.5660  0.0960 -0.0706
  910MPD2    H713388   0.964   1.981  15.723  1.2843 -1.3887  2.3715
  911MPD2     C13389   3.696   1.765  16.330 -0.6689  0.0695 -0.3276
  911MPD2    C113390   3.791   1.861  16.361  0.3851  0.8796  0.2836
  911MPD2    C213391   3.751   1.992  16.361  0.0575 -0.4567 -0.0668
  911MPD2    C313392   3.625   2.037  16.327 -0.6810 -0.3212 -0.8884
  911MPD2    C413393   3.536   1.941  16.285  0.2009 -0.4278  0.4396
  911MPD2    C513394   3.571   1.809  16.295 -0.3746  0.2506  0.2362
  911MPD2     H13395   3.832   2.062  16.383 -0.4259 -0.3690  1.3895
  911MPD2    H113396   3.436   1.958  16.247  0.3511 -1.3413 -0.3732
  911MPD2    H213397   3.717   1.659  16.338 -2.6276 -0.2351  0.9022
  911MPD2    H313398   3.496   1.739  16.261  1.3632 -1.3295 -0.3623
  911MPD2     N13399   3.586   2.173  16.309 -0.0568 -0.3519 -0.3585
  911MPD2    H513400   3.493   2.188  16.272 -0.0786 -0.6740 -0.4253
  911MPD2    N113401   3.916   1.809  16.396  0.2875 -0.9942  0.6255
  911MPD2    H713402   3.929   1.709  16.403 -0.0780 -0.9885  1.3923
  912MPD2     C13403   3.374   2.109  15.816 -1.0452 -0.5589 -0.1107
  912MPD2    C113404   3.321   2.144  15.941  0.3244  0.3033 -0.0809
  912MPD2    C213405   3.256   2.045  16.007 -0.7238  0.0462  0.2131
  912MPD2    C313406   3.247   1.917  15.959 -0.3614 -0.3317  0.4239
  912MPD2    C413407   3.294   1.881  15.832  0.2083  0.5251  0.6516
  912MPD2    C513408   3.358   1.982  15.764 -0.8494 -0.1506 -0.0540
  912MPD2     H13409   3.207   2.062  16.102 -2.1572 -2.8886 -0.0090
  912MPD2    H113410   3.283   1.786  15.781  2.0620 -0.6203  2.4194
  912MPD2    H213411   3.433   2.177  15.755  3.5205 -1.9893  2.7068
  912MPD2    H313412   3.406   1.957  15.670 -3.2818  0.0139 -1.3332
  912MPD2     N13413   3.193   1.827  16.052  0.5519  0.2233  0.3319
  912MPD2    H513414   3.138   1.865  16.129 -1.8363  0.3049 -1.4022
  912MPD2    N113415   3.351   2.273  16.001  0.4650  0.0326 -0.6950
  912MPD2    H713416   3.419   2.329  15.951  0.9257 -0.1029 -0.2161
  913MPD2     C13417   2.452   3.617   9.758  0.0993 -0.1557 -0.6437
  913MPD2    C113418   2.567   3.605   9.842  0.5339  0.2467 -0.1813
  913MPD2    C213419   2.658   3.710   9.840  0.0224 -0.3887  0.1074
  913MPD2    C313420   2.626   3.828   9.773 -0.1734  0.9979 -0.1146
  913MPD2    C413421   2.506   3.844   9.703 -0.0257 -0.1530  0.0140
  913MPD2    C513422   2.423   3.732   9.694 -0.5916  0.0170  1.0224
  913MPD2     H13423   2.758   3.689   9.878 -0.5665 -1.8890  0.8167
  913MPD2    H113424   2.477   3.937   9.656 -1.2008 -0.4531  0.1410
  913MPD2    H213425   2.388   3.531   9.745 -1.1420  0.9430 -1.7114
  913MPD2    H313426   2.334   3.736   9.632 -0.4059  1.9006  0.8552
  913MPD2     N13427   2.722   3.931   9.753 -0.2880  0.6849  0.0856
  913MPD2    H513428   2.699   4.012   9.697 -1.4075  1.8000  2.1298
  913MPD2    N113429   2.598   3.478   9.900  0.3442 -0.1443 -0.6605
  913MPD2    H713430   2.532   3.404   9.879  0.3716 -0.5951  0.7875
  914MPD2     C13431   1.786   4.035  11.998 -0.3703  0.1897  0.0597
  914MPD2    C113432   1.852   4.077  12.110  0.3672  0.4875 -0.1822
  914MPD2    C213433   1.835   4.004  12.225 -0.1275 -0.2767  0.4623
  914MPD2    C313434   1.777   3.882  12.230 -0.5402 -0.3574  0.2047
  914MPD2    C413435   1.718   3.840  12.110 -0.4270 -0.9997  0.0973
  914MPD2    C513436   1.720   3.912  11.988 -0.2922  0.2948  1.0397
  914MPD2     H13437   1.870   4.038  12.322  0.6222 -2.3043  0.9095
  914MPD2    H113438   1.666   3.744  12.112  0.7660 -1.6919 -2.4893
  914MPD2    H213439   1.787   4.095  11.908  0.3502 -0.7432 -0.5574
  914MPD2    H313440   1.686   3.869  11.895  0.1641  0.9351  0.5749
  914MPD2     N13441   1.763   3.815  12.354  0.1597  1.1077 -0.8560
  914MPD2    H513442   1.802   3.873  12.428 -0.3155 -0.8746  0.9673
  914MPD2    N113443   1.924   4.201  12.118 -0.4742  0.2250  0.0773
  914MPD2    H713444   1.923   4.255  12.032 -1.3516 -0.1779 -0.1714
  915MPD2     C13445   0.184   4.010  15.719  0.5626  0.0717  0.2052
  915MPD2    C113446   0.085   4.086  15.666 -0.1430 -0.6067  0.6109
  915MPD2    C213447   4.733   4.140  15.751 -0.1926 -0.8168  0.4749
  915MPD2    C313448   0.005   4.128  15.888  0.3464  0.5132 -0.0374
  915MPD2    C413449   0.099   4.050  15.941 -0.1808  0.2722 -0.3407
  915MPD2    C513450   0.187   3.995  15.856  0.1337  0.3108 -0.6024
  915MPD2     H13451   4.646   4.193  15.714  1.2337  0.9110 -0.4248
  915MPD2    H113452   0.122   4.041  16.046 -0.2637 -0.6596 -0.4061
  915MPD2    H213453   0.252   3.962  15.649 -0.5974 -0.8837 -0.2479
  915MPD2    H313454   0.267   3.938  15.900  0.5773  1.0920 -0.3902
  915MPD2     N13455   4.637   4.179  15.970 -0.8936 -0.2484  0.1248
  915MPD2    H513456   4.562   4.236  15.933  0.0405  1.8156  1.4068
  915MPD2    N113457   0.086   4.100  15.530  0.6449 -0.2212 -0.9670
  915MPD2    H713458   0.143   4.032  15.481  0.1668 -1.1219 -0.2911
  916MPD2     C13459   3.004   2.474  16.099 -0.2552 -0.0607 -0.6146
  916MPD2    C113460   2.926   2.364  16.110  0.0333  0.3146 -0.1594
  916MPD2    C213461   2.907   2.286  15.997 -0.2152  0.0481  0.6156
  916MPD2    C313462   2.981   2.307  15.882  0.4000 -0.0462 -0.0890
  916MPD2    C413463   3.073   2.411  15.878 -0.0170 -0.0849 -0.2826
  916MPD2    C513464   3.077   2.492  15.984  0.9859 -0.3856  0.0798
  916MPD2     H13465   2.840   2.201  15.999  1.4395 -1.2749 -0.0765
  916MPD2    H113466   3.129   2.428  15.787  2.3444 -1.4392  0.9054
  916MPD2    H213467   3.026   2.545  16.178  0.6393  0.9993 -1.8201
  916MPD2    H313468   3.151   2.572  15.979  1.1939 -0.5378  0.6627
  916MPD2     N13469   2.943   2.227  15.775  0.3749 -0.2074  0.1533
  916MPD2    H513470   2.863   2.167  15.794 -0.2649  0.1133 -1.5904
  916MPD2    N113471   2.850   2.354  16.227 -0.1252 -0.2155  0.3413
  916MPD2    H713472   2.842   2.429  16.296 -0.7565 -0.6738  0.7575
  917MPD2     C13473   2.493   4.459  11.087  0.0338  0.1698 -0.0628
  917MPD2    C113474   2.577   4.515  11.178  0.3449  0.3371  0.1257
  917MPD2    C213475   2.684   4.595  11.141  0.1924 -0.4429 -0.4729
  917MPD2    C313476   2.705   4.632  11.012  0.1173  0.3400 -0.3274
  917MPD2    C413477   2.618   4.584  10.918 -0.0636  0.3349 -0.0569
  917MPD2    C513478   2.517   4.497  10.957  0.1382 -0.9556  0.7478
  917MPD2     H13479   2.747   4.648  11.212 -0.3916 -2.4367  1.5177
  917MPD2    H113480   2.642   4.602  10.814  2.7432  0.9794  0.7044
  917MPD2    H213481   2.430   4.377  11.120 -1.0680  1.0556  0.0532
  917MPD2    H313482   2.457   4.455  10.877 -2.6654  1.3653  1.6415
  917MPD2     N13483   2.813   4.715  10.968 -0.2876 -0.3684  0.2602
  917MPD2    H513484   2.812   0.005  10.871 -1.3365 -1.5944 -0.1102
  917MPD2    N113485   2.559   4.478  11.311 -0.1246 -0.1409 -0.3769
  917MPD2    H713486   2.489   4.410  11.339  0.0135 -0.0962  0.0831
  918MPD2     C13487   2.940   0.106  12.194 -0.2814  0.0643 -0.5823
  918MPD2    C113488   3.003   0.065  12.078 -0.8139  0.4932 -0.0485
  918MPD2    C213489   2.939   4.737  11.983 -0.2416 -0.7085  0.6904
  918MPD2    C313490   2.809   4.687  12.009  0.1197 -0.4998 -0.1655
  918MPD2    C413491   2.745   4.725  12.123 -0.2310  0.5963  0.4360
  918MPD2    C513492   2.814   0.064  12.216 -0.0112 -0.4201  0.6424
  918MPD2     H13493   2.992   4.714  11.892 -1.3558  0.6190 -0.2790
  918MPD2    H113494   2.640   4.701  12.134 -0.1176  1.7620  4.0690
  918MPD2    H213495   2.989   0.156  12.277 -2.7960  0.1866  0.8536
  918MPD2    H313496   2.761   0.078  12.309 -1.5629  0.1723 -0.3282
  918MPD2     N13497   2.755   4.613  11.903 -0.0624 -0.1871  0.2731
  918MPD2    H513498   2.811   4.618  11.818 -0.1266  2.2021  0.3582
  918MPD2    N113499   3.138   0.112  12.054 -0.1434 -0.2657 -0.7826
  918MPD2    H713500   3.197   0.070  11.983  0.7919 -0.5717  0.1688
  919MPD2     C13501   3.234   3.671  11.736 -0.5205 -0.0841  0.7723
  919MPD2    C113502   3.163   3.549  11.716 -0.4715  0.5309  0.8005
  919MPD2    C213503   3.080   3.534  11.608  0.1734 -0.3868 -0.0973
  919MPD2    C313504   3.074   3.645  11.524  0.0649  0.3197  0.1050
  919MPD2    C413505   3.162   3.755  11.533  0.9878 -0.7472 -0.5301
  919MPD2    C513506   3.239   3.769  11.644 -0.0105  0.2884 -0.1611
  919MPD2     H13507   3.016   3.447  11.603  1.1850 -1.1117 -0.3594
  919MPD2    H113508   3.154   3.837  11.464  1.4811 -0.1242  0.1509
  919MPD2    H213509   3.304   3.672  11.819  1.2106 -2.9359 -0.6695
  919MPD2    H313510   3.291   3.861  11.668 -0.8524  0.6391  0.3367
  919MPD2     N13511   2.982   3.647  11.412  0.2874  0.2161 -0.3483
  919MPD2    H513512   3.012   3.720  11.347  0.6424  1.0970  0.8019
  919MPD2    N113513   3.175   3.440  11.800  0.1415  0.2210 -0.3410
  919MPD2    H713514   3.150   3.347  11.771 -0.4701  0.1603  0.3727
  920MPD2     C13515   2.893   4.004  10.513  0.4465  0.0194 -0.2058
  920MPD2    C113516   2.792   3.914  10.506  0.4006 -0.1563  0.3887
  920MPD2    C213517   2.748   3.849  10.622 -0.3625 -0.0845 -0.1188
  920MPD2    C313518   2.814   3.876  10.740  0.1483  0.1886 -0.6228
  920MPD2    C413519   2.924   3.962  10.741  0.0621  0.6877  0.0126
  920MPD2    C513520   2.955   4.028  10.630  0.9009 -0.3657  0.1725
  920MPD2     H13521   2.667   3.778  10.611  1.5684 -2.4374  0.7412
  920MPD2    H113522   2.974   3.993  10.832 -0.6989 -2.0418  1.3627
  920MPD2    H213523   2.915   4.079  10.438 -0.9333  0.9484  0.3151
  920MPD2    H313524   3.030   4.105  10.640  0.8036 -0.1119 -1.0696
  920MPD2     N13525   2.775   3.798  10.853  0.3506  0.1579 -0.5960
  920MPD2    H513526   2.689   3.746  10.846  0.8545 -0.9559  1.6456
  920MPD2    N113527   2.714   3.887  10.390  0.0608 -0.5670  0.0903
  920MPD2    H713528   2.643   3.815  10.395  0.2993 -0.6730  2.0296
  921MPD2     C13529   4.703   2.092  17.000 -0.1575 -0.7571  0.2264
  921MPD2    C113530   4.726   2.105  16.863  0.5417  0.3928 -0.9275
  921MPD2    C213531   4.627   2.052  16.780  0.1096 -0.1680  0.4585
  921MPD2    C313532   4.516   1.990  16.832 -0.5700  0.0958 -0.1310
  921MPD2    C413533   4.508   1.973  16.971 -0.7704  1.1696  0.2902
  921MPD2    C513534   4.594   2.032  17.056  0.5255  0.0019 -0.2420
  921MPD2     H13535   4.637   2.050  16.672 -0.8732 -0.0234  0.3681
  921MPD2    H113536   4.424   1.923  17.019 -1.0785  1.3351 -0.0771
  921MPD2    H213537   0.023   2.145  17.073 -0.7217  2.1513 -1.4310
  921MPD2    H313538   4.586   2.021  17.163 -1.6955  0.9909 -0.2992
  921MPD2     N13539   4.428   1.908  16.758  0.2601 -0.2545 -0.0660
  921MPD2    H513540   4.353   1.860  16.806 -0.7082  2.6785  1.3511
  921MPD2    N113541   0.101   2.169  16.819  0.0795  0.4626  0.0041
  921MPD2    H713542   0.172   2.184  16.889 -0.8323  1.8615  0.6305
  922MPD2     C13543   0.646   0.176  16.863  0.1483 -0.4571 -0.1755
  922MPD2    C113544   0.631   0.243  16.990 -0.1481 -0.6060 -0.2793
  922MPD2    C213545   0.527   0.209  17.067 -0.7262 -0.1558 -1.3107
  922MPD2    C313546   0.435   0.116  17.033  0.2977  0.5806  0.0085
  922MPD2    C413547   0.452   0.047  16.915  0.5254  0.7940  0.5876
  922MPD2    C513548   0.551   0.085  16.827 -0.6138 -0.5967 -0.5346
  922MPD2     H13549   0.517   0.246  17.169  2.3549  1.6532 -1.6471
  922MPD2    H113550   0.388   4.702  16.893  0.0797  1.2153  0.2560
  922MPD2    H213551   0.730   0.181  16.795 -0.0452 -1.8567 -0.5066
  922MPD2    H313552   0.560   0.030  16.735  0.9932  2.2805 -2.1080
  922MPD2     N13553   0.321   0.095  17.115 -0.5117  0.4712 -0.0669
  922MPD2    H513554   0.327   0.144  17.204 -1.2855  0.0280  0.2387
  922MPD2    N113555   0.735   0.336  17.035  0.6538  0.4301 -0.0320
  922MPD2    H713556   0.724   0.370  17.130  2.4147 -1.1798  0.7538
  923MPD2     C13557   1.544   2.834   8.675 -0.3476  0.5946 -0.4304
  923MPD2    C113558   1.483   2.833   8.794 -0.1280 -0.4617  0.2392
  923MPD2    C213559   1.533   2.764   8.903 -0.6725 -0.3236 -0.1439
  923MPD2    C313560   1.651   2.688   8.892 -0.9772 -0.2204  0.0442
  923MPD2    C413561   1.711   2.689   8.767 -0.6758 -1.0741 -0.5283
  923MPD2    C513562   1.659   2.754   8.657  0.4507  0.1257  0.6255
  923MPD2     H13563   1.489   2.784   8.999  1.5673  0.2660  0.7570
  923MPD2    H113564   1.804   2.636   8.750 -0.1127 -0.2043 -0.1202
  923MPD2    H213565   1.505   2.890   8.592  0.6925  0.4890 -0.9849
  923MPD2    H313566   1.703   2.740   8.559 -0.1306  1.0674  0.2255
  923MPD2     N13567   1.714   2.611   9.001  0.2791  0.0585  1.2472
  923MPD2    H513568   1.804   2.568   8.982 -0.2219 -0.6717  0.5381
  923MPD2    N113569   1.374   2.921   8.814 -0.4317  0.1465 -0.1024
  923MPD2    H713570   1.363   2.994   8.744  1.2396  1.4038  0.9693
  924MPD2     C13571   1.584   0.266  16.286  0.2421 -0.2728  0.0453
  924MPD2    C113572   1.577   0.367  16.193 -0.0717  0.2529  0.4567
  924MPD2    C213573   1.651   0.486  16.214 -0.2925 -0.5635 -0.1410
  924MPD2    C313574   1.710   0.510  16.339 -0.1890 -0.5813 -0.4510
  924MPD2    C413575   1.704   0.410  16.432  0.0653  0.6294 -0.5953
  924MPD2    C513576   1.645   0.287  16.406 -0.7541 -0.3502  0.0678
  924MPD2     H13577   1.661   0.549  16.127 -2.3044 -0.5964 -0.4029
  924MPD2    H113578   1.742   0.421  16.533  0.0563 -3.3338 -0.1798
  924MPD2    H213579   1.547   0.164  16.281  1.1330 -0.6268  0.7691
  924MPD2    H313580   1.657   0.211  16.482  0.7849  0.2087  0.3938
  924MPD2     N13581   1.766   0.636  16.386 -0.2565  0.4533  0.6924
  924MPD2    H513582   1.803   0.641  16.480  1.9618  2.4600 -0.2731
  924MPD2    N113583   1.502   0.339  16.073 -0.1456  0.5054 -0.2712
  924MPD2    H713584   1.487   0.241  16.052 -1.8445  0.7233 -0.0896
  925MPD2     C13585   0.738   3.398  14.769 -1.0145 -0.4058  0.0388
  925MPD2    C113586   0.619   3.428  14.710 -0.2033  0.6800 -0.0675
  925MPD2    C213587   0.510   3.448  14.791  0.4272 -0.2952  0.1188
  925MPD2    C313588   0.529   3.429  14.929 -0.2150 -0.2377 -0.2061
  925MPD2    C413589   0.648   3.420  14.987 -0.6438 -0.4408  0.0679
  925MPD2    C513590   0.752   3.403  14.904 -0.5177 -0.1151  0.2091
  925MPD2     H13591   0.409   3.459  14.754  1.3060  2.6795 -1.4624
  925MPD2    H113592   0.659   3.420  15.095  0.4487 -1.2727 -0.0464
  925MPD2    H213593   0.832   3.378  14.719 -0.3538 -0.3726  1.2631
  925MPD2    H313594   0.840   3.359  14.950 -0.5591 -1.3638 -0.8916
  925MPD2     N13595   0.420   3.428  15.022  0.7409  0.5457  0.5350
  925MPD2    H513596   0.439   3.397  15.116 -2.2840  1.7203  1.5466
  925MPD2    N113597   0.607   3.433  14.567  0.7460 -0.5407 -0.0953
  925MPD2    H713598   0.514   3.439  14.527  1.5296 -1.2094 -2.0495
  926MPD2     C13599   4.152   1.969  13.245  0.3779 -0.0040 -0.1734
  926MPD2    C113600   4.032   2.032  13.208  0.3777 -0.3044 -0.3903
  926MPD2    C213601   4.032   2.111  13.093  0.1227  0.3984 -0.1981
  926MPD2    C313602   4.147   2.117  13.015 -0.4484  1.2939 -0.1982
  926MPD2    C413603   4.268   2.047  13.054 -0.4928 -0.0010  0.0510
  926MPD2    C513604   4.269   1.986  13.173 -0.7883 -0.9770  0.0770
  926MPD2     H13605   3.943   2.166  13.065 -0.0813 -0.1515 -0.6272
  926MPD2    H113606   4.353   2.042  12.986 -1.2599 -0.4560 -0.8708
  926MPD2    H213607   4.162   1.918  13.340  1.5278 -0.2777 -0.4389
  926MPD2    H313608   4.359   1.937  13.206 -0.1479 -0.4788 -0.9401
  926MPD2     N13609   4.149   2.184  12.889 -0.0482  0.1183  0.1395
  926MPD2    H513610   4.237   2.172  12.841 -1.5973 -1.4622 -2.2898
  926MPD2    N113611   3.923   2.024  13.290  0.5872 -0.0939 -0.4869
  926MPD2    H713612   3.863   2.106  13.286  1.5648  0.6819  1.2763
  927MPD2     C13613   4.178   3.164   0.633 -0.2240  0.7121 -0.0255
  927MPD2    C113614   4.064   3.226   0.575 -0.2208  0.6366 -0.6992
  927MPD2    C213615   4.082   3.285   0.448 -0.1623  0.4368 -0.3251
  927MPD2    C313616   4.207   3.271   0.387  0.0973  0.0400  0.6716
  927MPD2    C413617   4.312   3.211   0.446  0.4272  0.1213  0.2116
  927MPD2    C513618   4.299   3.151   0.564 -0.5322  0.2483 -0.5223
  927MPD2     H13619   4.003   3.335   0.394 -1.8709  0.5609  2.3133
  927MPD2    H113620   4.413   3.202   0.407  0.0262  0.0576 -0.8019
  927MPD2    H213621   4.165   3.113   0.728  1.8234  1.5890  0.7208
  927MPD2    H313622   4.382   3.090   0.599 -0.6616  0.5627  0.3368
  927MPD2     N13623   4.223   3.340   0.263 -0.1283  0.4295 -0.4770
  927MPD2    H513624   4.151   3.404   0.233 -0.3121  0.2946 -0.3320
  927MPD2    N113625   3.948   3.241   0.650  0.1434  0.3138  0.1196
  927MPD2    H713626   3.935   3.201   0.743 -1.0457  0.3636 -0.0219
  928MPD2     C13627   1.186   1.765   0.503  0.8394 -0.3384 -0.1681
  928MPD2    C113628   1.293   1.781   0.589 -0.7959 -0.0059  0.4899
  928MPD2    C213629   1.410   1.843   0.540 -0.1212  0.5496  0.0341
  928MPD2    C313630   1.413   1.898   0.411  0.3253  0.1963 -0.1047
  928MPD2    C413631   1.304   1.895   0.331 -0.1696  0.7100  0.1577
  928MPD2    C513632   1.195   1.826   0.381 -0.3647  0.4367 -0.2839
  928MPD2     H13633   1.497   1.849   0.605  1.4583  1.3253 -2.1364
  928MPD2    H113634   1.298   1.932   0.229 -0.3481  3.6256  1.2471
  928MPD2    H213635   1.094   1.716   0.534 -0.2844  0.8917 -1.5828
  928MPD2    H313636   1.108   1.817   0.316  2.0599 -1.1225 -3.3148
  928MPD2     N13637   1.516   1.979   0.367  1.0829 -0.1280 -0.1010
  928MPD2    H513638   1.507   2.014   0.272 -0.8798 -1.3570 -0.3736
  928MPD2    N113639   1.281   1.727   0.717 -0.2444  0.3761 -0.8041
  928MPD2    H713640   1.193   1.686   0.744 -0.2129 -0.7631 -2.4590
  929MPD2     C13641   1.007   2.342   9.650 -0.4669  0.6262  0.2399
  929MPD2    C113642   0.959   2.257   9.744  0.3293  0.5929 -0.7239
  929MPD2    C213643   0.851   2.176   9.712 -0.7212  0.2539  0.8209
  929MPD2    C313644   0.780   2.184   9.591 -0.1109  0.5894 -0.9941
  929MPD2    C413645   0.833   2.268   9.501  0.6385 -1.1068  0.8414
  929MPD2    C513646   0.945   2.350   9.524 -0.7775  0.2633  0.1468
  929MPD2     H13647   0.838   2.086   9.770 -0.1568  0.3593  1.1037
  929MPD2    H113648   0.784   2.281   9.405  0.6415  1.0817  1.1274
  929MPD2    H213649   1.082   2.419   9.665  0.6176 -0.5501  0.8518
  929MPD2    H313650   0.970   2.418   9.443  1.6302 -1.0243 -0.2039
  929MPD2     N13651   0.671   2.104   9.547  0.4739  0.1245 -0.2888
  929MPD2    H513652   0.664   2.102   9.445  0.3116 -1.5988 -0.2452
  929MPD2    N113653   1.029   2.259   9.873  0.1491  0.8426 -0.2702
  929MPD2    H713654   1.115   2.313   9.878  0.7967 -0.1834 -0.2134
  930MPD2     C13655   3.684   4.431  14.314  0.7153 -0.2982 -0.6132
  930MPD2    C113656   3.799   4.485  14.260 -0.2579 -0.1027  0.3523
  930MPD2    C213657   3.849   4.448  14.132 -0.1759 -0.6061 -0.2347
  930MPD2    C313658   3.757   4.387  14.045 -0.1685 -0.4310  0.6257
  930MPD2    C413659   3.633   4.339  14.096 -0.4288  0.5084  0.4451
  930MPD2    C513660   3.598   4.368  14.227 -0.2235  0.7596  0.7055
  930MPD2     H13661   3.945   4.488  14.102  0.9913 -3.3892 -0.2033
  930MPD2    H113662   3.558   4.293  14.032  1.9070 -1.9784 -0.4653
  930MPD2    H213663   3.632   4.450  14.407  1.1444  0.1503 -0.4645
  930MPD2    H313664   3.503   4.342  14.271  0.4038  1.0257  2.2365
  930MPD2     N13665   3.780   4.372  13.908 -0.4770  0.4732  0.6475
  930MPD2    H513666   3.704   4.334  13.853  0.0868  1.1485 -0.5710
  930MPD2    N113667   3.884   4.578  14.324 -0.1687  0.2961  0.1472
  930MPD2    H713668   3.970   4.603  14.277  0.1205 -0.3444  0.3269
  931MPD2     C13669   3.933   3.498   1.236  0.4229  0.1118  0.4995
  931MPD2    C113670   3.865   3.390   1.184 -0.1514  0.6290  0.2424
  931MPD2    C213671   3.863   3.274   1.260  0.0733  0.3818  0.5511
  931MPD2    C313672   3.962   3.251   1.357  0.0106  0.5462 -0.0868
  931MPD2    C413673   4.044   3.354   1.387 -0.8305  0.2424  0.1592
  931MPD2    C513674   4.034   3.480   1.333  0.0022 -0.3224 -0.1254
  931MPD2     H13675   3.816   3.186   1.217 -2.3616  1.4837  0.9601
  931MPD2    H113676   4.127   3.335   1.455  0.1649 -1.0895 -1.4231
  931MPD2    H213677   3.923   3.595   1.189 -1.7044 -0.3680 -0.0370
  931MPD2    H313678   4.095   3.555   1.382  0.9825 -1.6662  0.7147
  931MPD2     N13679   3.999   3.121   1.397  0.2591 -0.6882 -0.3381
  931MPD2    H513680   4.086   3.109   1.448  0.0938  0.5664  0.2275
  931MPD2    N113681   3.780   3.407   1.073 -0.2168  0.0339 -0.4562
  931MPD2    H713682   3.791   3.486   1.010 -1.3992  1.2676  0.8693
  932MPD2     C13683   0.131   2.939  11.565  0.4369 -0.2146 -0.0660
  932MPD2    C113684   0.253   2.979  11.515 -0.4956  0.1928  0.1060
  932MPD2    C213685   0.353   2.886  11.506  0.1984  0.1246 -0.4493
  932MPD2    C313686   0.329   2.753  11.541 -0.3765 -0.2077 -0.2026
  932MPD2    C413687   0.209   2.719  11.595 -0.9744  0.1986 -0.1440
  932MPD2    C513688   0.111   2.812  11.606 -0.2436  0.2820 -0.5679
  932MPD2     H13689   0.441   2.927  11.456  0.1984 -1.0735 -1.4225
  932MPD2    H113690   0.180   2.617  11.615 -1.2153  0.0186 -1.3908
  932MPD2    H213691   0.042   3.000  11.559  0.1296 -0.5767  0.7128
  932MPD2    H313692   0.013   2.786  11.645 -0.6981 -0.9569 -2.5658
  932MPD2     N13693   0.415   2.647  11.520 -0.3525 -0.2785  0.3256
  932MPD2    H513694   0.383   2.554  11.548 -0.6874  0.2495  1.6956
  932MPD2    N113695   0.278   3.112  11.465  0.9636 -0.6428 -0.7448
  932MPD2    H713696   0.376   3.132  11.450  1.5194 -2.5180  0.3797
  933MPD2     C13697   1.001   2.162   1.402  0.6514 -0.0934  0.0673
  933MPD2    C113698   1.057   2.138   1.275  0.1559  0.2103  0.0912
  933MPD2    C213699   1.027   2.244   1.186 -0.3657  0.3295  0.1158
  933MPD2    C313700   0.941   2.352   1.207  0.6790 -0.3808  0.1798
  933MPD2    C413701   0.890   2.362   1.336 -0.0897  0.0802  0.9013
  933MPD2    C513702   0.927   2.276   1.430  0.2398 -0.1500  0.0169
  933MPD2     H13703   1.089   2.256   1.098  0.2204 -1.8520  0.2448
  933MPD2    H113704   0.829   2.450   1.354 -0.2328  0.3348 -0.8085
  933MPD2    H213705   1.009   2.094   1.486  2.7358  1.8170  1.4126
  933MPD2    H313706   0.875   2.292   1.524 -3.1147 -3.1006 -1.3317
  933MPD2     N13707   0.899   2.438   1.103 -0.4684 -0.6474  0.6540
  933MPD2    H513708   0.957   2.435   1.020 -2.4103  1.2558 -0.7691
  933MPD2    N113709   1.134   2.022   1.248  0.2652  0.6769  0.5966
  933MPD2    H713710   1.173   1.973   1.328  0.8425 -0.2607 -0.2638
  934MPD2     C13711   2.769   0.489   1.444  0.7498 -0.3420  0.3124
  934MPD2    C113712   2.854   0.405   1.378 -0.3359  0.0545  0.3743
  934MPD2    C213713   2.808   0.280   1.331  0.4403  0.0481 -0.3014
  934MPD2    C313714   2.675   0.248   1.364  0.3541 -0.4206  0.5513
  934MPD2    C413715   2.587   0.340   1.427  0.0170  0.2517  0.2033
  934MPD2    C513716   2.639   0.458   1.466 -0.0966 -0.1766  0.5304
  934MPD2     H13717   2.869   0.222   1.263  1.2461 -1.4311  1.6934
  934MPD2    H113718   2.483   0.318   1.446 -0.1404  1.0629  0.2850
  934MPD2    H213719   2.806   0.585   1.478  1.4739 -1.1146  1.6511
  934MPD2    H313720   2.575   0.537   1.504 -0.6868 -0.3980 -0.0187
  934MPD2     N13721   2.614   0.121   1.333 -0.1478  0.1552 -0.0975
  934MPD2    H513722   2.516   0.109   1.355  0.0643  1.5538  1.5692
  934MPD2    N113723   2.995   0.427   1.352  0.2297  0.2580 -0.1554
  934MPD2    H713724   3.044   0.354   1.301  2.7785  1.8146  0.0761
  935MPD2     C13725   3.041   3.946   1.265  0.1302 -0.0079 -0.4440
  935MPD2    C113726   2.916   3.929   1.206  0.6969 -0.1507 -0.3670
  935MPD2    C213727   2.820   4.028   1.217 -0.1520  0.3693  0.1312
  935MPD2    C313728   2.842   4.153   1.275  0.6286  0.4717  0.4320
  935MPD2    C413729   2.963   4.170   1.340  0.4622 -0.0557 -0.9227
  935MPD2    C513730   3.054   4.066   1.337  0.2251  0.5210  0.5687
  935MPD2     H13731   2.724   4.016   1.169 -0.7881  0.1824  1.4523
  935MPD2    H113732   2.983   4.256   1.402 -0.0719 -2.4179  2.5333
  935MPD2    H213733   3.122   3.875   1.250  0.5938 -0.2579  3.1888
  935MPD2    H313734   3.151   4.090   1.377  0.7633 -0.6472 -0.0514
  935MPD2     N13735   2.754   4.263   1.277  0.4490  0.0786 -0.2173
  935MPD2    H513736   2.790   4.346   1.322  1.4255 -0.2924 -0.3094
  935MPD2    N113737   2.880   3.815   1.142  0.0100  0.2455  0.0300
  935MPD2    H713738   2.781   3.806   1.121  0.5409  0.1113 -2.3904
  936MPD2     C13739   1.030   1.400  13.155 -0.1967  0.0311 -0.7733
  936MPD2    C113740   1.029   1.530  13.110 -0.0392  0.4431 -0.0803
  936MPD2    C213741   1.012   1.563  12.975  0.4858  0.4774  0.5141
  936MPD2    C313742   0.993   1.468  12.880  0.7294 -0.2176 -0.2259
  936MPD2    C413743   1.003   1.337  12.925 -0.8799  0.4188  0.4936
  936MPD2    C513744   1.025   1.302  13.061  0.0904  0.1665 -0.4146
  936MPD2     H13745   1.006   1.668  12.950  1.6878  0.2361 -0.7342
  936MPD2    H113746   0.983   1.254  12.858  0.1147  0.3402  0.2918
  936MPD2    H213747   1.038   1.374  13.260  0.1808  0.5738 -0.6701
  936MPD2    H313748   1.004   1.201  13.096 -1.0623  1.2443  2.0163
  936MPD2     N13749   0.956   1.511  12.749  0.3816  0.6672 -1.2949
  936MPD2    H513750   0.948   1.612  12.744  0.7787  0.7460 -0.4218
  936MPD2    N113751   1.055   1.645  13.187  0.0651 -0.3262  0.3194
  936MPD2    H713752   1.048   1.735  13.140 -3.7219 -1.0128 -0.4490
  937MPD2     C13753   3.614   2.865  11.783 -0.0170  0.8918 -0.6740
  937MPD2    C113754   3.525   2.949  11.717  0.0427  0.5873 -0.0989
  937MPD2    C213755   3.571   3.001  11.595  0.4162 -0.3846 -0.5278
  937MPD2    C313756   3.678   2.939  11.524 -0.2832 -0.0321 -0.6357
  937MPD2    C413757   3.759   2.847  11.592  0.6206  0.0114 -0.3208
  937MPD2    C513758   3.724   2.811  11.722  0.2974  0.1504 -0.2781
  937MPD2     H13759   3.517   3.087  11.558  1.6078  0.8974  0.7455
  937MPD2    H113760   3.855   2.811  11.556  1.4573 -0.6239  2.5009
  937MPD2    H213761   3.594   2.833  11.885 -0.9578 -2.4066 -1.8783
  937MPD2    H313762   3.779   2.728  11.765 -0.5119 -0.5336 -0.5611
  937MPD2     N13763   3.701   2.980  11.390 -0.3547  0.4337  0.1895
  937MPD2    H513764   3.627   3.035  11.348  0.5360  1.7448  0.3503
  937MPD2    N113765   3.426   3.026  11.786 -0.0389 -0.0778 -0.6809
  937MPD2    H713766   3.396   3.109  11.737  0.1385  0.4217  0.0573
  938MPD2     C13767   1.815   3.871   0.305 -0.2832  0.7261  0.1324
  938MPD2    C113768   1.863   3.951   0.407 -0.2590 -0.0756  0.0568
  938MPD2    C213769   1.903   3.881   0.528 -0.2028  0.2606  0.2067
  938MPD2    C313770   1.891   3.742   0.545  0.6052 -0.4562  0.7036
  938MPD2    C413771   1.841   3.670   0.436 -0.0868  1.1383 -0.4941
  938MPD2    C513772   1.806   3.732   0.322 -0.6892  0.6954  0.0841
  938MPD2     H13773   1.949   3.942   0.605  0.2199 -2.9850  2.5668
  938MPD2    H113774   1.834   3.562   0.433  1.3421  1.0693 -1.5817
  938MPD2    H213775   1.778   3.921   0.216 -2.0652 -1.5521 -0.4136
  938MPD2    H313776   1.774   3.673   0.237  1.3340 -1.5284  0.8947
  938MPD2     N13777   1.928   3.667   0.662 -0.5299 -0.8185 -0.7873
  938MPD2    H513778   1.903   3.568   0.658 -0.8309 -0.8133  1.3521
  938MPD2    N113779   1.876   4.093   0.409 -0.6462  0.2716 -0.5698
  938MPD2    H713780   1.936   4.138   0.478 -0.8900  0.8856 -0.7543
  939MPD2     C13781   3.151   0.574   0.388 -0.4015  0.2683 -0.6655
  939MPD2    C113782   3.079   0.529   0.493 -0.5116  0.1811 -0.2946
  939MPD2    C213783   3.060   0.389   0.512 -0.4600 -0.1354 -0.1925
  939MPD2    C313784   3.106   0.296   0.418  0.4011  0.4338  0.4008
  939MPD2    C413785   3.180   0.346   0.312  0.1314  0.0684 -0.0322
  939MPD2    C513786   3.193   0.482   0.297 -0.5011 -0.1020 -0.0471
  939MPD2     H13787   3.001   0.347   0.593  1.5018  1.1444  1.9122
  939MPD2    H113788   3.218   0.288   0.229 -2.4764 -2.9919  0.9248
  939MPD2    H213789   3.165   0.681   0.375  0.9120  0.2038  0.2020
  939MPD2    H313790   3.253   0.517   0.214  1.1873 -1.0251  0.7806
  939MPD2     N13791   3.088   0.162   0.438  0.2653 -0.2141 -0.0440
  939MPD2    H513792   3.041   0.130   0.522 -0.0185 -4.0639 -1.6575
  939MPD2    N113793   3.028   0.628   0.576  0.1094  0.5474  0.0167
  939MPD2    H713794   3.059   0.724   0.570  0.2565  0.4696 -0.4588
  940MPD2     C13795   1.478   1.576  13.162 -0.7874  0.6318  0.3003
  940MPD2    C113796   1.569   1.479  13.196  0.2389 -0.1779 -0.0933
  940MPD2    C213797   1.577   1.363  13.129 -0.1817  0.6090 -0.1454
  940MPD2    C313798   1.487   1.339  13.024 -0.3911  0.0778  0.1932
  940MPD2    C413799   1.392   1.428  12.994 -0.6862 -0.2856 -0.6870
  940MPD2    C513800   1.392   1.553  13.059 -0.5642  0.3765  0.4385
  940MPD2     H13801   1.655   1.294  13.161 -2.6808 -1.9395  0.5014
  940MPD2    H113802   1.331   1.409  12.906 -0.1885  0.8181 -1.2661
  940MPD2    H213803   1.470   1.672  13.212  1.7420  1.9304 -1.7599
  940MPD2    H313804   1.318   1.628  13.031 -0.1710  0.4813 -0.3060
  940MPD2     N13805   1.493   1.225  12.942  0.0301 -0.1047 -0.1596
  940MPD2    H513806   1.426   1.225  12.865 -0.1774  0.5340  0.0210
  940MPD2    N113807   1.660   1.497  13.298  0.0343 -0.1965 -0.1528
  940MPD2    H713808   1.710   1.413  13.324  2.6528  1.1890 -0.7821
  941MPD2     C13809   0.230   0.894   9.947  0.3833  0.0246  0.2298
  941MPD2    C113810   0.331   0.840  10.020  0.6026  0.6204  0.0331
  941MPD2    C213811   0.312   0.727  10.090  0.1104 -0.1320 -0.5975
  941MPD2    C313812   0.189   0.661  10.084  0.7312  0.8373  0.3031
  941MPD2    C413813   0.089   0.713  10.010  0.3809 -0.1712  0.4895
  941MPD2    C513814   0.113   0.829   9.951  0.6019 -0.4834 -0.3294
  941MPD2     H13815   0.398   0.679  10.133 -0.9601  0.0047  1.6788
  941MPD2    H113816   4.731   0.668  10.003 -0.4640  1.6153  0.9398
  941MPD2    H213817   0.236   0.982   9.884 -0.7698 -0.6917 -0.8699
  941MPD2    H313818   0.026   0.863   9.896  0.0480  3.9967  3.3369
  941MPD2     N13819   0.167   0.530  10.129 -0.4234  0.2805 -0.5514
  941MPD2    H513820   0.071   0.498  10.125  0.1575 -1.6083  0.1097
  941MPD2    N113821   0.460   0.901  10.020 -0.3878 -0.2862 -0.0673
  941MPD2    H713822   0.536   0.854  10.068 -0.4590  0.4300  0.7355
  942MPD2     C13823   0.816   2.808   8.734 -0.6291 -0.3179  0.4124
  942MPD2    C113824   0.910   2.790   8.838  1.0302 -0.6040 -0.2323
  942MPD2    C213825   1.028   2.727   8.812  0.8619  0.1043 -0.8269
  942MPD2    C313826   1.050   2.671   8.691  0.1616 -0.9374  0.0481
  942MPD2    C413827   0.960   2.700   8.585 -0.0277 -0.6027  0.4951
  942MPD2    C513828   0.846   2.769   8.607 -0.3524  0.0156 -0.5068
  942MPD2     H13829   1.111   2.718   8.882  1.1066  1.7212 -0.9063
  942MPD2    H113830   0.966   2.648   8.490  1.2892  0.2576  0.1178
  942MPD2    H213831   0.721   2.858   8.743  0.4015  1.3206  2.2982
  942MPD2    H313832   0.775   2.780   8.526 -3.1226  0.2017  1.9648
  942MPD2     N13833   1.174   2.610   8.658 -0.3698  0.8388 -0.2623
  942MPD2    H513834   1.189   2.606   8.557 -0.1684 -1.2364 -0.1494
  942MPD2    N113835   0.891   2.827   8.974 -0.4305 -0.3500  0.5756
  942MPD2    H713836   0.940   2.774   9.045  1.7557  0.9486  0.0219
  943MPD2     C13837   4.594   4.381   9.962 -0.5458 -0.7274  0.0071
  943MPD2    C113838   4.469   4.347  10.008  0.0624  0.2395 -0.2475
  943MPD2    C213839   4.420   4.423  10.115  0.4727  0.6837  0.4326
  943MPD2    C313840   4.498   4.517  10.177  0.6444 -0.0333  0.4258
  943MPD2    C413841   4.621   4.543  10.132 -0.3469  0.7307 -0.0975
  943MPD2    C513842   4.667   4.474  10.025 -0.5453  0.0108  0.0371
  943MPD2     H13843   4.329   4.402  10.170  0.8000 -0.3003  0.6132
  943MPD2    H113844   4.694   4.607  10.181 -0.2124  0.8954 -0.5069
  943MPD2    H213845   4.644   4.318   9.889 -0.1191  0.5079 -0.7721
  943MPD2    H313846   0.032   4.468   9.998 -0.4748 -1.8673  0.7211
  943MPD2     N13847   4.458   4.574  10.305  0.0592 -0.1666  0.0261
  943MPD2    H513848   4.519   4.643  10.347  0.3780 -1.6181  1.9510
  943MPD2    N113849   4.393   4.249   9.934  0.1961  0.3678  0.0442
  943MPD2    H713850   4.433   4.213   9.848  0.1824  0.9738 -0.2169
  944MPD2     C13851   3.283   4.447  10.888 -0.2384 -0.2274 -1.0227
  944MPD2    C113852   3.383   4.360  10.851  0.5026 -0.3079  0.2299
  944MPD2    C213853   3.441   4.282  10.945 -0.0532 -0.5583 -0.6253
  944MPD2    C313854   3.399   4.295  11.074 -1.4048 -0.6630  0.2984
  944MPD2    C413855   3.308   4.385  11.113 -0.0803 -0.2928 -0.8616
  944MPD2    C513856   3.255   4.469  11.021 -0.9197 -0.7607  0.5948
  944MPD2     H13857   3.505   4.197  10.926  1.3724  0.3473  0.1476
  944MPD2    H113858   3.272   4.381  11.215  3.8802  1.3649  0.6094
  944MPD2    H213859   3.237   4.516  10.818  0.4997 -0.4075 -1.6953
  944MPD2    H313860   3.181   4.541  11.055 -0.1865 -1.0551  2.8479
  944MPD2     N13861   3.463   4.224  11.185  0.4540  0.3313 -0.6859
  944MPD2    H513862   3.438   4.256  11.278  3.0685  0.5038 -0.0429
  944MPD2    N113863   3.430   4.354  10.717 -0.0483  0.2437  0.2253
  944MPD2    H713864   3.503   4.288  10.691  0.7581  1.6887 -1.2073
    1TMC1    C113865   2.693   0.644  14.563 -0.2153  0.1122  0.1297
    1TMC1    C213866   2.768   0.583  14.665  0.3246  0.3013 -0.4451
    1TMC1    C313867   2.712   0.495  14.750  0.2914 -0.0403 -0.3509
    1TMC1    C413868   2.557   0.615  14.551  0.3490 -0.3752 -0.1539
    1TMC1    C513869   2.505   0.519  14.637 -0.4195  0.1022  0.3648
    1TMC1    C613870   2.580   0.468  14.737 -0.9009 -0.3120  0.1908
    1TMC1     C13871   2.757   0.749  14.481 -0.6458  0.0727  0.2941
    1TMC1     O13872   2.858   0.801  14.523 -0.1323 -0.9224  0.3518
    1TMC1     H13873   2.876   0.598  14.663  0.2862  0.7620  1.1685
    1TMC1    H113874   2.489   0.656  14.477 -0.6435  0.4941  1.2234
    1TMC1    H213875   2.537   0.403  14.812 -0.4846 -0.6350  0.1485
    1TMC1    C713876   2.363   0.484  14.628  0.2095 -0.4696 -0.3652
    1TMC1    C813877   2.793   0.435  14.855  0.4452 -0.0162 -0.8002
    1TMC1    O113878   2.310   0.483  14.521 -0.3600  0.3224  0.4133
    1TMC1    O213879   2.772   0.331  14.912  0.2080 -0.1160 -0.2971
    1TMC1    O313880   2.303   0.493  14.742 -0.7577  0.1517 -0.5564
    1TMC1    H313881   2.357   0.535  14.813 -0.3195 -0.7788 -0.3326
    1TMC1    O513882   2.843   0.540  14.915 -0.3917 -0.5565 -0.6493
    1TMC1    H513883   2.869   0.615  14.858 -1.0916 -0.9223 -1.4451
    2MPD2     C13884   2.606   1.125  14.154 -0.1991 -1.2401 -0.1547
    2MPD2    C113885   2.536   1.015  14.115 -0.9074  0.4769 -0.1773
    2MPD2    C213886   2.570   0.895  14.181 -0.1886 -0.4087 -0.0049
    2MPD2    C313887   2.667   0.887  14.284 -0.3489 -0.0134 -0.7442
    2MPD2    C413888   2.739   0.996  14.313 -0.1151 -1.0351  0.0824
    2MPD2    C513889   2.711   1.115  14.249 -0.2984 -0.0674  0.5308
    2MPD2     H13890   2.528   0.800  14.153 -2.1187  0.0742  1.2749
    2MPD2    H113891   2.814   0.997  14.392 -2.2299 -1.8806  2.1161
    2MPD2    H213892   2.577   1.225  14.123  2.5929 -0.0097  1.2710
    2MPD2    H313893   2.771   1.199  14.282 -1.2843  0.3732  1.2016
    2MPD2     N13894   2.682   0.773  14.366 -0.2642  0.6194 -0.0817
    2MPD2    H513895   2.620   0.698  14.337 -2.0661  2.0356  0.0282
    2MPD2    N113896   2.425   1.034  14.026  0.1637  0.0338  0.0375
    2MPD2    H713897   2.396   1.128  14.001 -3.5434 -0.9177  0.7544
    3TMC2    C113898   2.260   0.989  13.879 -0.2147 -0.3334 -0.0125
    3TMC2    C213899   2.167   0.900  13.834 -0.9135  0.0943 -0.3208
    3TMC2    C313900   2.084   0.948  13.732  0.2313  1.2282  0.0103
    3TMC2    C413901   2.272   1.123  13.827 -0.1511  0.3574 -0.0748
    3TMC2    C513902   2.177   1.161  13.736 -0.3069 -0.3241  0.0147
    3TMC2    C613903   2.084   1.077  13.692  0.2913 -0.0809  0.3734
    3TMC2     C13904   2.356   0.930  13.976  0.1166 -0.9422 -0.4398
    3TMC2     O13905   2.359   0.812  14.006  0.3140 -0.3259 -0.6843
    3TMC2     H13906   2.169   0.799  13.875  0.2741 -0.0047 -0.6061
    3TMC2    H113907   2.342   1.193  13.871 -0.8723  1.5463 -0.8059
    3TMC2    H213908   2.005   1.105  13.624 -0.2055 -0.1099  0.9412
    3TMC2    C713909   2.198   1.291  13.680  0.1998  0.7589  0.2967
    3TMC2    C813910   1.955   0.876  13.715  0.1172  0.8236  0.1613
    3TMC2    O113911   2.241   1.375  13.760 -0.7219  0.3937 -0.2165
    3TMC2    O213912   1.886   0.918  13.624  0.1140  0.0552  0.2296
    3TMC2    O513913   1.917   0.858  13.841  0.3823  0.4285 -0.1824
    3TMC2    H513914   1.978   0.864  13.918 -1.6527 -1.4507  1.5584
    4TMC2    C113915   1.745   1.696  12.891  0.2201  0.0907  0.4981
    4TMC2    C213916   1.676   1.618  12.807 -0.5454  0.5826  0.2588
    4TMC2    C313917   1.704   1.486  12.824 -0.3087 -0.0800  0.7168
    4TMC2    C413918   1.824   1.654  12.998 -0.4585 -0.1523  0.0220
    4TMC2    C513919   1.852   1.527  13.001 -0.1186 -0.4101  0.7339
    4TMC2    C613920   1.798   1.437  12.913 -0.3929 -0.0265  0.1120
    4TMC2     C13921   1.715   1.841  12.879 -0.1506 -0.2471 -0.5099
    4TMC2     O13922   1.703   1.898  12.988  0.5556 -0.4168  0.4383
    4TMC2     H13923   1.608   1.652  12.730 -0.0224  1.0315  0.0035
    4TMC2    H113924   1.863   1.731  13.064 -1.1616  0.4469 -0.2626
    4TMC2    H213925   1.825   1.332  12.925 -3.9588 -0.8695  0.6503
    4TMC2    C713926   1.949   1.469  13.088  0.4984  0.7102 -0.6717
    4TMC2    C813927   1.661   1.407  12.719  0.6675 -0.4998  0.2032
    4TMC2    O113928   1.962   1.347  13.099 -0.0563  0.1459 -0.1038
    4TMC2    O213929   1.550   1.416  12.673 -0.3395 -0.5216 -0.1431
    4TMC2    O513930   1.766   1.330  12.678 -0.1907 -0.4150  0.3150
    4TMC2    H513931   1.853   1.352  12.716 -1.3427  1.4312  1.8764
    5MPD2     C13932   1.505   2.236  12.645  0.2087 -0.6224  0.4911
    5MPD2    C113933   1.518   2.216  12.782 -0.1256 -0.4959  0.2031
    5MPD2    C213934   1.573   2.096  12.817 -0.4044  0.2226  0.9055
    5MPD2    C313935   1.616   2.006  12.719 -0.9047  0.4756 -0.0011
    5MPD2    C413936   1.611   2.033  12.584  0.2658 -0.5059 -0.3762
    5MPD2    C513937   1.544   2.148  12.551 -0.1167  0.1638  0.1654
    5MPD2     H13938   1.577   2.065  12.920  1.0419 -0.0042  0.7833
    5MPD2    H113939   1.628   1.960  12.506 -0.6132 -1.0712 -0.0282
    5MPD2    H213940   1.450   2.325  12.614 -1.0161 -0.6281  2.6513
    5MPD2    H313941   1.535   2.165  12.444  0.1066 -0.8021 -0.0108
    5MPD2     N13942   1.690   1.889  12.749 -0.2540 -0.2713  0.2398
    5MPD2    H513943   1.729   1.835  12.672  0.5959  0.7887 -0.0772
    5MPD2    N113944   1.477   2.319  12.872 -0.9570  0.0044  0.6204
    5MPD2    H713945   1.456   2.409  12.830 -0.3576  0.2435  0.8329
    6MPD1     C13946   0.488   3.776  12.771  0.6970  0.5620 -0.2731
    6MPD1    C113947   0.435   3.668  12.706  0.1688  0.1059  0.1196
    6MPD1    C213948   0.515   3.556  12.687 -0.1339  0.0753 -0.1423
    6MPD1    C313949   0.645   3.552  12.733 -0.6682 -0.3859  0.1285
    6MPD1    C413950   0.701   3.667  12.790 -0.2238  0.3412 -0.1999
    6MPD1    C513951   0.620   3.786  12.799  1.2513 -0.2506 -0.5816
    6MPD1     H13952   0.468   3.463  12.656  0.3282 -0.0117 -0.5808
    6MPD1    H113953   0.802   3.678  12.827  0.3178 -1.6227 -1.0592
    6MPD1    H213954   0.427   3.865  12.771 -0.3983 -0.1799 -1.1626
    6MPD1    H313955   0.670   3.880  12.821  0.0561  0.2906 -0.2263
    6MPD1     N13956   0.729   3.439  12.731  0.7286  0.7962 -0.6392
    6MPD1    H513957   0.815   3.446  12.785  0.3161 -3.4716  0.5452
    6MPD1    N113958   0.302   3.655  12.682 -0.2611  0.2453  0.0029
    6MPD1    H613959   0.276   3.573  12.628  1.9095  0.9182 -2.0552
    6MPD1    H713960   0.254   3.742  12.663  1.5373  0.7950 -2.0689
    7MPD2     C13961   1.383   3.248  12.988 -0.2628 -0.3384  0.0672
    7MPD2    C113962   1.329   3.139  12.926  0.5075  0.9728  0.3714
    7MPD2    C213963   1.385   3.024  12.971  0.5116 -0.1457  0.1552
    7MPD2    C313964   1.478   3.013  13.073 -0.0290  0.5898  0.8382
    7MPD2    C413965   1.526   3.124  13.134  0.0990  0.3992 -0.1097
    7MPD2    C513966   1.481   3.242  13.086  0.5733 -0.1408  0.3549
    7MPD2     H13967   1.336   2.936  12.930  1.0273 -0.9258  1.2153
    7MPD2    H113968   1.594   3.119  13.218  0.5312 -1.1678 -0.5584
    7MPD2    H213969   1.350   3.348  12.961  0.8749  0.1135  0.3577
    7MPD2    H313970   1.513   3.335  13.131 -0.9656  0.7190 -0.3686
    7MPD2     N13971   1.522   2.884  13.112 -0.2376 -0.0301 -0.6134
    7MPD2    H513972   1.557   2.864  13.205  1.6220  1.4832 -0.9863
    7MPD2    N113973   1.215   3.133  12.850  0.1405 -0.4766 -1.1496
    7MPD2    H713974   1.181   3.039  12.826 -1.5858 -0.0848 -0.2540
    8TMC3    C113975   1.512   2.644  13.112 -0.0074  0.1140  0.1070
    8TMC3    C213976   1.516   2.529  13.035 -0.4280  0.1234 -0.3442
    8TMC3    C313977   1.447   2.422  13.088  0.0198 -0.0792 -0.1434
    8TMC3    C413978   1.442   2.643  13.228 -0.0431 -0.1588 -0.5493
    8TMC3    C513979   1.362   2.542  13.258 -0.3974  0.2773  0.1844
    8TMC3    C613980   1.373   2.419  13.194  0.5304  0.5913 -0.2313
    8TMC3     C13981   1.491   2.771  13.033  0.6447  0.6231 -0.7454
    8TMC3     O13982   1.491   2.761  12.913  0.6127  0.2604 -0.3169
    8TMC3     H13983   1.569   2.531  12.940 -0.1130 -0.1418 -0.1733
    8TMC3    H113984   1.423   2.733  13.286  0.4208 -0.2883 -0.1940
    8TMC3    H213985   1.336   2.326  13.235 -2.0919  0.5811 -2.5986
    8TMC3    C713986   1.227   2.591  13.236  0.0867  0.7631  0.3888
    8TMC3    C813987   1.460   2.302  13.008 -0.1375  0.2519  0.3688
    8TMC3    O113988   1.203   2.707  13.274 -0.3134  0.2970  0.2107
    8TMC3    O213989   1.443   2.194  13.067 -0.5221 -0.1773  0.4490
    9TMC3    C113990   0.793   3.220  12.710  0.1465  0.3301  0.0854
    9TMC3    C213991   0.741   3.097  12.745  0.2139  0.3196  0.7217
    9TMC3    C313992   0.830   3.020  12.816  0.2056  0.7596 -0.7247
    9TMC3    C413993   0.922   3.258  12.718 -0.0679  0.3543 -0.1531
    9TMC3    C513994   1.002   3.161  12.770  0.5426 -0.1435 -0.4578
    9TMC3    C613995   0.962   3.050  12.828 -0.1285  0.0606 -0.2370
    9TMC3     C13996   0.693   3.318  12.673 -0.3154  0.2737  0.9546
    9TMC3     O13997   0.597   3.272  12.610 -0.3974 -0.3629  0.0576
    9TMC3     H13998   0.636   3.069  12.734  0.9050 -1.4663 -1.3247
    9TMC3    H113999   0.956   3.356  12.686  1.3721 -0.6134 -1.5776
    9TMC3    H214000   1.030   2.982  12.877  0.0939 -0.6437 -1.5122
    9TMC3    C714001   1.127   3.225  12.810  0.3486  0.1599 -0.6353
    9TMC3    C814002   0.779   2.884  12.863  0.0710  0.3439  0.0912
    9TMC3    O114003   1.125   3.345  12.829 -0.2705 -0.3927  0.5992
    9TMC3    O214004   0.666   2.853  12.845 -0.3040  0.1453  0.1567
   10MPD2     C14005   0.940   2.430  13.061  0.4029  0.6511  0.1381
   10MPD2    C114006   1.017   2.532  13.108  0.2951 -0.3617 -0.2399
   10MPD2    C214007   0.983   2.665  13.078 -0.9233  0.3786  0.7985
   10MPD2    C314008   0.873   2.693  12.994  0.4257 -0.2031 -0.0754
   10MPD2    C414009   0.796   2.587  12.949 -0.0139 -0.0043 -0.1026
   10MPD2    C514010   0.829   2.458  12.990  0.2751 -0.9311 -0.8198
   10MPD2     H14011   1.048   2.740  13.122  0.8636 -2.0414  2.2432
   10MPD2    H114012   0.716   2.595  12.876  0.4202 -2.3153 -0.8382
   10MPD2    H214013   0.968   2.326  13.074  1.4938  1.1453  1.7475
   10MPD2    H314014   0.777   2.376  12.942  0.0239 -1.2713  0.0427
   10MPD2     N14015   0.863   2.829  12.953  0.2881 -0.1862  0.2318
   10MPD2    H514016   0.932   2.890  12.995 -1.5368  1.9554  0.1007
   10MPD2    N114017   1.152   2.502  13.157  0.1583 -0.2743  0.0081
   10MPD2    H714018   1.186   2.408  13.139 -1.1877 -0.7779  0.1434
   11MPD2     C14019   2.226   1.541  13.519 -0.0374 -0.1849 -0.1113
   11MPD2    C114020   2.153   1.430  13.476  0.4192  0.4526  0.8534
   11MPD2    C214021   2.088   1.428  13.351  0.1242  0.2273 -0.3519
   11MPD2    C314022   2.081   1.546  13.280  0.6224 -0.4643 -0.5962
   11MPD2    C414023   2.148   1.657  13.327  0.1738 -0.4436  0.2992
   11MPD2    C514024   2.223   1.653  13.440 -0.1924  0.0248  0.2337
   11MPD2     H14025   2.028   1.343  13.320 -1.5914  1.1237  0.4892
   11MPD2    H114026   2.137   1.748  13.270  0.9038 -0.3931  0.2469
   11MPD2    H214027   2.287   1.540  13.608 -0.8891 -1.0458  0.4738
   11MPD2    H314028   2.279   1.742  13.465 -0.7121  0.0865  1.1906
   11MPD2     N14029   2.010   1.567  13.159 -0.1493  0.2588  0.4664
   11MPD2    H514030   2.001   1.664  13.131  1.7516 -0.3894 -2.3548
   11MPD2    N114031   2.140   1.311  13.555  0.0556  0.4276  0.1591
   11MPD2    H714032   2.111   1.231  13.499 -1.3243  0.4178  0.8895
    1MPD1     C14033   4.684   2.545  16.848  0.1557 -0.0537 -0.3752
    1MPD1    C114034   4.668   2.668  16.909 -0.4961 -0.2527 -0.6640
    1MPD1    C214035   0.037   2.741  16.938 -0.4934  0.2063  1.1321
    1MPD1    C314036   0.167   2.699  16.902 -0.8631  0.1568  0.6298
    1MPD1    C414037   0.181   2.588  16.817 -0.0735  0.4992  0.4248
    1MPD1    C514038   0.065   2.511  16.800 -0.0584 -0.1480  0.0390
    1MPD1     H14039   0.019   2.832  16.993 -1.9194 -0.4856  1.7943
    1MPD1    H114040   0.279   2.553  16.787 -0.9205  0.4547 -2.2376
    1MPD1    H214041   4.603   2.477  16.826  1.5431 -2.0596  0.6709
    1MPD1    H314042   0.068   2.414  16.752 -1.3871 -0.1293 -0.0911
    1MPD1     N14043   0.290   2.758  16.936  0.0392 -0.5552  0.5728
    1MPD1    H514044   0.372   2.720  16.890 -0.4507  1.0385 -1.6463
    1MPD1    N114045   4.545   2.708  16.950 -0.1570 -0.0718  0.1999
    1MPD1    H614046   4.540   2.807  16.926  0.9959 -0.3904 -1.2993
    1MPD1    H714047   4.476   2.648  16.905 -0.9120  2.1507 -1.6199
    2MPD1     C14048   0.547   3.668  17.280  0.7035 -0.3987  0.7786
    2MPD1    C114049   0.502   3.634  17.153  0.2485  0.5186 -0.0385
    2MPD1    C214050   0.499   3.496  17.127 -0.6400 -0.5923  0.1383
    2MPD1    C314051   0.552   3.399  17.209  0.9288  0.0232 -0.4733
    2MPD1    C414052   0.624   3.445  17.320 -0.5746  0.6496 -0.2577
    2MPD1    C514053   0.618   3.579  17.354 -0.0994  0.3458  0.1913
    2MPD1     H14054   0.483   3.466  17.024  1.4112 -1.2358  0.0153
    2MPD1    H114055   0.689   3.385  17.382 -0.4333  0.3365 -0.7132
    2MPD1    H214056   0.563   3.772  17.304  2.0314 -0.4258  0.0025
    2MPD1    H314057   0.660   3.615  17.447  0.1081 -0.2829  0.3422
    2MPD1     N14058   0.542   3.261  17.184 -0.7584 -0.0840 -0.2106
    2MPD1    H514059   0.503   3.239  17.093  0.9859 -0.0489 -0.9674
    2MPD1    N114060   0.427   3.728  17.084  0.2773  0.6621  0.6746
    2MPD1    H614061   0.430   3.695  16.987 -0.0367 -1.8820  1.5241
    2MPD1    H714062   0.481   3.814  17.090  0.8105  0.1443  3.0469
    3TMC3    C114063   0.605   3.038  17.174 -0.8517 -0.8586 -0.1715
    3TMC3    C214064   0.710   2.955  17.143  0.3572 -0.1442 -0.0689
    3TMC3    C314065   0.684   2.846  17.069 -0.4087  0.2109 -0.4275
    3TMC3    C414066   0.479   3.009  17.128 -0.0408  0.6224  0.2931
    3TMC3    C514067   0.450   2.894  17.059  0.2985  0.8965  0.1759
    3TMC3    C614068   0.554   2.808  17.028  0.0815 -0.3536 -0.2142
    3TMC3     C14069   0.625   3.165  17.242  0.1484 -0.4497  0.6330
    3TMC3     O14070   0.718   3.169  17.322  0.0428  0.1919  0.5525
    3TMC3     H14071   0.804   2.965  17.197  0.1413 -0.7521  0.4055
    3TMC3    H114072   0.397   3.073  17.161 -1.6665 -0.1118 -2.3552
    3TMC3    H214073   0.537   2.712  16.981 -0.2785 -0.1378 -0.5294
    3TMC3    C714074   0.306   2.861  17.030  0.8223 -0.5056 -0.9869
    3TMC3    C814075   0.791   2.752  17.041  0.4961 -0.9173 -0.4910
    3TMC3    O114076   0.212   2.923  17.080  0.1884  1.0046 -0.8969
    3TMC3    O214077   0.760   2.648  16.992  0.6327  0.5567 -0.3467
    4MPD1     C14078   1.277   2.594  17.043 -0.0480  0.4001  0.0350
    4MPD1    C114079   1.284   2.733  17.074 -0.5836  0.0191 -0.3229
    4MPD1    C214080   1.160   2.800  17.070  0.4007 -0.3309  0.2923
    4MPD1    C314081   1.042   2.731  17.044  0.0029  0.0632  0.4266
    4MPD1    C414082   1.045   2.595  17.017 -0.8473 -0.0380  0.4670
    4MPD1    C514083   1.165   2.534  17.012  1.2367  0.3324  0.0804
    4MPD1     H14084   1.159   2.904  17.101  0.4398  0.4115 -2.1811
    4MPD1    H114085   0.955   2.545  16.984 -0.6413 -0.1270  0.0489
    4MPD1    H214086   1.367   2.534  17.044  1.3670  2.4474 -2.6432
    4MPD1    H314087   1.167   2.428  16.990 -2.1240 -0.0753  1.7627
    4MPD1     N14088   0.922   2.806  17.049  0.0970 -0.8137  0.7709
    4MPD1    H514089   0.920   2.906  17.070 -0.5079 -0.3546 -1.4482
    4MPD1    N114090   1.397   2.791  17.132 -0.3533 -0.0873 -0.1236
    4MPD1    H614091   1.482   2.748  17.096  1.3245  1.2945  2.1489
    4MPD1    H714092   1.400   2.892  17.122 -0.5277 -0.2980 -2.1468
    1TCq1    O114093   1.647   2.328  11.499 -0.0688  0.0689  0.0472
    1TCq1    C114094   1.622   2.452  11.548  0.6578  0.0031 -0.4070
    1TCq1    O214095   1.706   2.530  11.578  0.3695 -0.2836  0.2854
    1TCq1    C214096   1.480   2.446  11.593 -1.1311 -0.4206 -0.2030
    1TCq1    C314097   1.395   2.362  11.530 -0.0027 -1.0360 -1.0327
    1TCq1    C414098   1.264   2.386  11.555  0.2287  0.8517  0.0198
    1TCq1    C514099   1.219   2.484  11.633  0.7896  0.2738  0.3123
    1TCq1    C614100   1.309   2.571  11.690  0.3395 -0.0088  0.0210
    1TCq1    C714101   1.441   2.546  11.677  0.1974 -0.0470 -0.3154
    1TCq1    C814102   1.274   2.680  11.781 -0.1146  0.3705  0.4033
    1TCq1    O414103   1.359   2.755  11.820  0.1403 -0.0847 -0.6007
    1TCq1    C914104   1.177   2.321  11.463 -0.1218  0.3076 -0.0258
    1TCq1    O514105   1.213   2.207  11.420 -0.0278  0.3596 -0.0208
    1TCq1    O614106   1.056   2.360  11.465 -0.2482 -0.3292 -0.4593
    1TCq1    H114107   1.575   2.265  11.520  0.6070 -1.1212 -1.1626
    1TCq1    H214108   1.423   2.300  11.445 -0.4083 -1.7110 -0.6685
    1TCq1    H314109   1.111   2.495  11.636  0.5138 -2.4859  0.7057
    1TCq1    H414110   1.513   2.621  11.709  1.5496 -1.4765  0.0112
    2MPD1     C14111   0.920   2.937  12.045 -0.3828  0.1832 -0.5906
    2MPD1    C114112   0.859   2.844  11.965  0.1201  0.2752  0.2995
    2MPD1    C214113   0.942   2.768  11.890  0.1640 -0.0362  0.5611
    2MPD1    C314114   1.079   2.770  11.905  0.2966  0.4690 -0.6837
    2MPD1    C414115   1.135   2.876  11.973  0.4463 -0.0349 -0.1778
    2MPD1    C514116   1.053   2.954  12.048  0.6994 -0.6190  0.3990
    2MPD1     H14117   0.903   2.691  11.824 -0.8074  0.7048  0.2662
    2MPD1    H114118   1.241   2.890  11.992 -0.0017  1.1944  1.4397
    2MPD1    H214119   0.856   3.005  12.099  0.6614 -1.6179  2.9294
    2MPD1    H314120   1.097   3.030  12.112 -2.5503 -0.1979  2.1227
    2MPD1     N14121   1.143   2.682  11.816  1.1235 -0.4152  0.0731
    2MPD1    H514122   1.080   2.611  11.781  0.9875  0.8000 -2.1755
    2MPD1    N114123   0.721   2.859  11.938 -0.4964  0.1295  0.6088
    2MPD1    H614124   0.672   2.897  12.020 -0.1184 -0.2166  0.9951
    2MPD1    H714125   0.664   2.780  11.909 -1.2874  0.2245  1.9004
    1TMC1    C114126   1.593   2.250   1.306 -0.2645 -0.3745 -0.2703
    1TMC1    C214127   1.708   2.205   1.362  0.5975 -0.1724 -0.1621
    1TMC1    C314128   1.832   2.251   1.326 -0.1267  0.0140  0.5016
    1TMC1    C414129   1.600   2.356   1.222 -0.2589  0.2517  0.5242
    1TMC1    C514130   1.726   2.418   1.208 -0.0815  1.0426  0.2852
    1TMC1    C614131   1.840   2.360   1.255  0.6672  0.3949 -0.7439
    1TMC1     C14132   1.470   2.227   1.381 -0.4352 -0.1439 -0.3309
    1TMC1     O14133   1.369   2.283   1.334 -0.4487  0.0104 -0.5103
    1TMC1     H14134   1.727   2.105   1.399 -2.2985 -0.3654  0.8322
    1TMC1    H114135   1.512   2.407   1.183 -0.3933  0.1427  0.6868
    1TMC1    H214136   1.935   2.401   1.222  0.3918 -0.2809 -2.3452
    1TMC1    C714137   1.747   2.536   1.124 -0.1020 -0.3158  1.0552
    1TMC1    C814138   1.950   2.165   1.324 -0.0415 -0.0044  0.0312
    1TMC1    O114139   1.859   2.546   1.075 -0.8017  0.3880  0.1853
    1TMC1    O214140   1.958   2.064   1.255 -0.2173  0.2347  0.3384
    1TMC1    O314141   1.631   2.583   1.072  0.0584 -0.0900  0.7175
    1TMC1    H314142   1.560   2.583   1.140 -2.5566 -0.6574 -2.0048
    1TMC1    O514143   2.057   2.240   1.357  0.3360 -0.2171 -0.2070
    1TMC1    H514144   2.035   2.304   1.427  1.0570  0.6259 -0.7524
    2MPD1     C14145   1.275   2.230   1.860 -0.3091 -0.0619  0.5168
    2MPD1    C114146   1.387   2.159   1.870  0.4334 -0.2192  0.0157
    2MPD1    C214147   1.458   2.145   1.748  0.0764 -0.0583 -0.2729
    2MPD1    C314148   1.411   2.197   1.628  0.1986  0.5706  0.0995
    2MPD1    C414149   1.296   2.277   1.629  0.8010 -1.1902 -0.0489
    2MPD1    C514150   1.232   2.290   1.745 -0.2851 -1.2218  0.2126
    2MPD1     H14151   1.555   2.098   1.745  0.3617  0.5647 -0.7230
    2MPD1    H114152   1.266   2.334   1.542 -0.2442  0.8593  1.6609
    2MPD1    H214153   1.201   2.228   1.940 -3.0832 -0.7769 -2.0579
    2MPD1    H314154   1.137   2.341   1.746  0.7313  0.6633 -0.4499
    2MPD1     N14155   1.500   2.196   1.515  0.0834 -0.1646  0.2404
    2MPD1    H514156   1.593   2.159   1.530 -0.1918 -1.0984 -0.3418
    2MPD1    N114157   1.419   2.100   1.994  0.4546  0.1239 -0.2357
    2MPD1    H614158   1.520   2.096   2.002  0.3836 -2.1978 -0.3665
    2MPD1    H714159   1.382   2.139   2.080  1.0494  0.4095 -0.1129
    1MPD1     C14160   3.017   1.953  12.124 -0.1335  0.5635 -0.2985
    1MPD1    C114161   2.910   2.000  12.194  0.5461  0.3110  0.3829
    1MPD1    C214162   2.873   2.134  12.163 -0.3200 -0.6602 -0.7149
    1MPD1    C314163   2.942   2.211  12.064  1.1210 -0.0473  0.1058
    1MPD1    C414164   3.050   2.152  11.999  0.1795 -0.1069 -0.3814
    1MPD1    C514165   3.082   2.021  12.029  0.5327 -0.5975 -0.0845
    1MPD1     H14166   2.797   2.178  12.227  1.4155  1.4769 -0.0824
    1MPD1    H114167   3.121   2.212  11.944  0.1677  2.3228  2.2588
    1MPD1    H214168   3.052   1.851  12.131 -1.6180  0.0524 -0.1897
    1MPD1    H314169   3.166   1.968  11.985  0.5889  1.7535 -2.7801
    1MPD1     N14170   2.908   2.348  12.058 -0.0824 -0.3797  0.5516
    1MPD1    H514171   2.837   2.365  12.128 -0.6666 -3.0376  0.6043
    1MPD1    N114172   2.872   1.928  12.311  0.1879 -0.1693  0.7775
    1MPD1    H614173   2.917   1.838  12.301  0.8169  0.1780  0.5136
    1MPD1    H714174   2.770   1.928  12.313  0.1438 -0.5596 -2.4865
    2MPD1     C14175   1.119   3.103  11.180  0.0103 -0.3536 -0.0917
    2MPD1    C114176   1.246   3.157  11.160  0.1862 -0.3639 -0.3705
    2MPD1    C214177   1.337   3.071  11.094  0.0568 -0.1109  0.3951
    2MPD1    C314178   1.307   2.937  11.064 -0.1925 -0.4603 -0.4251
    2MPD1    C414179   1.185   2.888  11.110  0.0465  0.1900  0.1898
    2MPD1    C514180   1.090   2.971  11.160 -0.7017 -0.2184  0.2366
    2MPD1     H14181   1.423   3.115  11.045 -0.6443  0.8932  0.0538
    2MPD1    H114182   1.153   2.786  11.097  1.2859 -0.0186 -1.2121
    2MPD1    H214183   1.041   3.162  11.227  1.1882  2.2206 -1.3552
    2MPD1    H314184   0.989   2.939  11.179 -1.1514  1.3836  0.5216
    2MPD1     N14185   1.394   2.844  11.002 -0.2585 -0.2994  0.4101
    2MPD1    H514186   1.379   2.744  11.002  3.8205 -0.9371  0.7199
    2MPD1    N114187   1.265   3.296  11.162 -0.4048  0.0071 -0.1988
    2MPD1    H614188   1.364   3.317  11.173 -0.6104  0.4086  0.8950
    2MPD1    H714189   1.215   3.333  11.243  0.7842 -2.3192  1.6198
    3MPD1     C14190   1.379   1.968  10.863  0.5398 -0.3487  0.0103
    3MPD1    C114191   1.487   1.993  10.943  0.3931 -0.5883 -0.3781
    3MPD1    C214192   1.540   2.123  10.933 -0.1629  0.1080  0.4060
    3MPD1    C314193   1.501   2.208  10.839 -0.2841 -0.5811 -0.6456
    3MPD1    C414194   1.394   2.176  10.755 -0.6839 -0.5687 -0.0154
    3MPD1    C514195   1.328   2.063  10.771  0.2280  0.6175  0.1019
    3MPD1     H14196   1.635   2.141  10.982 -1.0568  0.1414  2.1330
    3MPD1    H114197   1.365   2.247  10.678 -0.6082 -0.6544 -0.1216
    3MPD1    H214198   1.341   1.867  10.863 -0.3991  0.0063  0.4554
    3MPD1    H314199   1.249   2.035  10.703 -0.8729  1.5934  0.9911
    3MPD1     N14200   1.568   2.329  10.830 -0.2399 -0.5645 -0.7529
    3MPD1    H514201   1.650   2.344  10.887 -0.3628  1.4312 -1.0893
    3MPD1    N114202   1.548   1.889  11.020 -0.7744  0.1593  0.2418
    3MPD1    H614203   1.617   1.920  11.088 -0.5616  2.1493 -0.8869
    3MPD1    H714204   1.486   1.821  11.065 -1.2955  0.4104 -0.0892
    4MPD2     C14205   2.390   2.888  12.006 -0.9991  0.4889  0.2809
    4MPD2    C114206   2.511   2.891  11.937 -0.1194  0.0043 -0.6119
    4MPD2    C214207   2.520   2.958  11.815 -0.2714  0.1751  0.0346
    4MPD2    C314208   2.413   3.032  11.765  0.0470  0.6978  0.4120
    4MPD2    C414209   2.288   3.022  11.833 -0.1908 -0.4740 -0.3231
    4MPD2    C514210   2.276   2.942  11.945  0.0903 -0.0082  0.7282
    4MPD2     H14211   2.615   2.970  11.764 -0.4586  1.2104 -0.0830
    4MPD2    H114212   2.196   3.067  11.798 -0.0016  0.0124 -0.2028
    4MPD2    H214213   2.374   2.832  12.098 -1.6488 -0.3660 -0.3537
    4MPD2    H314214   2.183   2.956  11.998  0.6305 -0.9377  1.9225
    4MPD2     N14215   2.411   3.094  11.636 -0.5023  0.7720  0.1058
    4MPD2    H514216   2.322   3.121  11.597 -0.3260  0.8259 -0.2553
    4MPD2    N114217   2.630   2.833  11.985  0.4414  0.4132  0.1794
    4MPD2    H714218   2.714   2.862  11.937  0.5067 -2.1987 -1.2373
    5TMC3    C114219   2.788   2.739  12.096  0.1399 -0.1032 -0.5589
    5TMC3    C214220   2.820   2.611  12.067 -0.2059  0.5709 -0.1489
    5TMC3    C314221   2.925   2.572  11.987 -0.0412  0.1296 -0.2408
    5TMC3    C414222   2.857   2.833  12.026 -0.5536 -0.4543 -0.7688
    5TMC3    C514223   2.946   2.792  11.929 -0.3035 -0.6316  0.3747
    5TMC3    C614224   2.992   2.666  11.919  0.6911  0.1399 -0.2657
    5TMC3     C14225   2.651   2.765  12.102 -0.0599  0.0347 -0.2677
    5TMC3     O14226   2.576   2.701  12.174  0.2554  0.7091 -0.5265
    5TMC3     H14227   2.747   2.540  12.105  1.5131 -1.1538 -0.1216
    5TMC3    H114228   2.825   2.935  12.042 -0.5978 -0.8348  1.5497
    5TMC3    H214229   3.067   2.633  11.849  0.1673 -0.6921 -0.4428
    5TMC3    C714230   2.939   2.883  11.816 -0.1689  0.4624  0.0158
    5TMC3    C814231   2.963   2.436  11.973  0.4014 -0.3687 -0.6311
    5TMC3    O114232   2.857   2.974  11.827 -0.3421  0.1075 -0.2818
    5TMC3    O214233   3.039   2.414  11.877 -1.0362  0.4057  0.0024
    6TMC3    C114234   1.595   2.753  10.922  0.3326  0.2091 -0.3205
    6TMC3    C214235   1.528   2.649  10.857  0.1702  0.4571 -0.3530
    6TMC3    C314236   1.605   2.552  10.800  0.0762  0.0782 -0.4785
    6TMC3    C414237   1.729   2.754  10.916  0.1960 -0.2017  0.0431
    6TMC3    C514238   1.800   2.655  10.855 -0.2618 -0.4401 -0.5185
    6TMC3    C614239   1.737   2.551  10.784 -1.0828 -0.8121  0.7337
    6TMC3     C14240   1.521   2.873  10.967 -0.4839  0.3590 -0.0917
    6TMC3     O14241   1.585   2.978  10.980 -0.3252  0.0580  0.1035
    6TMC3     H14242   1.420   2.645  10.854  0.1756  0.0735 -0.1047
    6TMC3    H114243   1.772   2.846  10.954 -0.5663  0.1904 -0.0495
    6TMC3    H214244   1.791   2.466  10.745 -0.9999 -1.5651  2.4830
    6TMC3    C714245   1.933   2.687  10.791 -0.4145 -0.0527  0.3416
    6TMC3    C814246   1.534   2.438  10.758  0.2534  0.0148  0.3747
    6TMC3    O114247   1.946   2.652  10.674 -0.3081 -0.0329 -0.0716
    6TMC3    O214248   1.440   2.454  10.680  0.7032  0.6264  0.3731
    7MPD2     C14249   3.031   2.972  11.325 -0.9664 -0.2039 -0.0906
    7MPD2    C114250   2.935   3.018  11.414 -0.6443 -0.2464 -0.6863
    7MPD2    C214251   2.940   2.980  11.547 -0.0265 -0.1310  1.2034
    7MPD2    C314252   3.032   2.892  11.594  0.0859  0.3755 -0.4584
    7MPD2    C414253   3.121   2.839  11.501 -0.5010  0.1500  0.2122
    7MPD2    C514254   3.118   2.886  11.375 -0.2314 -0.1312 -0.4792
    7MPD2     H14255   2.865   3.025  11.612  1.5656  1.4580  1.9193
    7MPD2    H114256   3.211   2.786  11.530  1.4494  2.7970 -0.9642
    7MPD2    H214257   3.032   3.003  11.221 -1.3697 -0.6616 -0.2331
    7MPD2    H314258   3.200   2.859  11.310  1.7972  0.2919  1.8878
    7MPD2     N14259   3.027   2.845  11.726  0.0636  0.8453 -0.1276
    7MPD2    H514260   3.102   2.785  11.760 -0.3756  0.5796  0.3616
    7MPD2    N114261   2.826   3.105  11.385 -0.5504  0.3863  0.4210
    7MPD2    H714262   2.764   3.116  11.464  0.5956  3.8422  0.8432
    8TMC3    C114263   2.661   3.217  11.256 -0.2002 -0.3548 -0.7708
    8TMC3    C214264   2.569   3.149  11.176 -0.5086  0.4160 -0.2813
    8TMC3    C314265   2.462   3.088  11.234 -0.0208  0.2427 -0.0805
    8TMC3    C414266   2.626   3.245  11.385  0.0302  0.0784  0.0309
    8TMC3    C514267   2.509   3.194  11.439 -0.0090 -0.1160 -0.2501
    8TMC3    C614268   2.427   3.112  11.366 -0.3071 -0.4415 -0.1821
    8TMC3     C14269   2.799   3.155  11.256 -0.2386  0.0386 -0.0718
    8TMC3     O14270   2.866   3.163  11.152  0.4062 -0.0802  0.5000
    8TMC3     H14271   2.601   3.126  11.075 -0.1589 -0.3557  0.0075
    8TMC3    H114272   2.689   3.311  11.443  0.5591  0.2045 -0.6978
    8TMC3    H214273   2.349   3.051  11.411 -0.2626 -1.9223 -2.1024
    8TMC3    C714274   2.528   3.137  11.570  0.0595  0.1157  0.3633
    8TMC3    C814275   2.361   3.023  11.151 -0.8263  0.4772 -0.6276
    8TMC3    O114276   2.641   3.143  11.609  0.1914  0.1717 -0.7794
    8TMC3    O214277   2.269   2.980  11.212 -0.5919 -0.2489 -0.1563
    9MPD2     C14278   2.395   2.912  10.802  0.1870  1.0244  0.3003
    9MPD2    C114279   2.335   2.924  10.923  0.7170  0.5093 -0.1662
    9MPD2    C214280   2.215   2.852  10.948  0.4611 -0.0839  0.0699
    9MPD2    C314281   2.147   2.795  10.846 -0.3339 -0.6586  0.5675
    9MPD2    C414282   2.197   2.802  10.720  0.3006 -0.1862 -0.7212
    9MPD2    C514283   2.324   2.856  10.701 -0.0652 -1.0217  0.2207
    9MPD2     H14284   2.183   2.837  11.050  1.1792 -0.6795  0.2137
    9MPD2    H114285   2.158   2.740  10.640 -2.5732  0.3523  0.2686
    9MPD2    H214286   2.487   2.964  10.779  0.5040  0.0708 -0.5889
    9MPD2    H314287   2.352   2.867  10.596 -1.2962  1.1668  0.1179
    9MPD2     N14288   2.020   2.749  10.876 -0.3510 -0.1784 -0.0635
    9MPD2    H514289   1.978   2.772  10.965  2.8351  0.2861  1.3227
    9MPD2    N114290   2.404   3.002  11.023  0.0344 -0.2536 -0.5672
    9MPD2    H714291   2.485   3.059  11.000 -0.3631  0.2680 -0.6771
    1MPD1     C14292   2.089   1.004  16.077  0.2159  0.5529 -0.1262
    1MPD1    C114293   2.143   0.939  16.188  0.1663 -0.3993 -0.2696
    1MPD1    C214294   2.143   0.801  16.181  0.2276 -0.3222  0.6666
    1MPD1    C314295   2.070   0.732  16.088 -0.5409  0.0574 -0.2408
    1MPD1    C414296   2.013   0.802  15.980 -0.2488 -0.0924  0.4293
    1MPD1    C514297   2.020   0.941  15.976  0.0718 -0.5184  0.0726
    1MPD1     H14298   2.203   0.751  16.256  0.7372 -0.8115 -0.0674
    1MPD1    H114299   1.956   0.757  15.899 -1.8818  1.0706  0.9263
    1MPD1    H214300   2.099   1.111  16.065 -0.2859  0.4507 -1.4642
    1MPD1    H314301   1.985   0.992  15.886  0.1517  2.0597  1.4928
    1MPD1     N14302   2.043   0.592  16.091 -0.2426 -0.9183  0.3153
    1MPD1    H514303   2.012   0.544  16.007  0.1231 -0.5617 -0.0247
    1MPD1    N114304   2.209   1.014  16.280  0.4498 -0.4953 -0.7421
    1MPD1    H614305   2.309   0.998  16.273  0.6158  0.5123 -0.6177
    1MPD1    H714306   2.196   1.114  16.268  0.7627 -0.1157  2.0571
    2TMC2    C114307   2.028   0.147  16.251 -0.8016 -0.1107 -0.8538
    2TMC2    C214308   1.949   0.105  16.150 -0.6010  0.8960  0.0307
    2TMC2    C314309   1.896   0.196  16.062 -1.0878 -0.1268 -0.1602
    2TMC2    C414310   2.063   0.276  16.266  0.3691 -0.3126 -0.0469
    2TMC2    C514311   2.022   0.366  16.169  0.1330  0.1282  0.3523
    2TMC2    C614312   1.939   0.330  16.062  0.0154 -0.5681  0.1979
    2TMC2     C14313   2.081   0.055  16.350 -0.2887 -0.5395  0.3497
    2TMC2     O14314   2.020   4.692  16.356  0.2387 -0.6760 -0.5395
    2TMC2     H14315   1.929   4.739  16.144 -0.2867  0.9811 -2.5476
    2TMC2    H114316   2.130   0.296  16.349  1.4879 -0.6324 -0.8660
    2TMC2    H214317   1.898   0.403  15.994 -3.0763 -1.7377  0.7864
    2TMC2    C714318   2.065   0.504  16.197 -0.2087 -0.2700  0.9208
    2TMC2    C814319   1.869   0.144  15.935 -0.6451 -0.2089  0.4421
    2TMC2    O114320   2.124   0.524  16.300  0.0604 -0.0585  0.4622
    2TMC2    O214321   1.781   0.186  15.865  0.3296  0.3091  0.2648
    2TMC2    O514322   1.979   0.084  15.889 -0.0882 -0.0519 -0.1654
    2TMC2    H514323   2.048   0.076  15.959  0.9329  0.6164 -1.0965
    3MPD1     C14324   2.432   4.631  16.682  0.3408  0.3464  0.6106
    3MPD1    C114325   2.482   0.001  16.616 -0.1534  0.5763 -0.1842
    3MPD1    C214326   2.405   0.059  16.518  0.1491 -0.0217  1.0182
    3MPD1    C314327   2.281   0.010  16.488 -0.4920  0.1366  0.2428
    3MPD1    C414328   2.233   4.635  16.549 -0.2648  0.3854 -0.5794
    3MPD1    C514329   2.306   4.583  16.652  0.0253  0.2881 -0.1246
    3MPD1     H14330   2.450   0.138  16.460 -0.5580 -0.4038 -0.0614
    3MPD1    H114331   2.135   4.592  16.533 -0.3880  0.3509  0.3031
    3MPD1    H214332   2.480   4.585  16.768  0.9658 -0.2053 -0.0358
    3MPD1    H314333   2.271   4.497  16.708 -0.1025 -0.9581 -2.1315
    3MPD1     N14334   2.210   0.080  16.393 -0.2296  0.4389 -0.1626
    3MPD1    H514335   2.257   0.161  16.354  1.6302  0.5660  2.3722
    3MPD1    N114336   2.600   0.067  16.659 -0.3023 -0.1208  0.0011
    3MPD1    H614337   2.644   0.115  16.580 -2.1113 -0.7334 -1.3738
    3MPD1    H714338   2.666   0.003  16.704  1.5478  1.9285  0.2114
    1TMC1    C114339   1.356   0.806  13.530  0.0135 -0.6609  0.1871
    1TMC1    C214340   1.279   0.719  13.459 -0.2554 -0.1316  0.5087
    1TMC1    C314341   1.341   0.603  13.405  0.0919 -0.1474  0.3163
    1TMC1    C414342   1.485   0.773  13.554 -0.2047  0.2599  0.1763
    1TMC1    C514343   1.538   0.663  13.490 -0.2736 -0.2136 -1.3711
    1TMC1    C614344   1.476   0.570  13.423  0.1243 -0.1437  0.2736
    1TMC1     C14345   1.293   0.927  13.585  0.3364  0.2372  0.3553
    1TMC1     O14346   1.181   0.950  13.543  0.1171  0.3457  0.0026
    1TMC1     H14347   1.174   0.740  13.440  0.3305  2.0770 -0.2005
    1TMC1    H114348   1.551   0.845  13.602  0.3310 -0.0321 -0.1176
    1TMC1    H214349   1.520   0.476  13.392 -1.1804 -0.4517 -0.6275
    1TMC1    C714350   1.679   0.650  13.511  0.0477  0.0221 -0.2796
    1TMC1    C814351   1.245   0.505  13.357  0.0006 -0.4008 -0.0467
    1TMC1    O114352   1.749   0.579  13.436  0.0770  0.0972 -0.4119
    1TMC1    O214353   1.121   0.514  13.374  0.5470 -0.7188 -0.2322
    1TMC1    O314354   1.692   0.640  13.646 -0.0962 -0.2189 -0.2110
    1TMC1    H314355   1.624   0.693  13.692 -0.0739 -0.4306  0.0688
    1TMC1    O514356   1.305   0.433  13.259 -0.1483  0.3142  0.2835
    1TMC1    H514357   1.398   0.454  13.238 -0.5616 -0.2495 -2.1489
    2MPD2     C14358   1.216   1.158  13.744 -0.1201 -0.4803  0.1420
    2MPD2    C114359   1.331   1.091  13.768  0.4095 -0.1155  0.0241
    2MPD2    C214360   1.406   1.123  13.883 -0.0156 -0.6020  0.5142
    2MPD2    C314361   1.367   1.230  13.962  0.1337 -0.4029  0.8628
    2MPD2    C414362   1.248   1.299  13.936 -0.0346 -0.3827  0.4382
    2MPD2    C514363   1.181   1.264  13.823  0.0530 -0.5429  0.4420
    2MPD2     H14364   1.485   1.054  13.907  1.9827  1.4756 -0.1178
    2MPD2    H114365   1.216   1.383  13.997 -1.5478 -0.3639 -0.3885
    2MPD2    H214366   1.151   1.139  13.660 -0.9065 -1.7763  1.0499
    2MPD2    H314367   1.094   1.326  13.804 -0.6680 -1.4079  0.9359
    2MPD2     N14368   1.443   1.252  14.076  0.0210 -0.5943 -0.5106
    2MPD2    H514369   1.514   1.183  14.097 -1.1884 -0.8705  2.6221
    2MPD2    N114370   1.369   0.983  13.687 -0.3652  0.3654 -0.1471
    2MPD2    H714371   1.449   0.926  13.713 -0.6607  0.2423  0.5126
    3TCq1    O114372   1.815   1.628  14.241 -0.0108  0.0778  0.4798
    3TCq1    C114373   1.798   1.589  14.366 -0.4046 -0.0851  0.5293
    3TCq1    O214374   1.886   1.587  14.453  0.0438 -0.0455  0.0896
    3TCq1    C214375   1.698   1.479  14.369 -0.4426 -0.3274  0.4582
    3TCq1    C314376   1.728   1.370  14.440 -0.5628 -0.0898 -0.6854
    3TCq1    C414377   1.670   1.252  14.406 -0.1895  0.3107  0.2441
    3TCq1    C514378   1.565   1.247  14.318 -0.2541  0.3621 -0.4704
    3TCq1    C614379   1.527   1.364  14.264  0.0417 -0.1322 -0.0873
    3TCq1    C714380   1.596   1.485  14.279 -0.0911  0.2320  0.9325
    3TCq1    C814381   1.433   1.362  14.157  0.1320  0.5394 -1.0766
    3TCq1    O414382   1.367   1.464  14.142 -0.0193 -0.0323  0.1035
    3TCq1    C914383   1.694   1.139  14.489  0.7179 -0.0210  0.2539
    3TCq1    O514384   1.817   1.100  14.512 -0.4051 -0.0422 -0.9066
    3TCq1    O614385   1.590   1.075  14.523 -0.6221 -0.1244 -0.5749
    3TCq1    H114386   1.749   1.595  14.176  0.2006  4.1700 -1.7693
    3TCq1    H214387   1.818   1.382  14.499 -1.7089 -0.3136  1.1014
    3TCq1    H314388   1.521   1.150  14.298 -2.0931  1.5814 -2.3798
    3TCq1    H414389   1.569   1.582  14.240 -2.1066  0.1607  2.1850
    1MPD2     C14390   0.806   1.948  14.799  0.8669 -0.5353  0.5110
    1MPD2    C114391   0.675   1.927  14.793  0.9315 -0.4673  0.6446
    1MPD2    C214392   0.626   1.811  14.853  0.0202 -0.5442  0.7445
    1MPD2    C314393   0.708   1.729  14.919  0.5154  0.0220  0.8227
    1MPD2    C414394   0.833   1.766  14.949 -0.1395  0.3912  0.0121
    1MPD2    C514395   0.885   1.879  14.888 -0.5951 -0.2830  0.7391
    1MPD2     H14396   0.518   1.800  14.846  0.2134 -1.0555 -1.3275
    1MPD2    H114397   0.899   1.705  15.009  2.7661  1.0434 -2.4862
    1MPD2    H214398   0.852   2.029  14.744 -0.7609 -0.3617 -0.6043
    1MPD2    H314399   0.989   1.910  14.893 -1.1586  1.8527 -0.5149
    1MPD2     N14400   0.661   1.602  14.956  0.6020  0.0283  0.5178
    1MPD2    H514401   0.718   1.550  15.023  0.4432 -0.6409  0.1199
    1MPD2    N114402   0.583   2.002  14.718  0.0152 -0.2503 -0.0432
    1MPD2    H714403   0.484   1.979  14.717  0.4762 -2.2579  0.4246
    2TMC3    C114404   0.503   2.148  14.554  0.3570 -0.6198 -0.5254
    2TMC3    C214405   0.403   2.060  14.526 -0.5252  0.6860  0.6242
    2TMC3    C314406   0.307   2.085  14.432 -0.3255  0.4175  0.3443
    2TMC3    C414407   0.509   2.264  14.490  0.2161 -0.0678  0.1756
    2TMC3    C514408   0.407   2.286  14.399 -0.1069 -0.1021  1.0489
    2TMC3    C614409   0.310   2.205  14.361 -0.1691 -0.9814 -0.5351
    2TMC3     C14410   0.614   2.106  14.638  0.4261  0.9260  0.0869
    2TMC3     O14411   0.717   2.172  14.624 -0.3615  0.0678 -0.1154
    2TMC3     H14412   0.401   1.966  14.580 -0.7883  1.2609  1.6265
    2TMC3    H114413   0.585   2.331  14.527  1.1413 -0.4539 -1.0367
    2TMC3    H214414   0.224   2.230  14.300 -0.3439  1.2795  0.6216
    2TMC3    C714415   0.398   2.422  14.344 -0.4025 -0.1973 -0.0589
    2TMC3    C814416   0.197   1.991  14.414 -0.7442  0.2230  0.3446
    2TMC3    O114417   0.306   2.430  14.265 -0.0944  0.1245 -0.1474
    2TMC3    O214418   0.086   2.037  14.403 -0.2664  0.1147 -0.2727
    3TCq1    O114419   1.135   3.261  14.069  0.1667 -0.5210  0.1041
    3TCq1    C114420   1.215   3.205  14.158  0.8094 -0.9878  0.4863
    3TCq1    O214421   1.332   3.182  14.135  0.1370 -0.4074  0.2741
    3TCq1    C214422   1.138   3.133  14.255 -0.6234  0.2491  0.2644
    3TCq1    C314423   1.217   3.063  14.342  0.4392 -0.0615 -0.3313
    3TCq1    C414424   1.152   2.970  14.419  0.5750 -0.0155 -0.0923
    3TCq1    C514425   1.016   2.949  14.414 -0.2583  0.2461  0.4787
    3TCq1    C614426   0.947   3.031  14.329 -0.3564 -1.1055 -0.2514
    3TCq1    C714427   1.004   3.130  14.252 -0.5400  0.5699  0.0685
    3TCq1    C814428   0.805   3.008  14.299 -0.1828  0.5159 -0.2679
    3TCq1    O414429   0.737   3.103  14.269  0.3489 -0.1171 -0.3362
    3TCq1    C914430   1.225   2.891  14.509  0.4117 -0.0619 -0.4659
    3TCq1    O514431   1.352   2.917  14.513  0.0886  0.3284 -0.5161
    3TCq1    O614432   1.162   2.805  14.580 -0.0405 -0.0929  0.1536
    3TCq1    H114433   1.051   3.290  14.109  0.3968 -1.1000  1.0005
    3TCq1    H214434   1.326   3.062  14.335  0.3528  0.3490 -1.7655
    3TCq1    H314435   0.967   2.873  14.474  0.7209 -0.5545  0.2600
    3TCq1    H414436   0.938   3.171  14.177 -1.7785  1.9604  1.9293
    4MPD2     C14437   0.523   2.895  14.276 -0.1011  0.3277  0.2382
    4MPD2    C114438   0.636   2.827  14.310  0.1229 -0.3283  0.1295
    4MPD2    C214439   0.630   2.693  14.334  0.1005  0.3473  0.2880
    4MPD2    C314440   0.510   2.630  14.325  0.3843 -0.3137  0.5499
    4MPD2    C414441   0.395   2.701  14.306 -0.1016 -0.3946  0.1711
    4MPD2    C514442   0.402   2.832  14.278 -0.1243  0.0090  0.1065
    4MPD2     H14443   0.725   2.647  14.361  0.1059  0.8235  1.0688
    4MPD2    H114444   0.295   2.658  14.307 -0.5020  0.5715  1.9739
    4MPD2    H214445   0.519   3.000  14.252  0.7223  0.2732 -0.1194
    4MPD2    H314446   0.319   2.898  14.255 -0.5338 -0.7394 -0.5982
    4MPD2     N14447   0.509   2.498  14.369  0.1949  0.5290  0.1012
    4MPD2    H514448   0.591   2.477  14.424  0.0067  0.0651  0.2020
    4MPD2    N114449   0.766   2.879  14.314  0.1275  0.4331  0.0562
    4MPD2    H714450   0.840   2.810  14.324 -1.9011 -1.8992 -0.8776
    5TMC2    C114451   0.278   1.361  14.961 -0.0627  0.2041 -0.4782
    5TMC2    C214452   0.269   1.392  15.096 -0.7739 -0.0311  0.3527
    5TMC2    C314453   0.381   1.433  15.162 -0.4879 -0.5321 -0.0996
    5TMC2    C414454   0.400   1.372  14.894  0.0300 -0.3349 -0.4808
    5TMC2    C514455   0.509   1.422  14.967  0.2247  0.2407 -0.1858
    5TMC2    C614456   0.499   1.445  15.104  0.0103 -0.8506  0.1923
    5TMC2     C14457   0.165   1.418  14.882 -0.5709 -0.6605  0.2824
    5TMC2     O14458   0.050   1.401  14.916  0.2426 -0.6608 -0.6119
    5TMC2     H14459   0.176   1.386  15.151 -1.1965 -1.3085 -0.4999
    5TMC2    H114460   0.415   1.345  14.790 -3.0419  0.9521 -1.2427
    5TMC2    H214461   0.583   1.477  15.166  0.3415 -0.0895 -0.6478
    5TMC2    C714462   0.558   1.533  14.893  0.4611 -0.3191 -0.3273
    5TMC2    C814463   0.375   1.419  15.306  0.7982 -0.0269 -0.2855
    5TMC2    O114464   0.490   1.563  14.795 -0.3560 -0.1856  0.8054
    5TMC2    O214465   0.340   1.508  15.384  0.0709  0.2024 -0.3344
    5TMC2    O514466   0.354   1.291  15.328 -0.4782  0.4135  0.4117
    5TMC2    H514467   0.367   1.233  15.250  1.5105 -1.9740  2.5230
    6MPD2     C14468   0.017   1.759  14.511  0.1037 -0.1216 -0.4770
    6MPD2    C114469   0.152   1.770  14.521 -0.3152  0.2309  0.1701
    6MPD2    C214470   0.219   1.677  14.607 -0.2047 -0.4399  0.0988
    6MPD2    C314471   0.148   1.590  14.693  0.8543 -0.3537 -0.2270
    6MPD2    C414472   0.007   1.585  14.681  0.4554 -0.1536  0.5289
    6MPD2    C514473   4.684   1.669  14.584 -0.1981  0.1030 -0.0768
    6MPD2     H14474   0.328   1.677  14.611 -0.1689  0.5608 -0.8033
    6MPD2    H114475   4.682   1.532  14.749  1.1232  0.4872  1.6591
    6MPD2    H214476   4.708   1.826  14.441  0.0268  1.3955  1.0173
    6MPD2    H314477   4.577   1.673  14.570 -0.4176 -2.4173  0.8941
    6MPD2     N14478   0.218   1.508  14.784 -0.0634  0.3475 -0.0386
    6MPD2    H514479   0.318   1.528  14.789 -0.0795 -0.0155  1.7369
    6MPD2    N114480   0.234   1.863  14.453  0.3530 -0.1339 -0.2253
    6MPD2    H714481   0.333   1.843  14.459  0.1224 -1.5234 -1.2000
  945NH4     N114482   2.136   2.057  15.010 -0.1802  0.2149 -0.4509
  945NH4     H214483   2.237   2.085  15.009  0.5237 -2.2859  0.6830
  945NH4     H314484   2.094   2.124  14.943 -1.4330 -0.1345 -0.0029
  945NH4     H414485   2.097   2.069  15.106  1.2981  1.3951  0.0084
  945NH4     H514486   2.124   1.960  14.976  1.2343  0.3094 -1.2203
  946SOD     NA14487   1.135   4.053  14.917  0.3004 -0.3151  0.5519
  947SOD     NA14488   0.834   2.564  14.700  0.1028 -0.0056  0.3559
  948SOD     NA14489   4.245   3.506  12.762 -0.4560  0.1140  0.4200
  949SOD     NA14490   1.468   1.969  17.567 -0.4636  0.0600  0.5275
  950SOD     NA14491   4.444   1.874   3.478  0.2932 -0.5236  0.4900
  951SOD     NA14492   0.256   0.229  11.880 -0.2977  0.2305 -0.4170
  952SOD     NA14493   0.213   2.851  12.595 -0.2709 -0.0004 -0.2241
  953SOL     OW14494   4.693   4.082   4.100  0.0536  0.3501  0.3554
  953SOL    HW114495   4.651   4.080   4.186 -1.7137 -1.8450 -0.5808
  953SOL    HW214496   4.672   3.994   4.070 -1.3882  0.8865 -0.1825
  954SOL     OW14497   0.518   4.251   4.182 -0.1334 -0.1716  0.0845
  954SOL    HW114498   0.474   4.312   4.241  1.1867 -0.7376  1.6920
  954SOL    HW214499   0.443   4.192   4.172 -1.5233  0.9512  3.6646
  955SOL     OW14500   3.483   4.130   7.716 -0.2578  0.0284 -0.0675
  955SOL    HW114501   3.463   4.037   7.707  3.2999 -0.4202 -3.1520
  955SOL    HW214502   3.541   4.135   7.792  0.5603  0.1964 -0.7054
  956SOL     OW14503   0.747   0.064   6.225  0.0292 -0.1341 -0.2325
  956SOL    HW114504   0.827   0.114   6.243 -0.1054 -0.1295  0.3494
  956SOL    HW214505   0.711   0.106   6.148  2.8131  0.0402 -1.4483
  957SOL     OW14506   1.471   1.958   5.380  0.2213  0.7936 -0.3133
  957SOL    HW114507   1.555   1.977   5.422  0.0010  1.8019 -0.3246
  957SOL    HW214508   1.497   1.965   5.288  0.8976 -0.0640 -0.1944
  958SOL     OW14509   1.179   0.936  11.657 -0.0078  0.2099  0.1558
  958SOL    HW114510   1.270   0.938  11.627 -0.3355  2.2184 -0.6586
  958SOL    HW214511   1.177   0.858  11.713  1.0193  0.1013  0.0330
  959SOL     OW14512   0.409   0.206   8.521 -0.3252  0.1560 -0.2458
  959SOL    HW114513   0.403   0.274   8.589 -1.9327 -0.8190  0.5970
  959SOL    HW214514   0.462   0.136   8.559  0.7063  0.9935 -0.1480
  960SOL     OW14515   3.858   3.716  12.889 -0.7124  0.1286  0.0930
  960SOL    HW114516   3.889   3.776  12.821 -0.4347  1.8989  1.7996
  960SOL    HW214517   3.765   3.735  12.886 -1.4962 -3.5470  1.2582
  961SOL     OW14518   2.594   3.813   8.520 -0.1689 -0.4853 -0.0448
  961SOL    HW114519   2.538   3.736   8.509 -1.2324  0.0946  1.3542
  961SOL    HW214520   2.592   3.856   8.434 -0.6815  0.0859  0.2568
  962SOL     OW14521   4.404   0.369  14.816  0.3333  0.0246 -0.9974
  962SOL    HW114522   4.459   0.366  14.738 -0.0519  0.4007 -1.2843
  962SOL    HW214523   4.337   0.309  14.785 -1.3644  1.2953  0.2371
  963SOL     OW14524   0.054   2.938   6.405 -0.2457  0.5957  0.1361
  963SOL    HW114525   0.064   3.009   6.467  0.1308  0.7643 -0.1215
  963SOL    HW214526   4.715   2.898   6.442 -0.1910  0.9589  0.6437
  964SOL     OW14527   4.235   4.621   5.019 -0.1327  0.4711 -0.5016
  964SOL    HW114528   4.293   4.660   5.084 -1.9160 -0.0114  1.3842
  964SOL    HW214529   4.296   4.614   4.945 -1.7033  0.6956 -1.8205
  965SOL     OW14530   2.826   4.493  14.636 -0.4131 -0.0964 -0.1883
  965SOL    HW114531   2.826   4.517  14.543  0.5577 -0.1653 -0.2005
  965SOL    HW214532   2.856   4.569  14.685  0.0424  0.1123 -0.7924
  966SOL     OW14533   3.999   2.685   3.201  0.2503 -0.2801  0.0082
  966SOL    HW114534   3.943   2.611   3.221  1.3502 -0.7342  1.4144
  966SOL    HW214535   4.025   2.675   3.109  1.3924 -0.4150  0.3459
  967SOL     OW14536   1.991   1.822   6.699  0.0034  0.5181 -0.0950
  967SOL    HW114537   2.032   1.898   6.657  0.7216 -0.3109 -0.8998
  967SOL    HW214538   2.029   1.822   6.787  0.7125 -1.4150 -0.3984
  968SOL     OW14539   3.460   2.619  17.463 -0.6664 -0.2171 -0.1563
  968SOL    HW114540   3.445   2.627  17.557 -1.4590  0.6890 -0.3631
  968SOL    HW214541   3.434   2.528  17.457  0.8836 -0.6246 -0.6868
  969SOL     OW14542   0.056   3.505   8.712 -0.0482 -0.3750  0.0621
  969SOL    HW114543   0.053   3.587   8.662  1.2271 -0.4929 -0.1876
  969SOL    HW214544   4.701   3.491   8.708 -0.1739 -0.1136  2.1586
  970SOL     OW14545   2.920   2.386  13.504  0.8362 -0.3558  0.4840
  970SOL    HW114546   2.999   2.332  13.496  1.9053  1.1878  0.6068
  970SOL    HW214547   2.889   2.348  13.586  0.8504 -0.5379  0.4059
  971SOL     OW14548   0.977   3.413   2.739 -0.5627  0.2454 -0.2977
  971SOL    HW114549   0.955   3.438   2.829 -4.1461  1.1635 -1.4165
  971SOL    HW214550   0.887   3.401   2.710 -0.9876  0.5688  0.8937
  972SOL     OW14551   2.633   3.603  10.445 -0.1098 -0.1757 -0.4475
  972SOL    HW114552   2.727   3.589  10.454 -0.2407 -0.7261  0.0484
  972SOL    HW214553   2.601   3.523  10.486 -2.3238  1.6474  1.4056
  973SOL     OW14554   0.596   2.933  13.107  0.7775  0.4410 -0.3868
  973SOL    HW114555   0.617   2.885  13.027 -0.9031 -0.5485 -0.2289
  973SOL    HW214556   0.666   2.916  13.169  0.5296  5.1960  1.1752
  974SOL     OW14557   3.821   0.191   7.605 -0.1675  0.5125 -0.1996
  974SOL    HW114558   3.849   0.271   7.561 -0.6453  0.0545 -1.3405
  974SOL    HW214559   3.888   0.193   7.673 -0.4697  1.0764  0.0775
  975SOL     OW14560   4.738   2.473   5.066  0.1169 -0.2021  0.3903
  975SOL    HW114561   4.725   2.455   5.159 -1.6405  1.6160  0.4979
  975SOL    HW214562   4.721   2.389   5.024 -0.7438  0.1499  0.0299
  976SOL     OW14563   2.857   4.432   7.956  0.4459  0.1781 -0.1692
  976SOL    HW114564   2.778   4.483   7.935  0.2312  0.2990  0.9519
  976SOL    HW214565   2.815   4.372   8.018  0.3730 -1.8716 -2.1924
  977SOL     OW14566   0.968   4.623   1.754 -0.0407  0.0536 -0.2540
  977SOL    HW114567   0.960   4.698   1.813  0.6193  0.0053 -0.1080
  977SOL    HW214568   0.976   4.554   1.820  1.6705  0.3133 -0.1833
  978SOL     OW14569   2.040   3.296   1.857 -0.2871  0.0554  0.3419
  978SOL    HW114570   2.121   3.334   1.825 -0.3390 -0.1637 -0.0593
  978SOL    HW214571   2.004   3.258   1.776  0.6923 -0.2196  0.0311
  979SOL     OW14572   1.583   1.210   0.922  0.2399  0.3509 -0.1814
  979SOL    HW114573   1.596   1.146   0.852  0.3834 -1.6721  1.6953
  979SOL    HW214574   1.494   1.182   0.942  0.3358 -0.9592 -1.6161
  980SOL     OW14575   4.514   1.253   7.076 -0.5235 -0.3134 -0.0048
  980SOL    HW114576   4.582   1.301   7.029 -0.3952 -1.2761 -0.7783
  980SOL    HW214577   4.521   1.302   7.158 -0.7824  1.4347 -1.0280
  981SOL     OW14578   4.371   2.388   1.442  0.8150  0.0750  0.0126
  981SOL    HW114579   4.359   2.348   1.356  1.0595  1.4282 -0.6603
  981SOL    HW214580   4.286   2.369   1.480  0.4115 -0.8768 -1.3819
  982SOL     OW14581   4.045   2.185  13.845  0.0997  0.4771  0.3106
  982SOL    HW114582   4.139   2.185  13.831 -0.2655  1.7709 -2.0876
  982SOL    HW214583   4.030   2.264  13.897 -2.0215  1.0165 -1.1199
  983SOL     OW14584   1.365   3.146  17.657 -0.7615  0.3075  0.1413
  983SOL    HW114585   1.408   3.202  17.592 -2.0027 -1.0521 -1.8228
  983SOL    HW214586   1.304   3.098  17.601 -0.8281 -2.8520  2.9273
  984SOL     OW14587   0.034   2.573   6.480 -0.6473 -0.9501 -0.4173
  984SOL    HW114588   0.017   2.481   6.500  0.5398 -0.7988  1.2690
  984SOL    HW214589   0.039   2.611   6.568  0.4397 -0.4887 -0.6762
  985SOL     OW14590   1.600   2.614   2.166  0.6565 -0.0694  0.4483
  985SOL    HW114591   1.665   2.577   2.225 -0.5174  0.0194  1.8102
  985SOL    HW214592   1.525   2.561   2.193  0.9235 -0.0420  1.2428
  986SOL     OW14593   1.734   4.108   9.076 -0.4681 -0.1893  0.3841
  986SOL    HW114594   1.785   4.140   9.002  0.3033 -0.1643  0.9260
  986SOL    HW214595   1.796   4.100   9.149  1.2515  0.4947 -1.0120
  987SOL     OW14596   0.971   0.873  12.125 -0.0830  0.2174  0.8616
  987SOL    HW114597   1.031   0.821  12.178  1.0672  1.3162  0.6524
  987SOL    HW214598   1.024   0.925  12.065 -1.6623  0.2285 -0.5357
  988SOL     OW14599   4.095   3.919   8.304  0.0598 -0.3825 -0.3390
  988SOL    HW114600   4.144   3.960   8.233  0.3728  3.2592  1.9348
  988SOL    HW214601   4.160   3.866   8.351 -0.0540 -0.9236 -0.7956
  989SOL     OW14602   0.540   3.322   6.194  0.1646  0.5448 -0.4391
  989SOL    HW114603   0.538   3.251   6.129  2.6943  0.0251  0.0455
  989SOL    HW214604   0.553   3.399   6.138 -2.1331  1.2349 -0.0334
  990SOL     OW14605   3.952   1.719   8.948 -0.0137 -0.2324  0.5180
  990SOL    HW114606   4.038   1.684   8.970 -0.4830 -1.1761  0.8580
  990SOL    HW214607   3.965   1.798   8.896 -1.8997 -1.0882 -1.2326
  991SOL     OW14608   4.726   1.092   6.383 -0.3353 -0.5635 -0.5547
  991SOL    HW114609   0.077   1.063   6.370  0.1563  0.0157  1.6618
  991SOL    HW214610   4.719   1.083   6.478  2.7391  0.2211 -0.2466
  992SOL     OW14611   1.643   0.571   8.632  0.3826 -0.3451  0.1828
  992SOL    HW114612   1.563   0.615   8.660  0.2424  1.0947 -2.5497
  992SOL    HW214613   1.623   0.485   8.669 -0.1493  0.3064  1.4153
  993SOL     OW14614   4.280   2.610  15.018  0.4624 -0.5057  0.5759
  993SOL    HW114615   4.218   2.600  15.090 -0.9927  0.4487 -0.5483
  993SOL    HW214616   4.363   2.613  15.065  0.8186  1.6396 -0.2043
  994SOL     OW14617   2.213   0.997   5.654 -0.0491 -0.4540  0.1915
  994SOL    HW114618   2.134   1.051   5.658 -0.8197 -1.5503 -0.2937
  994SOL    HW214619   2.272   1.072   5.653 -0.3403 -0.2743 -1.7227
  995SOL     OW14620   0.514   0.630  10.732  0.8033 -0.4125 -0.1175
  995SOL    HW114621   0.444   0.662  10.789  0.9480 -1.5034  0.6714
  995SOL    HW214622   0.598   0.658  10.770  0.0928  1.2340  0.2353
  996SOL     OW14623   3.496   4.134  11.830 -0.0769  0.5266 -0.3481
  996SOL    HW114624   3.588   4.159  11.818 -0.3843  1.3331 -0.9996
  996SOL    HW214625   3.501   4.095  11.917 -0.2714 -1.6115 -1.3105
  997SOL     OW14626   2.096   3.748   6.901 -0.0710 -0.4206  0.9034
  997SOL    HW114627   2.027   3.739   6.967  0.0981  0.2878  1.1772
  997SOL    HW214628   2.049   3.788   6.827 -3.0071 -0.1445  2.9008
  998SOL     OW14629   3.478   1.641   9.109  0.3926  0.8532 -0.1415
  998SOL    HW114630   3.562   1.679   9.087  0.1329  0.6913 -1.4077
  998SOL    HW214631   3.420   1.699   9.060  0.6393  0.6948 -0.6287
  999SOL     OW14632   1.804   2.346  11.019  0.2511  0.4792 -0.0033
  999SOL    HW114633   1.858   2.425  11.026 -0.3370  0.6102  2.8563
  999SOL    HW214634   1.872   2.279  11.027 -1.3101 -1.2817 -1.7001
 1000SOL     OW14635   0.751   2.053  14.339  0.0242  0.2125  0.3647
 1000SOL    HW114636   0.731   1.979  14.397 -2.8178  0.7454  0.0853
 1000SOL    HW214637   0.788   2.012  14.262  1.0830 -1.7121  1.9034
 1001SOL     OW14638   3.052   1.587   5.510 -0.8270 -0.1899  0.1853
 1001SOL    HW114639   3.139   1.559   5.483 -0.4782  1.3227 -0.2619
 1001SOL    HW214640   3.017   1.502   5.537 -2.6895  0.4375 -0.2312
 1002SOL     OW14641   0.441   3.424   7.662  0.3626  0.1546  0.0223
 1002SOL    HW114642   0.360   3.374   7.666 -0.0835  1.0639  2.1655
 1002SOL    HW214643   0.480   3.375   7.589 -0.2614 -0.6980  0.2603
 1003SOL     OW14644   4.099   2.712   7.438  0.1940 -0.2961  0.3110
 1003SOL    HW114645   4.156   2.692   7.512  1.7777 -0.0276 -0.8462
 1003SOL    HW214646   4.096   2.633   7.384  0.8660 -0.7258  0.9108
 1004SOL     OW14647   0.217   1.647   2.873 -0.2473 -0.2430  0.1347
 1004SOL    HW114648   0.257   1.731   2.850 -0.0702 -0.0764  1.0809
 1004SOL    HW214649   0.259   1.645   2.958 -0.6642 -1.0099  0.3176
 1005SOL     OW14650   1.086   0.419   7.786  0.2426 -0.5959  0.1265
 1005SOL    HW114651   1.086   0.476   7.709  0.2443 -0.2319  0.3962
 1005SOL    HW214652   1.004   0.443   7.829 -1.1400 -2.4231 -1.5547
 1006SOL     OW14653   0.506   0.340   6.876  0.4220  0.1833  0.5474
 1006SOL    HW114654   0.506   0.414   6.814  0.0037 -0.2093  0.0819
 1006SOL    HW214655   0.439   0.283   6.840  0.3440  1.8109 -1.9160
 1007SOL     OW14656   1.954   0.982  17.092  0.5856 -0.2535  0.0173
 1007SOL    HW114657   2.027   1.026  17.049  0.8650  0.4102  1.1749
 1007SOL    HW214658   1.999   0.972  17.176 -1.0642 -1.5875  0.7282
 1008SOL     OW14659   4.453   2.482   5.752  0.7117 -0.1264 -0.4843
 1008SOL    HW114660   4.401   2.561   5.742  1.3129  0.5805  2.1047
 1008SOL    HW214661   4.535   2.528   5.772  0.1696  0.2270  0.9061
 1009SOL     OW14662   2.803   0.887   2.909 -0.2292  0.0988  0.0546
 1009SOL    HW114663   2.838   0.843   2.986  0.3812  0.6560  0.1007
 1009SOL    HW214664   2.752   0.815   2.871 -1.3480  0.3674  1.0453
 1010SOL     OW14665   3.812   1.766   8.294 -1.1758 -0.1527  0.2031
 1010SOL    HW114666   3.895   1.765   8.246 -1.5436 -0.2697 -0.4265
 1010SOL    HW214667   3.768   1.849   8.277  0.3001  0.5470 -0.1872
 1011SOL     OW14668   1.096   3.541   8.093  0.1083 -0.3809 -0.0692
 1011SOL    HW114669   1.019   3.558   8.147 -0.3823 -1.3902 -0.4640
 1011SOL    HW214670   1.137   3.628   8.101  2.7154 -1.4231 -2.4009
 1012SOL     OW14671   3.793   3.463   7.755  0.0069 -0.1029 -0.3888
 1012SOL    HW114672   3.699   3.482   7.756  0.2785  0.9544  2.8721
 1012SOL    HW214673   3.799   3.380   7.801 -0.5366  1.1679  1.9530
 1013SOL     OW14674   3.645   2.151   4.123 -0.8040 -0.1338  0.0002
 1013SOL    HW114675   3.612   2.208   4.192 -0.8271  0.6939 -0.6946
 1013SOL    HW214676   3.711   2.209   4.085  1.2465 -2.0754  0.6044
 1014SOL     OW14677   1.225   2.361   6.115  0.4229  0.5254  0.3467
 1014SOL    HW114678   1.133   2.354   6.089  0.3172  1.1106  0.5704
 1014SOL    HW214679   1.216   2.418   6.192  1.2307  2.9829 -1.3720
 1015SOL     OW14680   2.710   4.545   5.026 -0.6144  0.2896  0.3830
 1015SOL    HW114681   2.736   4.551   4.935 -0.7080  0.7161  0.3878
 1015SOL    HW214682   2.764   4.467   5.039 -0.8476  0.0658 -0.0019
 1016SOL     OW14683   0.257   0.528   4.257 -0.2733  0.1201  0.3775
 1016SOL    HW114684   0.270   0.622   4.255  0.8398 -0.0938 -2.1310
 1016SOL    HW214685   0.321   0.506   4.189 -0.4531 -0.6380  0.4467
 1017SOL     OW14686   1.278   2.246   4.621  0.7604 -0.1106  0.4805
 1017SOL    HW114687   1.246   2.275   4.706  0.2849 -2.6406  1.1506
 1017SOL    HW214688   1.262   2.152   4.616 -0.0347  0.1233 -1.4256
 1018SOL     OW14689   0.109   3.441   7.141  0.6682  0.4983  0.4127
 1018SOL    HW114690   0.170   3.466   7.071  0.7434 -0.4824  0.1255
 1018SOL    HW214691   0.147   3.358   7.168  1.1105  1.1517  1.8154
 1019SOL     OW14692   0.062   2.026   5.081 -0.1207  0.3501  0.4344
 1019SOL    HW114693   0.083   1.935   5.099 -0.1114 -0.1155 -1.9472
 1019SOL    HW214694   0.022   2.053   5.163 -2.1513 -0.8061 -0.1723
 1020SOL     OW14695   4.138   2.130   2.768 -0.2457 -0.2928  0.3049
 1020SOL    HW114696   4.208   2.191   2.746 -0.4712 -0.3887 -0.6547
 1020SOL    HW214697   4.057   2.178   2.754 -1.1162 -0.8898  3.1471
 1021SOL     OW14698   0.116   4.438  10.701  0.1763  0.2867  0.0113
 1021SOL    HW114699   0.071   4.381  10.762 -0.7755  0.7669 -0.2424
 1021SOL    HW214700   0.207   4.414  10.721 -0.1681  0.6252  1.9147
 1022SOL     OW14701   2.549   1.793   6.559 -0.3341 -0.0166 -0.1155
 1022SOL    HW114702   2.503   1.790   6.475  0.7554 -1.1807 -0.6722
 1022SOL    HW214703   2.476   1.803   6.619 -0.0080  0.9002  0.1240
 1023SOL     OW14704   1.463   2.244   4.444 -0.5828 -0.0107 -0.1755
 1023SOL    HW114705   1.405   2.247   4.520 -0.5788  0.8390 -0.2088
 1023SOL    HW214706   1.463   2.331   4.406 -2.3659 -0.0553 -0.2800
 1024SOL     OW14707   1.213   3.284   6.927 -0.2641 -0.7383  0.0649
 1024SOL    HW114708   1.242   3.332   7.005 -0.0278  0.8656 -1.0105
 1024SOL    HW214709   1.126   3.245   6.940  0.1824 -1.6354  0.3604
 1025SOL     OW14710   3.759   1.247   3.750 -0.2126 -0.8854  0.1382
 1025SOL    HW114711   3.704   1.221   3.823 -1.6602  1.9629  0.0609
 1025SOL    HW214712   3.704   1.234   3.672  1.8563 -0.9111 -1.3291
 1026SOL     OW14713   2.097   0.274   2.172  0.6593  0.5596 -0.4314
 1026SOL    HW114714   2.103   0.210   2.101  0.0979  1.3908 -1.2273
 1026SOL    HW214715   2.019   0.329   2.170  0.0487 -0.2493  1.7579
 1027SOL     OW14716   2.964   4.488   1.454  0.3711 -0.1237  0.3681
 1027SOL    HW114717   2.890   4.517   1.508 -0.3376 -0.4887 -0.4208
 1027SOL    HW214718   3.031   4.464   1.519 -0.6015 -2.3479  0.5165
 1028SOL     OW14719   0.853   1.323   5.544  0.3611 -0.2113  0.0812
 1028SOL    HW114720   0.800   1.299   5.468  0.9029 -3.0613  0.6076
 1028SOL    HW214721   0.942   1.291   5.529  0.9373  2.1202 -1.5563
 1029SOL     OW14722   1.761   0.530   5.522  0.6038  0.4395  0.1725
 1029SOL    HW114723   1.676   0.562   5.551  0.8449  0.2236  1.1380
 1029SOL    HW214724   1.802   0.537   5.609 -2.0274 -2.0410  1.5818
 1030SOL     OW14725   1.882   0.145   5.649 -0.1077  0.4090 -0.4103
 1030SOL    HW114726   1.873   0.089   5.727 -2.7716 -0.9029 -1.6485
 1030SOL    HW214727   1.945   0.199   5.696  0.3334 -1.7377  1.5034
 1031SOL     OW14728   4.520   3.959   6.066 -0.6494 -0.2193  0.2325
 1031SOL    HW114729   4.614   3.961   6.046 -0.7500 -0.6209 -0.2974
 1031SOL    HW214730   4.509   4.045   6.105  0.2078 -0.3977  0.8738
 1032SOL     OW14731   4.112   3.681   6.392 -0.9710  0.1195  0.3908
 1032SOL    HW114732   4.141   3.671   6.482 -0.3179  0.1999  0.1895
 1032SOL    HW214733   4.090   3.774   6.393 -1.2718  0.0373  1.0216
 1033SOL     OW14734   2.442   4.587   9.165 -0.0892 -0.6617 -0.6956
 1033SOL    HW114735   2.400   4.531   9.230 -2.1950  1.3974 -0.2954
 1033SOL    HW214736   2.493   4.518   9.123 -0.1098 -0.1748 -1.5128
 1034SOL     OW14737   0.106   0.336  16.628  0.2565 -0.5622 -0.1267
 1034SOL    HW114738   0.085   0.352  16.720 -0.9298 -1.4225 -0.2424
 1034SOL    HW214739   0.033   0.384  16.589 -1.4497 -0.4627  3.1575
 1035SOL     OW14740   2.940   2.208   6.614  0.2212  0.2534  0.2858
 1035SOL    HW114741   2.940   2.142   6.544 -0.3392 -1.1684  1.6198
 1035SOL    HW214742   3.026   2.249   6.610 -0.1075  0.9363  0.3668
 1036SOL     OW14743   2.766   2.961  13.615 -0.1429  0.0691 -0.3961
 1036SOL    HW114744   2.780   3.055  13.629  0.0758  0.1827 -1.3592
 1036SOL    HW214745   2.835   2.942  13.551  0.2164 -1.2754  0.4007
 1037SOL     OW14746   4.634   0.004  15.334 -0.4057 -0.2894  0.1223
 1037SOL    HW114747   4.560   4.726  15.392 -1.7681  1.8282 -0.9379
 1037SOL    HW214748   4.701   0.022  15.399 -3.0123  1.2943  2.3699
 1038SOL     OW14749   4.478   0.884  16.088 -0.5824  0.1538  0.1625
 1038SOL    HW114750   4.424   0.805  16.091 -0.6814  0.2283  0.3582
 1038SOL    HW214751   4.457   0.937  16.165  2.2597 -1.2939  1.9464
 1039SOL     OW14752   0.839   4.685   9.181  0.2328  0.4592  0.9644
 1039SOL    HW114753   0.824   0.020   9.238 -1.5120  1.7710 -1.2214
 1039SOL    HW214754   0.803   4.619   9.240 -0.2784 -0.4902 -0.4218
 1040SOL     OW14755   4.539   2.608  15.155  0.0801 -0.0937  0.3130
 1040SOL    HW114756   4.536   2.599  15.251 -0.6405 -3.7466 -0.0514
 1040SOL    HW214757   4.584   2.691  15.141 -1.2480  0.5913  0.1202
 1041SOL     OW14758   2.638   3.507   5.564  0.0698  0.1076  0.1563
 1041SOL    HW114759   2.575   3.577   5.580 -0.1412 -0.2220  0.7940
 1041SOL    HW214760   2.723   3.550   5.569  0.0212  0.1898  0.2750
 1042SOL     OW14761   2.081   0.633  12.549  0.3167 -0.0220  0.0520
 1042SOL    HW114762   2.027   0.713  12.545  0.5612  0.0788 -1.1697
 1042SOL    HW214763   2.099   0.613  12.457  0.6346  0.6969 -0.0439
 1043SOL     OW14764   3.669   1.962   4.678  0.1665 -0.1263  0.0782
 1043SOL    HW114765   3.759   1.966   4.646 -0.5822  0.2166 -2.0357
 1043SOL    HW214766   3.618   1.970   4.597 -0.9416  1.7956  0.9717
 1044SOL     OW14767   2.020   1.351   2.801 -0.0459 -0.0790 -0.1775
 1044SOL    HW114768   2.054   1.274   2.845 -1.7848 -0.7038  0.0741
 1044SOL    HW214769   1.972   1.392   2.873  1.4320  0.9417  0.2167
 1045SOL     OW14770   3.149   2.183   3.019  0.3645  0.3197  0.2954
 1045SOL    HW114771   3.187   2.214   2.936 -0.7988 -0.6369 -0.5870
 1045SOL    HW214772   3.059   2.213   3.014 -0.6867 -3.0744 -1.3368
 1046SOL     OW14773   2.472   0.829   3.042  0.2235  0.0625  0.0658
 1046SOL    HW114774   2.536   0.795   3.105  1.2136  1.5729 -0.1113
 1046SOL    HW214775   2.473   0.769   2.968  0.6682 -1.4016  1.2630
 1047SOL     OW14776   2.151   4.385  16.971 -0.2686 -0.1901  0.7529
 1047SOL    HW114777   2.188   4.471  16.991  0.2705 -0.0122 -1.0003
 1047SOL    HW214778   2.062   4.395  17.005 -0.7383 -1.6828 -0.0376
 1048SOL     OW14779   1.420   3.623   1.622 -0.3858 -0.0785 -0.1998
 1048SOL    HW114780   1.424   3.537   1.580 -4.3465  0.0362 -0.8663
 1048SOL    HW214781   1.492   3.676   1.589  1.4187 -3.5107 -1.7632
 1049SOL     OW14782   0.363   1.955   7.681  0.1401  0.4157 -0.3199
 1049SOL    HW114783   0.393   1.963   7.772 -0.2716  1.4402 -0.2738
 1049SOL    HW214784   0.300   2.026   7.673  1.1983  1.8575  4.1574
 1050SOL     OW14785   3.384   4.404  11.732  0.1221  0.4207 -0.1098
 1050SOL    HW114786   3.323   4.408  11.806 -1.2458 -0.5370 -1.1907
 1050SOL    HW214787   3.444   4.334  11.756 -0.2059 -0.1613 -1.0012
 1051SOL     OW14788   1.605   0.846  14.392 -0.9206 -0.2015  0.4772
 1051SOL    HW114789   1.549   0.882  14.324  0.4396 -0.6753 -0.8975
 1051SOL    HW214790   1.620   0.926  14.442  1.0627  1.8497 -3.4959
 1052SOL     OW14791   3.038   3.607  14.261 -0.8735  0.2297 -0.1023
 1052SOL    HW114792   3.006   3.634  14.347  0.4197  0.5447  0.2778
 1052SOL    HW214793   2.959   3.622  14.208 -0.5695 -0.8936 -0.8641
 1053SOL     OW14794   2.812   2.406  17.171  0.0552  0.3564 -0.0515
 1053SOL    HW114795   2.894   2.364  17.146 -1.2387 -2.3716  0.3008
 1053SOL    HW214796   2.805   2.393  17.265  1.0827  2.5279  0.3365
 1054SOL     OW14797   2.092   0.905   2.943 -0.6601  0.0241 -0.2363
 1054SOL    HW114798   2.005   0.867   2.939 -0.5068 -0.3191 -0.3482
 1054SOL    HW214799   2.122   0.865   3.025 -0.2201 -0.4831 -0.6402
 1055SOL     OW14800   1.637   0.927   5.515  0.5159 -0.3070  0.0934
 1055SOL    HW114801   1.599   0.984   5.448  1.5197  0.6406  0.3310
 1055SOL    HW214802   1.613   0.842   5.478 -1.9769  0.1547  0.6195
 1056SOL     OW14803   2.095   1.220   6.479  0.2283 -0.2813  0.0114
 1056SOL    HW114804   2.100   1.301   6.529  1.5056 -1.3792  1.6735
 1056SOL    HW214805   2.160   1.166   6.525 -1.2445 -2.8584 -0.9411
 1057SOL     OW14806   4.594   4.381   4.670 -0.7931 -0.1884  0.1348
 1057SOL    HW114807   4.575   4.352   4.581  0.1389  2.9500 -1.0801
 1057SOL    HW214808   4.680   4.340   4.682 -0.8560 -0.1752  0.6311
 1058SOL     OW14809   2.562   0.338   3.299 -0.1935  0.3778  0.2948
 1058SOL    HW114810   2.594   0.420   3.335 -0.9424  0.0191  1.8041
 1058SOL    HW214811   2.638   0.283   3.315  1.3217  1.6730 -2.6475
 1059SOL     OW14812   0.567   0.477   8.358  0.0621  0.4484  0.0611
 1059SOL    HW114813   0.636   0.414   8.376 -0.0595  0.0169 -1.0264
 1059SOL    HW214814   0.596   0.546   8.418  1.4922  0.6525 -0.8779
 1060SOL     OW14815   1.781   3.767   8.386  0.1614 -0.3940  0.4231
 1060SOL    HW114816   1.811   3.730   8.303 -2.0245 -0.2577 -0.4312
 1060SOL    HW214817   1.843   3.729   8.449 -2.1055 -2.9459  1.1079
 1061SOL     OW14818   2.740   2.264   7.043  0.2713  0.3270 -0.5413
 1061SOL    HW114819   2.665   2.208   7.065  0.9110 -0.9748 -1.6515
 1061SOL    HW214820   2.712   2.346   7.083 -1.8240 -0.0300 -1.2224
 1062SOL     OW14821   3.472   0.943   3.329 -0.3074 -0.2965 -1.2377
 1062SOL    HW114822   3.563   0.935   3.358 -0.1228  0.7633 -1.5001
 1062SOL    HW214823   3.428   0.947   3.414 -0.1317  0.1327 -1.1630
 1063SOL     OW14824   0.349   1.504   0.836  0.3703 -0.2956  0.2164
 1063SOL    HW114825   0.397   1.421   0.831 -1.7651 -1.3907 -1.6417
 1063SOL    HW214826   0.315   1.509   0.747 -0.2666  0.4893  0.5096
 1064SOL     OW14827   4.683   3.896   7.387  0.0353 -0.1616 -0.3433
 1064SOL    HW114828   4.699   3.806   7.359 -0.8619 -0.9319  1.6011
 1064SOL    HW214829   4.592   3.877   7.411  0.2511 -0.8614 -0.0824
 1065SOL     OW14830   4.342   4.634   3.948 -0.1033 -0.9300 -0.1662
 1065SOL    HW114831   4.328   4.712   4.001 -0.1556 -0.5326 -0.7767
 1065SOL    HW214832   4.379   4.569   4.009  1.6218 -0.5983 -0.8612
 1066SOL     OW14833   0.102   2.943   7.105 -0.3469 -0.3210  0.3040
 1066SOL    HW114834   0.018   2.982   7.083  1.4459  1.8474 -2.6894
 1066SOL    HW214835   0.164   2.972   7.038 -0.2278 -1.1022  0.0791
 1067SOL     OW14836   4.667   2.932  15.093 -0.3969  0.9365 -0.3600
 1067SOL    HW114837   4.709   2.905  15.011 -0.4136  0.5564 -0.2420
 1067SOL    HW214838   4.580   2.963  15.070 -1.3961 -2.8179 -1.7316
 1068SOL     OW14839   2.871   3.499   1.480  0.1084  0.1825 -0.8168
 1068SOL    HW114840   2.870   3.478   1.573 -1.3743 -0.1449 -0.9082
 1068SOL    HW214841   2.964   3.516   1.462  0.4230 -0.7791 -0.0801
 1069SOL     OW14842   2.322   4.260   6.653 -0.3288  0.0763 -0.2760
 1069SOL    HW114843   2.383   4.212   6.596  1.4222  1.2451  0.6111
 1069SOL    HW214844   2.269   4.204   6.710  1.1579 -0.0526  0.9771
 1070SOL     OW14845   1.013   1.138  13.349 -0.3881  0.0688 -0.0940
 1070SOL    HW114846   0.967   1.195  13.411  1.2148  2.0003 -0.6780
 1070SOL    HW214847   1.098   1.174  13.374 -0.5540  0.0806  0.4491
 1071SOL     OW14848   4.720   1.592   4.902  0.0704  0.8527 -0.0470
 1071SOL    HW114849   4.655   1.612   4.970  1.9051  2.6755  1.1586
 1071SOL    HW214850   4.697   1.500   4.888 -3.4936  1.8264 -0.6878
 1072SOL     OW14851   4.051   2.234   8.347 -0.3874  0.0404  0.0646
 1072SOL    HW114852   4.099   2.304   8.391 -0.7653  0.7327 -0.6290
 1072SOL    HW214853   3.965   2.234   8.389  1.0280  1.6626  2.9772
 1073SOL     OW14854   0.647   0.307   2.353 -0.4203 -0.5279  0.1178
 1073SOL    HW114855   0.675   0.376   2.293 -1.2676 -1.2942 -1.1663
 1073SOL    HW214856   0.597   0.361   2.414 -0.1026 -1.5429  1.2944
 1074SOL     OW14857   2.370   1.479   7.105 -0.2935  0.0299  0.4377
 1074SOL    HW114858   2.361   1.414   7.176  0.5617  0.5593  1.0315
 1074SOL    HW214859   2.370   1.564   7.149 -0.7164  0.7691 -1.0202
 1075SOL     OW14860   3.861   2.693   8.097  0.4288 -0.1056 -0.4419
 1075SOL    HW114861   3.834   2.757   8.163  1.2189  0.7073 -0.8942
 1075SOL    HW214862   3.838   2.612   8.142 -0.0751  0.1918 -0.1618
 1076SOL     OW14863   1.665   0.575   4.168  0.5123  0.0780  0.0156
 1076SOL    HW114864   1.755   0.597   4.193 -0.3584  0.8710  2.5072
 1076SOL    HW214865   1.645   0.643   4.103  0.4381 -0.3634 -0.4186
 1077SOL     OW14866   4.183   3.735   9.250  0.4854  0.0745 -0.0106
 1077SOL    HW114867   4.152   3.784   9.327 -0.1548 -1.3540  0.6422
 1077SOL    HW214868   4.141   3.651   9.269 -0.0289  0.6097  1.2519
 1078SOL     OW14869   4.705   3.527   3.118  0.7148  0.2231  0.5229
 1078SOL    HW114870   4.708   3.558   3.028 -3.7058 -0.2025  0.2705
 1078SOL    HW214871   4.613   3.534   3.142  0.5333  1.2760 -0.5155
 1079SOL     OW14872   1.677   0.078  14.652 -0.0592 -0.2697 -0.1777
 1079SOL    HW114873   1.649   0.169  14.659  0.4558  0.0989 -2.6893
 1079SOL    HW214874   1.769   0.097  14.632  0.5294 -2.1545  0.8066
 1080SOL     OW14875   1.840   3.795   3.613 -0.1143  0.9764  0.0942
 1080SOL    HW114876   1.925   3.783   3.573 -1.8467 -1.3408 -2.8547
 1080SOL    HW214877   1.781   3.805   3.539 -1.6129 -0.5230  1.0736
 1081SOL     OW14878   0.619   0.618   1.550  0.4424  0.1361  0.5762
 1081SOL    HW114879   0.682   0.559   1.509  0.4461  0.1870  0.5097
 1081SOL    HW214880   0.680   0.675   1.599  2.4780 -1.9692  0.4713
 1082SOL     OW14881   3.758   1.401   8.452  0.4686  0.0474 -0.2842
 1082SOL    HW114882   3.766   1.395   8.357  0.0548  1.3720 -0.4041
 1082SOL    HW214883   3.717   1.487   8.460  1.5895  0.6743 -1.2975
 1083SOL     OW14884   4.319   0.454   9.498  0.5372  0.1929  0.1116
 1083SOL    HW114885   4.271   0.408   9.567 -2.7567  2.0914 -0.8908
 1083SOL    HW214886   4.411   0.436   9.519  0.7851  0.1657 -0.9954
 1084SOL     OW14887   3.966   3.822   1.310 -0.6122 -0.2741  0.7749
 1084SOL    HW114888   4.008   3.907   1.318  1.2771 -1.0396 -1.0628
 1084SOL    HW214889   4.040   3.780   1.266 -1.3591 -1.4598  0.6267
 1085SOL     OW14890   4.695   2.126   0.333  0.0990 -0.4625 -0.3758
 1085SOL    HW114891   4.680   2.151   0.424  1.7221  1.7643 -0.7194
 1085SOL    HW214892   0.044   2.093   0.350 -0.2782 -1.5788 -0.5944
 1086SOL     OW14893   4.049   1.587  17.191 -0.2929 -0.2369  0.8715
 1086SOL    HW114894   4.049   1.507  17.138  0.3172  1.1448 -1.1827
 1086SOL    HW214895   3.976   1.641  17.162  1.3653  0.7084 -1.5036
 1087SOL     OW14896   1.718   3.748   9.229  0.8560  0.3402 -0.1601
 1087SOL    HW114897   1.773   3.673   9.251 -1.8051 -1.1656  1.3110
 1087SOL    HW214898   1.703   3.730   9.136  1.5286  1.0803 -0.4154
 1088SOL     OW14899   1.148   3.592   7.700 -0.2164 -0.3139  0.2086
 1088SOL    HW114900   1.152   3.530   7.773 -2.3179  1.6932  2.0529
 1088SOL    HW214901   1.145   3.532   7.626  2.1168 -0.4341  0.2235
 1089SOL     OW14902   3.220   3.618  13.295 -0.1867 -0.5137 -0.4659
 1089SOL    HW114903   3.235   3.553  13.226 -0.2622  0.3734 -1.3218
 1089SOL    HW214904   3.311   3.624  13.325 -0.5279 -1.0691  0.6498
 1090SOL     OW14905   3.606   3.565   6.085 -0.0894  0.2998 -0.3218
 1090SOL    HW114906   3.598   3.500   6.015 -1.8924 -2.7455  2.7163
 1090SOL    HW214907   3.666   3.624   6.040 -0.8420  0.2945 -1.3260
 1091SOL     OW14908   4.133   1.738   7.197 -0.1303  0.4587  0.1215
 1091SOL    HW114909   4.150   1.712   7.288  0.9539 -0.5169 -0.3513
 1091SOL    HW214910   4.196   1.684   7.149 -0.0468  1.0106 -0.3957
 1092SOL     OW14911   3.630   3.412   0.297 -0.8204 -0.1119  0.4208
 1092SOL    HW114912   3.665   3.499   0.280 -0.2645 -0.5589 -0.6806
 1092SOL    HW214913   3.687   3.374   0.365  0.6360  0.8505 -0.2722
 1093SOL     OW14914   0.283   0.972  12.983 -0.5782  0.2232  0.0252
 1093SOL    HW114915   0.375   0.948  12.995 -0.8656 -0.4722  0.7829
 1093SOL    HW214916   0.273   1.048  13.040  0.4609 -0.0039  0.5071
 1094SOL     OW14917   0.840   4.046  16.833 -0.5537  0.0477 -0.0267
 1094SOL    HW114918   0.932   4.041  16.858  0.0900 -0.6397 -2.4964
 1094SOL    HW214919   0.809   4.116  16.890  0.6330 -1.8893  2.9726
 1095SOL     OW14920   1.259   0.262   9.163  0.2875  0.2302 -0.2866
 1095SOL    HW114921   1.218   0.181   9.134 -0.3598  0.5661 -0.3208
 1095SOL    HW214922   1.280   0.318   9.089  3.2193 -0.6620 -0.1239
 1096SOL     OW14923   2.931   4.525   7.073  0.2243  0.1141 -0.0085
 1096SOL    HW114924   2.892   4.597   7.123 -1.3042  0.0637 -1.1303
 1096SOL    HW214925   2.957   4.464   7.142  0.1109 -1.3135 -1.2135
 1097SOL     OW14926   0.706   1.467  11.335 -0.0972  0.4096  0.0761
 1097SOL    HW114927   0.795   1.454  11.301  0.1273 -1.3415  1.3619
 1097SOL    HW214928   0.663   1.396  11.288  2.1628 -1.4519  0.7923
 1098SOL     OW14929   2.463   0.565   2.658 -0.4430  0.1530 -0.0993
 1098SOL    HW114930   2.502   0.646   2.691  0.7057 -0.4508  0.0429
 1098SOL    HW214931   2.515   0.544   2.580  2.5422  0.3059  1.8610
 1099SOL     OW14932   1.637   0.777   7.149  0.1456 -0.0219  0.5227
 1099SOL    HW114933   1.646   0.837   7.223  0.3263 -0.0658  0.5363
 1099SOL    HW214934   1.566   0.813   7.095  1.4136  0.6450 -0.7050
 1100SOL     OW14935   2.258   0.588   0.285 -0.5608 -0.0999  0.9891
 1100SOL    HW114936   2.197   0.539   0.339 -0.0511 -3.1952 -1.1891
 1100SOL    HW214937   2.199   0.616   0.215 -1.6659 -0.5762  1.7450
 1101SOL     OW14938   4.241   3.795   3.275 -0.1556 -0.0106 -0.4789
 1101SOL    HW114939   4.170   3.794   3.210 -0.3661 -2.3806 -0.2136
 1101SOL    HW214940   4.189   3.831   3.347 -1.3618 -1.1629 -0.7606
 1102SOL     OW14941   4.300   0.216   8.645  0.1256 -0.6066  0.1804
 1102SOL    HW114942   4.310   0.258   8.730 -0.4752  0.5264 -0.3138
 1102SOL    HW214943   4.388   0.202   8.611  0.5262 -1.2753  1.5198
 1103SOL     OW14944   2.014   4.182  10.564 -0.5357 -0.2656 -0.6133
 1103SOL    HW114945   1.964   4.263  10.568 -0.1398 -0.0440 -0.1038
 1103SOL    HW214946   2.036   4.189  10.471 -1.5554  1.9450 -0.6835
 1104SOL     OW14947   1.395   2.714  16.433 -0.3319  0.0341 -0.4181
 1104SOL    HW114948   1.353   2.698  16.518 -2.6837  1.4870 -1.3166
 1104SOL    HW214949   1.325   2.772  16.401 -2.7542 -1.1577  2.6944
 1105SOL     OW14950   3.424   1.541   7.483 -0.0985 -0.3448  0.1787
 1105SOL    HW114951   3.396   1.465   7.533  0.7378 -1.5037 -1.1294
 1105SOL    HW214952   3.516   1.551   7.506  0.0462  0.2061 -0.6222
 1106SOL     OW14953   3.758   3.715   8.620 -0.3336  0.2550  0.1126
 1106SOL    HW114954   3.781   3.688   8.708  1.4480  0.2310 -0.3491
 1106SOL    HW214955   3.752   3.810   8.629 -1.9689  0.1118  0.4709
 1107SOL     OW14956   0.825   1.078   1.977  0.5144 -0.4941 -0.3003
 1107SOL    HW114957   0.816   0.985   1.955 -0.6899 -0.3798 -0.3087
 1107SOL    HW214958   0.755   1.110   1.920  0.1111 -1.0541 -0.1204
 1108SOL     OW14959   4.564   0.210   2.815  0.1695 -0.5815 -0.3482
 1108SOL    HW114960   4.649   0.254   2.806 -0.1672 -0.0291 -0.7756
 1108SOL    HW214961   4.513   0.283   2.851  3.1727  2.3296 -1.9535
 1109SOL     OW14962   4.237   2.737  17.656 -0.1887 -0.8825 -0.2387
 1109SOL    HW114963   4.271   2.827  17.655  1.9918 -1.7022 -0.0829
 1109SOL    HW214964   4.228   2.724  17.750 -0.5345 -0.9866 -0.2849
 1110SOL     OW14965   3.093   3.540   7.363  0.3725  0.3230 -1.0797
 1110SOL    HW114966   3.180   3.554   7.402  0.0891  1.7061 -0.9333
 1110SOL    HW214967   3.100   3.581   7.277 -0.7642  1.9489 -0.4052
 1111SOL     OW14968   2.195   3.495   8.694  0.6090  0.0486  0.1762
 1111SOL    HW114969   2.207   3.456   8.780 -0.0586 -0.9992 -0.2065
 1111SOL    HW214970   2.283   3.470   8.667  0.8512  0.3219  0.7191
 1112SOL     OW14971   0.894   2.049   1.899 -0.4823  0.0551 -0.3430
 1112SOL    HW114972   0.911   2.143   1.907  2.6932 -0.4341 -1.2185
 1112SOL    HW214973   0.799   2.040   1.896 -0.3167 -1.2067 -1.8909
 1113SOL     OW14974   4.300   1.645  16.875 -0.2874  0.0896 -0.5122
 1113SOL    HW114975   4.237   1.712  16.901 -0.1737 -0.7031  1.8666
 1113SOL    HW214976   4.368   1.648  16.943 -0.1867  2.5008 -0.7388
 1114SOL     OW14977   1.798   1.767   8.593 -0.0979  0.4020 -0.0047
 1114SOL    HW114978   1.718   1.759   8.645  0.5717  0.6720  1.0763
 1114SOL    HW214979   1.812   1.861   8.606  0.6940  0.0753  1.4331
 1115SOL     OW14980   2.983   0.875   0.438 -0.8162 -0.6410 -0.2288
 1115SOL    HW114981   2.916   0.877   0.369  0.3246 -0.6298 -1.3332
 1115SOL    HW214982   3.038   0.945   0.403  2.8388 -3.2337  0.3203
 1116SOL     OW14983   3.595   0.098  15.216  0.2566 -0.1067 -0.1446
 1116SOL    HW114984   3.604   0.080  15.123  0.4943  1.8921 -0.4969
 1116SOL    HW214985   3.684   0.090  15.250 -1.3167 -1.1905  3.7500
 1117SOL     OW14986   2.886   2.017   2.338  0.2275 -0.0134 -0.3060
 1117SOL    HW114987   2.841   1.998   2.256  2.0585  1.9233 -1.7448
 1117SOL    HW214988   2.969   1.977   2.311  1.2030  2.9645 -1.7364
 1118SOL     OW14989   2.053   3.777   8.252  0.4300  0.0795 -0.7290
 1118SOL    HW114990   2.104   3.738   8.180 -1.3329 -0.9891 -1.4167
 1118SOL    HW214991   2.095   3.739   8.329  0.0091  1.7851  0.3379
 1119SOL     OW14992   0.068   2.416   1.077  0.0518  0.5167 -0.3516
 1119SOL    HW114993   4.727   2.466   1.077 -0.8102 -0.8949 -0.9813
 1119SOL    HW214994   0.062   2.361   1.154 -0.6889  1.2442  0.1100
 1120SOL     OW14995   4.133   4.017   2.101 -0.1034  0.1427  0.0540
 1120SOL    HW114996   4.181   4.053   2.026  1.1791 -1.6650 -0.0109
 1120SOL    HW214997   4.066   4.079   2.129  1.2782 -0.2030  4.1248
 1121SOL     OW14998   2.560   0.876   2.680 -0.6077  0.5529  0.5716
 1121SOL    HW114999   2.544   0.949   2.619  1.5738  2.0077  1.7043
 1121SOL    HW215000   2.654   0.891   2.696 -0.2149  0.5186 -1.6546
 1122SOL     OW15001   2.517   0.613   3.642  0.2356 -0.2861  0.5310
 1122SOL    HW115002   2.541   0.548   3.709  1.5034  0.7477  1.0759
 1122SOL    HW215003   2.449   0.559   3.602 -0.6687  0.3415  1.2075
 1123SOL     OW15004   2.707   2.761   7.313 -0.3429 -0.0692 -0.5778
 1123SOL    HW115005   2.641   2.770   7.245 -0.1684  2.4489 -0.4017
 1123SOL    HW215006   2.788   2.768   7.262  1.9919 -2.6739  2.7650
 1124SOL     OW15007   2.213   0.654  13.328  0.4421 -0.5064 -0.0176
 1124SOL    HW115008   2.233   0.592  13.398 -0.4541 -0.5606  0.1958
 1124SOL    HW215009   2.128   0.615  13.306  0.4653 -0.0152 -0.9512
 1125SOL     OW15010   0.535   0.764   5.091 -0.6128  0.7078 -0.2007
 1125SOL    HW115011   0.603   0.710   5.130 -1.3640 -0.7421 -0.9072
 1125SOL    HW215012   0.498   0.705   5.026  2.1417  0.1469 -1.2510
 1126SOL     OW15013   1.567   3.623  16.065  0.3512  0.4180  0.2877
 1126SOL    HW115014   1.549   3.670  16.147 -0.9189  1.4155 -0.5743
 1126SOL    HW215015   1.528   3.679  15.998  1.3583 -2.1365 -2.4463
 1127SOL     OW15016   3.766   2.721   6.078  0.5300 -0.4153  0.2322
 1127SOL    HW115017   3.772   2.734   5.983 -2.9269 -1.4504 -0.1226
 1127SOL    HW215018   3.734   2.631   6.084  1.4055 -0.7673 -0.2259
 1128SOL     OW15019   3.130   0.361   5.136  0.0271 -0.5890  0.0913
 1128SOL    HW115020   3.035   0.365   5.118  0.1018 -1.7314 -0.5737
 1128SOL    HW215021   3.157   0.449   5.107  2.7277 -1.9785 -1.5654
 1129SOL     OW15022   4.578   2.638   4.919 -0.1842  0.0522  0.2016
 1129SOL    HW115023   4.538   2.554   4.897 -0.2367  0.1860 -0.2080
 1129SOL    HW215024   4.644   2.604   4.979 -0.6886 -0.3886  0.5101
 1130SOL     OW15025   4.229   1.873  13.570 -0.2235 -0.3253 -0.4519
 1130SOL    HW115026   4.135   1.853  13.567 -0.4296  0.5525  0.2213
 1130SOL    HW215027   4.252   1.789  13.610  2.7272  1.0222  0.6601
 1131SOL     OW15028   1.528   4.212   4.265 -0.3990  0.1595  0.1982
 1131SOL    HW115029   1.494   4.243   4.182 -0.9352  0.5587  0.5632
 1131SOL    HW215030   1.474   4.133   4.266 -0.5829  0.2879  1.2248
 1132SOL     OW15031   4.241   0.423   9.255 -0.4162  0.0877 -0.2964
 1132SOL    HW115032   4.299   0.424   9.331 -1.5105 -2.2769  0.5551
 1132SOL    HW215033   4.158   0.448   9.296 -0.1556  1.1937 -0.4276
 1133SOL     OW15034   4.129   1.616   7.456  0.4528 -0.2691  0.3434
 1133SOL    HW115035   4.067   1.639   7.526  0.1037 -0.8203  0.2111
 1133SOL    HW215036   4.109   1.527   7.427 -0.3443 -0.5996  1.8751
 1134SOL     OW15037   1.569   4.333   9.353  0.0261 -0.2425  0.1750
 1134SOL    HW115038   1.513   4.262   9.319  0.0192 -0.9971  1.7807
 1134SOL    HW215039   1.558   4.402   9.287  0.1423 -0.4788 -0.0949
 1135SOL     OW15040   2.325   3.295   7.137 -0.1626  1.0735  0.1701
 1135SOL    HW115041   2.237   3.317   7.107 -1.2008  0.2189  2.5421
 1135SOL    HW215042   2.311   3.211   7.180  0.7206  1.6285  1.5590
 1136SOL     OW15043   1.172   2.920  10.342  0.1423 -0.4904  0.5155
 1136SOL    HW115044   1.094   2.903  10.395  1.3033 -1.8485  1.7860
 1136SOL    HW215045   1.233   2.974  10.392  0.8434  0.0560 -0.9324
 1137SOL     OW15046   4.300   0.240  13.733  0.0710  0.0834 -1.0229
 1137SOL    HW115047   4.382   0.271  13.693  1.9206 -0.6224  2.2146
 1137SOL    HW215048   4.328   0.169  13.791 -3.2566  0.3802  0.9378
 1138SOL     OW15049   0.422   3.138   5.654  0.7634  0.0830 -0.0308
 1138SOL    HW115050   0.449   3.094   5.734  1.4989 -4.2135 -2.6290
 1138SOL    HW215051   0.461   3.089   5.581  1.8729 -0.4377  0.9185
 1139SOL     OW15052   2.761   1.202  17.132 -0.1898  0.2406  0.2883
 1139SOL    HW115053   2.814   1.267  17.177  1.2165 -0.8573  0.2095
 1139SOL    HW215054   2.784   1.114  17.162  0.7893  1.3568  2.7355
 1140SOL     OW15055   0.101   2.889   1.791 -0.1335 -0.6566  0.2617
 1140SOL    HW115056   0.102   2.985   1.791  1.3102 -0.6592 -1.1021
 1140SOL    HW215057   0.013   2.865   1.818  0.2741  1.2759  3.3653
 1141SOL     OW15058   4.182   4.238  14.294  0.3150  0.6916  0.7669
 1141SOL    HW115059   4.144   4.216  14.209  1.0611 -1.5040  0.9871
 1141SOL    HW215060   4.104   4.249  14.348  0.7671  3.5224  0.8452
 1142SOL     OW15061   2.082   3.874  15.203  0.7937 -0.1977  0.0508
 1142SOL    HW115062   2.040   3.957  15.179  0.5461 -0.8063 -1.6334
 1142SOL    HW215063   2.100   3.846  15.113 -1.0822 -1.7535  0.1560
 1143SOL     OW15064   2.543   1.128   2.548  0.7539 -0.5186 -0.4123
 1143SOL    HW115065   2.587   1.145   2.464  0.1167  0.8803 -0.4682
 1143SOL    HW215066   2.608   1.170   2.605  0.5380  1.0285 -1.3013
 1144SOL     OW15067   2.330   1.640  16.289  0.1532 -0.4349 -0.4056
 1144SOL    HW115068   2.251   1.609  16.332  0.1077  0.5304  0.2182
 1144SOL    HW215069   2.361   1.550  16.286  1.2058 -0.0964 -0.0076
 1145SOL     OW15070   3.120   3.026   8.635  0.3622 -0.4271  0.9382
 1145SOL    HW115071   3.164   3.037   8.720 -0.2582 -0.9691  1.3280
 1145SOL    HW215072   3.058   3.098   8.639 -0.3005 -0.8207 -1.8647
 1146SOL     OW15073   4.252   2.039   2.137  0.1516 -0.0473  0.5953
 1146SOL    HW115074   4.187   2.084   2.191  0.4144  1.4193 -0.3319
 1146SOL    HW215075   4.261   2.095   2.060  0.1573 -0.2620  0.4387
 1147SOL     OW15076   4.178   1.397   6.872  0.5799  0.0195  0.4924
 1147SOL    HW115077   4.155   1.325   6.813 -3.0030  1.6205 -0.0520
 1147SOL    HW215078   4.097   1.429   6.912  0.7997 -0.2575  1.1695
 1148SOL     OW15079   2.216   4.466  10.423  0.1096  0.2039 -0.6500
 1148SOL    HW115080   2.211   4.541  10.482 -0.4356  0.7053 -1.3442
 1148SOL    HW215081   2.127   4.437  10.405  0.4460 -0.9149 -0.5352
 1149SOL     OW15082   3.402   1.685   3.403 -0.7862  0.0280 -0.2610
 1149SOL    HW115083   3.438   1.748   3.340  2.6920 -0.3899  1.2618
 1149SOL    HW215084   3.480   1.630   3.411  0.7566  2.4633  1.6433
 1150SOL     OW15085   4.715   3.262   7.821 -0.0517 -0.3937  0.1213
 1150SOL    HW115086   4.676   3.292   7.903 -0.2949 -1.0885  0.2537
 1150SOL    HW215087   4.637   3.256   7.766  0.5580 -1.0489 -0.6808
 1151SOL     OW15088   1.814   0.966  10.194  0.1092 -0.5506  0.0252
 1151SOL    HW115089   1.810   0.926  10.107 -0.5685  1.4283 -0.8521
 1151SOL    HW215090   1.895   0.926  10.225  0.0286 -1.2359 -0.6303
 1152SOL     OW15091   1.875   3.556   9.280 -0.3168 -0.0702 -0.7711
 1152SOL    HW115092   1.875   3.461   9.266  3.0518 -0.8047  4.0446
 1152SOL    HW215093   1.877   3.562   9.376  2.6129  1.6031 -0.9296
 1153SOL     OW15094   1.603   0.967   2.346  0.0989  0.8013 -0.7291
 1153SOL    HW115095   1.674   0.927   2.396 -1.3395  0.9090  1.3540
 1153SOL    HW215096   1.584   1.047   2.394  0.2527  0.3910  0.0104
 1154SOL     OW15097   1.932   2.237   6.034 -0.0388 -0.0902  0.2072
 1154SOL    HW115098   1.972   2.151   6.049  0.2301 -0.4011 -2.1881
 1154SOL    HW215099   1.845   2.220   6.069  0.4903 -3.4294 -0.0779
 1155SOL     OW15100   1.965   3.224   7.485 -0.3777  0.1699 -0.7378
 1155SOL    HW115101   1.977   3.222   7.390 -0.9780 -2.4050 -0.7770
 1155SOL    HW215102   2.004   3.143   7.519 -2.3890 -0.2956  0.4749
 1156SOL     OW15103   1.518   2.347   6.152  0.1552  0.1819 -0.2058
 1156SOL    HW115104   1.563   2.263   6.140  0.5950  0.4094 -0.1287
 1156SOL    HW215105   1.437   2.312   6.113 -1.5126  1.3369  2.2006
 1157SOL     OW15106   4.048   2.721   1.970  0.1266  0.4834  0.1881
 1157SOL    HW115107   4.109   2.779   2.016  1.1680  0.9463 -1.8093
 1157SOL    HW215108   3.966   2.767   1.953  0.6242  1.0627 -0.5907
 1158SOL     OW15109   3.842   1.323   4.472  0.4642  0.0446 -0.0675
 1158SOL    HW115110   3.792   1.283   4.401 -0.1606 -2.0997  1.5668
 1158SOL    HW215111   3.778   1.381   4.513  0.6929  0.9782 -1.0239
 1159SOL     OW15112   1.520   4.026  17.194 -0.4733 -0.0818  0.5977
 1159SOL    HW115113   1.431   4.023  17.158  0.4015 -1.2018 -1.4720
 1159SOL    HW215114   1.573   4.061  17.122 -0.9725 -1.1284 -0.2893
 1160SOL     OW15115   2.728   4.406   2.547 -0.1278 -0.0041 -0.4511
 1160SOL    HW115116   2.745   4.313   2.531  1.1359 -0.0217  0.9583
 1160SOL    HW215117   2.767   4.417   2.634 -3.4272  0.0669  1.0112
 1161SOL     OW15118   3.676   3.592   9.660  0.4687  0.1511 -0.5348
 1161SOL    HW115119   3.649   3.671   9.612  0.3427 -0.2317 -1.0982
 1161SOL    HW215120   3.600   3.534   9.667 -1.0242  2.4964  2.8760
 1162SOL     OW15121   4.550   3.429  14.490 -0.5011  0.4211 -0.2515
 1162SOL    HW115122   4.577   3.415  14.399 -3.2117  0.0920 -1.0130
 1162SOL    HW215123   4.502   3.347  14.500  0.5733 -0.0822  0.8455
 1163SOL     OW15124   4.455   0.785   2.761  0.1662 -0.0949  0.0472
 1163SOL    HW115125   4.396   0.858   2.741 -0.3261 -0.4901  0.0694
 1163SOL    HW215126   4.452   0.737   2.678 -1.0427  3.5301 -2.0189
 1164SOL     OW15127   2.533   1.468   2.724  0.7642 -0.5412  0.7007
 1164SOL    HW115128   2.596   1.403   2.693  1.1564  0.4730 -0.5913
 1164SOL    HW215129   2.533   1.520   2.644 -0.6944 -1.4523  0.0958
 1165SOL     OW15130   0.045   1.828   0.646  0.2612 -0.2337 -0.3289
 1165SOL    HW115131   0.070   1.799   0.734  1.9879  0.6489 -0.5209
 1165SOL    HW215132   4.693   1.844   0.666  1.0373 -1.9632  4.4026
 1166SOL     OW15133   0.329   4.695   6.271  0.4225  0.1141  0.3472
 1166SOL    HW115134   0.314   4.646   6.352 -0.5887  0.4980  0.3974
 1166SOL    HW215135   0.237   4.714   6.251  0.8397  0.2369 -1.4558
 1167SOL     OW15136   3.570   2.400   2.027  0.0262 -0.2034  0.1380
 1167SOL    HW115137   3.475   2.410   2.028  0.1588  1.1846 -0.1408
 1167SOL    HW215138   3.600   2.491   2.035  1.8153 -0.7311 -0.5621
 1168SOL     OW15139   1.727   3.411   3.221 -0.5293  0.3435  0.3968
 1168SOL    HW115140   1.679   3.354   3.282 -0.6827 -2.2550 -2.1533
 1168SOL    HW215141   1.660   3.468   3.182 -0.1028  0.5640 -0.0105
 1169SOL     OW15142   2.897   3.503   5.588  0.3511  0.2560  0.0063
 1169SOL    HW115143   2.915   3.412   5.609 -1.0401 -0.7422 -2.9993
 1169SOL    HW215144   2.939   3.554   5.657 -1.3749  1.1243  0.4364
 1170SOL     OW15145   4.190   1.196  10.835  0.0762 -0.7136 -0.1429
 1170SOL    HW115146   4.253   1.266  10.822  0.9840 -1.5072 -0.0013
 1170SOL    HW215147   4.132   1.223  10.764  0.0355 -3.3451 -1.0994
 1171SOL     OW15148   2.354   4.495   5.417 -0.2651 -0.3115  0.1062
 1171SOL    HW115149   2.369   4.555   5.490  0.9273  0.8876 -1.1243
 1171SOL    HW215150   2.278   4.540   5.379  0.0809 -1.4242 -1.9001
 1172SOL     OW15151   1.941   4.395   4.576 -0.6880  0.3762  0.3730
 1172SOL    HW115152   1.995   4.347   4.512  0.7075  2.1069  0.2469
 1172SOL    HW215153   2.006   4.416   4.643 -0.9314  1.9766  0.0992
 1173SOL     OW15154   4.329   2.605  16.800  0.3054 -0.5261  0.6300
 1173SOL    HW115155   4.237   2.577  16.800  0.2456 -0.3149 -1.0708
 1173SOL    HW215156   4.331   2.695  16.832  0.2012  0.2925 -1.7113
 1174SOL     OW15157   3.329   4.502   6.970 -0.2015 -0.4152 -0.5489
 1174SOL    HW115158   3.357   4.469   7.055  0.4938 -0.3608 -0.7620
 1174SOL    HW215159   3.400   4.555   6.933  0.5613  0.2101  1.8684
 1175SOL     OW15160   2.804   0.281   7.202 -0.4290 -0.1470  0.0329
 1175SOL    HW115161   2.890   0.302   7.237 -0.3986 -0.3440  0.0780
 1175SOL    HW215162   2.748   0.332   7.260 -0.0271  1.3575 -0.9020
 1176SOL     OW15163   4.716   2.442   4.647  0.6193 -0.5457  0.3425
 1176SOL    HW115164   4.638   2.399   4.681 -0.6331  0.8903 -0.6882
 1176SOL    HW215165   0.028   2.362   4.637  0.0156 -1.1070  1.7147
 1177SOL     OW15166   3.926   4.494   8.930 -0.2132  0.1083  0.2656
 1177SOL    HW115167   3.888   4.442   9.000 -1.1737  2.5342  1.5362
 1177SOL    HW215168   3.991   4.432   8.895  0.3882 -0.1153  1.8087
 1178SOL     OW15169   3.595   2.262   2.549  0.1329  0.4462  0.3021
 1178SOL    HW115170   3.522   2.223   2.502  0.4472  2.1916 -1.6480
 1178SOL    HW215171   3.588   2.353   2.521 -0.5047  0.7664  1.4900
 1179SOL     OW15172   2.071   4.530   4.779  0.3094 -0.2025 -0.8032
 1179SOL    HW115173   2.090   4.564   4.866 -0.0150 -0.8660 -0.4696
 1179SOL    HW215174   2.047   4.613   4.737 -2.4581 -0.6927 -0.2231
 1180SOL     OW15175   2.843   1.479   8.581  0.3523 -0.4230 -0.4045
 1180SOL    HW115176   2.813   1.543   8.517 -0.8438 -0.6375 -0.0495
 1180SOL    HW215177   2.929   1.459   8.542  1.1959  0.6062  0.9059
 1181SOL     OW15178   1.944   3.267   3.192 -0.5725  0.2167 -0.2201
 1181SOL    HW115179   1.885   3.341   3.208 -0.3348  0.6927 -1.5912
 1181SOL    HW215180   1.887   3.218   3.133  0.8127  2.0406 -3.0350
 1182SOL     OW15181   4.414   4.392   4.371  0.0576 -0.4459  0.0452
 1182SOL    HW115182   4.330   4.412   4.412  0.6725  1.5836  0.3328
 1182SOL    HW215183   4.405   4.460   4.304  1.5062  0.8697  1.1517
 1183SOL     OW15184   1.949   0.488  12.742 -0.1546 -0.4492  0.1515
 1183SOL    HW115185   2.016   0.515  12.805 -0.2687 -0.5943  0.3381
 1183SOL    HW215186   1.991   0.518  12.661 -2.2799 -1.2638 -1.2468
 1184SOL     OW15187   4.247   0.222   1.740 -0.0264 -0.1977 -0.2711
 1184SOL    HW115188   4.296   0.168   1.677  3.0875 -1.0349  2.8913
 1184SOL    HW215189   4.315   0.258   1.798 -1.4100 -0.4461  1.4895
 1185SOL     OW15190   0.762   0.655   9.359 -0.3095  0.2497  0.5933
 1185SOL    HW115191   0.848   0.686   9.387 -0.8302  1.5229  0.7886
 1185SOL    HW215192   0.771   0.561   9.372 -0.4030 -0.4311 -4.2659
 1186SOL     OW15193   1.463   4.442   9.573 -0.2665  0.1487  0.0034
 1186SOL    HW115194   1.477   4.533   9.547  0.8474  0.1730  0.6512
 1186SOL    HW215195   1.490   4.391   9.496  1.0433  1.0463 -0.1291
 1187SOL     OW15196   3.518   4.308   0.798  1.1401 -0.1335  0.0912
 1187SOL    HW115197   3.494   4.307   0.890 -0.7853  0.6450 -0.3970
 1187SOL    HW215198   3.434   4.325   0.754  1.3992 -1.7596 -1.0109
 1188SOL     OW15199   0.859   0.986   4.404  0.2550 -0.3277  0.5048
 1188SOL    HW115200   0.862   0.903   4.451 -1.2513  0.5464  2.1330
 1188SOL    HW215201   0.791   1.029   4.455  1.1457 -0.2286  1.6134
 1189SOL     OW15202   4.381   0.041   3.072 -0.3287 -0.4077 -0.0060
 1189SOL    HW115203   4.331   4.726   3.011 -0.9890 -0.9231  1.0013
 1189SOL    HW215204   4.470   0.027   3.041 -0.0573  0.4814  0.3833
 1190SOL     OW15205   0.234   1.603  13.519  0.2222  0.4354 -0.2940
 1190SOL    HW115206   0.279   1.687  13.507 -0.0358  1.0651  3.1115
 1190SOL    HW215207   0.294   1.546  13.566  0.8618  0.8825 -0.5626
 1191SOL     OW15208   4.234   4.659   1.826 -0.6617 -0.2733  0.0665
 1191SOL    HW115209   4.140   4.651   1.844 -0.8194 -0.3339 -0.7777
 1191SOL    HW215210   4.226   0.012   1.845  2.3861 -0.2594  1.2489
 1192SOL     OW15211   3.806   4.511   5.375 -0.7061 -0.1611  0.3623
 1192SOL    HW115212   3.735   4.566   5.343  0.5111  1.6296  0.7472
 1192SOL    HW215213   3.757   4.432   5.400 -2.7776  0.4880 -1.7557
 1193SOL     OW15214   3.173   3.373   9.035 -0.1614 -0.1517 -0.0104
 1193SOL    HW115215   3.244   3.337   9.088  0.2417 -1.7395 -1.6534
 1193SOL    HW215216   3.167   3.458   9.079 -0.4190  0.1059 -0.5363
 1194SOL     OW15217   0.313   3.764   8.369  0.5768 -1.1879  0.3796
 1194SOL    HW115218   0.355   3.816   8.301  1.8348 -0.3735  1.7617
 1194SOL    HW215219   0.237   3.727   8.323 -2.4537  0.3450  4.0556
 1195SOL     OW15220   1.472   2.248  16.058 -0.1064 -0.4125  0.1181
 1195SOL    HW115221   1.528   2.312  16.015  1.7336 -1.0299  1.5960
 1195SOL    HW215222   1.457   2.281  16.146 -0.5885  1.2668 -0.5916
 1196SOL     OW15223   0.486   1.875   9.148 -0.0182  0.3322 -0.4192
 1196SOL    HW115224   0.450   1.881   9.060  0.5084  1.3685 -0.5632
 1196SOL    HW215225   0.474   1.781   9.159  0.6307  0.1320 -1.4633
 1197SOL     OW15226   0.939   4.157   6.020  0.3361  0.4173  0.2161
 1197SOL    HW115227   0.989   4.232   5.990 -1.1567  0.4896 -2.1072
 1197SOL    HW215228   1.006   4.104   6.063  1.3572  0.8467 -0.8510
 1198SOL     OW15229   1.029   1.390  11.327 -0.2482  0.5206 -0.1542
 1198SOL    HW115230   1.028   1.299  11.297 -0.7798  0.7089 -0.7023
 1198SOL    HW215231   1.063   1.435  11.250  0.0748  0.5979  0.0321
 1199SOL     OW15232   3.769   3.822  15.110 -0.1475  0.6576  0.0204
 1199SOL    HW115233   3.762   3.729  15.087  1.7333  0.9348 -1.6414
 1199SOL    HW215234   3.691   3.835  15.164  0.4613  2.7582  0.3860
 1200SOL     OW15235   4.403   0.731   2.486 -0.1425  0.2642  0.2456
 1200SOL    HW115236   4.360   0.745   2.402  2.2015  0.4509 -0.9160
 1200SOL    HW215237   4.364   0.645   2.503  0.7908 -0.0097  0.9812
 1201SOL     OW15238   0.770   1.269   4.265 -0.0324 -0.4033 -0.0475
 1201SOL    HW115239   0.802   1.213   4.336  0.4195  2.1295  1.7585
 1201SOL    HW215240   0.834   1.340   4.267 -0.5867  0.1152 -1.2902
 1202SOL     OW15241   0.772   2.557  10.878  0.1946  0.4220  0.5987
 1202SOL    HW115242   0.824   2.605  10.943 -1.7769  0.7987  1.9020
 1202SOL    HW215243   0.793   2.465  10.896  0.4415  0.2255 -0.6766
 1203SOL     OW15244   1.492   1.537  17.544 -0.3805 -0.2314  0.3443
 1203SOL    HW115245   1.398   1.519  17.545 -0.2628 -0.8631 -0.2597
 1203SOL    HW215246   1.539   1.494  17.473  0.0434  0.1271  0.4051
 1204SOL     OW15247   1.443   0.447   2.624 -0.2273 -0.1471  0.2298
 1204SOL    HW115248   1.408   0.361   2.648 -1.7334  0.4242  0.0812
 1204SOL    HW215249   1.506   0.423   2.556  1.3504  2.0361  0.9384
 1205SOL     OW15250   4.440   3.548   4.201 -0.1186 -0.1802 -0.0874
 1205SOL    HW115251   4.533   3.528   4.205  0.0664  0.4147 -1.4054
 1205SOL    HW215252   4.411   3.508   4.283  0.4723  1.2041  0.7965
 1206SOL     OW15253   3.716   2.479   8.195 -0.2265 -1.0146  0.3885
 1206SOL    HW115254   3.624   2.465   8.220 -0.5297 -2.4319 -1.5677
 1206SOL    HW215255   3.754   2.453   8.279  0.0874 -0.8560  0.2974
 1207SOL     OW15256   0.092   2.829  17.466 -0.9608 -0.0442  0.2075
 1207SOL    HW115257   0.094   2.843  17.561 -1.8118 -0.8971  0.3466
 1207SOL    HW215258   0.116   2.916  17.431 -0.6685 -0.0002  0.5141
 1208SOL     OW15259   0.956   2.474   2.719 -0.5980 -0.2842  0.4034
 1208SOL    HW115260   1.050   2.469   2.705 -0.4342 -0.3954  1.5752
 1208SOL    HW215261   0.928   2.511   2.635  2.0538 -1.6836 -1.1052
 1209SOL     OW15262   0.756   0.496   2.200  0.6450  0.0225  0.5312
 1209SOL    HW115263   0.801   0.472   2.119 -0.3281  1.7158 -0.5009
 1209SOL    HW215264   0.819   0.551   2.246  0.1759  0.5582  0.5257
 1210SOL     OW15265   1.330   2.419   3.774 -0.4540  0.0787  0.4058
 1210SOL    HW115266   1.308   2.332   3.808  1.7743 -0.1262  1.3581
 1210SOL    HW215267   1.264   2.424   3.705  0.2677  0.8251 -0.2380
 1211SOL     OW15268   2.617   2.363  15.634  0.3001 -0.0079 -0.0803
 1211SOL    HW115269   2.617   2.423  15.708 -1.7676 -1.5492  1.1690
 1211SOL    HW215270   2.533   2.317  15.640  0.6425 -0.2483  2.7756
 1212SOL     OW15271   4.205   3.428   2.019  0.0036  0.5137 -0.0797
 1212SOL    HW115272   4.229   3.427   1.926 -0.3574  0.4240 -0.1712
 1212SOL    HW215273   4.257   3.499   2.056 -1.4333  2.0550 -1.0449
 1213SOL     OW15274   1.087   1.555   2.327  0.2558  0.2408 -0.6109
 1213SOL    HW115275   1.125   1.610   2.396 -1.5759  1.1247 -0.2871
 1213SOL    HW215276   1.135   1.589   2.251 -1.0895  1.1750 -1.0455
 1214SOL     OW15277   1.606   3.568   4.639  0.0800 -0.1119 -0.0613
 1214SOL    HW115278   1.629   3.655   4.671  1.4988 -0.4796 -0.0517
 1214SOL    HW215279   1.647   3.566   4.552 -1.3831  1.3449 -0.7747
 1215SOL     OW15280   2.344   1.967   8.917  0.3910  0.0088 -0.2711
 1215SOL    HW115281   2.329   1.971   8.822  0.4549 -0.4432 -0.3005
 1215SOL    HW215282   2.388   1.881   8.921 -2.1809 -1.3271 -1.0336
 1216SOL     OW15283   1.516   1.391   8.206 -0.0804  0.6391 -0.0071
 1216SOL    HW115284   1.484   1.463   8.259 -1.9868 -0.2438  0.0435
 1216SOL    HW215285   1.610   1.408   8.210  0.7098 -3.6799  0.2607
 1217SOL     OW15286   2.355   1.526   5.934  0.1233  0.1547  0.0023
 1217SOL    HW115287   2.366   1.610   5.890 -0.8885 -0.2343 -0.9915
 1217SOL    HW215288   2.339   1.464   5.863  0.9145 -2.3767  2.0681
 1218SOL     OW15289   0.615   0.356  14.507 -0.5343 -0.0927  0.5931
 1218SOL    HW115290   0.527   0.381  14.479  0.3893  0.1832 -2.0861
 1218SOL    HW215291   0.659   0.441  14.514  1.2632 -0.9941  0.0567
 1219SOL     OW15292   3.639   0.080   8.577 -0.4311 -0.2847  0.2365
 1219SOL    HW115293   3.676   0.091   8.489 -1.8240  3.2959  0.1195
 1219SOL    HW215294   3.706   0.025   8.618 -1.3305 -0.2960  1.6925
 1220SOL     OW15295   3.717   3.234  13.598 -0.4430  0.0252  0.9889
 1220SOL    HW115296   3.714   3.235  13.694 -0.5800  1.3343  0.9717
 1220SOL    HW215297   3.698   3.142  13.580  0.1201 -0.1164  1.1311
 1221SOL     OW15298   4.318   3.234  11.281  0.2432 -0.3391  0.6231
 1221SOL    HW115299   4.372   3.155  11.282 -0.1319 -0.6537 -2.1192
 1221SOL    HW215300   4.244   3.197  11.330 -0.5945  1.9341  1.0311
 1222SOL     OW15301   4.404   0.970  12.761  0.1422 -0.5870  0.2825
 1222SOL    HW115302   4.433   0.993  12.849 -3.3653  2.7683  0.5661
 1222SOL    HW215303   4.478   1.008  12.713  0.0291 -0.5385  0.1452
 1223SOL     OW15304   1.319   0.087   4.455  0.2312  0.1340 -0.4243
 1223SOL    HW115305   1.369   0.011   4.483  0.9616  1.8356  2.8561
 1223SOL    HW215306   1.305   0.133   4.537  1.3416 -0.4447  0.0896
 1224SOL     OW15307   2.776   1.560   1.122  0.0894 -0.0082  0.1958
 1224SOL    HW115308   2.843   1.498   1.092 -0.1743 -1.7229  3.1271
 1224SOL    HW215309   2.701   1.501   1.134  2.9686 -3.5483  0.8081
 1225SOL     OW15310   4.524   3.774   5.815 -0.0653  0.6133  0.2617
 1225SOL    HW115311   4.587   3.842   5.795 -0.2069  0.1630 -1.6660
 1225SOL    HW215312   4.580   3.697   5.813  0.5966  1.0620  1.3941
 1226SOL     OW15313   0.360   2.957   4.650 -0.0172  0.1680  0.1523
 1226SOL    HW115314   0.277   2.992   4.685 -0.1057  0.6066 -0.5049
 1226SOL    HW215315   0.419   3.009   4.704 -0.0627  1.9447 -1.5251
 1227SOL     OW15316   0.699   1.133  12.916  0.3582 -0.0797 -0.4830
 1227SOL    HW115317   0.759   1.103  12.848 -2.6424  0.6233 -3.4482
 1227SOL    HW215318   0.618   1.156  12.870  0.7424  1.4073 -0.4293
 1228SOL     OW15319   1.750   2.430  14.398 -0.0734  0.2127  0.3721
 1228SOL    HW115320   1.728   2.511  14.353 -0.3706  0.3801  0.8170
 1228SOL    HW215321   1.840   2.415  14.369  0.7414  0.7609  2.6097
 1229SOL     OW15322   0.691   4.053   2.976  0.2065 -0.1561  0.1923
 1229SOL    HW115323   0.616   4.001   2.945 -0.1763 -0.0488  0.9175
 1229SOL    HW215324   0.663   4.064   3.067 -2.4865  1.3401 -0.8123
 1230SOL     OW15325   3.287   4.018  10.795  0.4581  0.4721 -0.2752
 1230SOL    HW115326   3.324   4.048  10.878  0.5471  0.7149 -0.4028
 1230SOL    HW215327   3.210   3.967  10.820 -0.0230  0.2276 -2.2802
 1231SOL     OW15328   4.319   3.118   9.200 -0.2713  0.7373 -0.2665
 1231SOL    HW115329   4.375   3.173   9.255 -0.7386  0.7190  0.2282
 1231SOL    HW215330   4.360   3.121   9.114  0.3369 -1.0504 -0.0438
 1232SOL     OW15331   3.292   1.023   1.219  0.5868  0.9466  0.5537
 1232SOL    HW115332   3.341   0.967   1.279 -3.1848 -1.6968  1.1293
 1232SOL    HW215333   3.360   1.047   1.155 -0.1794 -0.3384 -0.7506
 1233SOL     OW15334   1.515   0.374   3.475 -0.3926  0.5376 -0.4169
 1233SOL    HW115335   1.495   0.288   3.511 -0.6576  0.3566 -1.0076
 1233SOL    HW215336   1.436   0.424   3.498  0.7984  1.7679  0.9977
 1234SOL     OW15337   3.137   1.344   6.344 -0.2628 -0.0089  0.0924
 1234SOL    HW115338   3.074   1.394   6.395 -0.4240  0.9355 -1.0388
 1234SOL    HW215339   3.159   1.279   6.411 -2.4414 -0.2465  0.5919
 1235SOL     OW15340   4.025   1.804  14.485  0.3255 -0.0140  0.0427
 1235SOL    HW115341   4.038   1.833  14.576 -0.3299 -0.1358  0.1764
 1235SOL    HW215342   3.947   1.748  14.483  0.9523 -0.8466 -0.5580
 1236SOL     OW15343   1.996   4.036   6.645 -0.2807 -0.5945  0.2226
 1236SOL    HW115344   1.938   4.109   6.665  1.1455  1.1644 -2.0581
 1236SOL    HW215345   2.004   4.040   6.549  0.7712  0.1196  0.3533
 1237SOL     OW15346   2.092   0.457  11.763 -0.4025  0.4366 -0.1579
 1237SOL    HW115347   2.085   0.472  11.669 -0.4519 -1.4930 -0.4564
 1237SOL    HW215348   2.047   0.524  11.814 -1.2873 -0.1828 -0.1273
 1238SOL     OW15349   3.416   2.750  14.136 -0.0212  0.0063 -0.6892
 1238SOL    HW115350   3.411   2.661  14.171 -0.3682  0.4956  0.5223
 1238SOL    HW215351   3.361   2.800  14.197  1.5285 -0.5255  1.1396
 1239SOL     OW15352   2.988   1.452  15.118  0.2247 -0.0080  0.2019
 1239SOL    HW115353   2.901   1.413  15.125  0.1658  0.0243 -0.3435
 1239SOL    HW215354   3.032   1.401  15.050 -0.8438 -0.3844 -0.1999
 1240SOL     OW15355   3.441   2.372   5.744 -0.4008 -0.3948  0.2247
 1240SOL    HW115356   3.457   2.285   5.707  1.2647 -0.0500  0.1330
 1240SOL    HW215357   3.347   2.376   5.762 -0.1192  1.6797  1.1543
 1241SOL     OW15358   1.445   4.580  14.070  0.1192  0.5971 -0.1559
 1241SOL    HW115359   1.406   4.667  14.064 -2.0855 -0.4346 -0.7734
 1241SOL    HW215360   1.363   4.537  14.047 -0.3680  2.9212 -2.7525
 1242SOL     OW15361   2.433   1.026   7.276 -0.4404 -0.2899 -0.1705
 1242SOL    HW115362   2.514   0.977   7.289 -0.1852  0.0387 -0.5004
 1242SOL    HW215363   2.384   0.997   7.353 -0.8692  1.5932  0.2646
 1243SOL     OW15364   2.084   1.928   8.427  0.3250 -0.5638 -0.4217
 1243SOL    HW115365   2.004   1.904   8.380 -0.5011 -0.4421  0.8928
 1243SOL    HW215366   2.128   1.992   8.372 -0.3209 -0.0385 -0.3406
 1244SOL     OW15367   3.443   3.107   5.033 -0.2318  0.0384  0.1294
 1244SOL    HW115368   3.504   3.096   4.959  0.8202  1.7885  0.7225
 1244SOL    HW215369   3.355   3.092   5.000 -1.3287  3.6268  1.4122
 1245SOL     OW15370   0.720   1.929   1.630  0.0812  0.3678 -0.0143
 1245SOL    HW115371   0.741   1.991   1.699  0.7740  0.1627 -0.0414
 1245SOL    HW215372   0.625   1.936   1.626  0.1246  2.1087  2.8273
 1246SOL     OW15373   0.101   0.866   5.417  0.0085 -0.1345 -0.3998
 1246SOL    HW115374   0.159   0.811   5.363  0.9521 -2.0022  2.5086
 1246SOL    HW215375   0.013   0.845   5.387 -0.7452  0.8525  1.1597
 1247SOL     OW15376   3.882   0.488   3.376  0.0960 -0.0896  0.2221
 1247SOL    HW115377   3.843   0.402   3.364  0.8567 -0.4394  0.2836
 1247SOL    HW215378   3.920   0.495   3.288 -1.1804 -2.1537 -0.4883
 1248SOL     OW15379   2.340   0.404   6.010 -0.7485 -0.2554 -0.6152
 1248SOL    HW115380   2.418   0.350   6.020  0.0897  1.2815  0.9831
 1248SOL    HW215381   2.299   0.400   6.097 -0.5195  1.2802 -0.4450
 1249SOL     OW15382   4.114   4.365   7.051  0.0302 -0.0528  0.3714
 1249SOL    HW115383   4.196   4.340   7.094 -0.1922  0.5810  1.1702
 1249SOL    HW215384   4.130   4.341   6.960  1.6484 -3.4294  1.5551
 1250SOL     OW15385   2.261   3.500   4.141 -0.0678  0.0693 -0.2741
 1250SOL    HW115386   2.272   3.595   4.143  0.0772  0.0261  1.5212
 1250SOL    HW215387   2.196   3.499   4.072  0.2759 -0.8898 -0.5798
 1251SOL     OW15388   0.961   4.336   9.029  1.0163  0.2815  0.5727
 1251SOL    HW115389   1.047   4.319   9.066 -0.3287  0.3059  3.7017
 1251SOL    HW215390   0.924   4.410   9.077  1.3575  0.2363  0.9066
 1252SOL     OW15391   1.242   4.278   9.033  0.3466  0.0589 -0.0390
 1252SOL    HW115392   1.245   4.333   9.111 -0.8801  0.9580 -0.6254
 1252SOL    HW215393   1.319   4.223   9.051  0.8080  0.6149 -0.3223
 1253SOL     OW15394   1.172   3.803   8.121  0.1761  0.0052 -0.2562
 1253SOL    HW115395   1.244   3.801   8.185 -0.2127  0.9270  0.2191
 1253SOL    HW215396   1.188   3.887   8.077  2.0243 -0.0255  0.3419
 1254SOL     OW15397   3.251   1.128   5.505 -0.2138  0.1541 -0.3065
 1254SOL    HW115398   3.187   1.057   5.498  1.4598 -1.2857 -0.9984
 1254SOL    HW215399   3.305   1.101   5.431 -1.1652 -0.9984 -0.5786
 1255SOL     OW15400   2.752   4.014   5.375  0.1958  0.2642  0.1821
 1255SOL    HW115401   2.738   3.922   5.351 -0.6812  0.6031 -0.5841
 1255SOL    HW215402   2.846   3.999   5.379  0.4004  1.3225 -0.9535
 1256SOL     OW15403   4.066   1.188   4.516  0.0117 -0.1351 -0.0012
 1256SOL    HW115404   3.991   1.229   4.474 -0.0621 -0.2214  0.0445
 1256SOL    HW215405   4.018   1.144   4.587  0.2679 -1.1493 -0.4517
 1257SOL     OW15406   1.038   4.651  16.510  0.1187  0.8777 -0.1433
 1257SOL    HW115407   0.983   4.619  16.438 -0.9145  1.5488  0.3376
 1257SOL    HW215408   0.976   4.681  16.577  1.1285  2.4835  0.0483
 1258SOL     OW15409   2.524   2.942   5.684  0.1494 -0.3156  0.7419
 1258SOL    HW115410   2.487   2.894   5.610 -2.1147  2.4445  0.1047
 1258SOL    HW215411   2.483   3.024   5.658 -1.5535 -1.9960 -1.9042
 1259SOL     OW15412   2.245   1.844   4.001 -0.1195 -0.3059  0.4209
 1259SOL    HW115413   2.196   1.768   4.033  0.4132 -0.4815  0.8053
 1259SOL    HW215414   2.259   1.815   3.911 -2.4940  1.2926 -0.4870
 1260SOL     OW15415   1.241   1.602  15.442 -0.1124  0.9545 -0.1193
 1260SOL    HW115416   1.185   1.526  15.428 -1.7509  2.2316 -0.6020
 1260SOL    HW215417   1.208   1.621  15.530 -0.0796  1.7029 -0.2711
 1261SOL     OW15418   4.342   3.588  15.653  0.0830  0.0850  0.2915
 1261SOL    HW115419   4.423   3.549  15.619  0.6408  1.1065  0.4646
 1261SOL    HW215420   4.371   3.679  15.656 -1.3541  0.5508  0.0123
 1262SOL     OW15421   4.166   0.224   6.229 -0.6913 -0.6511  0.2301
 1262SOL    HW115422   4.110   0.199   6.303  0.4714 -2.2789  0.5624
 1262SOL    HW215423   4.205   0.296   6.278 -0.0678 -1.6211  1.1646
 1263SOL     OW15424   1.616   2.662  14.863 -0.2794  0.3054 -0.2087
 1263SOL    HW115425   1.557   2.720  14.816  1.4489  0.8811 -1.6800
 1263SOL    HW215426   1.663   2.606  14.801 -0.0600  0.2964 -0.0362
 1264SOL     OW15427   2.728   4.104   2.572 -0.2190  0.2989 -0.2495
 1264SOL    HW115428   2.648   4.053   2.561  0.8212 -1.0280 -1.6346
 1264SOL    HW215429   2.778   4.068   2.499 -0.2412 -1.8500  0.8093
 1265SOL     OW15430   1.351   2.279   7.287 -0.0916  0.3432 -0.1608
 1265SOL    HW115431   1.345   2.190   7.323  2.6764 -0.7249 -2.3773
 1265SOL    HW215432   1.336   2.326   7.369 -1.2521  0.8783 -0.6801
 1266SOL     OW15433   3.556   4.027   2.781 -0.2955 -0.2997 -0.4885
 1266SOL    HW115434   3.529   3.936   2.787 -2.1872  0.2949 -0.2380
 1266SOL    HW215435   3.644   4.019   2.744  0.4882  1.7067  0.9292
 1267SOL     OW15436   1.601   1.377   2.410  0.5436 -0.2055  0.3604
 1267SOL    HW115437   1.574   1.362   2.319  1.7948  1.0409 -0.2257
 1267SOL    HW215438   1.673   1.314   2.420  0.7943 -0.0739 -0.6091
 1268SOL     OW15439   2.312   3.461   2.707  0.0979  0.1699 -0.1017
 1268SOL    HW115440   2.315   3.434   2.799 -1.9740  0.5808  0.0972
 1268SOL    HW215441   2.397   3.505   2.705  1.0243 -1.5837  1.4079
 1269SOL     OW15442   4.737   3.720   9.271  0.0662  0.5874  0.0147
 1269SOL    HW115443   4.663   3.764   9.230 -0.1363  0.8692  0.6715
 1269SOL    HW215444   0.025   3.778   9.342 -0.9308  0.2241  0.7107
 1270SOL     OW15445   0.344   0.536   6.674  0.2184  0.0549  0.0541
 1270SOL    HW115446   0.300   0.465   6.625  0.5350  0.2778 -0.5510
 1270SOL    HW215447   0.261   0.579   6.696  0.5515  0.3554  0.6992
 1271SOL     OW15448   2.559   3.695   8.873 -0.2407  0.2853  0.0728
 1271SOL    HW115449   2.606   3.668   8.794 -0.5405 -0.6076  0.1958
 1271SOL    HW215450   2.588   3.623   8.930  0.2163 -0.8095 -1.5313
 1272SOL     OW15451   4.452   0.362   7.163 -0.1721 -0.1427  0.9528
 1272SOL    HW115452   4.490   0.435   7.213 -1.7998 -0.3574  2.4778
 1272SOL    HW215453   4.363   0.369   7.196 -0.5450 -3.2594  0.5523
 1273SOL     OW15454   1.520   2.445   4.248 -0.3269  0.1281 -0.0530
 1273SOL    HW115455   1.527   2.438   4.153 -0.2186 -1.3115  0.0493
 1273SOL    HW215456   1.436   2.488   4.262 -1.1611 -0.5227 -3.0776
 1274SOL     OW15457   3.561   1.453  11.395 -0.1392 -0.4390 -0.2079
 1274SOL    HW115458   3.586   1.522  11.334  0.0649 -0.5112 -0.2043
 1274SOL    HW215459   3.511   1.498  11.464  0.1656 -0.8919  0.3140
 1275SOL     OW15460   3.135   2.123   2.612 -0.5735 -0.0309  0.0326
 1275SOL    HW115461   3.216   2.136   2.661 -1.4665  1.0668  1.2068
 1275SOL    HW215462   3.141   2.028   2.597  2.3404  0.3094 -1.0208
 1276SOL     OW15463   2.054   2.418   2.223 -0.1834  0.0493 -0.4624
 1276SOL    HW115464   2.091   2.335   2.191 -2.1005 -0.7132 -0.6795
 1276SOL    HW215465   2.101   2.411   2.307 -1.0420 -0.9076 -0.0610
 1277SOL     OW15466   2.033   0.354  14.870 -0.5985 -0.0207 -0.0402
 1277SOL    HW115467   2.065   0.275  14.826 -0.8793  0.5483 -1.2684
 1277SOL    HW215468   2.057   0.426  14.811  0.1844 -0.7306 -0.5914
 1278SOL     OW15469   3.711   2.190   5.674 -0.4527 -0.0708 -0.5495
 1278SOL    HW115470   3.697   2.159   5.764  0.6766 -1.0796 -0.7364
 1278SOL    HW215471   3.621   2.184   5.642 -0.6790  2.6110 -0.4393
 1279SOL     OW15472   1.202   0.915   3.937 -0.6641  0.3720 -0.5536
 1279SOL    HW115473   1.222   1.007   3.921  0.2288  0.4875  1.2032
 1279SOL    HW215474   1.217   0.913   4.032 -1.6112 -0.3533 -0.4245
 1280SOL     OW15475   1.089   4.341   4.680 -0.1496  0.1322  0.4557
 1280SOL    HW115476   1.147   4.278   4.636 -1.4795 -0.9955  0.3032
 1280SOL    HW215477   1.066   4.295   4.761 -0.7812  0.2588  0.3486
 1281SOL     OW15478   4.129   0.004   8.728  0.2887  0.1285 -0.1629
 1281SOL    HW115479   4.059   0.053   8.770 -0.3727  0.0760 -1.1999
 1281SOL    HW215480   4.196   0.069   8.706  1.6138 -1.1587  0.0258
 1282SOL     OW15481   2.799   1.041  16.298 -0.2368 -0.4229  0.6566
 1282SOL    HW115482   2.725   0.981  16.288 -0.2190  0.1112 -2.8539
 1282SOL    HW215483   2.835   1.049  16.209 -1.3736  1.7608  0.3891
 1283SOL     OW15484   0.221   3.524  16.410  0.2968  0.6331  0.7610
 1283SOL    HW115485   0.216   3.593  16.476  3.2649  2.0113 -0.4825
 1283SOL    HW215486   0.131   3.490  16.413  0.1190  1.1741  1.4650
 1284SOL     OW15487   2.334   0.157  13.402  0.3100  0.3121 -0.1455
 1284SOL    HW115488   2.323   0.211  13.324  2.5333  1.0697  0.0749
 1284SOL    HW215489   2.329   0.066  13.372  0.5066  0.0786  0.5388
 1285SOL     OW15490   1.656   3.575   5.496 -0.0661 -0.1321  0.0328
 1285SOL    HW115491   1.582   3.610   5.447 -0.0333 -4.1915 -2.8784
 1285SOL    HW215492   1.725   3.588   5.432  2.2730 -1.5279  2.2569
 1286SOL     OW15493   1.709   1.242   4.282 -0.0630 -0.3906 -0.3618
 1286SOL    HW115494   1.661   1.324   4.297  0.0702 -0.3174 -0.3369
 1286SOL    HW215495   1.681   1.220   4.194 -0.1141 -0.7124 -0.2643
 1287SOL     OW15496   2.911   3.678   4.675 -0.7992  0.0921  0.1498
 1287SOL    HW115497   2.877   3.700   4.761 -0.9284 -1.0144  0.3854
 1287SOL    HW215498   2.948   3.591   4.692  2.4583  1.4200 -0.1554
 1288SOL     OW15499   1.479   4.655   8.219 -0.0522 -0.6309 -0.6839
 1288SOL    HW115500   1.471   4.648   8.314 -3.6145  2.0565 -0.7807
 1288SOL    HW215501   1.393   4.688   8.196  0.8245  0.9586 -1.6887
 1289SOL     OW15502   0.159   0.446   3.286  0.2013 -0.1407  0.3309
 1289SOL    HW115503   0.215   0.508   3.240 -1.0712 -1.4399 -2.9918
 1289SOL    HW215504   0.220   0.373   3.282 -0.1027 -0.4673  1.5332
 1290SOL     OW15505   3.190   0.994   1.554  0.5248  0.0193 -0.5118
 1290SOL    HW115506   3.118   1.054   1.576  1.7422  1.2828  0.0484
 1290SOL    HW215507   3.255   1.043   1.503 -0.6111  2.4742  0.4001
 1291SOL     OW15508   4.106   4.593   2.222 -0.1979  0.0778 -0.1937
 1291SOL    HW115509   4.018   4.617   2.195 -0.1375  0.7168  0.1549
 1291SOL    HW215510   4.101   4.616   2.315  0.9052  1.2281 -0.4111
 1292SOL     OW15511   0.683   4.341   9.572  0.1020  0.0995 -0.5048
 1292SOL    HW115512   0.600   4.303   9.543 -0.8401  0.6473  1.4876
 1292SOL    HW215513   0.731   4.258   9.569  1.6933  0.9884  0.2063
 1293SOL     OW15514   4.199   1.497  15.969 -0.3681 -0.0787 -0.4139
 1293SOL    HW115515   4.104   1.503  15.978 -0.3462  0.5077 -0.5368
 1293SOL    HW215516   4.217   1.540  16.053  3.5672 -0.6070 -1.0035
 1294SOL     OW15517   4.455   2.385   8.625  0.3196  0.5285 -0.4447
 1294SOL    HW115518   4.530   2.415   8.573  1.6038 -0.4441  0.8245
 1294SOL    HW215519   4.388   2.404   8.560 -1.8905 -0.6675  1.5144
 1295SOL     OW15520   1.852   1.964  16.047 -1.0543 -0.7510  0.1642
 1295SOL    HW115521   1.825   2.055  16.038  1.6196 -0.0126 -0.3783
 1295SOL    HW215522   1.906   1.966  16.127  0.4106  2.3796 -0.9121
 1296SOL     OW15523   1.511   0.731   3.632 -0.0419 -0.1800 -0.7933
 1296SOL    HW115524   1.428   0.714   3.678 -0.6759  0.3599 -1.7413
 1296SOL    HW215525   1.489   0.703   3.543 -2.1500  1.9828 -0.9563
 1297SOL     OW15526   2.465   0.648   6.583 -0.5641 -0.1117  0.0298
 1297SOL    HW115527   2.515   0.574   6.618  2.0097  1.2372 -0.7486
 1297SOL    HW215528   2.441   0.707   6.654 -0.7901 -1.4565  1.0556
 1298SOL     OW15529   0.229   1.194  17.712 -0.1111 -0.4835  0.1004
 1298SOL    HW115530   0.321   1.169  17.704 -0.6775 -2.9200  1.2573
 1298SOL    HW215531   0.191   1.175  17.627 -1.4877 -0.0021  0.6145
 1299SOL     OW15532   1.948   3.792   4.129 -0.1251 -0.1585  1.0517
 1299SOL    HW115533   1.995   3.779   4.047  2.9376 -2.4099  3.1759
 1299SOL    HW215534   1.888   3.718   4.125 -2.8081  2.0019  1.0061
 1300SOL     OW15535   1.581   4.255   7.014 -0.3729 -0.2319 -0.1799
 1300SOL    HW115536   1.504   4.288   6.967  0.8043  1.8354 -0.6575
 1300SOL    HW215537   1.633   4.334   7.029 -1.6404  0.3462  1.1140
 1301SOL     OW15538   0.521   0.402   9.061  0.3835 -0.3814 -0.1991
 1301SOL    HW115539   0.477   0.448   9.132 -1.9740  0.1121 -1.9897
 1301SOL    HW215540   0.597   0.457   9.044  0.5673 -0.8070 -0.7458
 1302SOL     OW15541   4.675   3.415   4.670  0.2261 -0.0578 -0.0421
 1302SOL    HW115542   4.666   3.465   4.751  0.7856  1.6670 -1.0174
 1302SOL    HW215543   4.604   3.354   4.689  0.1775  0.5541  1.7020
 1303SOL     OW15544   0.396   4.555   7.397  0.5317  0.0001 -0.2794
 1303SOL    HW115545   0.365   4.490   7.334 -0.6227  0.0224  0.2559
 1303SOL    HW215546   0.389   4.512   7.483  0.2617  0.9887  0.1907
 1304SOL     OW15547   3.994   4.607   4.558 -0.0132  0.2777  0.3048
 1304SOL    HW115548   4.073   4.620   4.612 -0.0507 -0.0355  0.4339
 1304SOL    HW215549   3.983   4.513   4.571 -0.6717  0.5815  1.9324
 1305SOL     OW15550   0.840   3.137   0.815  0.1981 -0.6498 -0.2056
 1305SOL    HW115551   0.909   3.202   0.828  1.0510 -1.5300 -0.3101
 1305SOL    HW215552   0.829   3.143   0.720  1.3971 -2.5395 -0.4515
 1306SOL     OW15553   0.955   0.148   1.884 -0.0971 -0.1120 -0.1120
 1306SOL    HW115554   0.996   0.205   1.949 -1.5510  1.4090 -0.5330
 1306SOL    HW215555   0.866   0.143   1.918 -0.4102  2.0735 -0.5890
 1307SOL     OW15556   3.724   2.725   1.094 -0.0165  0.0844  0.2281
 1307SOL    HW115557   3.677   2.670   1.031 -2.5859 -0.8813  3.0406
 1307SOL    HW215558   3.674   2.806   1.084  1.8224  1.1341 -0.5877
 1308SOL     OW15559   3.371   2.884   2.994 -0.1313  0.1904 -0.2155
 1308SOL    HW115560   3.421   2.966   2.994 -1.3584  0.9425  1.7895
 1308SOL    HW215561   3.418   2.831   3.058  1.3665  0.9647 -0.6832
 1309SOL     OW15562   3.700   2.986   1.040  0.3440  0.3338  0.5114
 1309SOL    HW115563   3.696   3.062   1.098  1.2437  1.8297 -1.3903
 1309SOL    HW215564   3.623   3.000   0.984 -0.7642 -1.3708  1.6055
 1310SOL     OW15565   0.362   4.665   4.146  0.2420 -0.0791  0.1046
 1310SOL    HW115566   0.320   4.662   4.061 -3.0055 -1.9219  1.7893
 1310SOL    HW215567   0.366   0.016   4.177  1.2875  0.7918 -2.5841
 1311SOL     OW15568   0.787   3.950   7.183 -0.0107 -0.5359  0.0062
 1311SOL    HW115569   0.794   3.981   7.092 -0.0037  1.4048  0.6662
 1311SOL    HW215570   0.878   3.957   7.212 -0.5139  3.4500  0.5928
 1312SOL     OW15571   4.510   0.375   9.099 -0.0690  0.0110 -1.0464
 1312SOL    HW115572   4.518   0.313   9.171  0.5686  0.2974 -0.8768
 1312SOL    HW215573   4.478   0.455   9.142  0.6534  0.0530 -0.6041
 1313SOL     OW15574   0.926   3.929   4.972  0.5474 -0.5371  0.2299
 1313SOL    HW115575   0.986   3.869   4.926  1.4691  1.5205 -1.2479
 1313SOL    HW215576   0.971   3.938   5.056  2.2402 -1.6470 -0.5501
 1314SOL     OW15577   0.130   3.259   3.885 -0.5777  0.2687 -0.2529
 1314SOL    HW115578   0.215   3.223   3.862  0.0328  1.2129  0.5434
 1314SOL    HW215579   0.153   3.349   3.908 -0.0810 -0.0231  0.3569
 1315SOL     OW15580   0.205   2.923   6.133  0.4288 -0.0522 -0.2170
 1315SOL    HW115581   0.148   2.888   6.201  3.8058 -2.2767  1.4097
 1315SOL    HW215582   0.268   2.968   6.189  0.0601 -1.0525  0.9886
 1316SOL     OW15583   0.447   1.195   3.752 -0.5782  0.0971 -0.0155
 1316SOL    HW115584   0.532   1.175   3.792 -1.7674 -0.3928  2.2712
 1316SOL    HW215585   0.477   1.244   3.675  0.3914 -1.9871 -0.9465
 1317SOL     OW15586   2.286   3.043   7.999  0.5883  0.3827  0.2250
 1317SOL    HW115587   2.338   2.993   7.936 -0.1670 -0.2573  0.1162
 1317SOL    HW215588   2.346   3.037   8.074 -1.0305  0.0006  1.4843
 1318SOL     OW15589   3.862   0.822   5.497  0.0380  0.1216  0.9449
 1318SOL    HW115590   3.850   0.845   5.589  0.2240  0.1127  0.9708
 1318SOL    HW215591   3.851   0.909   5.459 -0.9482  0.4826  2.0440
 1319SOL     OW15592   1.627   3.615   3.405  0.2433  0.2089 -0.8738
 1319SOL    HW115593   1.547   3.667   3.402 -0.6341 -1.0735  0.4813
 1319SOL    HW215594   1.681   3.680   3.359 -0.6738  0.8567 -1.0351
 1320SOL     OW15595   3.429   2.174   5.961 -0.0742 -0.0883  0.0084
 1320SOL    HW115596   3.354   2.234   5.956  1.2789  1.5612 -0.3825
 1320SOL    HW215597   3.384   2.094   5.933  2.7847 -1.5963 -0.3205
 1321SOL     OW15598   2.795   1.842   8.128 -0.1724 -0.0068  0.2334
 1321SOL    HW115599   2.822   1.933   8.118 -2.1529  0.6126  0.5708
 1321SOL    HW215600   2.887   1.815   8.125 -0.4401 -0.7758 -1.4001
 1322SOL     OW15601   1.126   4.513   7.455 -0.1684  0.4505  0.1894
 1322SOL    HW115602   1.117   4.423   7.422  1.1688  0.1445  0.6828
 1322SOL    HW215603   1.110   4.559   7.372  1.3179  0.3398 -0.1635
 1323SOL     OW15604   1.130   2.975   8.494  0.0669 -0.3588 -0.1027
 1323SOL    HW115605   1.118   2.891   8.450  0.8541 -0.7743  0.4768
 1323SOL    HW215606   1.224   2.979   8.509 -0.1413  1.8090  0.6561
 1324SOL     OW15607   1.699   1.319  16.941  0.1518 -0.0999  0.0627
 1324SOL    HW115608   1.707   1.263  16.864 -0.4064 -0.4234  0.2404
 1324SOL    HW215609   1.779   1.372  16.938  0.7351 -0.9524  0.7559
 1325SOL     OW15610   0.116   2.870  10.254 -0.4056  0.3802  0.0417
 1325SOL    HW115611   0.208   2.882  10.233  0.0344  1.0936  2.3557
 1325SOL    HW215612   0.094   2.963  10.260  3.0453  1.1895  0.0159
 1326SOL     OW15613   0.819   1.602   3.892  0.3879 -0.3565  0.1569
 1326SOL    HW115614   0.778   1.517   3.879  2.1856 -1.5384  2.2027
 1326SOL    HW215615   0.878   1.603   3.817 -0.1706  0.1138 -0.2754
 1327SOL     OW15616   1.295   1.128   7.718 -0.4144  0.2295  0.1101
 1327SOL    HW115617   1.295   1.033   7.729 -1.6142  0.2797  0.5193
 1327SOL    HW215618   1.255   1.157   7.800  0.6970 -1.1520  1.1475
 1328SOL     OW15619   2.398   0.313   5.277 -0.5403  0.3312  0.2932
 1328SOL    HW115620   2.398   0.217   5.279 -3.5593  0.3354 -0.4072
 1328SOL    HW215621   2.423   0.333   5.367 -0.5261 -3.8922  1.2207
 1329SOL     OW15622   3.623   0.075   8.062 -0.2674 -0.2043 -0.3463
 1329SOL    HW115623   3.536   0.035   8.062 -1.0746  1.5557 -0.2170
 1329SOL    HW215624   3.631   0.068   7.967  0.4671 -1.3987 -0.2001
 1330SOL     OW15625   3.218   3.151   8.854  0.0027  0.2247 -0.2509
 1330SOL    HW115626   3.222   3.241   8.823  0.8666  0.4190  0.4235
 1330SOL    HW215627   3.204   3.168   8.947 -2.9611 -1.6567 -0.3735
 1331SOL     OW15628   0.315   3.151   5.157 -0.1371 -0.2694 -0.0766
 1331SOL    HW115629   0.335   3.059   5.138  0.3867 -0.1931  0.1159
 1331SOL    HW215630   0.265   3.164   5.076  1.3428 -0.3054 -1.0122
 1332SOL     OW15631   1.208   1.978  11.905 -0.5351 -0.3853 -0.0543
 1332SOL    HW115632   1.226   1.885  11.919 -1.3393 -0.3712  1.0417
 1332SOL    HW215633   1.118   1.970  11.873 -0.8124 -1.0128  0.8740
 1333SOL     OW15634   1.231   0.416   3.606  0.1783  0.1455 -0.4561
 1333SOL    HW115635   1.220   0.495   3.658 -0.7879 -1.2558  1.4640
 1333SOL    HW215636   1.205   0.349   3.670  0.0989  1.0167  0.4167
 1334SOL     OW15637   4.437   1.672   9.188  0.4754  0.0588 -0.3667
 1334SOL    HW115638   4.504   1.613   9.152 -0.5907 -1.9313  0.9119
 1334SOL    HW215639   4.487   1.737   9.237  0.0671 -1.8772  2.6404
 1335SOL     OW15640   3.163   0.403   8.613 -0.2107 -0.0129 -0.0415
 1335SOL    HW115641   3.089   0.447   8.656 -1.9989 -2.6220 -0.5034
 1335SOL    HW215642   3.217   0.381   8.689 -1.2680 -2.7718 -0.0974
 1336SOL     OW15643   4.454   3.619   2.430 -0.0802 -0.0602 -0.1066
 1336SOL    HW115644   4.391   3.617   2.359 -1.6912 -0.6620  1.3439
 1336SOL    HW215645   4.437   3.530   2.461  0.1366 -0.3247 -0.7558
 1337SOL     OW15646   4.646   4.307   7.841 -0.3216 -0.1119  0.1829
 1337SOL    HW115647   4.694   4.305   7.924 -1.0093 -0.9428  0.5686
 1337SOL    HW215648   4.719   4.280   7.785 -0.0735  1.1872 -0.1095
 1338SOL     OW15649   4.260   0.916   7.044 -0.2523 -0.1885  0.0424
 1338SOL    HW115650   4.321   0.984   7.017 -0.6264 -0.6343 -1.9438
 1338SOL    HW215651   4.304   0.882   7.122  0.9691  0.7254 -0.2478
 1339SOL     OW15652   0.550   4.663  13.543 -0.2035 -0.3236 -0.1080
 1339SOL    HW115653   0.570   4.591  13.604 -0.4640  0.2554  0.6583
 1339SOL    HW215654   0.466   4.627  13.512 -1.5706  2.3170  0.5691
 1340SOL     OW15655   3.111   2.390   4.720  0.3683  0.3127  0.0583
 1340SOL    HW115656   3.025   2.374   4.761  0.7935  0.3137  0.9597
 1340SOL    HW215657   3.172   2.356   4.785  0.1834  0.5396  0.3528
 1341SOL     OW15658   1.365   1.909   8.907  0.1773  0.1549  0.3057
 1341SOL    HW115659   1.325   1.837   8.957  2.4484 -0.3531  1.4062
 1341SOL    HW215660   1.454   1.900   8.940  0.6350  4.2998  0.1877
 1342SOL     OW15661   0.951   3.109   6.244 -0.0755 -0.2165 -0.2618
 1342SOL    HW115662   0.997   3.044   6.297  0.0954  0.1873  0.0821
 1342SOL    HW215663   0.954   3.185   6.303  2.3488 -0.1252 -0.5067
 1343SOL     OW15664   3.591   4.554   4.174 -0.2418 -0.0324  0.2500
 1343SOL    HW115665   3.637   4.637   4.161  0.4640 -0.0344  2.7161
 1343SOL    HW215666   3.649   4.519   4.241 -1.1696  0.4909  1.3154
 1344SOL     OW15667   2.613   1.588   0.418  0.2493 -0.1673  0.2628
 1344SOL    HW115668   2.522   1.613   0.402  0.1835  1.6507  3.4605
 1344SOL    HW215669   2.599   1.529   0.492 -2.4416 -0.0256 -0.1160
 1345SOL     OW15670   3.854   4.525   9.900 -0.0900  0.5183  0.0498
 1345SOL    HW115671   3.882   4.615   9.916  1.4604  0.4753 -2.3853
 1345SOL    HW215672   3.906   4.473   9.961 -2.7976 -2.1284  0.0875
 1346SOL     OW15673   1.623   1.003   0.748  0.4461  0.2364 -0.4540
 1346SOL    HW115674   1.556   0.941   0.718  1.4681 -0.7178 -0.7682
 1346SOL    HW215675   1.705   0.955   0.746 -0.8826 -2.0895  1.1410
 1347SOL     OW15676   3.607   0.841   9.387 -0.6742  0.5759 -0.2277
 1347SOL    HW115677   3.613   0.749   9.414 -1.1761  0.3488 -0.8885
 1347SOL    HW215678   3.545   0.874   9.452 -0.9840  1.6909 -1.0981
 1348SOL     OW15679   2.771   3.444  17.453 -0.0134  0.1443 -0.5439
 1348SOL    HW115680   2.816   3.449  17.537  1.0738  0.1277 -1.1337
 1348SOL    HW215681   2.791   3.358  17.416  3.8240  0.4712  0.8162
 1349SOL     OW15682   1.958   1.694  15.319  0.1640  0.1318  0.1303
 1349SOL    HW115683   1.908   1.712  15.399  1.6667  3.4926  0.3531
 1349SOL    HW215684   1.891   1.708  15.252  1.0328 -2.3527 -1.2372
 1350SOL     OW15685   3.610   1.076   2.780 -0.0802 -0.2661 -0.2974
 1350SOL    HW115686   3.621   0.981   2.784  1.2292 -0.2074 -2.1285
 1350SOL    HW215687   3.612   1.087   2.875  0.3602  1.0573 -0.4629
 1351SOL     OW15688   4.318   2.627   7.150  0.0251 -0.0951 -0.0112
 1351SOL    HW115689   4.285   2.538   7.148  1.6162 -0.6787 -0.0175
 1351SOL    HW215690   4.365   2.612   7.232  0.1451  0.8494  0.0980
 1352SOL     OW15691   2.325   3.460   7.888 -0.7378 -0.1709  0.4221
 1352SOL    HW115692   2.402   3.412   7.918 -1.1267 -1.4837 -0.7106
 1352SOL    HW215693   2.284   3.393   7.834 -0.2609  0.4608 -0.7263
 1353SOL     OW15694   3.181   2.443  17.677 -0.0907 -0.1813  0.0810
 1353SOL    HW115695   3.127   2.450  17.598  1.9106  1.6838 -1.1246
 1353SOL    HW215696   3.120   2.385  17.721  0.4244  0.4547  1.6454
 1354SOL     OW15697   1.997   3.225   8.371 -0.5057  0.3120  0.0223
 1354SOL    HW115698   1.996   3.315   8.338 -0.4446 -0.2167 -1.3799
 1354SOL    HW215699   2.084   3.203   8.339 -0.5961  1.3722 -0.9574
 1355SOL     OW15700   0.338   3.694   1.443  0.2856  0.2318 -0.1266
 1355SOL    HW115701   0.385   3.775   1.425 -2.3190  1.5257 -0.9891
 1355SOL    HW215702   0.252   3.711   1.406  0.3513 -0.2429 -0.4955
 1356SOL     OW15703   3.051   1.334   5.587 -0.1863  0.4402 -0.2648
 1356SOL    HW115704   3.058   1.313   5.680  0.7527 -1.3303 -0.7337
 1356SOL    HW215705   3.099   1.262   5.546  0.1695  0.5368 -0.0171
 1357SOL     OW15706   0.390   3.324   4.904  0.0575  0.0840 -0.1546
 1357SOL    HW115707   0.458   3.269   4.866  1.4387  0.0016  2.4862
 1357SOL    HW215708   0.307   3.282   4.879 -0.6148  0.7240  0.9881
 1358SOL     OW15709   0.372   0.437   4.028 -0.6461  0.0003 -0.2219
 1358SOL    HW115710   0.357   0.363   4.088  1.5287  0.2940  0.7158
 1358SOL    HW215711   0.345   0.395   3.947  0.0303  0.3140 -0.6103
 1359SOL     OW15712   2.335   2.431   8.904  0.5524 -0.0280 -0.4901
 1359SOL    HW115713   2.381   2.466   8.981 -0.9813 -0.8494  0.7999
 1359SOL    HW215714   2.359   2.502   8.844 -0.4398  2.2376  1.7804
 1360SOL     OW15715   1.900   3.534   1.675 -0.8822  0.4038 -0.4875
 1360SOL    HW115716   1.859   3.544   1.589 -3.1529  1.8544  0.7718
 1360SOL    HW215717   1.843   3.478   1.727  0.2754  1.4181  1.8686
 1361SOL     OW15718   3.276   2.693   6.909 -0.6050  0.7376 -0.5815
 1361SOL    HW115719   3.235   2.780   6.912 -1.5992  0.1818  2.9082
 1361SOL    HW215720   3.205   2.639   6.874  0.4953 -2.1352  1.6350
 1362SOL     OW15721   3.206   1.899  12.444 -0.2799  0.2437 -0.9094
 1362SOL    HW115722   3.162   1.885  12.360 -0.5179  0.0327 -0.7509
 1362SOL    HW215723   3.174   1.985  12.472  0.1160 -0.2622  1.1102
 1363SOL     OW15724   1.625   3.202   4.292 -0.2299 -0.6617  0.0492
 1363SOL    HW115725   1.557   3.188   4.227 -0.8545 -2.6556  1.1382
 1363SOL    HW215726   1.667   3.282   4.259 -0.4608 -0.5852 -0.0619
 1364SOL     OW15727   4.425   4.388  11.131  0.2658 -0.2643 -0.1659
 1364SOL    HW115728   4.497   4.385  11.194 -0.5500  0.9532  0.8333
 1364SOL    HW215729   4.467   4.436  11.059  0.4392 -0.0453  0.0776
 1365SOL     OW15730   4.491   2.884  15.558  0.2628  0.4718 -0.1434
 1365SOL    HW115731   4.522   2.910  15.471 -0.7730  2.5539  0.1203
 1365SOL    HW215732   4.516   2.796  15.586  1.4899  0.8266 -0.1394
 1366SOL     OW15733   4.492   2.410   4.045  0.1790 -0.4046  0.0319
 1366SOL    HW115734   4.488   2.472   4.117 -3.4973 -0.6426  0.0539
 1366SOL    HW215735   4.557   2.452   3.988  1.3685 -1.4771  0.6204
 1367SOL     OW15736   3.430   3.034   4.360 -0.7002 -0.0470 -1.0469
 1367SOL    HW115737   3.365   3.015   4.292 -1.1838 -1.9028 -0.0457
 1367SOL    HW215738   3.393   3.117   4.389 -0.0166  0.4317 -1.5341
 1368SOL     OW15739   3.762   3.315  10.557  0.6587  0.1502 -0.0615
 1368SOL    HW115740   3.798   3.307  10.468  2.2576  1.7388  0.4374
 1368SOL    HW215741   3.819   3.386  10.585  0.6983 -0.1159  0.5296
 1369SOL     OW15742   2.316   0.261   4.020  0.1569 -0.0572  0.0424
 1369SOL    HW115743   2.334   0.223   3.934  0.0710 -0.8600  0.3748
 1369SOL    HW215744   2.229   0.226   4.040  0.3179 -0.9948 -0.8410
 1370SOL     OW15745   2.524   1.165  16.224 -0.2206  1.0423 -0.4776
 1370SOL    HW115746   2.597   1.199  16.173  1.5169  0.7516  1.8133
 1370SOL    HW215747   2.567   1.109  16.289 -1.9373  1.1484  0.7508
 1371SOL     OW15748   1.776   0.164   8.044 -0.4128  0.1424 -0.1669
 1371SOL    HW115749   1.756   0.207   8.127 -1.1702  0.8202 -0.7061
 1371SOL    HW215750   1.734   0.233   7.992 -1.5582 -0.4236  0.0011
 1372SOL     OW15751   0.524   2.931   3.491  0.5998  0.7097 -0.3512
 1372SOL    HW115752   0.506   2.841   3.464 -1.3823  0.4045  1.8872
 1372SOL    HW215753   0.618   2.944   3.489  0.4273  1.6757 -1.5736
 1373SOL     OW15754   3.993   2.898  16.781  0.0047  0.0551 -0.0723
 1373SOL    HW115755   3.935   2.872  16.708  1.3475 -0.7174 -0.8678
 1373SOL    HW215756   3.935   2.966  16.817 -1.4717  1.3049 -4.7763
 1374SOL     OW15757   4.693   2.828   6.021 -0.1532 -0.1644 -0.0988
 1374SOL    HW115758   4.694   2.767   6.096 -3.8649  0.2046  0.2763
 1374SOL    HW215759   4.627   2.893   6.045  0.1836  1.5713 -3.9952
 1375SOL     OW15760   4.288   3.327  10.246  0.3987 -0.3583 -0.0621
 1375SOL    HW115761   4.364   3.370  10.285  0.3681  0.5710 -1.0319
 1375SOL    HW215762   4.259   3.405  10.198 -1.9446 -0.6609  0.8181
 1376SOL     OW15763   0.486   0.374   5.210 -0.0778 -0.1083 -0.2975
 1376SOL    HW115764   0.393   0.363   5.228  0.6960 -2.2135  2.3076
 1376SOL    HW215765   0.528   0.355   5.293  0.0002  2.3405  0.2389
 1377SOL     OW15766   0.476   3.972   5.771  0.0741 -0.1090 -0.0018
 1377SOL    HW115767   0.536   3.899   5.790 -0.6338 -0.0426  2.4707
 1377SOL    HW215768   0.473   4.011   5.858  2.5588 -0.1178  0.0959
 1378SOL     OW15769   1.196   1.187  12.714 -0.1171  0.3962  0.0322
 1378SOL    HW115770   1.240   1.165  12.632 -0.2006 -2.5602  0.7933
 1378SOL    HW215771   1.124   1.246  12.691  0.4479  2.0638  2.6538
 1379SOL     OW15772   0.747   0.290   7.628  0.0267 -0.0099  0.1044
 1379SOL    HW115773   0.668   0.239   7.612 -1.2220  2.0074 -0.0627
 1379SOL    HW215774   0.736   0.351   7.555  0.4009  0.2905  0.2993
 1380SOL     OW15775   4.677   0.526  16.469  0.7229  0.4816  0.6170
 1380SOL    HW115776   4.655   0.532  16.376  1.2676 -2.1097  0.3024
 1380SOL    HW215777   4.713   0.611  16.492  2.1147  0.2711 -0.7902
 1381SOL     OW15778   1.206   1.500   6.226 -0.4224 -0.0195 -0.1127
 1381SOL    HW115779   1.295   1.532   6.243 -0.1188 -0.7212 -0.4038
 1381SOL    HW215780   1.193   1.423   6.280 -0.2777 -0.0661 -0.1452
 1382SOL     OW15781   1.665   0.266   2.168 -0.1692  0.4348  0.3367
 1382SOL    HW115782   1.652   0.228   2.255  0.5960  0.8394  0.6214
 1382SOL    HW215783   1.723   0.340   2.186 -0.3776  0.3352  1.4391
 1383SOL     OW15784   4.142   2.577   9.415  0.2198  0.4207 -0.2097
 1383SOL    HW115785   4.144   2.531   9.499  0.7295  1.2203  0.2183
 1383SOL    HW215786   4.229   2.618   9.414  1.0603 -1.3358 -0.6327
 1384SOL     OW15787   3.608   3.955   8.443  0.2683  0.2018  0.1891
 1384SOL    HW115788   3.523   3.943   8.486 -0.0250  0.7221 -0.2504
 1384SOL    HW215789   3.671   3.975   8.513  0.7396 -1.2807  0.1813
 1385SOL     OW15790   0.305   4.378   3.867 -0.3013 -0.2822  0.5817
 1385SOL    HW115791   0.242   4.444   3.836  0.6023  1.0351  1.5819
 1385SOL    HW215792   0.250   4.302   3.888 -0.1529 -0.8319 -1.0677
 1386SOL     OW15793   0.326   3.064   5.933 -0.3548 -0.4182 -0.2072
 1386SOL    HW115794   0.264   3.049   5.862 -2.4006 -1.1034  1.6958
 1386SOL    HW215795   0.272   3.010   5.991 -1.3414  0.0721 -0.6750
 1387SOL     OW15796   0.283   4.560   8.306 -0.9489 -0.0646 -0.5765
 1387SOL    HW115797   0.279   4.509   8.387 -1.6318 -1.4599 -1.4897
 1387SOL    HW215798   0.323   4.494   8.249  0.4771  0.3869 -0.1021
 1388SOL     OW15799   3.801   0.731  11.825  0.1562  0.4542  0.2084
 1388SOL    HW115800   3.786   0.803  11.886 -2.1576  1.3239 -1.3929
 1388SOL    HW215801   3.712   0.717  11.794  0.2706  1.2493 -0.4699
 1389SOL     OW15802   3.948   1.478   6.955  0.4265 -0.1484 -0.1606
 1389SOL    HW115803   3.917   1.528   7.030 -1.5095 -0.9571 -0.4291
 1389SOL    HW215804   3.880   1.410   6.954 -0.3808  0.6370  0.9115
 1390SOL     OW15805   2.276   1.454   0.329 -0.3901 -0.0492 -0.3961
 1390SOL    HW115806   2.276   1.514   0.404  0.5163 -1.4692  0.7370
 1390SOL    HW215807   2.190   1.453   0.288 -0.5384 -1.6921 -0.0510
 1391SOL     OW15808   0.423   3.685   6.914 -0.1995 -0.3170  0.1872
 1391SOL    HW115809   0.334   3.720   6.920  0.3369  1.0832 -0.2011
 1391SOL    HW215810   0.409   3.591   6.902 -0.0006 -0.4069  0.6544
 1392SOL     OW15811   0.832   1.867   0.240 -0.1062 -0.7132  0.6086
 1392SOL    HW115812   0.821   1.798   0.305 -0.5869  0.4969  1.8230
 1392SOL    HW215813   0.745   1.906   0.226  0.7524  1.2280  0.7044
 1393SOL     OW15814   4.089   0.401   5.337 -0.3057  0.3167 -0.4831
 1393SOL    HW115815   4.129   0.314   5.335  0.4768  0.6304  1.3330
 1393SOL    HW215816   4.039   0.387   5.417 -0.9013  0.6739 -0.7999
 1394SOL     OW15817   4.635   3.872   1.597 -0.7269 -0.6335 -0.1373
 1394SOL    HW115818   4.664   3.850   1.509 -2.7661 -2.3991 -0.3550
 1394SOL    HW215819   4.640   3.968   1.599  1.1173 -0.7652  2.0472
 1395SOL     OW15820   4.325   2.610   9.035  0.2028  0.6404  0.1722
 1395SOL    HW115821   4.305   2.525   9.074  0.6563  1.3401  1.9631
 1395SOL    HW215822   4.281   2.671   9.095 -0.8852  0.6384 -0.6322
 1396SOL     OW15823   2.049   3.161   9.946 -0.2275  0.1711 -0.1264
 1396SOL    HW115824   2.046   3.224   9.874  2.9321  1.0801  0.5226
 1396SOL    HW215825   2.105   3.213  10.003 -0.9205  0.4943  0.2444
 1397SOL     OW15826   0.902   0.255   5.797 -0.7204 -0.1395 -0.0536
 1397SOL    HW115827   0.854   0.319   5.746  1.6545  1.4105 -0.3519
 1397SOL    HW215828   0.908   0.183   5.734 -0.2311  0.4992 -0.7311
 1398SOL     OW15829   3.923   2.757   4.542 -0.0359  0.2938 -0.1604
 1398SOL    HW115830   3.855   2.728   4.603 -0.9594  0.6129 -1.0602
 1398SOL    HW215831   3.984   2.796   4.604  0.7190 -1.3518  0.1494
 1399SOL     OW15832   4.413   2.326   6.481 -0.1642  0.4294 -0.4376
 1399SOL    HW115833   4.339   2.368   6.437 -0.9860 -0.9559 -0.3797
 1399SOL    HW215834   4.364   2.295   6.557  2.6226  0.3354  1.3226
 1400SOL     OW15835   0.156   2.104   8.902  0.1757  0.1715  0.3863
 1400SOL    HW115836   0.068   2.101   8.941  0.8101  0.0758  1.8126
 1400SOL    HW215837   0.133   2.095   8.809  1.4934  1.1052 -0.0260
 1401SOL     OW15838   2.766   1.856   3.575  0.3406  0.2794  0.5635
 1401SOL    HW115839   2.783   1.777   3.524  0.3696  1.2466 -0.9189
 1401SOL    HW215840   2.852   1.895   3.591  1.0508 -0.4153 -1.6310
 1402SOL     OW15841   1.375   2.757  14.749 -0.0984 -0.3780  0.0498
 1402SOL    HW115842   1.301   2.792  14.699  1.7219  1.1024 -1.6239
 1402SOL    HW215843   1.431   2.738  14.673  1.8840  3.2423  0.5963
 1403SOL     OW15844   4.399   1.816   7.628  0.1576 -0.2800 -0.2234
 1403SOL    HW115845   4.402   1.798   7.722 -1.4619 -1.2591 -0.3692
 1403SOL    HW215846   4.466   1.883   7.615  1.4489 -1.3835  0.6931
 1404SOL     OW15847   2.558   2.213   7.963 -0.0591  0.1122  0.4123
 1404SOL    HW115848   2.651   2.223   7.987  0.0997  1.6638 -0.7925
 1404SOL    HW215849   2.557   2.118   7.951  0.1146  0.0586  0.8209
 1405SOL     OW15850   4.717   4.351  11.171 -0.6096  0.5480 -0.2488
 1405SOL    HW115851   4.723   4.328  11.264  1.1228  2.1701  0.0300
 1405SOL    HW215852   0.038   4.424  11.175  0.0814 -0.0565  0.1863
 1406SOL     OW15853   2.899   4.046   1.687  0.3040 -0.0344  0.7445
 1406SOL    HW115854   2.891   4.002   1.602  0.1123  0.7169  0.3814
 1406SOL    HW215855   2.810   4.059   1.719  0.7902  0.7784  1.7660
 1407SOL     OW15856   3.427   0.245  12.988  0.5436 -0.2731 -0.5662
 1407SOL    HW115857   3.341   0.224  13.024  2.0619  1.7529  4.2650
 1407SOL    HW215858   3.482   0.177  13.027 -0.3993 -0.7023 -0.0058
 1408SOL     OW15859   3.552   4.738   8.988  0.2011  0.1490  0.2322
 1408SOL    HW115860   3.509   0.019   8.905  0.3877  0.4179  0.2006
 1408SOL    HW215861   3.476   4.724   9.044  0.0447  2.9237  0.7475
 1409SOL     OW15862   4.457   2.178  15.701 -0.4406 -0.8672 -0.0619
 1409SOL    HW115863   4.436   2.272  15.699 -2.2993 -1.2589  1.4603
 1409SOL    HW215864   4.419   2.152  15.785  0.9362  2.1137  1.5002
 1410SOL     OW15865   0.102   3.989   9.133 -0.3934 -0.5271 -0.6915
 1410SOL    HW115866   0.182   3.986   9.186 -0.1556  2.4615 -0.9134
 1410SOL    HW215867   0.041   4.011   9.203 -1.3053 -1.2122 -1.2720
 1411SOL     OW15868   3.616   0.035  14.960 -0.2432 -0.6088 -0.5727
 1411SOL    HW115869   3.624   0.044  14.865  3.6975  1.1720 -0.0939
 1411SOL    HW215870   3.568   4.693  14.969 -0.3324 -0.4394  0.5844
 1412SOL     OW15871   0.287   0.782  14.569 -0.2976  0.0138 -0.3528
 1412SOL    HW115872   0.305   0.869  14.604  0.9159  0.0977 -1.1928
 1412SOL    HW215873   0.346   0.788  14.494 -0.7160  0.2043 -0.6711
 1413SOL     OW15874   2.054   3.730   1.243  0.5262 -0.0812  0.4313
 1413SOL    HW115875   2.136   3.757   1.202 -0.1500 -0.4618 -1.1634
 1413SOL    HW215876   2.086   3.661   1.301  0.2387 -0.4125  0.1922
 1414SOL     OW15877   0.239   3.504   3.205  0.2745 -0.0905  0.1916
 1414SOL    HW115878   0.216   3.592   3.175  0.1709 -1.0066 -2.3716
 1414SOL    HW215879   0.148   3.475   3.197  0.5659 -1.2985  1.2982
 1415SOL     OW15880   1.130   3.573   4.513 -0.3797  0.6564  0.2915
 1415SOL    HW115881   1.197   3.602   4.575  0.2619  0.3343 -0.2530
 1415SOL    HW215882   1.158   3.483   4.496 -1.1990  0.5552 -0.4843
 1416SOL     OW15883   0.766   1.111  15.565  1.1817 -0.3583  0.4372
 1416SOL    HW115884   0.729   1.049  15.502  3.0127  0.1989 -1.1719
 1416SOL    HW215885   0.708   1.096  15.641  0.5953 -0.0252  0.0559
 1417SOL     OW15886   1.605   0.383   3.113  0.4897 -0.2977  0.4770
 1417SOL    HW115887   1.575   0.435   3.039 -0.5649  0.5700  1.5140
 1417SOL    HW215888   1.521   0.340   3.123  0.2326  0.2952  0.8750
 1418SOL     OW15889   3.676   3.709   2.747  0.3082 -0.2347  0.2561
 1418SOL    HW115890   3.587   3.741   2.733  1.0645  0.7805 -2.1910
 1418SOL    HW215891   3.730   3.735   2.673  1.2248 -0.7654  0.7356
 1419SOL     OW15892   0.949   1.126   6.531 -0.3429 -0.7597 -0.1941
 1419SOL    HW115893   0.867   1.176   6.524  0.2138 -0.1043 -1.8885
 1419SOL    HW215894   0.921   1.068   6.602 -0.3490  1.0108  1.2558
 1420SOL     OW15895   2.705   2.748  14.777 -0.0834 -0.3587  0.0534
 1420SOL    HW115896   2.650   2.708  14.710 -0.2585  0.8955 -0.5399
 1420SOL    HW215897   2.791   2.732  14.738 -0.4736 -3.9180  0.6255
 1421SOL     OW15898   0.740   1.643   3.429 -0.3196  0.2016 -0.4018
 1421SOL    HW115899   0.731   1.731   3.465  0.6787  0.3569 -0.5164
 1421SOL    HW215900   0.831   1.620   3.448  0.1379  1.0446 -1.5778
 1422SOL     OW15901   4.217   0.755   1.674  0.3803  0.4834 -0.0683
 1422SOL    HW115902   4.210   0.842   1.636  1.3224  0.5073 -0.1921
 1422SOL    HW215903   4.148   0.708   1.626 -0.4863  1.1870  0.5006
 1423SOL     OW15904   2.030   3.473  13.429 -0.1055 -0.3231  0.3489
 1423SOL    HW115905   2.085   3.532  13.378  2.2905 -2.3970  0.5231
 1423SOL    HW215906   2.090   3.399  13.420  0.8522 -0.0136  4.4614
 1424SOL     OW15907   1.596   0.214   4.601 -0.4458 -0.1795  0.5276
 1424SOL    HW115908   1.558   0.302   4.600 -0.9333 -0.4246 -2.4031
 1424SOL    HW215909   1.533   0.153   4.641 -0.4405  0.8598  2.1274
 1425SOL     OW15910   2.858   2.583   4.562 -0.6229  0.0134 -0.4656
 1425SOL    HW115911   2.852   2.506   4.506 -1.9299  1.4790 -2.3487
 1425SOL    HW215912   2.776   2.629   4.544 -2.0113 -1.7836  1.2992
 1426SOL     OW15913   3.412   1.700   1.966  0.0653  0.2683 -0.9207
 1426SOL    HW115914   3.350   1.768   1.942 -1.8093 -0.4732  1.8180
 1426SOL    HW215915   3.486   1.745   1.924  2.0438 -2.6196 -0.5615
 1427SOL     OW15916   1.531   4.661   7.895 -0.1371 -0.1070  0.3897
 1427SOL    HW115917   1.436   4.660   7.903 -0.1191 -0.4014  0.5767
 1427SOL    HW215918   1.557   4.682   7.985  0.9637  1.2375 -0.2536
 1428SOL     OW15919   2.747   3.112   2.834 -0.2912  0.0691  0.3090
 1428SOL    HW115920   2.801   3.109   2.755  0.7392  1.4913  0.9664
 1428SOL    HW215921   2.750   3.207   2.822  1.1495  0.0504  0.4836
 1429SOL     OW15922   0.989   1.978  13.773 -0.5805  0.4821  0.4707
 1429SOL    HW115923   0.942   2.045  13.822  0.6926  1.5933  0.1794
 1429SOL    HW215924   1.050   2.042  13.737 -0.2797 -0.2398 -0.2954
 1430SOL     OW15925   2.961   2.738   7.132 -0.0211  0.2322  0.4109
 1430SOL    HW115926   2.895   2.702   7.072  0.8019  1.4207 -1.2297
 1430SOL    HW215927   3.005   2.797   7.070 -3.1517  0.8175 -1.2555
 1431SOL     OW15928   3.569   2.882   9.521  0.0634  0.0964 -0.1370
 1431SOL    HW115929   3.530   2.845   9.600 -1.5594 -0.9003 -1.4264
 1431SOL    HW215930   3.499   2.864   9.459 -1.1318 -1.4266  1.6724
 1432SOL     OW15931   0.949   4.085   8.142  0.4585 -0.1089  0.5967
 1432SOL    HW115932   1.014   4.107   8.075  0.5105 -0.7013  0.4570
 1432SOL    HW215933   0.927   4.175   8.166 -2.6933 -1.0965  1.4568
 1433SOL     OW15934   1.637   1.474  16.350 -0.3114  0.3357 -0.0923
 1433SOL    HW115935   1.715   1.421  16.333 -1.0439 -1.2461  1.4800
 1433SOL    HW215936   1.570   1.427  16.301 -0.8843  0.4641  0.5663
 1434SOL     OW15937   1.107   2.714  13.747  0.4515 -0.3260 -0.2044
 1434SOL    HW115938   1.095   2.650  13.677 -1.4632 -1.7329  1.3979
 1434SOL    HW215939   1.057   2.667  13.814  0.8964 -2.1123 -1.1294
 1435SOL     OW15940   0.977   4.213   4.895 -0.0539  0.0671  0.1711
 1435SOL    HW115941   0.891   4.234   4.857 -0.0980  1.3376  1.0064
 1435SOL    HW215942   0.963   4.120   4.913  0.1040  0.2506  1.2260
 1436SOL     OW15943   2.511   4.701   1.572 -0.4201 -0.1025 -0.6105
 1436SOL    HW115944   2.477   0.048   1.594 -0.6582 -0.0893 -1.0340
 1436SOL    HW215945   2.453   4.646   1.625 -0.6452 -0.2292 -0.9873
 1437SOL     OW15946   0.530   4.692  15.726  0.1964  0.3629 -0.4296
 1437SOL    HW115947   0.545   0.036  15.768 -0.0171  0.3272 -0.2816
 1437SOL    HW215948   0.614   4.645  15.726  0.2647  0.4851 -0.3410
 1438SOL     OW15949   3.903   0.904   4.034 -0.1423 -0.0348  0.0700
 1438SOL    HW115950   3.903   0.991   3.994 -1.5300 -0.4384 -0.8268
 1438SOL    HW215951   3.943   0.845   3.970 -3.6773 -4.0199  1.5311
 1439SOL     OW15952   1.107   2.780   4.984  0.0898  0.0741 -0.0225
 1439SOL    HW115953   1.181   2.839   4.997  0.3512  0.0157 -1.1505
 1439SOL    HW215954   1.121   2.719   5.056  0.6603  1.5099  1.0718
 1440SOL     OW15955   3.730   0.393   9.814 -0.1773 -0.0332  0.3865
 1440SOL    HW115956   3.803   0.445   9.780  0.8271 -2.1896 -0.7312
 1440SOL    HW215957   3.703   0.433   9.897  2.0414  2.2813 -0.0082
 1441SOL     OW15958   4.558   3.833   7.653  0.9961 -0.5094 -0.6983
 1441SOL    HW115959   4.471   3.810   7.688  1.8227 -1.4629  0.7279
 1441SOL    HW215960   4.595   3.748   7.632  0.2555 -1.0753  0.2322
 1442SOL     OW15961   2.308   0.038   9.313  0.4361 -0.0943 -0.2317
 1442SOL    HW115962   2.226   0.008   9.273  0.4829  1.6438 -1.6684
 1442SOL    HW215963   2.366   0.000   9.247  1.7088  0.1786  0.7386
 1443SOL     OW15964   4.095   3.124  15.922 -0.2684 -0.1534 -0.4614
 1443SOL    HW115965   4.002   3.119  15.899 -0.5887  1.9176  0.4001
 1443SOL    HW215966   4.133   3.156  15.840 -0.5352  0.1794 -0.4592
 1444SOL     OW15967   3.324   4.264   3.980 -0.2960  0.1223  0.3530
 1444SOL    HW115968   3.419   4.266   3.991 -0.3401  2.8357  0.2078
 1444SOL    HW215969   3.312   4.270   3.885  0.4731 -0.4717  0.2171
 1445SOL     OW15970   0.556   4.375  17.716  0.4561  0.4547  0.1688
 1445SOL    HW115971   0.511   4.298  17.752 -0.8586  1.2812  0.2995
 1445SOL    HW215972   0.563   4.427   0.039  1.1111  0.8365 -0.1364
 1446SOL     OW15973   2.419   4.059   3.562  0.1939  0.1779  0.0180
 1446SOL    HW115974   2.507   4.073   3.528  1.0597 -1.7265  1.4414
 1446SOL    HW215975   2.435   4.033   3.653  2.2518 -0.0268 -0.4090
 1447SOL     OW15976   0.360   2.896   5.129  0.0788  0.5595  0.1932
 1447SOL    HW115977   0.290   2.831   5.126 -1.5150  2.2717  0.0482
 1447SOL    HW215978   0.434   2.836   5.117 -0.2854 -0.0144  0.8578
 1448SOL     OW15979   3.675   3.975   5.762  0.0371 -0.6916 -0.1166
 1448SOL    HW115980   3.722   4.048   5.802 -0.4943 -1.6106  2.1948
 1448SOL    HW215981   3.583   4.003   5.757 -0.3813 -2.2718 -1.1929
 1449SOL     OW15982   3.396   3.111  16.075 -0.3033 -0.3878 -0.1714
 1449SOL    HW115983   3.377   3.180  16.012 -0.6953 -2.4416 -2.2498
 1449SOL    HW215984   3.482   3.078  16.048 -0.6650 -0.0654 -1.7074
 1450SOL     OW15985   4.377   2.271   6.191  0.0062 -0.0432  0.3475
 1450SOL    HW115986   4.455   2.326   6.198  0.1937 -0.1464 -0.9820
 1450SOL    HW215987   4.380   2.226   6.276  0.4270 -1.2922 -0.3318
 1451SOL     OW15988   1.809   1.385   8.162 -0.0561  0.2460 -0.7863
 1451SOL    HW115989   1.860   1.388   8.243 -2.4986  1.2711  0.6946
 1451SOL    HW215990   1.865   1.399   8.085  1.4275 -1.1118  0.0537
 1452SOL     OW15991   3.068   3.514   6.014 -0.6220  0.0459  0.1992
 1452SOL    HW115992   3.044   3.433   5.969  0.6681 -0.2064 -0.0346
 1452SOL    HW215993   3.089   3.574   5.942  1.2987  0.1659  0.8566
 1453SOL     OW15994   0.676   1.023  11.684 -0.7695  0.5894 -0.4096
 1453SOL    HW115995   0.748   1.005  11.625 -1.0011 -0.6709 -0.3122
 1453SOL    HW215996   0.693   0.970  11.762  0.0485  0.8235 -0.4343
 1454SOL     OW15997   1.753   2.980   2.862 -0.2086 -0.2219 -0.2346
 1454SOL    HW115998   1.742   2.887   2.882  2.4113 -0.9417 -2.1698
 1454SOL    HW215999   1.742   2.978   2.767 -3.4096 -1.6808  0.1855
 1455SOL     OW16000   2.022   2.447  17.691  0.2576  0.2855  0.6669
 1455SOL    HW116001   2.091   2.420  17.630 -1.9997  0.4672 -1.9871
 1455SOL    HW216002   1.962   2.483  17.626 -0.5310  0.3011  1.4034
 1456SOL     OW16003   3.484   0.528   9.060 -0.1022  0.1067 -0.5258
 1456SOL    HW116004   3.407   0.561   9.014 -0.9335 -1.4023 -0.2373
 1456SOL    HW216005   3.436   0.506   9.139  1.7595  1.1075  0.8830
 1457SOL     OW16006   0.400   0.882   5.476 -0.4296 -0.5436  0.1469
 1457SOL    HW116007   0.363   0.847   5.395  0.4747  0.5968 -0.7620
 1457SOL    HW216008   0.485   0.840   5.473 -0.0302  0.1852  1.0841
 1458SOL     OW16009   1.730   1.742   6.719  0.0453  0.3534 -0.1063
 1458SOL    HW116010   1.710   1.731   6.626  1.8057 -0.2592 -0.4313
 1458SOL    HW216011   1.818   1.780   6.721  0.8373 -1.5308  1.1414
 1459SOL     OW16012   1.525   0.391   5.096 -0.2484 -0.0360  0.3391
 1459SOL    HW116013   1.580   0.456   5.051  0.9873 -0.1105  1.7176
 1459SOL    HW216014   1.436   0.411   5.067 -0.1143 -0.1514 -0.1469
 1460SOL     OW16015   1.420   3.380   6.782 -0.1015  0.1254 -0.1199
 1460SOL    HW116016   1.334   3.343   6.806  0.7659 -2.3606 -0.8846
 1460SOL    HW216017   1.440   3.435   6.858  1.0960 -2.2215  1.2826
 1461SOL     OW16018   1.221   2.828   3.846 -0.1024  0.5603 -0.3233
 1461SOL    HW116019   1.175   2.852   3.766  0.0634  0.6775 -0.3841
 1461SOL    HW216020   1.172   2.755   3.883 -2.1233  1.2126 -1.6959
 1462SOL     OW16021   4.426   3.039   6.432  0.1421  0.1038 -0.1521
 1462SOL    HW116022   4.338   3.057   6.399 -1.0303 -0.1176  2.8660
 1462SOL    HW216023   4.466   3.118   6.469 -1.0565  1.3462 -1.5078
 1463SOL     OW16024   2.446   3.608   5.312  0.3690  0.4318  0.1526
 1463SOL    HW116025   2.414   3.614   5.402  2.1580 -3.2406  1.0191
 1463SOL    HW216026   2.366   3.623   5.262 -1.0391 -2.2446  1.6058
 1464SOL     OW16027   2.175   3.996   3.147 -0.0852 -0.1238 -0.5139
 1464SOL    HW116028   2.204   3.907   3.163  3.0906  0.6894 -1.5808
 1464SOL    HW216029   2.146   3.986   3.056  0.1390 -0.1307 -0.5854
 1465SOL     OW16030   1.216   0.692  17.608  0.2340  0.4201 -0.2262
 1465SOL    HW116031   1.154   0.714  17.538  0.5435 -0.3763 -0.7534
 1465SOL    HW216032   1.230   0.600  17.584 -1.6024  0.0830 -0.0330
 1466SOL     OW16033   1.984   3.614  13.657 -0.5350  0.0661  0.1003
 1466SOL    HW116034   2.015   3.551  13.592  0.5664  0.1553  0.5322
 1466SOL    HW216035   2.012   3.565  13.734  1.5527 -0.1170 -0.7799
 1467SOL     OW16036   0.769   3.812   1.731  0.5111  0.4426  0.4908
 1467SOL    HW116037   0.842   3.866   1.702  1.1453 -1.2902 -1.2127
 1467SOL    HW216038   0.822   3.733   1.720  0.1699  0.0869  1.3725
 1468SOL     OW16039   2.416   3.251   7.548  0.0453  0.0516  0.5648
 1468SOL    HW116040   2.453   3.172   7.507  0.7552  1.0486 -0.6967
 1468SOL    HW216041   2.434   3.322   7.486 -1.1548 -1.7142 -1.8433
 1469SOL     OW16042   3.763   4.014   2.553  0.1111 -0.3355  0.5001
 1469SOL    HW116043   3.732   4.046   2.469  0.5239 -0.8757  0.1356
 1469SOL    HW216044   3.778   3.921   2.536  2.1305  0.3537 -1.5944
 1470SOL     OW16045   2.227   4.593   7.098 -0.1321 -0.4914 -0.4575
 1470SOL    HW116046   2.202   4.614   7.008  1.8662 -0.8055 -1.0907
 1470SOL    HW216047   2.145   4.578   7.144  0.1818 -0.1754  0.2095
 1471SOL     OW16048   2.170   0.304  10.725  0.0376 -0.0472  0.2560
 1471SOL    HW116049   2.205   0.215  10.724  0.9009  0.3280 -1.7461
 1471SOL    HW216050   2.124   0.298  10.642  1.7084 -1.0009 -0.6055
 1472SOL     OW16051   2.069   1.583   0.165 -0.4273 -0.2167  0.8696
 1472SOL    HW116052   2.011   1.586   0.089 -1.2028 -0.0256  1.4680
 1472SOL    HW216053   2.040   1.661   0.213 -4.4920 -0.2913 -1.4744
 1473SOL     OW16054   1.561   1.576  16.891 -0.6728  0.9051 -0.1185
 1473SOL    HW116055   1.497   1.582  16.962  0.0274 -0.9372  0.6735
 1473SOL    HW216056   1.608   1.495  16.913 -1.0298  0.8741  0.5355
 1474SOL     OW16057   3.730   4.006   4.035 -0.4690  0.2659 -0.5299
 1474SOL    HW116058   3.797   4.071   4.052  0.4254 -0.5830 -0.8186
 1474SOL    HW216059   3.781   3.959   3.968 -2.0644  1.1933 -2.4194
 1475SOL     OW16060   1.843   0.063   7.407 -0.6547 -0.1139 -0.1322
 1475SOL    HW116061   1.910   0.064   7.475 -0.5911  0.2489 -0.1989
 1475SOL    HW216062   1.779   4.738   7.436 -0.8435  0.5966  1.0465
 1476SOL     OW16063   1.441   4.180   5.791  0.1624  0.1438 -0.6748
 1476SOL    HW116064   1.372   4.123   5.824  0.8980 -0.1964  0.2823
 1476SOL    HW216065   1.388   4.241   5.741  1.2713  0.0727 -1.9364
 1477SOL     OW16066   3.766   1.038  16.246 -0.0923  0.0493 -0.4976
 1477SOL    HW116067   3.770   0.943  16.245 -0.0896  0.0294  1.1970
 1477SOL    HW216068   3.688   1.057  16.193 -0.0625 -0.2101 -0.6346
 1478SOL     OW16069   4.471   2.298   5.084 -0.3466 -0.4612 -0.4002
 1478SOL    HW116070   4.412   2.337   5.149  3.3691  0.5982  2.2790
 1478SOL    HW216071   4.457   2.211   5.120  1.8567 -0.8767 -0.5520
 1479SOL     OW16072   1.502   2.784   3.817 -0.4051  0.1553  0.4867
 1479SOL    HW116073   1.477   2.875   3.804  0.5031  0.5129  1.2062
 1479SOL    HW216074   1.416   2.743   3.811  0.6412 -1.8627 -0.9204
 1480SOL     OW16075   1.994   3.205   8.642 -0.0074 -0.3143  0.3406
 1480SOL    HW116076   2.082   3.181   8.612  1.0322  2.0266  1.4944
 1480SOL    HW216077   1.958   3.245   8.563 -0.2746  1.2938  1.2858
 1481SOL     OW16078   4.693   2.640   8.044  0.1161  0.3466 -0.1276
 1481SOL    HW116079   4.602   2.629   8.070  0.4157 -0.9002  0.4046
 1481SOL    HW216080   4.718   2.694   8.119 -2.5616  1.4836 -0.0568
 1482SOL     OW16081   0.656   3.966   9.201  0.0608  0.1740  0.0002
 1482SOL    HW116082   0.589   4.017   9.157  0.7083  0.2675 -0.8903
 1482SOL    HW216083   0.627   3.875   9.194 -0.1334  0.4871 -3.4663
 1483SOL     OW16084   2.523   1.093   9.260  0.3385 -0.0965  0.8180
 1483SOL    HW116085   2.613   1.063   9.248  0.1867  0.8653 -2.6276
 1483SOL    HW216086   2.531   1.108   9.354  1.2678 -0.7904  0.8552
 1484SOL     OW16087   1.049   2.042  11.548  0.2991  0.9625  0.1307
 1484SOL    HW116088   1.120   2.106  11.546  1.0126  0.1736  0.1323
 1484SOL    HW216089   1.070   1.993  11.469 -1.7904 -0.4023  0.4288
 1485SOL     OW16090   0.080   2.921   7.843  0.5970  0.1304 -0.1238
 1485SOL    HW116091   0.054   3.012   7.824 -0.3990 -0.0803  0.2455
 1485SOL    HW216092   4.739   2.882   7.875 -0.1421  0.1082 -2.0095
 1486SOL     OW16093   1.808   2.517  17.484  0.1624 -0.4426 -0.4092
 1486SOL    HW116094   1.858   2.509  17.402  1.3111  3.7714 -0.0944
 1486SOL    HW216095   1.733   2.564  17.448  0.3191  1.6674  2.0761
 1487SOL     OW16096   1.951   0.398   7.770  0.1278 -0.2270  0.3240
 1487SOL    HW116097   1.895   0.352   7.707  0.5199  0.2114 -0.3476
 1487SOL    HW216098   1.996   0.320   7.802  1.7364  0.4617 -0.2821
 1488SOL     OW16099   4.652   0.957  11.484  0.2305  0.7110 -0.3096
 1488SOL    HW116100   4.682   0.990  11.569  2.7022  0.6275 -1.1546
 1488SOL    HW216101   4.726   0.981  11.428  0.6153 -1.3465 -0.6801
 1489SOL     OW16102   1.188   2.702   0.547 -0.2242 -0.5421  0.3802
 1489SOL    HW116103   1.248   2.673   0.477 -0.8001  1.2121 -0.8348
 1489SOL    HW216104   1.223   2.668   0.630 -0.8831  2.2046  1.7769
 1490SOL     OW16105   2.062   2.505  15.324 -0.4262  0.3511  0.3383
 1490SOL    HW116106   2.039   2.422  15.367 -1.8987 -0.4507 -1.9930
 1490SOL    HW216107   2.157   2.515  15.334 -0.3500  0.8098 -0.8970
 1491SOL     OW16108   4.236   2.911   9.351 -0.2597 -0.1446  0.2305
 1491SOL    HW116109   4.276   2.986   9.307 -0.2845  0.6327  1.5201
 1491SOL    HW216110   4.296   2.903   9.425 -0.7718 -0.2749  0.6320
 1492SOL     OW16111   0.749   4.092   4.510  0.0701 -0.6510 -0.4661
 1492SOL    HW116112   0.660   4.076   4.477 -0.4393  1.6539 -0.2055
 1492SOL    HW216113   0.733   4.135   4.594  1.3528 -1.4385  0.1684
 1493SOL     OW16114   2.928   3.473   7.933  0.3172  0.2628 -0.1246
 1493SOL    HW116115   2.992   3.457   8.002  1.4582  1.0676 -1.0033
 1493SOL    HW216116   2.972   3.538   7.879 -1.2798 -0.2170 -2.0160
 1494SOL     OW16117   3.463   0.827   1.931 -0.2840  0.1805 -0.1302
 1494SOL    HW116118   3.523   0.753   1.940 -0.5619 -0.3679 -2.5782
 1494SOL    HW216119   3.469   0.842   1.836 -1.8114  2.0480  0.0870
 1495SOL     OW16120   3.218   3.608   3.295  0.5336 -0.6550  0.6407
 1495SOL    HW116121   3.173   3.689   3.274  1.4763 -0.0017  1.1333
 1495SOL    HW216122   3.307   3.638   3.315  0.0619  1.3806 -0.3211
 1496SOL     OW16123   3.464   2.821   9.751 -0.4469  0.3572  0.4522
 1496SOL    HW116124   3.467   2.756   9.822 -2.1685  1.7370  1.7871
 1496SOL    HW216125   3.389   2.874   9.778 -0.7926  0.1869 -0.1932
 1497SOL     OW16126   3.013   2.090   0.828 -0.1886 -0.3679  0.4629
 1497SOL    HW116127   2.960   2.017   0.795 -1.4182  0.3433  0.8804
 1497SOL    HW216128   3.019   2.062   0.919 -0.6737  1.1563  0.9527
 1498SOL     OW16129   3.912   1.697  17.620 -0.3448 -0.3944 -0.1381
 1498SOL    HW116130   3.835   1.654  17.657 -0.4192  0.1313  0.3158
 1498SOL    HW216131   3.885   1.789  17.613 -1.2853 -0.7242 -0.8864
 1499SOL     OW16132   3.914   3.655   4.184  0.1757 -0.0445 -0.0995
 1499SOL    HW116133   3.838   3.710   4.205  0.4775  1.0986 -1.9444
 1499SOL    HW216134   3.861   3.575   4.173  1.5570 -0.7565 -1.6102
 1500SOL     OW16135   1.373   4.192   5.087  0.0191  0.4071 -0.3104
 1500SOL    HW116136   1.327   4.275   5.098 -0.2391  0.2231 -0.0104
 1500SOL    HW216137   1.410   4.219   5.003  3.0247 -1.0362  0.5161
 1501SOL     OW16138   1.838   1.508   9.570  0.2898  0.5676  0.3192
 1501SOL    HW116139   1.829   1.489   9.663  0.9058 -0.4972  0.1515
 1501SOL    HW216140   1.889   1.588   9.583 -2.2088  2.2086 -0.0105
 1502SOL     OW16141   4.363   1.545   1.849 -0.5403  0.1809  0.1223
 1502SOL    HW116142   4.276   1.526   1.814  0.1267  0.4512 -1.6753
 1502SOL    HW216143   4.409   1.564   1.768  0.3630  0.4934  0.7079
 1503SOL     OW16144   2.792   1.850   3.228  0.3422 -0.6761 -0.3009
 1503SOL    HW116145   2.829   1.937   3.216  0.0773 -0.6698 -1.1352
 1503SOL    HW216146   2.721   1.870   3.289  0.8478  0.7014 -0.1699
 1504SOL     OW16147   3.107   1.587   4.421 -0.6359  0.3073 -0.1282
 1504SOL    HW116148   3.080   1.650   4.355  0.0363 -0.0075 -0.7029
 1504SOL    HW216149   3.089   1.506   4.374  3.4465 -0.2227 -0.8051
 1505SOL     OW16150   1.373   4.532   4.856  0.0910  0.5321  0.5213
 1505SOL    HW116151   1.343   4.530   4.947 -0.0810  2.4559  0.5063
 1505SOL    HW216152   1.435   4.460   4.864 -0.8006 -0.3210 -0.1917
 1506SOL     OW16153   3.654   0.905  12.618  0.1309 -0.1676  0.5224
 1506SOL    HW116154   3.559   0.910  12.602  0.1665  0.0363  0.3727
 1506SOL    HW216155   3.655   0.836  12.685  2.3136  1.8390  2.5481
 1507SOL     OW16156   1.212   0.022   0.631 -0.1074  0.2830  0.5367
 1507SOL    HW116157   1.183   0.110   0.654 -1.5351  0.6142 -2.5297
 1507SOL    HW216158   1.270   4.738   0.703 -1.6528  0.2912  1.8036
 1508SOL     OW16159   1.416   0.008  14.775 -0.1302  0.0097 -0.3317
 1508SOL    HW116160   1.475   0.051  14.713  0.3627 -1.0997 -0.6354
 1508SOL    HW216161   1.364   0.080  14.810 -0.9856 -1.5094  1.4632
 1509SOL     OW16162   0.719   3.056  14.715 -0.0389 -0.3424  0.2442
 1509SOL    HW116163   0.658   3.089  14.649 -0.1345  1.7824  1.4289
 1509SOL    HW216164   0.783   3.124  14.696 -0.9707  0.1201 -1.2034
 1510SOL     OW16165   3.097   3.853   6.915 -0.0273 -0.0518 -0.1652
 1510SOL    HW116166   3.174   3.903   6.943 -0.3299 -0.1557  0.8781
 1510SOL    HW216167   3.039   3.918   6.875 -1.7678 -0.2712  1.9575
 1511SOL     OW16168   3.862   4.183   1.480  0.2996 -0.4071 -0.1435
 1511SOL    HW116169   3.924   4.186   1.407  0.7059  0.6220  0.2464
 1511SOL    HW216170   3.924   4.135   1.536 -0.3386 -0.2027  0.7361
 1512SOL     OW16171   0.306   3.730   7.174 -0.6676  0.1855  0.4732
 1512SOL    HW116172   0.321   3.795   7.105 -0.3805 -0.0998  0.2592
 1512SOL    HW216173   0.374   3.665   7.155 -0.4035  0.6665 -0.2090
 1513SOL     OW16174   0.343   2.308  11.752  0.6060  0.4117 -0.7200
 1513SOL    HW116175   0.282   2.355  11.809  0.4971 -1.7055  0.9014
 1513SOL    HW216176   0.322   2.340  11.664  1.4630 -1.1496 -1.4957
 1514SOL     OW16177   0.784   3.882   7.921 -0.5796  0.7189  0.1454
 1514SOL    HW116178   0.845   3.877   7.994 -0.8790 -0.6572  0.2987
 1514SOL    HW216179   0.837   3.879   7.841 -2.9684  1.1770 -1.4613
 1515SOL     OW16180   1.880   0.666   7.049 -0.2264  0.0208  0.2073
 1515SOL    HW116181   1.804   0.697   7.099 -0.4876  0.1469 -0.2600
 1515SOL    HW216182   1.879   0.725   6.973 -0.0301  0.4612  0.5521
 1516SOL     OW16183   1.049   1.543  11.109 -0.4506  0.3411  0.4882
 1516SOL    HW116184   0.968   1.592  11.110 -0.1121  0.9721 -2.3243
 1516SOL    HW216185   1.108   1.617  11.094 -0.3239  0.2096  0.3326
 1517SOL     OW16186   4.699   2.474   2.071 -0.3455  0.5109 -0.3071
 1517SOL    HW116187   4.687   2.473   1.976  0.2148  1.0895 -0.3813
 1517SOL    HW216188   0.043   2.428   2.070 -0.3827  0.4362  0.2129
 1518SOL     OW16189   0.472   2.371  17.058  0.2796 -0.1831  0.5477
 1518SOL    HW116190   0.445   2.458  17.089  1.2551 -0.8595  3.2463
 1518SOL    HW216191   0.395   2.324  17.088 -0.3029  0.3810 -0.0558
 1519SOL     OW16192   0.230   0.918   3.196 -0.3557 -0.1583 -0.6908
 1519SOL    HW116193   0.135   0.920   3.208 -0.1289  0.0896  1.0759
 1519SOL    HW216194   0.228   0.933   3.101  3.1899  1.6010 -0.4771
 1520SOL     OW16195   0.337   3.665   2.927 -0.3496 -0.1136  0.0925
 1520SOL    HW116196   0.425   3.664   2.967  0.2133 -0.0943 -1.1517
 1520SOL    HW216197   0.299   3.724   2.992 -0.6958  0.7266 -0.8720
 1521SOL     OW16198   3.118   2.019   4.830 -0.1996 -0.4385  0.2327
 1521SOL    HW116199   3.028   2.021   4.861 -0.8070  0.1464 -1.5714
 1521SOL    HW216200   3.108   1.961   4.754 -1.0009  2.7638 -2.1379
 1522SOL     OW16201   0.340   0.912  15.727 -0.0135  0.6578  0.1625
 1522SOL    HW116202   0.273   0.978  15.743  0.3159  0.5032  2.2029
 1522SOL    HW216203   0.412   0.967  15.695  1.0871 -0.6603  0.4175
 1523SOL     OW16204   2.546   4.234   3.146 -0.0936 -0.2476  0.5244
 1523SOL    HW116205   2.595   4.285   3.081  0.4759 -0.9369  0.4126
 1523SOL    HW216206   2.468   4.214   3.095 -0.8991  0.2242  1.5619
 1524SOL     OW16207   0.797   3.341   7.692 -0.1542 -0.3577  0.4946
 1524SOL    HW116208   0.745   3.370   7.618 -0.0763  0.0214  0.5859
 1524SOL    HW216209   0.741   3.364   7.766 -2.0555 -1.1843 -0.6833
 1525SOL     OW16210   2.646   1.138   6.513  0.0261  0.1985  0.3695
 1525SOL    HW116211   2.701   1.111   6.587 -0.9540 -2.0448  0.2595
 1525SOL    HW216212   2.675   1.227   6.492  0.0940 -0.1066 -0.8034
 1526SOL     OW16213   0.992   1.196   4.022 -0.2969  0.2074  0.3534
 1526SOL    HW116214   0.909   1.243   4.011 -0.5709 -0.1985  0.6541
 1526SOL    HW216215   0.973   1.121   4.078 -0.4355 -1.7380 -2.3358
 1527SOL     OW16216   1.414   4.523   4.263 -0.3474  0.1684 -0.1780
 1527SOL    HW116217   1.329   4.478   4.268  0.4078 -1.2739 -0.4073
 1527SOL    HW216218   1.427   4.555   4.352 -1.2470 -0.0788  0.0441
 1528SOL     OW16219   0.183   2.659   6.940 -0.2200  0.7188 -0.3371
 1528SOL    HW116220   0.155   2.657   6.848  1.0954 -0.4837 -0.7152
 1528SOL    HW216221   0.106   2.619   6.980  0.7506 -1.3230 -0.4794
 1529SOL     OW16222   4.122   2.467  12.128  0.0495 -0.5217  0.1888
 1529SOL    HW116223   4.210   2.429  12.124  0.7890  1.2662 -0.6983
 1529SOL    HW216224   4.099   2.446  12.037  0.1152  0.5823 -0.0738
 1530SOL     OW16225   2.003   0.580   0.189  0.0320  0.4693 -0.2794
 1530SOL    HW116226   1.950   0.634   0.248  2.6218  0.3841  2.1326
 1530SOL    HW216227   1.956   0.604   0.110  0.9124  3.0452 -0.0413
 1531SOL     OW16228   4.502   1.294   6.457 -0.5007 -0.5704  0.0401
 1531SOL    HW116229   4.481   1.211   6.501 -0.0011 -1.0875 -0.6974
 1531SOL    HW216230   4.462   1.352   6.522 -2.2606 -0.5199 -1.0779
 1532SOL     OW16231   4.654   3.044   4.963  0.0842 -0.2696  0.0508
 1532SOL    HW116232   4.591   3.002   4.905  0.1589  0.3428 -0.4766
 1532SOL    HW216233   4.608   3.068   5.043 -1.8580 -1.3661 -0.7487
 1533SOL     OW16234   0.077   3.232   7.443  0.1747  0.0523 -0.7357
 1533SOL    HW116235   4.734   3.205   7.404 -0.5066  0.9181  0.1190
 1533SOL    HW216236   0.137   3.206   7.373  1.1613 -0.6388  0.3687
 1534SOL     OW16237   4.359   3.571   0.519 -0.1261  0.6885  0.6772
 1534SOL    HW116238   4.312   3.639   0.471  0.4323  0.5431 -0.0973
 1534SOL    HW216239   4.294   3.532   0.576 -1.4704 -1.5720 -2.3653
 1535SOL     OW16240   1.060   1.649   2.047 -0.2513  0.1230 -0.2955
 1535SOL    HW116241   1.128   1.628   1.982  0.2542 -0.6220  0.4826
 1535SOL    HW216242   1.052   1.745   2.046 -2.4599 -0.0449  0.6856
 1536SOL     OW16243   1.062   0.216   7.458  0.0353  0.5732  0.4130
 1536SOL    HW116244   1.148   0.193   7.494 -1.0557 -3.6032  0.3638
 1536SOL    HW216245   1.073   0.217   7.363 -0.5395  1.4213  0.3560
 1537SOL     OW16246   3.775   1.506  12.973  0.1905 -0.1080 -0.0833
 1537SOL    HW116247   3.800   1.436  12.913  0.3026 -1.0829  1.1185
 1537SOL    HW216248   3.851   1.564  12.964  0.4900 -0.4885  0.0267
 1538SOL     OW16249   4.371   3.656   6.376 -0.3759 -0.4173  0.3307
 1538SOL    HW116250   4.280   3.686   6.381 -0.2610  0.0752 -0.5787
 1538SOL    HW216251   4.373   3.632   6.284 -1.4316  0.5292  0.0593
 1539SOL     OW16252   2.136   3.239   2.306 -0.2001 -0.3103 -0.4281
 1539SOL    HW116253   2.049   3.278   2.310  0.4350  1.1337 -0.7864
 1539SOL    HW216254   2.174   3.256   2.393  1.0846 -1.1221 -0.8294
 1540SOL     OW16255   4.230   1.215  12.301 -0.2531 -0.0529  0.0930
 1540SOL    HW116256   4.227   1.160  12.379 -0.6195  1.2136  0.9907
 1540SOL    HW216257   4.140   1.205  12.273 -0.4354 -0.6035  0.8772
 1541SOL     OW16258   3.737   3.974  17.633  0.1479 -0.3492 -0.3985
 1541SOL    HW116259   3.780   4.050  17.673 -1.1292  1.0518 -1.6525
 1541SOL    HW216260   3.738   4.001  17.541 -0.0544  2.1698  0.3357
 1542SOL     OW16261   0.205   3.513   6.861 -0.5244  0.7487  0.2357
 1542SOL    HW116262   0.158   3.581   6.811  0.1287  2.2608  1.6765
 1542SOL    HW216263   0.248   3.469   6.788  1.3467  1.1682  1.1054
 1543SOL     OW16264   4.418   2.612   3.231  0.6165 -0.2071  0.5966
 1543SOL    HW116265   4.382   2.652   3.152  0.6584  1.2105  1.2883
 1543SOL    HW216266   4.365   2.664   3.292 -0.0692  0.0315 -0.2134
 1544SOL     OW16267   1.557   0.683   4.589 -0.0700  0.4296 -0.0082
 1544SOL    HW116268   1.550   0.617   4.520 -0.1035  1.1171 -0.6628
 1544SOL    HW216269   1.643   0.724   4.580  1.3435 -2.3466  0.8402
 1545SOL     OW16270   2.135   0.442  17.310  0.8222  0.4361 -0.5263
 1545SOL    HW116271   2.167   0.402  17.230  0.8308 -0.7844  0.0994
 1545SOL    HW216272   2.118   0.528  17.271  2.1305  0.5210 -0.9097
 1546SOL     OW16273   1.515   4.552   2.376  0.0276  0.1989 -0.6304
 1546SOL    HW116274   1.528   4.541   2.471  0.0410 -1.0210 -0.7708
 1546SOL    HW216275   1.511   4.647   2.369  0.5257  0.3888  1.3780
 1547SOL     OW16276   0.111   0.563   8.600  0.2420  0.0383  0.2597
 1547SOL    HW116277   0.043   0.603   8.654 -0.2436  0.2082 -0.4846
 1547SOL    HW216278   0.143   0.641   8.555  0.3869 -0.0987  0.1283
 1548SOL     OW16279   1.703   3.165   8.239  0.1539  0.1259 -0.5763
 1548SOL    HW116280   1.758   3.215   8.179 -0.0456  0.1622 -0.7307
 1548SOL    HW216281   1.618   3.187   8.200 -0.0574 -1.8325 -1.2122
 1549SOL     OW16282   2.610   0.976   0.362 -0.4783 -0.1190  0.4774
 1549SOL    HW116283   2.592   0.997   0.270  0.2700 -0.7580  0.1854
 1549SOL    HW216284   2.588   0.883   0.359 -0.1022 -0.1654 -0.8162
 1550SOL     OW16285   4.585   1.242  16.497  1.0850 -0.2124 -0.1928
 1550SOL    HW116286   4.519   1.296  16.540  1.8193  1.0316 -0.6314
 1550SOL    HW216287   4.666   1.281  16.531 -0.2942  3.7326 -1.4520
 1551SOL     OW16288   3.502   2.106   6.213  1.1274  0.1872 -0.0360
 1551SOL    HW116289   3.457   2.026   6.239 -2.0792  1.7686 -0.6655
 1551SOL    HW216290   3.458   2.136   6.133 -0.8902  0.9073  1.3518
 1552SOL     OW16291   2.228   2.307  14.497 -0.0621 -0.2151  0.3409
 1552SOL    HW116292   2.305   2.258  14.469  0.3418  0.0365  1.0237
 1552SOL    HW216293   2.268   2.373  14.554 -0.0802 -0.5765  0.7697
 1553SOL     OW16294   0.792   1.670  11.030  1.0171 -0.0355 -0.2765
 1553SOL    HW116295   0.746   1.693  10.949  1.6951 -1.1939 -0.9908
 1553SOL    HW216296   0.719   1.691  11.088  0.0326  1.7023 -2.1447
 1554SOL     OW16297   1.222   3.306   8.494 -0.2443  0.1361 -0.4754
 1554SOL    HW116298   1.146   3.317   8.550  0.4554  0.0629  0.4850
 1554SOL    HW216299   1.247   3.398   8.480  0.5717 -0.1278 -0.7839
 1555SOL     OW16300   0.411   1.387  12.201 -0.8943  0.4991 -0.5492
 1555SOL    HW116301   0.318   1.369  12.190 -0.9767  0.2468  0.4870
 1555SOL    HW216302   0.447   1.313  12.153 -1.4875 -0.1736  0.0457
 1556SOL     OW16303   2.998   4.118   1.928  0.0646 -0.1039  0.1506
 1556SOL    HW116304   2.933   4.187   1.912  0.1571 -0.2793 -0.9699
 1556SOL    HW216305   2.971   4.069   1.851 -1.0486  1.0352 -0.1847
 1557SOL     OW16306   2.674   4.342   3.486 -0.3750 -0.5291  0.0392
 1557SOL    HW116307   2.740   4.380   3.427 -0.1022 -0.3590  0.4517
 1557SOL    HW216308   2.604   4.320   3.425  0.2655 -2.1064 -0.1215
 1558SOL     OW16309   1.665   0.234   5.998 -0.1941  0.1159 -0.1823
 1558SOL    HW116310   1.757   0.258   5.991  0.2292 -0.8583  1.9277
 1558SOL    HW216311   1.635   0.263   6.085  0.3724 -1.0852  0.4091
 1559SOL     OW16312   2.965   0.119   2.767  0.2504 -0.0148  0.4331
 1559SOL    HW116313   2.960   0.142   2.860 -0.1375  1.6098  0.0239
 1559SOL    HW216314   3.058   0.135   2.753 -0.0570  2.0138  0.6031
 1560SOL     OW16315   3.106   0.233   3.592  0.0892 -0.3813  0.4438
 1560SOL    HW116316   3.097   0.323   3.624 -0.1303  0.3029 -1.5418
 1560SOL    HW216317   3.098   0.247   3.498 -2.1483 -1.6685  0.4204
 1561SOL     OW16318   0.339   2.132   0.941 -0.5970 -0.0675  0.1281
 1561SOL    HW116319   0.430   2.156   0.959 -0.9509  1.5296 -0.1936
 1561SOL    HW216320   0.333   2.059   0.880 -1.5308  2.1446 -2.4435
 1562SOL     OW16321   3.199   2.987   3.199 -0.0505  0.0345 -0.5449
 1562SOL    HW116322   3.240   2.934   3.130 -2.6329 -1.3862 -0.9627
 1562SOL    HW216323   3.170   3.060   3.145 -2.1948  1.1629  2.1245
 1563SOL     OW16324   4.084   1.028  12.037  0.6758 -0.2352 -0.1310
 1563SOL    HW116325   4.020   1.095  12.060  0.7662  0.4084 -1.7562
 1563SOL    HW216326   4.075   0.974  12.116  2.5334 -0.7699 -0.2884
 1564SOL     OW16327   4.571   1.454   3.413 -0.2859  0.5484 -0.6628
 1564SOL    HW116328   4.555   1.548   3.405  1.1132  0.9655  1.2579
 1564SOL    HW216329   4.495   1.419   3.367  0.1360 -2.5499  0.9861
 1565SOL     OW16330   1.792   1.828   7.006 -0.1236 -0.7958 -0.0291
 1565SOL    HW116331   1.887   1.822   7.019 -0.0349  1.1055  0.1637
 1565SOL    HW216332   1.790   1.811   6.912  0.6113  1.7111 -0.4962
 1566SOL     OW16333   3.360   1.094   5.105 -0.5847 -0.8634 -0.3921
 1566SOL    HW116334   3.435   1.037   5.123  2.2265  2.5884 -1.1942
 1566SOL    HW216335   3.308   1.047   5.040 -0.5420  1.2260 -1.9159
 1567SOL     OW16336   2.988   0.660   1.691  0.3772  0.3692 -0.0676
 1567SOL    HW116337   3.072   0.625   1.721 -0.6379  0.3044  2.6201
 1567SOL    HW216338   2.997   0.661   1.595 -0.9345  0.1608 -0.1901
 1568SOL     OW16339   1.163   1.590   3.134 -0.7539  0.1686  0.2492
 1568SOL    HW116340   1.255   1.584   3.160 -1.0075 -0.3338  1.0188
 1568SOL    HW216341   1.162   1.686   3.132 -0.2980  0.1165 -2.5447
 1569SOL     OW16342   3.640   2.867   8.761 -0.3551 -0.1258 -0.3610
 1569SOL    HW116343   3.604   2.956   8.765 -1.1025 -0.3267 -2.3582
 1569SOL    HW216344   3.726   2.888   8.727 -0.7579  0.8125 -0.8063
 1570SOL     OW16345   2.815   4.231  14.580  0.2746  0.2150 -0.3134
 1570SOL    HW116346   2.897   4.188  14.604 -1.2091 -1.2022  2.1594
 1570SOL    HW216347   2.837   4.323  14.601 -0.2718  0.7508 -2.1071
 1571SOL     OW16348   2.151   2.376   5.926 -0.4846 -0.1564  0.0224
 1571SOL    HW116349   2.065   2.350   5.959 -1.1888 -0.1241 -1.8367
 1571SOL    HW216350   2.192   2.439   5.986 -1.6919 -0.1293  0.8155
 1572SOL     OW16351   1.310   1.318   5.450  0.3499 -0.1782  0.5561
 1572SOL    HW116352   1.286   1.316   5.358  0.4050  0.3813  0.5316
 1572SOL    HW216353   1.378   1.252   5.438 -0.6394 -1.0101 -0.4763
 1573SOL     OW16354   2.856   3.499   4.369 -0.0523  0.3457  0.2267
 1573SOL    HW116355   2.858   3.440   4.294  1.2008  1.5100 -0.6555
 1573SOL    HW216356   2.810   3.573   4.331  0.4312  1.4326  1.7278
 1574SOL     OW16357   1.069   4.659   7.219  0.3267 -0.0902 -0.5559
 1574SOL    HW116358   1.045   4.616   7.137 -1.3174 -0.7541  0.2676
 1574SOL    HW216359   1.000   4.723   7.236 -0.2229 -0.7430 -0.3355
 1575SOL     OW16360   4.435   0.150   0.928 -0.4749 -0.2224 -0.3085
 1575SOL    HW116361   4.518   0.177   0.967  0.6651 -2.1148 -1.4334
 1575SOL    HW216362   4.372   0.116   0.992 -1.2745 -0.1382 -1.0440
 1576SOL     OW16363   3.376   3.917   3.363 -0.5871 -0.4255  0.4423
 1576SOL    HW116364   3.300   3.944   3.414 -0.0845  0.7841  0.5709
 1576SOL    HW216365   3.422   3.861   3.426 -0.7828  0.9068  1.7838
 1577SOL     OW16366   3.594   1.755  11.932 -0.0852  0.4888  0.0920
 1577SOL    HW116367   3.685   1.740  11.905  0.4174  1.2274  1.3547
 1577SOL    HW216368   3.588   1.844  11.899 -1.3092 -0.0036 -0.9701
 1578SOL     OW16369   0.568   0.713   8.784  0.5020 -0.5233  0.0983
 1578SOL    HW116370   0.602   0.770   8.853 -0.8316  0.6601 -0.2293
 1578SOL    HW216371   0.480   0.748   8.795 -0.0008 -1.6926 -0.1374
 1579SOL     OW16372   1.514   2.182   2.597  0.3356 -0.1164  0.2474
 1579SOL    HW116373   1.563   2.118   2.545  2.3172 -0.8451  3.0032
 1579SOL    HW216374   1.427   2.154   2.571  0.3300 -1.6798  1.9161
 1580SOL     OW16375   2.948   0.767   3.122  0.0872  0.3437 -0.1687
 1580SOL    HW116376   3.009   0.693   3.122 -0.5515 -0.1793 -0.7063
 1580SOL    HW216377   2.999   0.848   3.131 -2.2245  1.9961 -1.9461
 1581SOL     OW16378   1.208   4.419  16.447  0.2031 -0.1054 -0.4306
 1581SOL    HW116379   1.302   4.429  16.458 -0.1541  1.2095  1.3640
 1581SOL    HW216380   1.169   4.501  16.476 -0.0847 -0.4987  0.2924
 1582SOL     OW16381   2.154   3.815  14.956  0.4368 -0.2548  0.0798
 1582SOL    HW116382   2.154   3.864  14.874  2.9261 -1.1355 -0.4375
 1582SOL    HW216383   2.176   3.733  14.912  1.4365 -0.0600  0.2053
 1583SOL     OW16384   1.863   2.235  16.038  0.4751  0.1152  0.8225
 1583SOL    HW116385   1.836   2.292  16.111 -1.0836  0.5394 -0.0986
 1583SOL    HW216386   1.918   2.290  15.982 -2.8685  2.4630 -0.1862
 1584SOL     OW16387   4.494   3.044   6.099  0.0708  0.2984 -0.0575
 1584SOL    HW116388   4.432   3.042   6.172 -0.8211 -1.5552 -0.8698
 1584SOL    HW216389   4.581   3.040   6.139  0.2710 -0.1654 -0.5419
 1585SOL     OW16390   4.200   2.141   4.629  0.0190 -0.0847 -0.3436
 1585SOL    HW116391   4.271   2.097   4.676 -0.4834  1.6766  2.0339
 1585SOL    HW216392   4.155   2.196   4.693  1.5865 -1.3616  1.8689
 1586SOL     OW16393   1.673   4.080   6.822  0.3336  0.2673  0.0463
 1586SOL    HW116394   1.722   4.139   6.764 -0.5230  3.0307  2.1186
 1586SOL    HW216395   1.673   4.131   6.903  0.0115  0.6763 -0.2051
 1587SOL     OW16396   2.598   2.894  16.949 -0.8304 -0.0288 -0.9300
 1587SOL    HW116397   2.627   2.894  17.041  2.0776 -0.9243 -1.8518
 1587SOL    HW216398   2.617   2.802  16.931 -0.2055 -0.1641  0.3801
 1588SOL     OW16399   4.740   2.509  16.409  0.3107 -0.2411  0.5468
 1588SOL    HW116400   4.667   2.551  16.362  0.5722 -1.4412 -0.9443
 1588SOL    HW216401   4.708   2.496  16.498 -2.1578  1.3392 -0.1058
 1589SOL     OW16402   2.214   3.309   3.220 -0.4418  0.3419  0.1045
 1589SOL    HW116403   2.246   3.245   3.283  0.0424 -0.4981 -0.9903
 1589SOL    HW216404   2.118   3.300   3.219 -0.5897  1.5356  2.7303
 1590SOL     OW16405   3.771   2.014  10.218  0.2776  0.1729 -0.3209
 1590SOL    HW116406   3.813   2.050  10.296  1.5234 -0.2424 -0.7932
 1590SOL    HW216407   3.798   1.922  10.216 -0.3544  0.0096 -1.2036
 1591SOL     OW16408   3.743   2.770  14.311 -0.5566 -0.1187  0.3608
 1591SOL    HW116409   3.807   2.810  14.370 -0.2355 -0.3166  0.1494
 1591SOL    HW216410   3.732   2.684  14.353 -2.6000  0.5370  1.1498
 1592SOL     OW16411   0.686   0.589   7.731 -0.5684  0.4206 -0.0967
 1592SOL    HW116412   0.760   0.551   7.778  0.3819  0.3645 -1.6579
 1592SOL    HW216413   0.613   0.563   7.787  0.4963  1.2999  1.6864
 1593SOL     OW16414   0.776   0.359   1.496 -0.3857 -0.5372 -0.3544
 1593SOL    HW116415   0.692   0.321   1.472  0.2342 -1.2566 -1.3917
 1593SOL    HW216416   0.818   0.280   1.530  2.0491  1.5604  1.5102
 1594SOL     OW16417   2.633   2.681   1.888  0.0975 -0.2418  0.9436
 1594SOL    HW116418   2.585   2.742   1.944 -0.4988 -0.2654  0.4543
 1594SOL    HW216419   2.720   2.686   1.928  0.6964  0.4068 -0.4327
 1595SOL     OW16420   2.402   1.618  15.982 -0.2240 -0.2784  0.2111
 1595SOL    HW116421   2.389   1.636  16.076 -1.1923 -0.2821  0.0803
 1595SOL    HW216422   2.494   1.592  15.973  0.6173  2.7494  0.1412
 1596SOL     OW16423   0.823   1.689   0.433 -0.4615  0.6805  0.3946
 1596SOL    HW116424   0.771   1.715   0.509  0.9394  0.2576  1.4907
 1596SOL    HW216425   0.885   1.628   0.474  0.7193  0.1962 -2.1024
 1597SOL     OW16426   3.007   0.711   5.335  0.1570  0.2995  0.6375
 1597SOL    HW116427   2.953   0.632   5.342  0.5725 -0.0571 -0.2809
 1597SOL    HW216428   2.987   0.742   5.247  0.7882 -1.2436 -0.0529
 1598SOL     OW16429   0.409   3.025   8.422 -0.2662 -0.2847 -0.2279
 1598SOL    HW116430   0.497   3.049   8.450 -0.8762 -0.2578  1.6438
 1598SOL    HW216431   0.408   2.929   8.412  1.6223 -0.1940 -1.1150
 1599SOL     OW16432   3.788   0.827   9.106 -0.0423 -0.1632  0.1685
 1599SOL    HW116433   3.782   0.741   9.148  1.2939  0.2407  1.1942
 1599SOL    HW216434   3.700   0.841   9.072  1.1501 -1.9047 -3.5804
 1600SOL     OW16435   0.403   4.653   3.680  0.6590 -0.2963 -0.6574
 1600SOL    HW116436   0.449   4.718   3.628  1.1717 -0.1044  0.0319
 1600SOL    HW216437   0.312   4.683   3.677  0.8970  0.5332  0.5728
 1601SOL     OW16438   2.679   0.700   7.489  0.4224  0.4633 -0.0809
 1601SOL    HW116439   2.703   0.623   7.541  0.9906  1.4360  1.1255
 1601SOL    HW216440   2.586   0.684   7.477  0.6232  0.0297 -1.0378
 1602SOL     OW16441   2.518   3.912   4.049  0.5247  0.5748 -0.2818
 1602SOL    HW116442   2.613   3.919   4.061  0.0887 -0.0068  3.4593
 1602SOL    HW216443   2.508   3.981   3.984  1.7763 -0.6848 -1.7912
 1603SOL     OW16444   1.564   4.449   0.082  0.2362 -0.0529 -0.1094
 1603SOL    HW116445   1.558   4.363   0.123 -0.9401 -0.2362 -0.6948
 1603SOL    HW216446   1.564   4.506   0.160  1.8041 -1.7611  1.1424
 1604SOL     OW16447   0.643   2.680   8.059  0.1252  0.5452  0.5252
 1604SOL    HW116448   0.554   2.651   8.080 -0.0594  0.5866 -0.2084
 1604SOL    HW216449   0.698   2.657   8.134  0.8526 -1.1590 -0.5303
 1605SOL     OW16450   1.920   3.844  13.154 -0.4170 -0.0368  0.1590
 1605SOL    HW116451   1.999   3.793  13.135 -0.6181 -0.5387  0.7114
 1605SOL    HW216452   1.958   3.923  13.194  2.1412 -0.2456 -1.8212
 1606SOL     OW16453   1.436   2.958   6.663 -0.5850  0.4339  0.4538
 1606SOL    HW116454   1.362   2.923   6.712  0.1085 -0.2879  0.9869
 1606SOL    HW216455   1.508   2.896   6.651  0.1662  1.0289  1.8953
 1607SOL     OW16456   3.138   1.485   7.043 -0.4235 -0.0690 -0.0227
 1607SOL    HW116457   3.075   1.470   7.113  0.4923 -1.9516  0.4082
 1607SOL    HW216458   3.101   1.568   7.012  0.7694  0.7318  0.6546
 1608SOL     OW16459   2.021   1.943  12.374 -0.0059 -0.5410  0.3999
 1608SOL    HW116460   2.059   2.030  12.365  1.3205 -1.2263 -0.7141
 1608SOL    HW216461   1.974   1.922  12.293  0.4952 -0.1852  0.0196
 1609SOL     OW16462   3.686   2.259  13.963 -0.1910  0.4103  0.8816
 1609SOL    HW116463   3.767   2.304  13.941 -0.4342 -0.1173 -1.0964
 1609SOL    HW216464   3.661   2.299  14.046 -1.8526  2.6195 -0.6585
 1610SOL     OW16465   3.599   4.492   8.470 -0.0416 -0.4484  0.4979
 1610SOL    HW116466   3.592   4.427   8.540  0.1730  0.5783  1.4703
 1610SOL    HW216467   3.636   4.568   8.516 -1.3325 -0.4564  1.5251
 1611SOL     OW16468   2.175   3.072   3.552 -0.4147 -0.5805  0.3446
 1611SOL    HW116469   2.231   3.071   3.474  0.3634 -0.7256  0.9018
 1611SOL    HW216470   2.232   3.022   3.611  0.1346 -0.3957 -0.0326
 1612SOL     OW16471   1.931   4.140   9.278 -0.0805  0.2019 -0.2888
 1612SOL    HW116472   1.876   4.070   9.314 -2.3964  1.2393 -1.8080
 1612SOL    HW216473   1.897   4.212   9.331  0.5212 -0.6071  1.2057
 1613SOL     OW16474   3.928   0.803   2.524 -0.7037 -0.3582  0.6075
 1613SOL    HW116475   3.928   0.747   2.602  0.1532 -0.3241  0.6367
 1613SOL    HW216476   3.961   0.746   2.454 -0.4082  0.4735  0.0722
 1614SOL     OW16477   4.264   2.297   5.943  0.1951 -0.1930 -0.1226
 1614SOL    HW116478   4.349   2.279   5.902  0.6794  0.2036  0.6901
 1614SOL    HW216479   4.294   2.278   6.032  0.5707  1.4604  0.1009
 1615SOL     OW16480   0.692   0.397   7.386 -0.0973  0.7256 -0.0087
 1615SOL    HW116481   0.599   0.377   7.402  0.5482 -1.1670  1.4041
 1615SOL    HW216482   0.685   0.397   7.291  1.3961  1.2092 -0.1063
 1616SOL     OW16483   4.032   0.125  10.531  0.0037 -0.2065  0.0600
 1616SOL    HW116484   4.120   0.162  10.526  0.7115 -1.8282  0.2730
 1616SOL    HW216485   3.991   0.171  10.459  2.6549 -0.4896 -1.6461
 1617SOL     OW16486   3.397   2.493   6.519  0.2371 -0.1125 -0.2064
 1617SOL    HW116487   3.425   2.502   6.428 -1.5672  1.9867 -0.5690
 1617SOL    HW216488   3.313   2.448   6.513  0.5921 -0.6925 -0.9122
 1618SOL     OW16489   3.243   2.389  10.390  0.2072  0.0223 -0.2496
 1618SOL    HW116490   3.337   2.381  10.377  0.4108 -1.7034  2.1468
 1618SOL    HW216491   3.253   2.445  10.468 -1.8849 -1.5640  1.1789
 1619SOL     OW16492   4.721   2.310   3.465  0.6639  0.5416  0.0846
 1619SOL    HW116493   4.669   2.376   3.511  1.3165  0.1817  1.3416
 1619SOL    HW216494   4.668   2.318   3.386  2.0788 -0.8369 -1.0004
 1620SOL     OW16495   4.069   3.671   6.090 -0.1988 -0.3451  0.4776
 1620SOL    HW116496   4.114   3.665   6.174  1.8168  1.4334 -0.4646
 1620SOL    HW216497   4.098   3.756   6.057 -0.4109 -0.8017 -0.9025
 1621SOL     OW16498   0.833   4.468   4.602 -0.0064 -0.1214 -0.0601
 1621SOL    HW116499   0.922   4.435   4.610  0.4313  1.5476  1.8891
 1621SOL    HW216500   0.822   4.475   4.507 -2.4004 -2.2008  0.0586
 1622SOL     OW16501   4.129   2.755   9.178 -0.0646  0.5550 -0.6684
 1622SOL    HW116502   4.074   2.707   9.239  0.3862 -0.7628 -1.3088
 1622SOL    HW216503   4.164   2.820   9.240  1.1456 -0.6172 -0.1255
 1623SOL     OW16504   2.131   2.091  12.146 -0.5918  0.4689  0.5552
 1623SOL    HW116505   2.163   2.181  12.152 -0.9960  0.6520  0.0153
 1623SOL    HW216506   2.183   2.036  12.204  0.7822  1.7252  0.5239
 1624SOL     OW16507   0.960   4.378   8.201 -0.5297  0.1859  0.3643
 1624SOL    HW116508   1.045   4.350   8.235  0.1015  0.8259 -0.6732
 1624SOL    HW216509   0.977   4.377   8.107 -0.8526  1.3993  0.2971
 1625SOL     OW16510   4.079   4.531  17.666  0.9704  0.3285  0.0217
 1625SOL    HW116511   4.019   4.545  17.739  0.6458 -0.2984 -0.1301
 1625SOL    HW216512   4.158   4.504  17.714  1.3741  2.6736  0.7020
 1626SOL     OW16513   2.534   1.708   7.391 -0.2770 -0.2794  0.1152
 1626SOL    HW116514   2.572   1.653   7.459 -0.0365 -0.8762 -0.4976
 1626SOL    HW216515   2.587   1.788   7.399  0.2673 -0.7819  1.4598
 1627SOL     OW16516   1.557   3.397   9.305  0.7725  0.0456 -0.4167
 1627SOL    HW116517   1.465   3.375   9.291  1.0360 -2.1147  1.3122
 1627SOL    HW216518   1.586   3.412   9.215  0.4541  1.8163 -0.2214
 1628SOL     OW16519   0.621   0.072   2.725  0.0954 -0.1572 -0.2787
 1628SOL    HW116520   0.684   0.029   2.666  3.4980  1.8671  1.8717
 1628SOL    HW216521   0.584   4.740   2.775 -0.8182  0.2660 -0.3537
 1629SOL     OW16522   4.559   2.723   5.287 -0.5112 -0.2330 -0.6939
 1629SOL    HW116523   4.591   2.793   5.344 -0.0656 -0.4192 -0.7138
 1629SOL    HW216524   4.542   2.772   5.207 -1.7784  0.8038  0.2156
 1630SOL     OW16525   0.324   4.535   7.921 -0.7934 -0.4491 -0.3434
 1630SOL    HW116526   0.336   4.440   7.925  0.3208 -0.2809  0.5768
 1630SOL    HW216527   0.231   4.544   7.942 -0.7381 -0.9617  0.1195
 1631SOL     OW16528   2.008   3.532   7.378  0.2765 -0.8535  0.6047
 1631SOL    HW116529   2.032   3.488   7.296 -1.0123  0.3921 -0.4373
 1631SOL    HW216530   1.952   3.604   7.349 -1.0368 -1.7558  0.8874
 1632SOL     OW16531   4.283   0.683   7.402 -0.5748 -0.1920 -0.3172
 1632SOL    HW116532   4.190   0.691   7.423 -0.7365 -1.1022 -0.6836
 1632SOL    HW216533   4.281   0.597   7.360  1.9878 -0.3714 -0.0882
 1633SOL     OW16534   1.493   2.835   0.425 -0.2914 -0.1707 -0.3126
 1633SOL    HW116535   1.432   2.782   0.374 -0.4675  0.6072 -0.9038
 1633SOL    HW216536   1.444   2.916   0.410  0.7722  0.6295  0.4788
 1634SOL     OW16537   0.098   3.036  16.426  0.0298  0.5227 -0.0667
 1634SOL    HW116538   0.179   3.030  16.476  0.0213 -1.4254 -0.3090
 1634SOL    HW216539   0.123   2.984  16.350 -1.2782  0.5771 -0.5467
 1635SOL     OW16540   1.862   4.641  16.616 -0.0876  0.2365 -0.6297
 1635SOL    HW116541   1.853   4.555  16.658  0.6814  0.8087  0.7001
 1635SOL    HW216542   1.927   4.623  16.548  1.1948  0.4029  0.5538
 1636SOL     OW16543   4.722   0.378  17.712  0.3423  0.7365 -0.3799
 1636SOL    HW116544   0.051   0.392  17.647  0.5750 -0.3982 -0.3705
 1636SOL    HW216545   0.019   0.409   0.038  2.8438 -2.2345 -0.3748
 1637SOL     OW16546   3.720   1.338   7.448  0.2581  0.6612  0.1951
 1637SOL    HW116547   3.798   1.358   7.397  0.3640  1.4087  0.6386
 1637SOL    HW216548   3.690   1.262   7.399 -0.3691 -0.7505  2.7297
 1638SOL     OW16549   1.632   4.042   8.448  0.0015 -0.0202  0.2990
 1638SOL    HW116550   1.680   4.052   8.531  2.6049 -0.9382 -1.1087
 1638SOL    HW216551   1.627   3.949   8.429  0.3634  0.5733 -2.7553
 1639SOL     OW16552   1.637   0.327   7.900 -0.8620  0.1688 -0.7193
 1639SOL    HW116553   1.676   0.410   7.874 -1.3307  0.9581  1.1000
 1639SOL    HW216554   1.546   0.356   7.899 -0.6278  1.0323  2.8341
 1640SOL     OW16555   1.497   1.327  10.247  0.2946  0.3218 -0.4061
 1640SOL    HW116556   1.454   1.294  10.167 -0.7162 -4.2709  2.0430
 1640SOL    HW216557   1.583   1.286  10.242 -0.7372 -2.0659  1.5309
 1641SOL     OW16558   1.595   4.386  13.538  0.3330  0.2486  0.0350
 1641SOL    HW116559   1.532   4.434  13.592 -1.5514 -1.9885 -0.1367
 1641SOL    HW216560   1.534   4.315  13.517 -0.1326  0.3145  1.1629
 1642SOL     OW16561   3.114   2.630   6.182 -0.1957 -0.4614 -0.6224
 1642SOL    HW116562   3.188   2.692   6.182  0.9540 -1.8122  0.2801
 1642SOL    HW216563   3.044   2.689   6.157 -0.4089 -0.0690  0.9081
 1643SOL     OW16564   2.690   0.891   7.282 -0.0014  0.7605  0.6578
 1643SOL    HW116565   2.714   0.825   7.217 -2.0355  0.9216 -0.2421
 1643SOL    HW216566   2.694   0.822   7.348  0.8320 -2.1143 -2.3612
 1644SOL     OW16567   1.302   1.332  11.381 -0.1881 -0.2495  0.5882
 1644SOL    HW116568   1.230   1.278  11.350 -0.4022  0.7069 -0.5980
 1644SOL    HW216569   1.280   1.346  11.473  0.3248  0.9827  0.5274
 1645SOL     OW16570   2.300   0.282   8.459 -0.4545  0.2448 -0.4094
 1645SOL    HW116571   2.231   0.318   8.515  2.8355  0.5982  3.4157
 1645SOL    HW216572   2.276   0.190   8.447  1.0858  0.0805 -2.1167
 1646SOL     OW16573   0.303   1.131  13.866  0.3013  0.0382 -0.5988
 1646SOL    HW116574   0.358   1.054  13.854  0.7021  0.0836  0.9265
 1646SOL    HW216575   0.218   1.093  13.888  0.8772 -1.0772 -0.3313
 1647SOL     OW16576   2.009   1.378   2.530  0.3397 -0.2655  0.8794
 1647SOL    HW116577   2.082   1.439   2.525  0.6009 -0.5777  0.9181
 1647SOL    HW216578   1.998   1.376   2.625 -2.6152 -0.6051  0.5418
 1648SOL     OW16579   0.268   4.433   7.629 -0.7601 -0.6754  0.0111
 1648SOL    HW116580   0.336   4.402   7.689  0.5821  0.6023 -0.8398
 1648SOL    HW216581   0.211   4.357   7.625 -1.8173  0.1401 -0.2019
 1649SOL     OW16582   1.631   1.421   1.088  0.2829  0.0053 -0.0250
 1649SOL    HW116583   1.609   1.348   1.030 -1.1962 -0.7794  1.5381
 1649SOL    HW216584   1.701   1.464   1.039 -1.2532 -0.2958 -2.4875
 1650SOL     OW16585   3.750   4.374   4.419  0.0990  0.0791 -0.1649
 1650SOL    HW116586   3.712   4.421   4.493 -1.9541 -0.4719 -0.8642
 1650SOL    HW216587   3.826   4.324   4.448 -1.1284 -0.5769  1.9739
 1651SOL     OW16588   4.430   4.184   6.643  0.4462 -0.0007  0.0379
 1651SOL    HW116589   4.512   4.140   6.668  0.5114 -1.4410 -2.7510
 1651SOL    HW216590   4.372   4.181   6.719 -0.6809  0.9640 -0.8048
 1652SOL     OW16591   0.688   4.446   4.140  0.4703 -0.4423  0.1463
 1652SOL    HW116592   0.662   4.356   4.159  1.6823 -1.4564 -2.9642
 1652SOL    HW216593   0.647   4.451   4.054  2.0632  1.9719 -0.4658
 1653SOL     OW16594   0.979   0.009   4.944 -0.2359  0.3448 -0.1271
 1653SOL    HW116595   0.923   4.677   4.972  1.3538 -0.9962 -0.4101
 1653SOL    HW216596   1.031   4.711   4.873  0.0728  0.1514  0.2086
 1654SOL     OW16597   2.181   0.887  10.725 -0.4154 -0.3781  0.2941
 1654SOL    HW116598   2.208   0.795  10.726  3.2844  0.7344  0.0759
 1654SOL    HW216599   2.259   0.931  10.757 -0.7780  0.2915  0.2480
 1655SOL     OW16600   3.278   1.856   1.502 -0.1859 -0.3256 -0.3641
 1655SOL    HW116601   3.286   1.922   1.434  2.7118 -1.3545 -0.9973
 1655SOL    HW216602   3.365   1.846   1.540  0.1103  1.5886 -0.5399
 1656SOL     OW16603   4.465   0.804   5.852  0.4956  0.4146  0.1786
 1656SOL    HW116604   4.483   0.713   5.873 -0.6629  0.0087 -0.5383
 1656SOL    HW216605   4.372   0.790   5.833  0.7768  0.2560 -1.0663
 1657SOL     OW16606   1.585   1.557   2.031  0.6545 -0.3186  0.4649
 1657SOL    HW116607   1.512   1.616   2.012 -0.3428 -1.2803  1.3240
 1657SOL    HW216608   1.552   1.479   1.987 -1.3216  0.2245  0.9843
 1658SOL     OW16609   1.823   3.684  11.379  0.2269 -0.2389  0.2246
 1658SOL    HW116610   1.885   3.656  11.447  0.8338  0.1264 -0.1781
 1658SOL    HW216611   1.870   3.667  11.298  2.2274  1.7111  0.9772
 1659SOL     OW16612   2.616   0.010   7.956 -0.1491 -0.0204  0.2253
 1659SOL    HW116613   2.531   0.053   7.971  0.5897  1.6295 -0.3769
 1659SOL    HW216614   2.601   4.691   7.882  0.5401  0.0429  0.0355
 1660SOL     OW16615   2.327   1.953  12.534 -0.0475  0.0018 -0.2933
 1660SOL    HW116616   2.411   1.998  12.540 -0.3653  0.7131 -1.1736
 1660SOL    HW216617   2.320   1.924  12.443  1.5615  1.1321 -0.7733
 1661SOL     OW16618   4.532   2.565   4.280 -0.4771  0.0147  0.1863
 1661SOL    HW116619   4.509   2.598   4.367 -0.2567  2.5877 -0.7313
 1661SOL    HW216620   4.481   2.626   4.226 -1.3251 -0.7772  0.0871
 1662SOL     OW16621   3.843   1.228  15.963  0.2075  0.0401  0.2828
 1662SOL    HW116622   3.843   1.321  15.988  3.1828 -0.4493  2.1375
 1662SOL    HW216623   3.926   1.204  16.004  1.3601  1.7920 -1.0022
 1663SOL     OW16624   4.135   0.574   6.807  0.0513  0.1169 -0.0611
 1663SOL    HW116625   4.120   0.667   6.820 -0.0377  0.0700  0.1765
 1663SOL    HW216626   4.225   0.585   6.776  0.6413  0.4722  1.7662
 1664SOL     OW16627   0.449   0.068   2.394  0.1523 -0.2344 -0.1986
 1664SOL    HW116628   0.523   0.123   2.418 -0.2071  0.1603  0.0119
 1664SOL    HW216629   0.430   0.095   2.304  0.9341 -0.1053 -0.3217
 1665SOL     OW16630   3.015   1.643   6.202 -0.4372  0.0776  0.5674
 1665SOL    HW116631   3.089   1.582   6.201  1.3955  2.2798  1.8992
 1665SOL    HW216632   2.940   1.585   6.215 -0.1943 -0.7710 -1.9289
 1666SOL     OW16633   1.361   2.317  13.502 -0.6838  0.3579 -0.2875
 1666SOL    HW116634   1.369   2.221  13.503  0.7483  0.4817  0.0223
 1666SOL    HW216635   1.454   2.334  13.487 -0.7185 -0.2456 -1.2252
 1667SOL     OW16636   4.321   3.895   8.944  0.0183  0.4649  0.2489
 1667SOL    HW116637   4.360   3.850   8.869 -0.9902  2.4185 -1.4569
 1667SOL    HW216638   4.238   3.849   8.953  0.8072 -1.1111 -0.5882
 1668SOL     OW16639   0.955   2.315   8.521 -0.3983 -0.1822 -0.3062
 1668SOL    HW116640   0.881   2.328   8.580 -0.0882  0.4444 -0.0470
 1668SOL    HW216641   0.979   2.224   8.538  0.3790 -0.4173 -2.6644
 1669SOL     OW16642   4.533   2.007   5.488 -0.0810  0.4923  0.4833
 1669SOL    HW116643   4.523   2.058   5.569 -2.6770 -0.2119  0.6228
 1669SOL    HW216644   4.454   2.044   5.450 -0.3903 -0.1474  0.5031
 1670SOL     OW16645   2.498   2.243   9.703  0.1473  0.1573  0.3420
 1670SOL    HW116646   2.486   2.272   9.794  0.3174  1.0825  0.0631
 1670SOL    HW216647   2.473   2.326   9.662  1.4737 -0.0563 -0.8866
 1671SOL     OW16648   3.715   2.305   9.167  0.4805 -0.3952  0.0032
 1671SOL    HW116649   3.722   2.342   9.255 -1.3577  1.6672 -0.7091
 1671SOL    HW216650   3.648   2.236   9.169 -2.6984  2.6686 -0.2597
 1672SOL     OW16651   2.194   2.155   8.218 -0.4144  0.0278 -0.3307
 1672SOL    HW116652   2.172   2.248   8.206  0.0247  0.1751 -0.0095
 1672SOL    HW216653   2.197   2.126   8.127  0.2326 -1.1025  0.0548
 1673SOL     OW16654   1.799   3.694   5.267  0.4041 -0.0399 -0.0258
 1673SOL    HW116655   1.865   3.728   5.327  1.7753  0.1670 -1.6749
 1673SOL    HW216656   1.759   3.773   5.232 -1.0074 -1.8917 -2.6339
 1674SOL     OW16657   2.541   2.564  11.535  0.8255 -0.1088 -0.2502
 1674SOL    HW116658   2.576   2.483  11.498 -1.3382 -1.3727  0.4090
 1674SOL    HW216659   2.520   2.599  11.449 -1.1279  0.1542  0.3156
 1675SOL     OW16660   1.869   3.660  14.864  0.0698 -0.0357  0.1805
 1675SOL    HW116661   1.796   3.687  14.920 -2.3169 -2.2530 -1.8242
 1675SOL    HW216662   1.914   3.608  14.931  0.0815  0.6274  0.6836
 1676SOL     OW16663   0.845   4.431  14.110 -1.0387 -0.0756 -0.0726
 1676SOL    HW116664   0.908   4.500  14.088  0.1746 -1.6559 -1.5214
 1676SOL    HW216665   0.908   4.360  14.121  0.0189  0.9261  0.3011
 1677SOL     OW16666   2.304   3.268  10.687 -0.3433  0.2402  0.0400
 1677SOL    HW116667   2.268   3.332  10.748 -1.6724 -1.1070  0.6643
 1677SOL    HW216668   2.376   3.240  10.745  0.0259  0.7162 -0.1890
 1678SOL     OW16669   2.783   3.524   6.845  0.0540  0.5842 -0.7698
 1678SOL    HW116670   2.821   3.460   6.784 -0.9593  0.7903 -1.6167
 1678SOL    HW216671   2.829   3.602   6.813  1.7935  0.5175  1.6050
 1679SOL     OW16672   2.336   0.852   5.455  0.2120  0.2540  0.4991
 1679SOL    HW116673   2.322   0.927   5.397 -3.7701  0.6376  2.0007
 1679SOL    HW216674   2.285   0.873   5.533  0.4859  0.3143  0.6647
 1680SOL     OW16675   3.691   0.421   8.447 -0.5859 -0.1522  0.1367
 1680SOL    HW116676   3.600   0.437   8.471 -0.8674  1.8452 -2.1799
 1680SOL    HW216677   3.675   0.345   8.391  0.0798 -0.1239 -0.0970
 1681SOL     OW16678   2.603   3.113   7.812  0.1052 -0.2022 -0.0800
 1681SOL    HW116679   2.656   3.107   7.733  0.3793  0.3669  0.0640
 1681SOL    HW216680   2.537   3.047   7.788  0.1606 -0.0706 -0.5907
 1682SOL     OW16681   2.391   3.667   5.568 -0.1372 -0.0531  0.4354
 1682SOL    HW116682   2.363   3.738   5.624 -0.3338  0.3334 -0.1493
 1682SOL    HW216683   2.366   3.596   5.627  1.7623 -1.2560 -0.2140
 1683SOL     OW16684   3.955   4.175   2.687 -0.3474  0.1877  0.0676
 1683SOL    HW116685   3.889   4.125   2.639 -2.9674  1.0211  2.8316
 1683SOL    HW216686   3.971   4.252   2.633  2.5000 -0.3442  0.1517
 1684SOL     OW16687   4.737   0.861   0.835 -0.3112 -0.1710  0.2664
 1684SOL    HW116688   4.670   0.917   0.796  0.6509 -1.2128 -2.8774
 1684SOL    HW216689   4.730   0.776   0.791  0.9460  0.1731 -0.5930
 1685SOL     OW16690   0.570   0.827   3.185 -0.2548  0.1940 -0.0232
 1685SOL    HW116691   0.535   0.898   3.131 -1.4642  1.1422  2.0104
 1685SOL    HW216692   0.660   0.855   3.166 -0.4689  2.8443  3.0234
 1686SOL     OW16693   4.639   4.634   1.066  0.3592 -0.2484 -0.5730
 1686SOL    HW116694   4.666   4.544   1.085  2.2362  0.7645  1.5841
 1686SOL    HW216695   4.556   4.614   1.023 -1.1583  0.7037  1.8802
 1687SOL     OW16696   3.164   4.155   8.557 -0.2247 -0.2631 -0.6129
 1687SOL    HW116697   3.098   4.176   8.623  1.4753 -1.0102  1.3389
 1687SOL    HW216698   3.210   4.239   8.558 -0.0042 -0.3820 -0.6882
 1688SOL     OW16699   2.559   2.276   5.258  0.8965  0.0341 -0.2162
 1688SOL    HW116700   2.634   2.259   5.315  0.4823 -0.2932  0.2330
 1688SOL    HW216701   2.510   2.341   5.310 -0.1694 -1.8123  1.1043
 1689SOL     OW16702   2.281   4.072   1.010  0.4173  0.1101  0.3472
 1689SOL    HW116703   2.219   4.106   0.946  2.2652 -2.4568 -2.7699
 1689SOL    HW216704   2.233   4.081   1.092  0.8079  1.2676  0.4497
 1690SOL     OW16705   2.327   1.899  16.186 -0.1923  0.3536  0.0018
 1690SOL    HW116706   2.251   1.953  16.209  0.2290 -0.0509  2.3692
 1690SOL    HW216707   2.330   1.823  16.244 -0.0106 -1.9295 -3.0133
 1691SOL     OW16708   3.670   2.502   7.125 -0.2865 -0.0123  0.6719
 1691SOL    HW116709   3.647   2.577   7.070  2.1393  0.9941  1.0331
 1691SOL    HW216710   3.719   2.545   7.195 -1.6352  1.5077  0.6832
 1692SOL     OW16711   1.408   3.265  15.317 -0.1050 -1.1314  0.3535
 1692SOL    HW116712   1.430   3.352  15.349 -2.6235 -0.8396  1.2541
 1692SOL    HW216713   1.370   3.285  15.231  0.2738  0.2078  0.4947
 1693SOL     OW16714   4.114   2.832   2.710  0.4155  0.4195 -0.2712
 1693SOL    HW116715   4.189   2.773   2.706 -0.1418 -0.2330 -1.1386
 1693SOL    HW216716   4.153   2.919   2.711  0.8862  0.1822  1.4596
 1694SOL     OW16717   3.230   3.228   6.854 -0.1400  0.0547 -0.7651
 1694SOL    HW116718   3.166   3.291   6.821  0.7637  0.2281 -2.1616
 1694SOL    HW216719   3.228   3.170   6.778 -1.2640 -0.1572 -0.5786
 1695SOL     OW16720   0.393   2.803  12.740  0.3604 -0.1708 -0.7245
 1695SOL    HW116721   0.373   2.864  12.811 -0.0063 -0.9064 -0.1955
 1695SOL    HW216722   0.484   2.823  12.718  0.3523 -0.0633 -0.6626
 1696SOL     OW16723   2.129   0.322   5.694  0.4259 -0.0530 -0.9493
 1696SOL    HW116724   2.145   0.298   5.785 -0.2513 -1.0751 -1.1045
 1696SOL    HW216725   2.115   0.417   5.704  1.1984 -0.2125  1.4161
 1697SOL     OW16726   2.312   0.331  11.273 -0.2190  0.5966 -0.9918
 1697SOL    HW116727   2.304   0.239  11.247 -1.1839  0.6484 -0.8671
 1697SOL    HW216728   2.296   0.384  11.195 -0.2063  0.6258 -0.9743
 1698SOL     OW16729   3.279   1.111  11.049  0.6529  0.0861  0.1925
 1698SOL    HW116730   3.305   1.190  11.097  0.7441 -0.9456  1.8522
 1698SOL    HW216731   3.236   1.050  11.110  2.0170 -2.4095 -1.3539
 1699SOL     OW16732   1.339   1.966   6.857  0.0527 -0.1460  0.2943
 1699SOL    HW116733   1.248   1.935   6.850 -0.1832  0.0921  2.5640
 1699SOL    HW216734   1.332   2.055   6.822 -3.5628 -0.4518  0.2457
 1700SOL     OW16735   2.687   3.348   1.818  1.1356 -0.1366 -0.1168
 1700SOL    HW116736   2.635   3.422   1.848  0.3059 -0.5514 -0.5171
 1700SOL    HW216737   2.624   3.312   1.755  0.3941 -2.0629  1.7464
 1701SOL     OW16738   1.735   2.638   1.472  0.4401 -0.1139  0.4044
 1701SOL    HW116739   1.647   2.615   1.500 -0.3005 -0.1173 -1.9458
 1701SOL    HW216740   1.773   2.660   1.557  2.5111  0.4091 -0.6314
 1702SOL     OW16741   0.362   1.568   1.960  0.4170 -0.1844  0.1821
 1702SOL    HW116742   0.282   1.520   1.938 -0.0351  1.2393 -1.3443
 1702SOL    HW216743   0.366   1.539   2.051 -0.4700 -1.2744 -0.1206
 1703SOL     OW16744   0.726   0.067   4.103 -0.6211 -0.2354 -0.2981
 1703SOL    HW116745   0.748   0.020   4.183  0.9715  1.1011  0.0296
 1703SOL    HW216746   0.680   0.141   4.143  1.0044 -0.5864  2.2322
 1704SOL     OW16747   4.157   1.124   8.880 -0.2086  0.3046  0.0411
 1704SOL    HW116748   4.102   1.183   8.828  0.1622  0.1574 -0.5249
 1704SOL    HW216749   4.203   1.185   8.937 -1.2409  2.7851 -1.8200
 1705SOL     OW16750   3.576   2.685  10.679 -0.2056 -0.2106  0.6221
 1705SOL    HW116751   3.621   2.769  10.682 -1.6737  0.5444  1.8310
 1705SOL    HW216752   3.492   2.720  10.647 -0.8397 -1.2342  1.1638
 1706SOL     OW16753   4.560   1.709  17.479 -0.0436 -0.0350 -0.3124
 1706SOL    HW116754   4.540   1.797  17.513 -0.1202  0.1270 -0.7737
 1706SOL    HW216755   4.501   1.706  17.403 -2.7519 -0.4054  1.8001
 1707SOL     OW16756   1.729   3.986   9.335 -1.2053 -0.0867  0.3118
 1707SOL    HW116757   1.638   4.015   9.326 -1.2370 -0.7865 -1.5509
 1707SOL    HW216758   1.708   3.900   9.300  0.7626  0.0146 -1.0442
 1708SOL     OW16759   2.526   0.919  13.158 -0.3376 -0.0943 -0.9152
 1708SOL    HW116760   2.483   0.995  13.198 -1.9738 -1.8400  0.6873
 1708SOL    HW216761   2.599   0.959  13.112  1.0902 -2.1383 -0.3951
 1709SOL     OW16762   1.735   0.582  15.780  0.5713  0.4308 -0.4068
 1709SOL    HW116763   1.693   0.507  15.737  0.5011  0.3846 -0.2617
 1709SOL    HW216764   1.826   0.577  15.753  0.0040  2.4414 -2.6450
 1710SOL     OW16765   3.908   0.403   8.594  0.2167  0.4240  0.1082
 1710SOL    HW116766   3.954   0.367   8.518  0.3511 -0.2564  0.5215
 1710SOL    HW216767   3.821   0.417   8.556  0.3017  1.6101  0.3576
 1711SOL     OW16768   1.660   3.956   3.476 -0.7240 -0.1691  0.1199
 1711SOL    HW116769   1.598   3.978   3.406 -1.2353  1.6440  1.1241
 1711SOL    HW216770   1.692   4.044   3.495  1.7188 -1.2196  0.8955
 1712SOL     OW16771   0.845   0.429   8.451  0.1981 -0.0500  0.3105
 1712SOL    HW116772   0.797   0.458   8.528  0.5706  1.7651 -0.1389
 1712SOL    HW216773   0.901   0.503   8.426 -0.3919 -0.4646 -2.2666
 1713SOL     OW16774   4.528   0.307  14.565 -0.2205  0.2295  0.0554
 1713SOL    HW116775   4.619   0.337  14.559  0.2111 -0.7532  1.6246
 1713SOL    HW216776   4.516   0.266  14.479  0.9728 -0.4631  0.2234
 1714SOL     OW16777   1.543   2.597  16.260 -0.2158  0.0505  0.6207
 1714SOL    HW116778   1.491   2.619  16.183 -0.1712 -0.9031  0.3064
 1714SOL    HW216779   1.494   2.652  16.321 -1.7288  0.2160 -0.7653
 1715SOL     OW16780   3.112   1.854  10.298 -0.2385 -0.4199 -0.3471
 1715SOL    HW116781   3.206   1.868  10.294  0.1303 -1.9771  2.7468
 1715SOL    HW216782   3.109   1.799  10.377  0.4896 -0.0537 -0.0668
 1716SOL     OW16783   3.228   1.248   7.280  0.0458 -0.5948  0.0437
 1716SOL    HW116784   3.291   1.270   7.212  1.5334  0.6559  1.8275
 1716SOL    HW216785   3.290   1.235   7.352 -1.6802 -1.6143  1.3466
 1717SOL     OW16786   4.466   1.969  17.623 -0.1726  0.4875 -0.0629
 1717SOL    HW116787   4.487   1.967  17.716 -0.4550  0.8978  0.0126
 1717SOL    HW216788   4.389   1.917  17.601 -0.9739  1.2235  1.0132
 1718SOL     OW16789   1.717   1.551   4.553 -0.5368  0.6523  0.0480
 1718SOL    HW116790   1.747   1.634   4.515  1.1721  0.0261  0.0170
 1718SOL    HW216791   1.676   1.505   4.479 -1.9246 -0.2976  1.4077
 1719SOL     OW16792   3.364   0.556  13.355 -0.4927  0.1740  0.2471
 1719SOL    HW116793   3.429   0.487  13.344 -2.0818 -1.4548  1.0820
 1719SOL    HW216794   3.416   0.634  13.375 -0.8648  0.4631  0.1069
 1720SOL     OW16795   1.374   3.949   3.466 -0.0756  0.9356 -0.6489
 1720SOL    HW116796   1.379   4.044   3.470 -1.6209  1.0249 -1.0132
 1720SOL    HW216797   1.350   3.923   3.555  1.1931  0.0572 -0.5578
 1721SOL     OW16798   0.872   0.053   5.376 -0.0633  0.3057  0.3360
 1721SOL    HW116799   0.953   0.083   5.336 -0.8632  2.1345  0.0701
 1721SOL    HW216800   0.888   0.051   5.471 -0.6469 -0.7299  0.4119
 1722SOL     OW16801   0.052   2.312   5.501  0.0298 -0.7415 -0.0024
 1722SOL    HW116802   4.735   2.372   5.454  0.1096  0.4813  1.4954
 1722SOL    HW216803   0.126   2.369   5.520 -0.4195  0.2819 -1.3793
 1723SOL     OW16804   0.481   2.943   3.833  0.3196  0.5193 -0.2564
 1723SOL    HW116805   0.442   3.031   3.837 -0.9546 -0.0285 -0.8915
 1723SOL    HW216806   0.406   2.885   3.818 -1.6378  2.6561  1.0635
 1724SOL     OW16807   4.672   0.678   2.368  0.1760  0.4999 -0.2842
 1724SOL    HW116808   4.679   0.756   2.313  1.8484 -0.1283 -0.9551
 1724SOL    HW216809   4.594   0.699   2.420 -0.1336 -0.7683 -0.2300
 1725SOL     OW16810   2.615   2.003  12.526  0.5128  0.1860  0.0666
 1725SOL    HW116811   2.699   2.038  12.496  0.9663 -0.0909  0.9922
 1725SOL    HW216812   2.630   2.011  12.621  0.2076  0.9168  0.0555
 1726SOL     OW16813   0.404   0.674   4.568  0.0050 -0.0373 -0.3404
 1726SOL    HW116814   0.469   0.623   4.617 -1.1712  0.2887  1.5455
 1726SOL    HW216815   0.345   0.604   4.539  0.8980 -0.5231 -1.0068
 1727SOL     OW16816   3.101   2.740   9.253  0.2311  0.3945  0.0266
 1727SOL    HW116817   3.097   2.791   9.172  2.5134 -1.0838 -1.0116
 1727SOL    HW216818   3.174   2.681   9.230  1.0902  1.1682  0.8003
 1728SOL     OW16819   3.137   0.518  11.844 -0.2951 -0.6416  0.2633
 1728SOL    HW116820   3.186   0.443  11.877 -0.3636  0.1401  2.1288
 1728SOL    HW216821   3.199   0.590  11.855  0.3298 -0.4540 -4.4203
 1729SOL     OW16822   1.888   3.632   9.533 -0.5943  0.0882  0.1596
 1729SOL    HW116823   1.861   3.724   9.529 -0.9379 -0.1379 -2.5957
 1729SOL    HW216824   1.937   3.623   9.615 -0.0040 -3.0413 -0.5148
 1730SOL     OW16825   1.371   3.069   8.573  0.1875 -0.2293 -0.5065
 1730SOL    HW116826   1.326   3.149   8.546 -0.6075 -0.9919 -1.4883
 1730SOL    HW216827   1.453   3.110   8.600 -2.1918  3.3686  1.1961
 1731SOL     OW16828   3.559   1.651   4.279  0.2859 -0.0746 -0.0304
 1731SOL    HW116829   3.515   1.586   4.334  0.7346  0.2098  0.6655
 1731SOL    HW216830   3.554   1.727   4.337 -0.7046 -1.4254  1.6615
 1732SOL     OW16831   4.229   4.426   7.687  0.3859  0.8320 -0.3131
 1732SOL    HW116832   4.306   4.473   7.655  2.0433 -1.8676 -0.3139
 1732SOL    HW216833   4.258   4.402   7.775 -0.5899  0.5733 -0.0632
 1733SOL     OW16834   0.404   0.534  16.925 -0.2141  0.0463  0.1090
 1733SOL    HW116835   0.381   0.605  16.864  0.7759  0.9260  0.7575
 1733SOL    HW216836   0.425   0.468  16.859  3.5047  1.6075 -0.2896
 1734SOL     OW16837   0.607   4.256  14.709  0.0654  0.0987 -0.3774
 1734SOL    HW116838   0.514   4.236  14.701  0.2021 -1.3394  1.6416
 1734SOL    HW216839   0.602   4.311  14.631  0.7564 -1.5265 -1.5795
 1735SOL     OW16840   3.887   4.590  15.498 -0.2082  0.0737  0.0506
 1735SOL    HW116841   3.931   4.596  15.414  2.2358 -2.0553  1.1635
 1735SOL    HW216842   3.892   4.681  15.526 -0.6982  0.1181 -0.0170
 1736SOL     OW16843   1.648   0.280   5.597  0.0544  0.0714  0.3672
 1736SOL    HW116844   1.740   0.252   5.599 -0.1446 -0.4071  2.4467
 1736SOL    HW216845   1.647   0.345   5.527 -1.8995  0.9149  1.1796
 1737SOL     OW16846   0.375   3.362   2.081  0.0083 -0.7472 -0.0366
 1737SOL    HW116847   0.294   3.388   2.038  0.9803 -0.8391 -1.8936
 1737SOL    HW216848   0.371   3.408   2.165 -0.6340  0.8783 -0.9466
 1738SOL     OW16849   0.707   4.542   1.183 -0.6332  0.5764  0.2727
 1738SOL    HW116850   0.677   4.541   1.274 -0.0856 -0.2626  0.4480
 1738SOL    HW216851   0.695   4.454   1.149  1.0684  0.4313  0.0494
 1739SOL     OW16852   3.981   1.040  15.782  0.1020 -0.3141  0.3536
 1739SOL    HW116853   4.070   1.073  15.795 -0.5718  2.0327 -1.0124
 1739SOL    HW216854   3.931   1.104  15.833 -2.1899 -0.3726 -1.8438
 1740SOL     OW16855   0.156   3.664  12.932 -0.2676  0.3407 -0.2236
 1740SOL    HW116856   0.225   3.653  12.866 -0.3555  1.7255 -0.5652
 1740SOL    HW216857   0.204   3.727  12.985 -1.9959  0.1885  1.5192
 1741SOL     OW16858   2.713   0.938   4.255  0.6035 -0.0597  0.1427
 1741SOL    HW116859   2.647   0.881   4.294  0.1392  1.4655  1.5621
 1741SOL    HW216860   2.695   0.930   4.161  2.7734  1.3030 -0.3910
 1742SOL     OW16861   0.389   3.206   3.771  0.1923  0.0700 -0.1950
 1742SOL    HW116862   0.423   3.195   3.683 -0.1745 -3.4954  0.1290
 1742SOL    HW216863   0.433   3.289   3.786 -2.7016  1.4855  0.5579
 1743SOL     OW16864   4.725   2.800   4.556 -0.2651 -0.0705 -0.0096
 1743SOL    HW116865   4.708   2.714   4.519 -0.2530 -0.5531  1.0953
 1743SOL    HW216866   0.059   2.833   4.504 -0.7139  2.0035  0.6510
 1744SOL     OW16867   3.470   2.398   8.296 -0.4082 -0.0543  0.1543
 1744SOL    HW116868   3.437   2.308   8.287  0.4121 -0.0615 -2.9820
 1744SOL    HW216869   3.392   2.430   8.341  0.3899  1.1750  0.6420
 1745SOL     OW16870   2.887   2.783   3.808  0.5902 -0.3554 -0.0119
 1745SOL    HW116871   2.955   2.783   3.740  1.8946  1.5370  1.3010
 1745SOL    HW216872   2.877   2.690   3.828  1.0016 -0.5974 -0.9283
 1746SOL     OW16873   0.729   2.404   4.556 -0.2028  0.0308  0.5633
 1746SOL    HW116874   0.820   2.426   4.537 -0.2504  1.5646  2.0974
 1746SOL    HW216875   0.707   2.460   4.631  0.6189  1.0488  0.0398
 1747SOL     OW16876   0.272   0.373   8.694 -0.5484  0.4666  0.0966
 1747SOL    HW116877   0.223   0.434   8.639 -0.6945  2.5158  2.5065
 1747SOL    HW216878   0.259   0.405   8.784 -0.1538  1.6521 -0.2612
 1748SOL     OW16879   1.684   3.502  12.909 -0.5246  0.3834  0.2312
 1748SOL    HW116880   1.593   3.523  12.886 -0.2933  0.7961 -0.3039
 1748SOL    HW216881   1.699   3.585  12.952 -2.1879 -0.6189  2.7162
 1749SOL     OW16882   2.724   0.305   4.467  0.1098 -0.6528 -0.2041
 1749SOL    HW116883   2.736   0.285   4.560 -0.7010  1.0718  0.2635
 1749SOL    HW216884   2.786   0.377   4.460 -2.0186  1.1611 -0.2214
 1750SOL     OW16885   4.663   0.260   6.482  0.0875  0.0591  0.0193
 1750SOL    HW116886   4.581   0.216   6.504  0.7144  0.3423  2.9793
 1750SOL    HW216887   4.722   0.185   6.469  0.8296  0.6263  0.1354
 1751SOL     OW16888   2.327   1.904   7.005 -0.0385 -0.7404 -0.8242
 1751SOL    HW116889   2.344   1.856   7.086 -1.9976 -0.4685 -0.2385
 1751SOL    HW216890   2.370   1.990   7.010  0.1172 -1.0177  2.5381
 1752SOL     OW16891   0.471   3.465   8.119 -0.6119  0.1241 -0.1140
 1752SOL    HW116892   0.529   3.403   8.165  0.1344  0.0620 -1.1448
 1752SOL    HW216893   0.383   3.428   8.123  0.0518 -1.3366  1.3006
 1753SOL     OW16894   4.730   2.111   5.328  0.6842 -0.5595  0.3022
 1753SOL    HW116895   4.669   2.057   5.379  1.0913 -2.3510 -1.1384
 1753SOL    HW216896   0.021   2.186   5.379 -0.5518  0.8622 -1.0218
 1754SOL     OW16897   0.967   2.715   7.205 -0.2377  0.2733 -0.6613
 1754SOL    HW116898   0.936   2.629   7.179 -0.9796 -0.0926  1.4694
 1754SOL    HW216899   0.889   2.752   7.247  1.7927  2.3091  1.3505
 1755SOL     OW16900   4.423   3.128   2.230  0.1334 -0.2178  0.2482
 1755SOL    HW116901   4.337   3.150   2.267  0.6464 -0.2715  1.4698
 1755SOL    HW216902   4.408   3.064   2.161  0.1288  0.7407 -0.6382
 1756SOL     OW16903   0.515   1.333   5.441 -0.0601 -0.6201  0.0858
 1756SOL    HW116904   0.525   1.361   5.532 -1.1936 -1.9633  0.6213
 1756SOL    HW216905   0.423   1.308   5.434 -0.2593  0.6450 -1.9732
 1757SOL     OW16906   0.176   4.392  12.656 -0.4582 -0.0247 -0.2112
 1757SOL    HW116907   0.086   4.368  12.678  0.1273 -2.9675 -1.0707
 1757SOL    HW216908   0.221   4.398  12.740 -0.3102  0.6697 -0.3393
 1758SOL     OW16909   3.672   1.711   7.072 -0.4551  0.4013  0.1814
 1758SOL    HW116910   3.686   1.789   7.018  0.2591  0.2659  0.1713
 1758SOL    HW216911   3.580   1.692   7.053 -0.1731 -0.5746 -0.1882
 1759SOL     OW16912   4.359   1.401  10.860  0.6921  0.5839  0.2821
 1759SOL    HW116913   4.434   1.347  10.835  2.1326  2.3943  0.7944
 1759SOL    HW216914   4.375   1.492  10.836  0.5421  1.0863  2.0728
 1760SOL     OW16915   0.568   2.340   4.336 -0.3284 -0.1528  0.4958
 1760SOL    HW116916   0.485   2.360   4.378 -1.7197 -0.5006 -2.1276
 1760SOL    HW216917   0.634   2.376   4.395  1.3299 -3.1559  0.5182
 1761SOL     OW16918   0.240   3.305   0.195  0.3349 -0.0476  0.2158
 1761SOL    HW116919   0.261   3.398   0.194 -0.1093  0.0594  0.9042
 1761SOL    HW216920   0.178   3.308   0.122  1.3430 -0.8559 -0.6580
 1762SOL     OW16921   2.219   0.875   8.929  0.2441  0.3778 -0.5761
 1762SOL    HW116922   2.306   0.901   8.958 -0.9815  1.3833  2.1498
 1762SOL    HW216923   2.241   0.897   8.838  0.2537 -0.5642 -0.8025
 1763SOL     OW16924   3.838   0.694   3.542  0.7916 -0.1089  0.4315
 1763SOL    HW116925   3.912   0.681   3.600  1.2621  0.0581 -0.1293
 1763SOL    HW216926   3.861   0.627   3.477 -1.3855 -3.2544  2.8839
 1764SOL     OW16927   2.450   1.383  17.496  0.2130 -0.9391 -0.6830
 1764SOL    HW116928   2.426   1.297  17.529  0.9776 -0.6457  0.6353
 1764SOL    HW216929   2.374   1.403  17.442 -1.0152  2.8682  2.4910
 1765SOL     OW16930   4.476   2.111   9.425 -0.4566  0.1302  0.3395
 1765SOL    HW116931   4.383   2.131   9.436 -0.2156 -0.9470  4.3711
 1765SOL    HW216932   4.512   2.200   9.429 -2.7144  1.0891 -0.7852
 1766SOL     OW16933   2.977   1.462   6.530 -0.3272  0.3765 -0.3251
 1766SOL    HW116934   3.032   1.479   6.607  2.3010 -0.3090 -2.0671
 1766SOL    HW216935   2.902   1.518   6.550 -1.0845 -1.4450  1.8642
 1767SOL     OW16936   3.381   0.341   8.818 -0.3063  0.2892  0.1247
 1767SOL    HW116937   3.465   0.333   8.772  1.1750  1.7411  2.5804
 1767SOL    HW216938   3.405   0.380   8.902 -3.9809  0.9914  0.8659
 1768SOL     OW16939   0.273   2.157   5.828  0.2481 -0.2734  0.0426
 1768SOL    HW116940   0.295   2.064   5.826  1.2809  0.0036 -1.6133
 1768SOL    HW216941   0.178   2.165   5.832  0.3014 -1.0640  3.1215
 1769SOL     OW16942   1.821   2.751  16.369 -0.1741  0.1655  0.8946
 1769SOL    HW116943   1.891   2.811  16.397 -0.3625  0.9505 -0.2952
 1769SOL    HW216944   1.873   2.671  16.365  0.9509  0.8008  2.2362
 1770SOL     OW16945   0.589   1.403   4.114  0.0411  0.4495 -0.2539
 1770SOL    HW116946   0.600   1.487   4.159  0.7030 -1.1464  2.5285
 1770SOL    HW216947   0.641   1.354   4.177  0.1385  0.8487 -0.0266
 1771SOL     OW16948   1.720   0.585   8.387  0.6424 -0.3694  0.2375
 1771SOL    HW116949   1.701   0.600   8.480 -0.2542 -2.7454  0.4404
 1771SOL    HW216950   1.634   0.552   8.362  0.3384  0.5397  0.0815
 1772SOL     OW16951   4.740   2.943   9.601 -0.1738 -0.1950  0.1132
 1772SOL    HW116952   0.069   2.886   9.634 -0.3419  0.2982  1.3183
 1772SOL    HW216953   0.002   3.010   9.669 -0.1447  0.6466 -0.7258
 1773SOL     OW16954   1.382   3.261   4.154  0.3365 -0.2145  0.3247
 1773SOL    HW116955   1.338   3.177   4.143  1.0409 -0.4557 -0.6493
 1773SOL    HW216956   1.400   3.276   4.061  1.6091  0.4611  0.6827
 1774SOL     OW16957   2.803   0.408   9.963  0.4295 -0.1300  0.5096
 1774SOL    HW116958   2.890   0.372   9.948  1.1300  2.4017 -1.4031
 1774SOL    HW216959   2.755   0.383   9.884 -3.1147 -0.3401  2.7314
 1775SOL     OW16960   4.194   1.238   3.847 -0.1876  0.0131 -0.1996
 1775SOL    HW116961   4.149   1.259   3.766  0.0680 -3.1776 -1.1816
 1775SOL    HW216962   4.269   1.185   3.819  0.6810  1.4640 -0.5623
 1776SOL     OW16963   0.788   4.336   1.641 -0.6031 -0.0821 -0.3944
 1776SOL    HW116964   0.882   4.351   1.641 -1.0558  2.5976  3.1537
 1776SOL    HW216965   0.791   4.261   1.581 -0.3538 -0.4171  0.0396
 1777SOL     OW16966   0.748   4.681  17.043 -0.4740  0.7602 -0.4381
 1777SOL    HW116967   0.819   4.734  17.079 -1.1262  1.2297  0.1501
 1777SOL    HW216968   0.724   4.717  16.957  0.6157  1.3778 -0.4780
 1778SOL     OW16969   1.086   0.716   8.598 -0.2436 -0.0697 -0.2994
 1778SOL    HW116970   1.040   0.707   8.515  1.2931 -0.5300 -1.1053
 1778SOL    HW216971   1.014   0.756   8.647 -0.0488 -0.4447  0.2874
 1779SOL     OW16972   1.375   2.675  13.822 -0.3246  0.3383  0.0197
 1779SOL    HW116973   1.335   2.590  13.802 -0.0665  0.2803 -0.2542
 1779SOL    HW216974   1.299   2.728  13.795  0.0885  1.2392  0.6163
 1780SOL     OW16975   1.692   3.902   7.779  0.2798 -0.1507 -0.2256
 1780SOL    HW116976   1.758   3.854   7.828  0.9845 -2.1603 -3.1586
 1780SOL    HW216977   1.627   3.834   7.764  0.2179 -0.2176  0.3377
 1781SOL     OW16978   2.803   1.256   7.880 -0.1778  0.0483  0.1728
 1781SOL    HW116979   2.832   1.261   7.971 -0.5639  2.2131  0.1768
 1781SOL    HW216980   2.854   1.326   7.839 -1.4632 -0.6437 -2.6225
 1782SOL     OW16981   4.190   0.129   3.679  0.1280 -0.2249 -0.2149
 1782SOL    HW116982   4.227   0.043   3.655  2.8659  0.8543  0.0959
 1782SOL    HW216983   4.105   0.103   3.715 -0.1316  0.6368 -0.2092
 1783SOL     OW16984   4.122   4.448   8.109 -0.1403  0.8260  0.0494
 1783SOL    HW116985   4.048   4.429   8.167 -0.9254  0.1719 -1.1556
 1783SOL    HW216986   4.087   4.525   8.065 -0.4840  1.6078  1.7067
 1784SOL     OW16987   1.013   0.031   8.595 -0.3084 -0.4155 -0.1231
 1784SOL    HW116988   0.992   4.698   8.653  1.5604  0.3269  1.4942
 1784SOL    HW216989   0.980   4.740   8.510 -1.6691  0.9323 -0.0853
 1785SOL     OW16990   3.262   2.991   7.849 -0.1871  0.2892 -0.1812
 1785SOL    HW116991   3.259   2.909   7.800  3.6472  0.0316 -0.0052
 1785SOL    HW216992   3.175   3.024   7.829 -1.5699 -1.3817  3.1504
 1786SOL     OW16993   3.993   1.635   3.500 -0.0650  0.6209  0.0665
 1786SOL    HW116994   3.957   1.578   3.568  0.1972 -1.3656 -1.4303
 1786SOL    HW216995   4.048   1.694   3.551 -0.1917  0.6991  0.1116
 1787SOL     OW16996   1.388   1.232   6.380 -0.1892 -0.2063  0.3171
 1787SOL    HW116997   1.422   1.236   6.470 -0.2998 -0.7719  0.3824
 1787SOL    HW216998   1.419   1.319   6.355 -0.5964  0.6183  2.6810
 1788SOL     OW16999   2.871   3.104   2.211  0.0891  0.4648 -0.3433
 1788SOL    HW117000   2.966   3.104   2.204  0.2272 -1.1592  1.4884
 1788SOL    HW217001   2.845   3.114   2.119  0.8475 -0.2444 -0.6361
 1789SOL     OW17002   1.390   0.058   4.070 -0.6634  0.1868  0.0399
 1789SOL    HW117003   1.436   4.729   4.116  0.6094  1.3876  0.5563
 1789SOL    HW217004   1.310   0.010   4.048 -1.0526 -0.1847  2.3459
 1790SOL     OW17005   3.212   1.998   1.280  0.3825  0.2664 -0.2994
 1790SOL    HW117006   3.148   2.051   1.233  1.4361  0.8202 -1.1363
 1790SOL    HW217007   3.190   1.909   1.252 -0.0986  1.0825 -2.5244
 1791SOL     OW17008   3.960   0.878  12.606  0.1742  0.4171  0.3656
 1791SOL    HW117009   4.051   0.874  12.633  0.5474  1.2753 -0.7743
 1791SOL    HW217010   3.915   0.883  12.691 -2.9857 -1.1928 -1.1766
 1792SOL     OW17011   0.900   0.533  14.471  0.5204  0.0571 -0.4274
 1792SOL    HW117012   0.960   0.579  14.530  1.2651  0.6560 -1.6544
 1792SOL    HW217013   0.815   0.576  14.484  1.0244  0.9434 -0.0621
 1793SOL     OW17014   1.772   1.735   0.789  0.7826  0.5798 -0.5791
 1793SOL    HW117015   1.695   1.778   0.825  0.1774 -1.5812  0.7591
 1793SOL    HW217016   1.726   1.682   0.724  0.0720  0.5803 -0.0746
 1794SOL     OW17017   1.374   3.164  16.806  0.1294  0.2433  0.1073
 1794SOL    HW117018   1.388   3.257  16.825 -1.2871  1.1176 -3.1405
 1794SOL    HW217019   1.432   3.155  16.730 -0.4416 -2.2595 -0.0214
 1795SOL     OW17020   4.642   0.962  10.253  0.2129  0.0366  0.4561
 1795SOL    HW117021   4.684   1.048  10.253 -0.6447  0.4589  1.1682
 1795SOL    HW217022   4.591   0.955  10.172  0.7708 -0.0317  0.1104
 1796SOL     OW17023   1.706   0.217   2.900  0.2161 -0.0562  0.0097
 1796SOL    HW117024   1.691   0.287   2.964  0.7679  0.6667 -0.6538
 1796SOL    HW217025   1.632   0.161   2.921 -0.2234  0.2991 -0.5955
 1797SOL     OW17026   3.506   4.236   3.552  0.2197 -0.7925  0.3924
 1797SOL    HW117027   3.587   4.287   3.553  0.3468 -0.9885 -0.4384
 1797SOL    HW217028   3.465   4.283   3.480 -0.9047 -1.8314  0.3589
 1798SOL     OW17029   0.037   2.337   5.908  0.2491  0.3319  0.0047
 1798SOL    HW117030   4.722   2.411   5.882  0.1395 -0.8596 -3.1366
 1798SOL    HW217031   0.018   2.283   5.831 -0.0906 -0.7785  0.8632
 1799SOL     OW17032   0.937   1.970   4.915 -0.6817  0.2737  0.2014
 1799SOL    HW117033   0.957   2.047   4.862  0.7945 -1.2058 -1.4030
 1799SOL    HW217034   0.973   1.996   5.000 -1.3910  0.0355  0.5794
 1800SOL     OW17035   4.414   4.209   4.879  0.2075 -0.7851 -0.1833
 1800SOL    HW117036   4.444   4.283   4.825 -0.3439  0.5482  1.3451
 1800SOL    HW217037   4.425   4.245   4.967  0.8002 -0.1089 -0.5310
 1801SOL     OW17038   4.110   3.963  17.140  0.3770  0.1716 -0.0702
 1801SOL    HW117039   4.116   4.015  17.220 -1.2131 -0.7177  0.6245
 1801SOL    HW217040   4.171   3.892  17.162 -0.2362 -0.8711 -1.6912
 1802SOL     OW17041   0.145   2.098   7.351 -0.1539  0.6101 -0.0442
 1802SOL    HW117042   0.190   2.099   7.435 -0.5649 -1.0791  0.1890
 1802SOL    HW217043   0.184   2.024   7.305 -0.7424  0.2464  0.0396
 1803SOL     OW17044   1.778   3.910  10.831  0.2045  0.3520 -0.0862
 1803SOL    HW117045   1.845   3.918  10.763 -0.1318 -1.9013 -0.7006
 1803SOL    HW217046   1.703   3.951  10.789  1.1242  2.2947  0.1455
 1804SOL     OW17047   2.696   3.687  13.803  0.4717  0.3598 -0.3483
 1804SOL    HW117048   2.601   3.676  13.803  0.5941 -0.6025  0.4096
 1804SOL    HW217049   2.714   3.778  13.779 -0.2351  0.7152  0.4599
 1805SOL     OW17050   0.351   2.397   8.308  0.5856  0.0194  0.3244
 1805SOL    HW117051   0.328   2.308   8.336 -0.7696  0.5321  0.8709
 1805SOL    HW217052   0.290   2.408   8.235  0.3580  0.5222  0.5894
 1806SOL     OW17053   2.475   1.035   4.765 -0.0841 -0.0042  0.0457
 1806SOL    HW117054   2.433   1.028   4.679  0.5992  1.2421 -0.3849
 1806SOL    HW217055   2.397   1.057   4.815 -0.4386 -1.9606  0.3805
 1807SOL     OW17056   2.047   1.840  10.524 -0.4098  0.0180 -0.3743
 1807SOL    HW117057   2.111   1.770  10.534  0.8230  0.9578 -1.6322
 1807SOL    HW217058   2.024   1.849  10.616  1.4597  0.6153  0.0358
 1808SOL     OW17059   2.217   3.419   8.941  0.8204  0.0121  0.2820
 1808SOL    HW117060   2.177   3.372   9.014  3.4774 -1.8214  0.5620
 1808SOL    HW217061   2.232   3.503   8.986  0.2602  0.6021 -0.6282
 1809SOL     OW17062   4.229   3.280   3.525  0.0527  0.7540 -0.1963
 1809SOL    HW117063   4.182   3.359   3.501 -1.5487 -0.3589 -0.7341
 1809SOL    HW217064   4.261   3.300   3.613 -0.5445  0.4247  0.0924
 1810SOL     OW17065   0.658   4.637   1.839 -0.5343  0.4111  0.0457
 1810SOL    HW117066   0.577   4.656   1.886 -1.8004 -0.2485 -1.8594
 1810SOL    HW217067   0.686   4.561   1.889 -0.7941 -0.4340 -1.1120
 1811SOL     OW17068   3.249   0.469   7.112  0.5765 -0.3165 -0.2596
 1811SOL    HW117069   3.214   0.439   7.028 -1.0232  0.8767 -0.0247
 1811SOL    HW217070   3.263   0.384   7.155 -1.6946 -1.1225 -1.1182
 1812SOL     OW17071   0.579   3.190   5.960  0.0438 -0.2966  0.3741
 1812SOL    HW117072   0.505   3.130   5.952 -0.4597  0.3113  0.4173
 1812SOL    HW217073   0.641   3.133   6.006 -0.1110 -0.1674  0.7443
 1813SOL     OW17074   0.292   0.629   3.142 -0.4004 -0.0359  0.0338
 1813SOL    HW117075   0.329   0.712   3.171  0.7397 -0.2124 -0.8596
 1813SOL    HW217076   0.259   0.653   3.055 -0.8551 -2.2028 -0.4112
 1814SOL     OW17077   0.388   2.391   5.854  0.6886  0.2749 -0.2610
 1814SOL    HW117078   0.334   2.313   5.843 -0.7594  1.3093 -0.6042
 1814SOL    HW217079   0.360   2.438   5.775  1.7421  0.9662 -0.2258
 1815SOL     OW17080   4.260   2.589  10.052  0.1732  0.2030 -0.2544
 1815SOL    HW117081   4.180   2.592  10.104  1.3457 -1.0945  1.6208
 1815SOL    HW217082   4.305   2.671  10.073  0.7930  0.0828 -1.0950
 1816SOL     OW17083   1.008   4.191   4.410  0.3907 -0.0340 -0.2289
 1816SOL    HW117084   0.914   4.196   4.424  0.6298 -0.7072  1.6397
 1816SOL    HW217085   1.000   4.137   4.331 -0.9743 -0.3269  0.1169
 1817SOL     OW17086   3.662   2.551   7.814  0.6376  0.1817  0.8631
 1817SOL    HW117087   3.672   2.605   7.736  1.2565 -1.5771 -0.2794
 1817SOL    HW217088   3.736   2.492   7.800  2.4793  2.5299  0.8429
 1818SOL     OW17089   0.792   1.669   1.972  0.6822  0.0968  0.0498
 1818SOL    HW117090   0.765   1.732   2.038 -0.4669  0.1474 -0.4548
 1818SOL    HW217091   0.881   1.651   2.001  1.0055 -0.7079 -1.4041
 1819SOL     OW17092   0.201   2.368   2.528  0.0649  0.3948 -0.3687
 1819SOL    HW117093   0.167   2.397   2.613 -0.0797 -0.0599 -0.2702
 1819SOL    HW217094   0.250   2.445   2.499  0.5794 -0.1061 -0.8082
 1820SOL     OW17095   1.952   0.954  15.613 -0.0661 -0.1352  0.2876
 1820SOL    HW117096   2.001   0.872  15.604 -1.0160 -0.5625 -0.9385
 1820SOL    HW217097   1.862   0.925  15.624 -0.4403  0.7201 -0.5194
 1821SOL     OW17098   1.906   3.539  15.108  0.6736 -0.3454  0.5584
 1821SOL    HW117099   1.896   3.454  15.065  0.3062  0.8168 -1.6003
 1821SOL    HW217100   1.886   3.518  15.200  0.8995  0.0805  0.7050
 1822SOL     OW17101   4.006   4.313   4.577 -0.0224 -0.3119  0.1153
 1822SOL    HW117102   3.956   4.311   4.659  0.6259 -0.1141  0.5204
 1822SOL    HW217103   4.062   4.238   4.597  0.6089 -0.0431 -0.6291
 1823SOL     OW17104   1.804   3.119   5.539  0.1047 -0.4750 -0.3533
 1823SOL    HW117105   1.785   3.040   5.591  0.0110  0.0490  0.4160
 1823SOL    HW217106   1.754   3.184   5.589 -1.2293 -1.5168 -0.3238
 1824SOL     OW17107   4.171   3.204   5.920  0.2536 -0.4048 -0.2288
 1824SOL    HW117108   4.208   3.270   5.860  0.6792  0.0643  0.5503
 1824SOL    HW217109   4.182   3.235   6.009 -0.0773  0.6612 -0.5612
 1825SOL     OW17110   3.495   0.305   4.401 -0.4558 -0.0273  0.6166
 1825SOL    HW117111   3.588   0.286   4.392 -0.6839 -1.3869  1.1669
 1825SOL    HW217112   3.472   0.225   4.448 -1.7913 -0.4687 -0.7685
 1826SOL     OW17113   3.394   2.772   9.343 -0.6932 -0.1307  0.1009
 1826SOL    HW117114   3.426   2.707   9.280  1.2383 -0.5537  1.5459
 1826SOL    HW217115   3.342   2.823   9.280 -0.5129  0.5935  0.5468
 1827SOL     OW17116   1.422   4.389   8.120 -0.2920  0.3688 -0.3854
 1827SOL    HW117117   1.513   4.360   8.129  0.0519  1.6478  0.2581
 1827SOL    HW217118   1.432   4.481   8.145 -0.7421  0.7352 -1.5261
 1828SOL     OW17119   0.784   0.447  10.096 -0.1764  0.3297 -0.0860
 1828SOL    HW117120   0.733   0.386  10.150  2.1119 -0.6193  0.9994
 1828SOL    HW217121   0.794   0.389  10.021 -0.1289 -0.7110  0.7213
 1829SOL     OW17122   4.550   2.080  11.498  0.2822 -0.3945 -0.4180
 1829SOL    HW117123   4.500   2.011  11.454 -1.6835  0.7884 -0.0184
 1829SOL    HW217124   4.579   2.129  11.421 -1.1604  0.3907 -0.4653
 1830SOL     OW17125   0.129   4.455  14.716  0.0451 -0.1115  0.3957
 1830SOL    HW117126   0.163   4.464  14.805 -0.2341 -1.4013  0.6326
 1830SOL    HW217127   0.036   4.438  14.734  0.4399 -2.5260  0.2098
 1831SOL     OW17128   4.237   4.283   3.467  0.1332 -1.1771  0.1113
 1831SOL    HW117129   4.270   4.212   3.411 -0.7136  1.2920 -3.5099
 1831SOL    HW217130   4.289   4.359   3.442  0.9728 -1.5436  0.7492
 1832SOL     OW17131   3.157   2.639  13.426 -0.4586 -0.3409  0.2524
 1832SOL    HW117132   3.144   2.642  13.521  3.0925  0.8983  0.7115
 1832SOL    HW217133   3.189   2.728  13.409 -2.4486  0.0166 -1.6458
 1833SOL     OW17134   4.704   2.517   5.363 -0.0360  0.0005 -0.0680
 1833SOL    HW117135   4.639   2.581   5.333  0.9656  0.2406 -1.7559
 1833SOL    HW217136   0.040   2.574   5.375  1.1642 -1.3833 -1.0247
 1834SOL     OW17137   3.271   0.772  11.874  0.0049  0.0983  0.5291
 1834SOL    HW117138   3.342   0.731  11.923  0.5774 -2.1377 -2.1092
 1834SOL    HW217139   3.222   0.814  11.945 -1.9671 -0.7309 -0.3376
 1835SOL     OW17140   0.542   0.248   1.427  0.0276 -0.6017  0.2510
 1835SOL    HW117141   0.520   0.155   1.422  2.0976 -1.0890 -0.0942
 1835SOL    HW217142   0.530   0.268   1.335  0.6144 -2.1738 -0.1670
 1836SOL     OW17143   1.840   4.453   2.415 -0.0123 -0.2159 -0.4129
 1836SOL    HW117144   1.868   4.541   2.390 -1.5292  0.2553 -0.4018
 1836SOL    HW217145   1.884   4.444   2.500  2.2588  0.5775 -1.4877
 1837SOL     OW17146   1.786   3.836   7.042 -0.3335 -0.7385 -0.2629
 1837SOL    HW117147   1.766   3.812   6.952  3.1943 -1.9530 -0.7047
 1837SOL    HW217148   1.728   3.910   7.062 -1.3345 -1.5478 -0.1622
 1838SOL     OW17149   0.233   2.698   1.979  0.9391 -0.4424  0.4243
 1838SOL    HW117150   0.185   2.741   1.907 -0.3752 -2.4533  0.0880
 1838SOL    HW217151   0.174   2.715   2.052 -0.0748 -0.1460 -0.4496
 1839SOL     OW17152   0.078   2.843   8.198 -0.1229  0.6430 -0.3740
 1839SOL    HW117153   0.162   2.870   8.162  0.7934  1.0046  2.0282
 1839SOL    HW217154   0.014   2.908   8.166 -0.4138  0.3713 -0.3472
 1840SOL     OW17155   2.435   3.609  13.807 -0.2934 -0.1019 -0.2914
 1840SOL    HW117156   2.445   3.540  13.872  4.0699 -0.9696 -1.8251
 1840SOL    HW217157   2.377   3.569  13.743  1.7781 -0.1197 -2.1999
 1841SOL     OW17158   2.003   2.713   7.353 -0.1796 -0.1301  0.3643
 1841SOL    HW117159   2.046   2.771   7.291  1.2173 -2.3103 -0.7220
 1841SOL    HW217160   1.909   2.732   7.358 -0.3902 -0.7136 -1.1828
 1842SOL     OW17161   0.744   2.779   7.379  0.3802 -0.2117 -0.1802
 1842SOL    HW117162   0.712   2.690   7.395 -0.7628  0.2110 -0.1051
 1842SOL    HW217163   0.660   2.815   7.351 -0.4810  0.2808  2.9652
 1843SOL     OW17164   1.310   4.727   7.093 -0.8679 -0.0270  0.2988
 1843SOL    HW117165   1.236   4.727   7.154 -1.3889 -1.5256 -0.3448
 1843SOL    HW217166   1.257   0.015   7.018 -1.0425 -0.3198  0.3138
 1844SOL     OW17167   1.090   3.136  16.828  0.1809 -0.2629 -0.0532
 1844SOL    HW117168   1.069   3.227  16.847 -0.6277 -0.5328  0.3651
 1844SOL    HW217169   1.184   3.145  16.811  0.5220 -0.0602  1.9243
 1845SOL     OW17170   0.683   4.559   6.948 -0.4018  0.3449 -0.2288
 1845SOL    HW117171   0.627   4.560   6.870 -0.1803  2.2313 -0.3754
 1845SOL    HW217172   0.622   4.580   7.019 -1.2254 -1.6981 -0.3480
 1846SOL     OW17173   3.803   4.435   2.987  0.1051 -0.4873 -0.2369
 1846SOL    HW117174   3.832   4.344   2.981 -0.2663 -0.7202  1.4822
 1846SOL    HW217175   3.891   4.471   2.978 -0.0611  0.6481  2.5984
 1847SOL     OW17176   0.637   1.213   2.167  0.2843  0.1164  0.1331
 1847SOL    HW117177   0.563   1.227   2.109  0.7873  2.2868 -0.0089
 1847SOL    HW217178   0.699   1.270   2.121  1.2707  0.2226  1.5626
 1848SOL     OW17179   2.420   2.553  10.833 -0.0378  0.0282 -0.0603
 1848SOL    HW117180   2.446   2.541  10.742 -0.0430  0.9623 -0.1842
 1848SOL    HW217181   2.444   2.644  10.849  1.3855  0.2328 -3.4237
 1849SOL     OW17182   4.508   1.718   3.297 -0.5394 -0.2509 -0.0466
 1849SOL    HW117183   4.577   1.744   3.236 -1.0143 -0.4164 -0.6493
 1849SOL    HW217184   4.449   1.673   3.237 -1.0948 -0.8311  0.9284
 1850SOL     OW17185   3.003   0.157   8.289  0.4169 -0.7374 -0.0520
 1850SOL    HW117186   2.991   0.147   8.384  1.3564 -0.4587  0.0977
 1850SOL    HW217187   2.976   0.073   8.253 -1.8380  0.1792 -0.4590
 1851SOL     OW17188   3.690   4.042   5.403 -0.2823 -0.5075 -0.0278
 1851SOL    HW117189   3.740   3.991   5.466  2.3620  1.6290 -0.4054
 1851SOL    HW217190   3.708   3.997   5.320  0.4258 -1.1614  0.4799
 1852SOL     OW17191   3.383   3.976   2.502  0.3839  0.2069  0.1180
 1852SOL    HW117192   3.390   3.898   2.557  1.7205 -0.3185 -0.7966
 1852SOL    HW217193   3.348   4.035   2.569  1.1184 -0.7505  1.3404
 1853SOL     OW17194   2.902   0.161  13.303  0.3316 -0.3616  0.3990
 1853SOL    HW117195   2.820   0.186  13.261  0.2882 -2.0502 -0.5117
 1853SOL    HW217196   2.957   0.138  13.229  0.5108  0.4133  0.2974
 1854SOL     OW17197   2.226   3.089   8.875  0.2963 -0.5201 -0.2311
 1854SOL    HW117198   2.181   3.171   8.859  1.9877  0.3348 -0.6041
 1854SOL    HW217199   2.260   3.075   8.786 -1.2232 -1.3135 -0.6733
 1855SOL     OW17200   3.960   1.143   7.235 -0.1274  0.0459  0.0323
 1855SOL    HW117201   3.909   1.205   7.183 -1.2322 -0.9129 -0.0181
 1855SOL    HW217202   3.948   1.066   7.179  1.2033 -1.3631  1.6786
 1856SOL     OW17203   2.149   3.901   1.858  0.4907  0.1359  0.0998
 1856SOL    HW117204   2.182   3.842   1.926  0.2754  1.0885  1.0222
 1856SOL    HW217205   2.085   3.844   1.815  4.5547 -2.3874 -2.6395
 1857SOL     OW17206   3.307   0.576   5.068  0.1220  0.0103 -0.4939
 1857SOL    HW117207   3.325   0.666   5.094 -0.8248  0.2939 -0.8391
 1857SOL    HW217208   3.370   0.552   5.000 -0.1674 -0.6912 -0.5125
 1858SOL     OW17209   1.718   4.652  17.519  0.2183  0.2060 -0.0047
 1858SOL    HW117210   1.728   4.570  17.472  2.7587 -1.2092  2.9907
 1858SOL    HW217211   1.751   4.635  17.607  1.7691  2.5531 -0.1467
 1859SOL     OW17212   0.751   3.332   2.617  0.3903  0.4390  0.1055
 1859SOL    HW117213   0.787   3.253   2.576 -0.9915 -0.0116 -0.2152
 1859SOL    HW217214   0.667   3.295   2.642 -0.0351  2.2044  1.2656
 1860SOL     OW17215   4.586   3.816   4.050 -0.2216  0.2069 -0.2262
 1860SOL    HW117216   4.533   3.774   3.982 -2.3252 -0.2708  1.6878
 1860SOL    HW217217   4.523   3.799   4.121 -1.4969 -1.7985 -1.8189
 1861SOL     OW17218   3.236   2.801   8.509  0.0776 -0.3337 -0.3152
 1861SOL    HW117219   3.234   2.837   8.420  0.0402 -0.2949 -0.2984
 1861SOL    HW217220   3.212   2.879   8.560  1.7163 -0.8513  1.2589
 1862SOL     OW17221   3.864   1.158   1.974  0.1149 -0.0085 -0.5625
 1862SOL    HW117222   3.797   1.104   1.932 -0.8870  2.1031 -1.7162
 1862SOL    HW217223   3.802   1.228   1.997 -0.7961 -1.0139  0.0219
 1863SOL     OW17224   4.700   1.729   2.572  0.0094  0.1581  0.6023
 1863SOL    HW117225   0.032   1.785   2.543  1.2302 -2.0142 -0.5591
 1863SOL    HW217226   4.647   1.798   2.612  1.3663  1.6597 -0.1593
 1864SOL     OW17227   0.293   1.342   8.370 -0.1001 -0.0270  0.1805
 1864SOL    HW117228   0.281   1.435   8.350 -2.2942 -0.5357 -0.8447
 1864SOL    HW217229   0.206   1.311   8.346  0.0533  0.7060 -1.3616
 1865SOL     OW17230   2.046   3.400   6.096 -0.0751 -0.0169 -0.0492
 1865SOL    HW117231   2.054   3.336   6.026 -0.3231  2.5421 -2.3937
 1865SOL    HW217232   1.954   3.413   6.119 -0.1910 -0.8920 -0.0236
 1866SOL     OW17233   3.107   0.641   6.635 -0.1424  0.3205 -0.0151
 1866SOL    HW117234   3.198   0.638   6.605 -0.6445  0.7825 -1.5494
 1866SOL    HW217235   3.055   0.664   6.559  2.1217  0.1156 -1.6291
 1867SOL     OW17236   1.325   0.336   7.276  0.1274 -0.1491 -1.0681
 1867SOL    HW117237   1.385   0.406   7.251  0.9425  0.4555  2.5313
 1867SOL    HW217238   1.386   0.277   7.320 -0.3862 -0.9771 -1.4614
 1868SOL     OW17239   2.599   1.235  10.587 -0.1930 -0.1951 -0.5296
 1868SOL    HW117240   2.667   1.190  10.637  0.7251  0.7486 -0.9446
 1868SOL    HW217241   2.644   1.207  10.508 -0.4123  0.1156 -0.7640
 1869SOL     OW17242   0.775   2.668  16.461 -0.1306 -0.7394  0.1507
 1869SOL    HW117243   0.758   2.701  16.549  2.5604 -1.6601  1.0363
 1869SOL    HW217244   0.703   2.606  16.454 -0.5539 -0.2909  0.5023
 1870SOL     OW17245   2.036   1.897  10.786  0.2849  0.7314 -0.1420
 1870SOL    HW117246   1.961   1.955  10.771 -0.2313  0.0973 -0.0136
 1870SOL    HW217247   1.989   1.835  10.842 -0.2470  0.1586 -1.2303
 1871SOL     OW17248   1.205   4.599  11.677 -0.1107 -0.5744 -0.1318
 1871SOL    HW117249   1.191   4.540  11.751 -0.4784 -0.5552 -0.1852
 1871SOL    HW217250   1.254   4.671  11.717 -0.1333 -0.8195  0.3364
 1872SOL     OW17251   4.736   2.212   0.597  0.4858 -0.1313  0.9171
 1872SOL    HW117252   0.039   2.201   0.682  2.5661  0.9589 -0.0079
 1872SOL    HW217253   0.066   2.270   0.567  0.2408 -0.2205  0.1869
 1873SOL     OW17254   0.410   3.661   5.274 -0.0388 -0.4579  0.3047
 1873SOL    HW117255   0.506   3.657   5.271 -0.0833 -2.7916  2.7164
 1873SOL    HW217256   0.385   3.605   5.347 -1.3831 -1.8509 -1.2333
 1874SOL     OW17257   3.786   2.553   4.693  0.5098  0.5248  0.1649
 1874SOL    HW117258   3.812   2.512   4.775  0.7727 -3.4797 -1.9179
 1874SOL    HW217259   3.784   2.478   4.634  1.9420  0.2504  0.4530
 1875SOL     OW17260   0.767   4.606  16.677  0.4723 -0.2043 -0.1567
 1875SOL    HW117261   0.756   4.566  16.591 -1.6718  0.4630 -0.1960
 1875SOL    HW217262   0.704   4.550  16.722 -1.2651  2.3961  0.6701
 1876SOL     OW17263   0.383   2.153   3.705  0.3700  0.9536  0.7060
 1876SOL    HW117264   0.341   2.223   3.656 -0.0465 -0.4669 -0.9703
 1876SOL    HW217265   0.322   2.148   3.779  0.1789 -3.1623  0.2795
 1877SOL     OW17266   3.150   3.901  11.217  0.5458 -0.0299  0.5911
 1877SOL    HW117267   3.121   3.935  11.132  1.1295 -1.2924 -0.1207
 1877SOL    HW217268   3.216   3.840  11.183 -1.4948 -2.1883  0.5104
 1878SOL     OW17269   2.146   3.133   4.430 -0.1926  0.2493  0.5235
 1878SOL    HW117270   2.065   3.110   4.385 -1.3632  1.3228  2.0767
 1878SOL    HW217271   2.107   3.137   4.517  0.6480  0.3131  0.8949
 1879SOL     OW17272   4.090   4.028   1.680  0.7712  0.4416  0.4299
 1879SOL    HW117273   4.068   3.967   1.750 -2.3162  0.2524 -0.6946
 1879SOL    HW217274   4.108   4.111   1.722  0.8942  1.3191 -1.3589
 1880SOL     OW17275   0.209   2.741   9.659  0.1853 -0.4037  0.5004
 1880SOL    HW117276   0.198   2.656   9.702 -0.8307  0.1173  1.2597
 1880SOL    HW217277   0.231   2.714   9.570 -0.7125  0.2220  0.0927
 1881SOL     OW17278   4.374   3.003   6.986  0.2277 -0.4933 -0.2103
 1881SOL    HW117279   4.304   3.067   6.970 -1.1210 -2.1923 -1.0499
 1881SOL    HW217280   4.363   2.951   6.907 -1.0874  1.1965 -1.1324
 1882SOL     OW17281   3.681   2.872   4.379  0.5167 -0.0236  0.3794
 1882SOL    HW117282   3.627   2.949   4.358 -1.6906 -1.7100 -0.2195
 1882SOL    HW217283   3.763   2.918   4.397  0.6000  0.1226 -0.3643
 1883SOL     OW17284   1.076   1.891  15.352  0.2074  0.2302 -0.2082
 1883SOL    HW117285   1.094   1.801  15.324 -1.3963  0.0945 -0.8145
 1883SOL    HW217286   0.980   1.895  15.343  0.0950  0.9536  1.1925
 1884SOL     OW17287   2.944   4.239   6.392 -0.0347 -0.3249 -0.4374
 1884SOL    HW117288   2.919   4.328   6.419  1.0659 -0.2123  0.1834
 1884SOL    HW217289   2.971   4.202   6.476 -4.0264  0.7725  1.3545
 1885SOL     OW17290   1.823   0.790   4.613  0.1078 -0.2455  0.2233
 1885SOL    HW117291   1.870   0.866   4.577  1.5893 -0.6295  1.3801
 1885SOL    HW217292   1.878   0.782   4.690  2.7446  2.4481 -1.3415
 1886SOL     OW17293   2.484   1.265   5.409  0.1567  0.1278 -0.2800
 1886SOL    HW117294   2.571   1.249   5.372  0.9526  1.3017  1.1090
 1886SOL    HW217295   2.442   1.289   5.326  0.6962 -0.6639 -0.7804
 1887SOL     OW17296   1.070   1.481   2.859 -0.0232  1.2118 -0.0564
 1887SOL    HW117297   0.980   1.452   2.873  0.4464 -1.2180 -2.0116
 1887SOL    HW217298   1.098   1.520   2.942 -1.6036 -0.0593  1.0769
 1888SOL     OW17299   2.341   3.991   9.080 -0.1564  0.0090  0.3274
 1888SOL    HW117300   2.377   3.956   8.998  1.2247  2.7069 -0.2014
 1888SOL    HW217301   2.270   4.046   9.047  3.3707  3.4960 -1.4083
 1889SOL     OW17302   1.210   4.323   8.764 -0.7608 -0.3728 -0.1016
 1889SOL    HW117303   1.271   4.396   8.779 -0.2851 -0.9184  0.6259
 1889SOL    HW217304   1.223   4.271   8.844 -0.8783 -2.0881 -1.2014
 1890SOL     OW17305   2.821   2.824  10.273  0.0424  0.4925  0.0230
 1890SOL    HW117306   2.830   2.757  10.205 -1.7296  0.1173  0.1745
 1890SOL    HW217307   2.868   2.775  10.341  1.7319  1.1661 -0.6671
 1891SOL     OW17308   3.285   0.184   5.593 -0.2027  0.1112 -0.2238
 1891SOL    HW117309   3.327   0.099   5.584 -2.5611 -1.1720  0.7439
 1891SOL    HW217310   3.313   0.211   5.680 -0.7765  0.6002 -0.1862
 1892SOL     OW17311   0.532   1.660   7.028 -0.1809 -0.1538 -0.1056
 1892SOL    HW117312   0.579   1.669   6.945  2.3115 -0.0802  1.3194
 1892SOL    HW217313   0.439   1.652   7.006 -0.5273  2.7787  0.2906
 1893SOL     OW17314   2.161   0.575  14.317 -0.0825  0.1034  0.5227
 1893SOL    HW117315   2.072   0.541  14.323  0.0096 -0.0162  1.3452
 1893SOL    HW217316   2.205   0.524  14.386 -2.6593  0.2238  2.2635
 1894SOL     OW17317   2.176   4.166   8.684 -0.2701 -0.2826  0.3240
 1894SOL    HW117318   2.122   4.237   8.649 -1.3763 -0.7428  1.1100
 1894SOL    HW217319   2.237   4.164   8.610 -1.4702  2.7480 -0.7547
 1895SOL     OW17320   3.705   2.058   8.505 -0.2333 -0.3187  0.2835
 1895SOL    HW117321   3.692   1.966   8.479 -0.0461  0.0182 -0.9882
 1895SOL    HW217322   3.771   2.044   8.573 -1.7921  2.3590  2.3091
 1896SOL     OW17323   4.305   1.237   1.747  0.1032 -0.4260 -0.1040
 1896SOL    HW117324   4.369   1.308   1.755  0.4008 -0.7577  0.4934
 1896SOL    HW217325   4.266   1.233   1.835 -0.2766  1.0982 -0.2051
 1897SOL     OW17326   1.651   2.686   3.152 -0.0233 -0.2053  0.1720
 1897SOL    HW117327   1.697   2.690   3.068  1.2051 -2.4964  0.7310
 1897SOL    HW217328   1.723   2.687   3.216 -1.0452  0.0028  1.3308
 1898SOL     OW17329   2.753   3.705   5.815 -0.9599  0.2675  0.0764
 1898SOL    HW117330   2.812   3.781   5.811 -2.4323  1.2146 -3.2147
 1898SOL    HW217331   2.675   3.737   5.860 -1.8447 -1.4318 -0.2294
 1899SOL     OW17332   1.271   0.449   5.068 -0.0296  0.0846 -0.1382
 1899SOL    HW117333   1.207   0.379   5.076  1.1593 -1.0831 -0.9238
 1899SOL    HW217334   1.243   0.484   4.984  0.4362 -0.6132 -0.5858
 1900SOL     OW17335   0.641   3.782   4.295 -0.8024 -0.0007 -0.0049
 1900SOL    HW117336   0.613   3.860   4.343  0.8393 -0.1384  1.1586
 1900SOL    HW217337   0.734   3.797   4.283 -0.4289  0.0026  3.0056
 1901SOL     OW17338   3.285   1.556   1.709 -0.5190 -0.1159  0.4615
 1901SOL    HW117339   3.358   1.543   1.769 -0.9714 -1.7829  0.6487
 1901SOL    HW217340   3.287   1.650   1.691 -1.8762 -0.8226 -3.2736
 1902SOL     OW17341   0.576   1.743  12.810 -0.2590  0.5990 -0.3221
 1902SOL    HW117342   0.658   1.775  12.775 -1.1024  0.9567 -1.9392
 1902SOL    HW217343   0.590   1.648  12.808  1.6558  1.0028 -4.5557
 1903SOL     OW17344   2.935   2.742   4.276 -0.4366 -0.2482  0.9787
 1903SOL    HW117345   2.891   2.755   4.360 -0.0731 -0.2661  1.1725
 1903SOL    HW217346   2.941   2.834   4.250  2.7280 -0.6082  0.4190
 1904SOL     OW17347   4.425   0.154   6.529  0.1948 -0.1150 -0.4698
 1904SOL    HW117348   4.419   0.099   6.606 -2.0056  1.5861  0.5747
 1904SOL    HW217349   4.346   0.208   6.536  1.0799  1.1942 -0.6927
 1905SOL     OW17350   1.170   4.018   6.132  0.2261  0.2397  0.4387
 1905SOL    HW117351   1.135   3.964   6.203 -0.0843  0.2452  0.2883
 1905SOL    HW217352   1.149   3.959   6.060  2.3228 -0.3597  0.3088
 1906SOL     OW17353   1.468   4.667   3.785 -0.3424 -0.3156  0.2385
 1906SOL    HW117354   1.559   4.643   3.800 -0.5590 -1.5365 -0.3919
 1906SOL    HW217355   1.435   4.597   3.841  1.7857 -0.9681  0.6821
 1907SOL     OW17356   3.055   2.484   3.057  0.0671  0.6266  0.7995
 1907SOL    HW117357   3.028   2.572   3.032  2.5607  0.8613 -1.0283
 1907SOL    HW217358   3.029   2.432   2.981  0.9083  0.1078  0.8613
 1908SOL     OW17359   0.339   2.506   5.335  0.0583  0.3320  0.7199
 1908SOL    HW117360   0.304   2.430   5.288  0.7696  0.7422 -0.4658
 1908SOL    HW217361   0.420   2.520   5.286 -1.7047  0.3149 -2.2161
 1909SOL     OW17362   2.901   0.569   4.833 -0.0932  0.0042  0.1040
 1909SOL    HW117363   2.857   0.556   4.749 -2.0647 -0.6577  1.2605
 1909SOL    HW217364   2.986   0.600   4.802  0.9205 -0.8774  1.9964
 1910SOL     OW17365   2.163   2.306   6.363  0.0888  0.3985 -0.7194
 1910SOL    HW117366   2.126   2.394   6.358 -0.8034 -0.1322 -3.3863
 1910SOL    HW217367   2.086   2.250   6.371 -0.9073  2.1929  1.9093
 1911SOL     OW17368   3.384   4.640   3.463  0.5706  0.0009 -0.0258
 1911SOL    HW117369   3.382   4.721   3.514 -0.6519 -1.6584  2.5609
 1911SOL    HW217370   3.458   4.649   3.403 -1.3985  2.3032 -2.1249
 1912SOL     OW17371   2.996   3.969   8.473  0.1605 -0.4401 -0.3518
 1912SOL    HW117372   2.935   4.029   8.428 -0.8128 -3.1097 -2.5700
 1912SOL    HW217373   3.062   4.035   8.495 -0.9667  0.7509 -0.4781
 1913SOL     OW17374   1.905   3.279   9.244 -0.2676 -0.1211  0.0325
 1913SOL    HW117375   1.853   3.209   9.206  0.7633 -0.8989  0.0396
 1913SOL    HW217376   1.986   3.243   9.208 -1.0341 -1.2136 -0.6205
 1914SOL     OW17377   3.648   1.141   3.071 -0.2563  0.0700 -0.7978
 1914SOL    HW117378   3.567   1.131   3.120  0.0829  0.8728 -0.0599
 1914SOL    HW217379   3.686   1.210   3.126 -2.2989  0.0578  0.6179
 1915SOL     OW17380   0.101   0.931   4.647 -1.0284  0.4802  0.0824
 1915SOL    HW117381   0.061   0.944   4.561 -1.7484  0.8806  0.4756
 1915SOL    HW217382   0.186   0.973   4.634 -0.2228 -1.9437 -2.4503
 1916SOL     OW17383   3.657   4.254   9.564 -0.2704  0.0454 -0.1998
 1916SOL    HW117384   3.630   4.165   9.589 -0.0263  0.1881  0.5803
 1916SOL    HW217385   3.641   4.299   9.647 -0.8706  0.5473 -0.5884
 1917SOL     OW17386   4.018   4.165   4.234  0.1251 -0.0749  0.3003
 1917SOL    HW117387   4.044   4.080   4.199  0.8955  0.7069 -1.0346
 1917SOL    HW217388   3.981   4.198   4.152 -2.1688  0.2117  1.4432
 1918SOL     OW17389   2.221   1.259  16.540 -0.8949 -0.2460  0.2379
 1918SOL    HW117390   2.147   1.318  16.526  0.7985  1.7530 -0.2958
 1918SOL    HW217391   2.247   1.247  16.449  0.8838 -1.2359  0.8747
 1919SOL     OW17392   2.154   3.456   1.659  0.2529  0.0213  0.2946
 1919SOL    HW117393   2.162   3.481   1.567  0.5921  0.8601  0.5579
 1919SOL    HW217394   2.059   3.456   1.669  0.2006  2.0971 -0.1474
 1920SOL     OW17395   3.257   4.120  11.638  0.4691  0.2427  0.6038
 1920SOL    HW117396   3.344   4.124  11.679  0.9446  1.9859 -0.5591
 1920SOL    HW217397   3.207   4.079  11.709 -3.0731  1.7313 -1.0291
 1921SOL     OW17398   1.328   2.849   9.242 -0.4197 -0.4750  0.1944
 1921SOL    HW117399   1.294   2.839   9.153  1.9234 -1.6389 -0.5464
 1921SOL    HW217400   1.417   2.818   9.229  0.5800  1.9721  1.2312
 1922SOL     OW17401   3.205   4.610   4.531 -0.5584 -0.0901  0.4151
 1922SOL    HW117402   3.236   4.522   4.553  0.2293 -0.1505 -1.0006
 1922SOL    HW217403   3.247   4.611   4.445 -1.1011  0.0184  0.1537
 1923SOL     OW17404   0.368   0.284   8.072  0.2378  0.1995  0.5548
 1923SOL    HW117405   0.393   0.195   8.097 -0.7798  0.2141  1.5809
 1923SOL    HW217406   0.305   0.306   8.140  1.9347  0.2410  2.0962
 1924SOL     OW17407   2.030   1.275   2.261 -0.2625  0.6552 -0.5981
 1924SOL    HW117408   2.014   1.329   2.339  1.1986 -0.8305  0.7440
 1924SOL    HW217409   1.955   1.216   2.266 -0.7651  1.2920 -0.7912
 1925SOL     OW17410   0.159   0.168   9.011 -0.6516 -0.0673 -0.1404
 1925SOL    HW117411   0.159   0.143   9.103  0.5173  2.0176  0.4300
 1925SOL    HW217412   0.163   0.081   8.972 -2.4927  0.2386 -1.0007
 1926SOL     OW17413   1.024   2.768   7.885 -0.0415  0.3202  0.5707
 1926SOL    HW117414   1.033   2.731   7.973 -0.0033  1.1215  0.8987
 1926SOL    HW217415   0.943   2.725   7.856  0.3462  0.2644 -0.4122
 1927SOL     OW17416   0.484   1.056   3.040  0.0936  0.1287 -0.0714
 1927SOL    HW117417   0.461   1.132   3.093  0.8805  0.3413 -0.0357
 1927SOL    HW217418   0.404   1.032   2.993 -0.4194  0.4314  0.6353
 1928SOL     OW17419   2.237   2.736   7.677  0.4767 -0.2797  0.1971
 1928SOL    HW117420   2.263   2.692   7.596 -1.5746  1.4040 -1.3757
 1928SOL    HW217421   2.198   2.665   7.727 -2.4657  2.1567  1.3706
 1929SOL     OW17422   1.707   2.637   3.859 -0.2388 -0.0452 -0.1891
 1929SOL    HW117423   1.637   2.702   3.848 -0.9985 -0.5076  1.9076
 1929SOL    HW217424   1.782   2.684   3.823 -1.2078  0.7119 -1.2439
 1930SOL     OW17425   3.350   4.625  11.569 -0.3541 -0.1445  0.3394
 1930SOL    HW117426   3.442   4.650  11.560 -0.4800 -0.9794 -3.2484
 1930SOL    HW217427   3.358   4.539  11.612 -2.0075 -0.0723  0.7934
 1931SOL     OW17428   2.476   1.525   3.843  0.1499 -0.1756  0.0095
 1931SOL    HW117429   2.560   1.567   3.861 -0.9308  0.6633  3.1224
 1931SOL    HW217430   2.498   1.458   3.778  0.3500 -1.3869  1.3288
 1932SOL     OW17431   1.476   2.406  16.783  0.2962 -0.0796  0.2863
 1932SOL    HW117432   1.457   2.312  16.789  0.4376 -0.0858  0.6992
 1932SOL    HW217433   1.571   2.413  16.793  0.2115 -0.5363  1.4323
 1933SOL     OW17434   0.249   1.123   8.984  0.2066  0.5805 -0.2343
 1933SOL    HW117435   0.229   1.167   8.901 -0.5593  0.5541 -0.0601
 1933SOL    HW217436   0.279   1.041   8.943  2.5014  1.8821 -1.1767
 1934SOL     OW17437   4.095   0.352   4.713  0.1596 -0.0908 -0.5964
 1934SOL    HW117438   4.059   0.272   4.750 -1.2547  0.3712 -0.9922
 1934SOL    HW217439   4.150   0.384   4.785 -0.7655  3.1926 -1.3207
 1935SOL     OW17440   2.014   2.395  14.333 -0.1856 -0.6719  0.1059
 1935SOL    HW117441   2.027   2.323  14.272 -0.5085 -0.3243 -0.3783
 1935SOL    HW217442   2.074   2.370  14.404  1.9858 -0.2649 -1.5869
 1936SOL     OW17443   3.031   4.589   1.221 -0.7517 -0.7561  0.7370
 1936SOL    HW117444   3.031   4.532   1.298  1.3005 -1.3271  0.3193
 1936SOL    HW217445   2.972   4.658   1.250  1.1919  1.2991 -0.2322
 1937SOL     OW17446   1.001   1.585   0.181 -0.2537 -0.0205 -0.2367
 1937SOL    HW117447   1.096   1.586   0.175 -0.1804  2.0374  0.9555
 1937SOL    HW217448   0.974   1.674   0.157 -1.5323 -0.4930 -0.5359
 1938SOL     OW17449   2.221   1.711   3.131 -0.2831 -0.6178 -0.4530
 1938SOL    HW117450   2.206   1.694   3.037  0.5163 -2.0991 -0.3228
 1938SOL    HW217451   2.179   1.636   3.174 -1.2550  0.4397  0.4055
 1939SOL     OW17452   1.565   2.055  17.391 -0.0167 -0.2496  0.1664
 1939SOL    HW117453   1.585   2.148  17.379 -0.4476 -0.3003 -0.9466
 1939SOL    HW217454   1.647   2.032  17.348 -1.0840  0.3080 -2.1923
 1940SOL     OW17455   3.619   0.266   4.906  0.2840  0.1930 -0.0522
 1940SOL    HW117456   3.665   0.245   4.825  0.4884 -1.2240  0.4117
 1940SOL    HW217457   3.620   0.178   4.945  0.6354  0.6608  0.9890
 1941SOL     OW17458   3.548   3.325  11.357  0.5276  0.0522  0.2025
 1941SOL    HW117459   3.486   3.393  11.382  1.7145  1.5034 -0.8496
 1941SOL    HW217460   3.628   3.353  11.401  1.3434 -1.2073 -0.4829
 1942SOL     OW17461   2.881   0.016   0.982 -0.0888  0.0238 -0.0056
 1942SOL    HW117462   2.795   0.057   0.966  0.5598  1.5301  0.3787
 1942SOL    HW217463   2.850   4.672   1.016  0.9271 -0.6742 -0.7828
 1943SOL     OW17464   3.657   0.799   0.688  0.2778  0.3035  0.0530
 1943SOL    HW117465   3.717   0.851   0.634  0.9401 -1.0580 -0.5134
 1943SOL    HW217466   3.706   0.717   0.688  0.5046  0.4382 -3.0674
 1944SOL     OW17467   1.676   2.443   3.550  0.1419  0.1226  0.4383
 1944SOL    HW117468   1.631   2.525   3.568 -0.0937  0.3276 -1.0588
 1944SOL    HW217469   1.761   2.466   3.587 -1.1364  1.1438  2.7179
 1945SOL     OW17470   2.635   1.909   1.569  0.1930 -0.1580  0.5227
 1945SOL    HW117471   2.589   1.831   1.602 -2.8796 -0.2400 -3.9086
 1945SOL    HW217472   2.713   1.869   1.529 -0.3982 -0.2513 -0.5413
 1946SOL     OW17473   4.464   4.632  16.707  0.0164  0.2369 -0.1024
 1946SOL    HW117474   4.544   4.650  16.658 -1.5666 -0.5508 -2.9968
 1946SOL    HW217475   4.485   4.690  16.780 -2.3104 -0.4188  1.0794
 1947SOL     OW17476   4.006   2.062   4.049 -0.1029 -0.6673  0.5099
 1947SOL    HW117477   3.990   2.037   3.958  1.0617 -0.4081  0.2413
 1947SOL    HW217478   4.063   2.139   4.050  1.3756 -1.7713 -0.5638
 1948SOL     OW17479   1.826   4.096   7.278 -0.5145  0.1160  0.3466
 1948SOL    HW117480   1.865   4.147   7.207  0.9854  0.3304  1.3353
 1948SOL    HW217481   1.732   4.101   7.260 -0.9600 -0.5359  2.4868
 1949SOL     OW17482   3.106   2.250   8.137 -0.5619 -0.5890 -0.3184
 1949SOL    HW117483   3.094   2.299   8.218 -0.2822 -0.6262 -0.2522
 1949SOL    HW217484   3.093   2.317   8.070  1.4702 -1.2135 -1.3430
 1950SOL     OW17485   0.157   1.135   4.240 -0.2952  0.6547 -0.1420
 1950SOL    HW117486   0.229   1.128   4.178  0.3802  0.4379  0.6723
 1950SOL    HW217487   0.079   1.170   4.196 -0.3915  0.1933 -0.3312
 1951SOL     OW17488   1.227   1.888   1.899  0.2115  0.3739 -0.4799
 1951SOL    HW117489   1.290   1.833   1.946 -0.7813  1.2031  1.7904
 1951SOL    HW217490   1.268   1.974   1.898  2.0599 -0.4904  1.1600
 1952SOL     OW17491   0.972   4.501   2.291  0.6872 -0.3989 -0.5875
 1952SOL    HW117492   1.015   4.419   2.266 -0.9104 -1.0763 -1.1310
 1952SOL    HW217493   0.883   4.469   2.307 -0.1094  1.7254 -0.7632
 1953SOL     OW17494   3.901   1.348   2.824  0.1558 -0.0542  0.0363
 1953SOL    HW117495   3.837   1.380   2.888  0.6726 -1.0710  1.0503
 1953SOL    HW217496   3.974   1.326   2.881  0.8136 -0.2101 -0.8604
 1954SOL     OW17497   4.600   2.352  12.466  0.4385  0.3785 -0.2380
 1954SOL    HW117498   4.596   2.287  12.396 -0.9806  0.7261 -0.4750
 1954SOL    HW217499   4.642   2.305  12.538  0.7738  0.7407 -0.2035
 1955SOL     OW17500   1.645   1.721   5.942 -0.8456 -0.5887  0.4014
 1955SOL    HW117501   1.699   1.799   5.950 -1.0672 -0.2514 -1.2614
 1955SOL    HW217502   1.583   1.731   6.014 -1.6833 -0.8328 -0.2751
 1956SOL     OW17503   1.113   4.235  16.776  0.3399 -0.4302 -0.2991
 1956SOL    HW117504   1.125   4.165  16.840  0.8624  2.6980  2.9668
 1956SOL    HW217505   1.197   4.259  16.737  0.4781  0.0052  0.2688
 1957SOL     OW17506   0.291   4.389   3.539 -0.4194 -0.2410 -0.1000
 1957SOL    HW117507   0.201   4.401   3.509 -0.1389 -0.8996 -1.1862
 1957SOL    HW217508   0.292   4.443   3.618  0.9547  0.1121 -0.3535
 1958SOL     OW17509   0.778   4.454   8.481 -0.5245 -0.3050 -0.1759
 1958SOL    HW117510   0.730   4.536   8.496  0.5818  0.9212 -3.2958
 1958SOL    HW217511   0.841   4.460   8.553  0.2941 -0.9449 -0.8494
 1959SOL     OW17512   0.770   2.712   7.821  0.3204 -0.7086  0.3129
 1959SOL    HW117513   0.724   2.705   7.905 -0.1750 -2.3074 -0.1062
 1959SOL    HW217514   0.711   2.658   7.769 -1.2640  0.7377  0.5771
 1960SOL     OW17515   3.769   0.218   4.689  0.1266 -0.0966  0.4414
 1960SOL    HW117516   3.844   0.165   4.715 -1.2489 -3.0919 -1.6159
 1960SOL    HW217517   3.751   0.183   4.601 -0.9967  1.4237  0.0559
 1961SOL     OW17518   2.180   0.332   1.786  0.1319  0.6482  0.1767
 1961SOL    HW117519   2.140   0.395   1.846 -3.5910  0.1065 -1.7679
 1961SOL    HW217520   2.169   0.256   1.843 -0.0907  0.4658 -0.1113
 1962SOL     OW17521   3.004   3.154   9.092 -0.0748  0.6463 -0.1198
 1962SOL    HW117522   3.036   3.221   9.031  0.2528  0.5708 -0.0286
 1962SOL    HW217523   2.925   3.194   9.129 -0.3457 -2.4810  2.6325
 1963SOL     OW17524   3.125   0.916  11.654 -0.4705 -0.5395  0.4138
 1963SOL    HW117525   3.044   0.913  11.705 -0.3760  4.1297  0.8121
 1963SOL    HW217526   3.179   0.862  11.711 -2.2890 -0.7596  1.9490
 1964SOL     OW17527   2.796   0.656   7.108 -0.3171  0.4451  0.3144
 1964SOL    HW117528   2.881   0.616   7.129  0.6517  1.7173 -1.2499
 1964SOL    HW217529   2.795   0.690   7.018  0.3920  0.0395  0.1477
 1965SOL     OW17530   0.394   3.155   1.009  0.1469 -0.1273 -0.5857
 1965SOL    HW117531   0.343   3.076   0.989 -0.1395  0.0257 -0.4568
 1965SOL    HW217532   0.445   3.123   1.083 -1.2952  0.2311  0.5554
 1966SOL     OW17533   2.578   4.286   6.507 -0.0755  0.8367  0.2305
 1966SOL    HW117534   2.498   4.302   6.456  0.3942  2.4194 -0.0066
 1966SOL    HW217535   2.626   4.365   6.481 -1.0611  1.2942 -0.2465
 1967SOL     OW17536   2.002   0.153   9.645  0.0007  0.5106 -0.1497
 1967SOL    HW117537   1.938   0.222   9.631  1.6919  2.0161 -0.5126
 1967SOL    HW217538   1.971   0.104   9.721 -0.5427  3.5361  1.6074
 1968SOL     OW17539   0.973   1.820   2.796  0.0066 -0.1648 -0.4828
 1968SOL    HW117540   0.906   1.752   2.809 -0.1399 -0.1320 -1.0604
 1968SOL    HW217541   0.941   1.885   2.857 -2.3462 -4.0388  2.4146
 1969SOL     OW17542   0.712   4.677   0.836  0.2882 -0.4545  0.6918
 1969SOL    HW117543   0.782   4.688   0.900  0.1468  0.3837  0.7033
 1969SOL    HW217544   0.724   4.587   0.806 -0.7709 -0.3697 -0.0065
 1970SOL     OW17545   3.791   3.555   8.844 -0.2265 -0.1017  0.1232
 1970SOL    HW117546   3.819   3.478   8.794  2.3119  0.6630  0.3742
 1970SOL    HW217547   3.846   3.540   8.920  0.3790  0.7211 -0.1518
 1971SOL     OW17548   4.443   1.241   7.925 -0.3603  0.1192  0.1681
 1971SOL    HW117549   4.508   1.308   7.901 -0.9597  0.3002 -0.9294
 1971SOL    HW217550   4.485   1.206   8.004 -0.6972  1.0538  0.7747
 1972SOL     OW17551   0.311   3.873   1.775  0.2570  0.2749 -0.0968
 1972SOL    HW117552   0.255   3.945   1.747  0.0982 -0.4851 -1.7925
 1972SOL    HW217553   0.400   3.898   1.752  0.1884  0.0168 -0.6577
 1973SOL     OW17554   4.646   3.297   8.927  0.3781  0.1370 -0.8612
 1973SOL    HW117555   4.727   3.263   8.890  0.2986 -0.9176 -0.0653
 1973SOL    HW217556   4.686   3.358   8.989 -0.2111 -0.5228  0.1730
 1974SOL     OW17557   2.673   1.745   5.440 -0.7506  0.5798  0.1074
 1974SOL    HW117558   2.683   1.812   5.508  0.8638  1.0418 -0.5820
 1974SOL    HW217559   2.581   1.749   5.413 -1.2477  0.3607  1.7723
 1975SOL     OW17560   3.493   3.387   6.304  0.3684 -0.3671  0.2691
 1975SOL    HW117561   3.543   3.441   6.241  2.0833 -1.0577  1.0474
 1975SOL    HW217562   3.407   3.427   6.289  0.7467  0.3003 -0.1526
 1976SOL     OW17563   3.868   3.361   5.805  0.0342  0.2470  0.3701
 1976SOL    HW117564   3.819   3.415   5.867  0.5666  1.6915 -0.4765
 1976SOL    HW217565   3.953   3.364   5.849 -0.2172 -2.1309  1.0253
 1977SOL     OW17566   3.767   4.633   3.613  0.3213  0.4622  0.4489
 1977SOL    HW117567   3.720   4.690   3.674 -0.6054  1.0374 -0.7804
 1977SOL    HW217568   3.854   4.650   3.648  1.1423 -0.6143 -1.0674
 1978SOL     OW17569   4.442   0.558   4.762 -0.2618  0.1018 -0.6688
 1978SOL    HW117570   4.482   0.598   4.685  0.8526 -1.4853 -0.9281
 1978SOL    HW217571   4.509   0.501   4.800 -0.0624  0.8261  0.0582
 1979SOL     OW17572   0.455   4.712   5.354  0.2333 -0.1784  0.4399
 1979SOL    HW117573   0.538   4.669   5.335 -1.5136 -2.8530 -1.1538
 1979SOL    HW217574   0.413   4.724   5.269  1.2781  2.0813  0.2327
 1980SOL     OW17575   4.036   1.268  16.748  0.3657 -0.4826 -0.1917
 1980SOL    HW117576   4.091   1.345  16.757 -0.8617  0.3218  0.3607
 1980SOL    HW217577   4.107   1.203  16.749  0.4838 -0.3608 -1.8081
 1981SOL     OW17578   0.939   1.660  10.230 -0.1689  0.6368  0.1654
 1981SOL    HW117579   0.891   1.741  10.211 -1.8940 -0.5703 -0.6844
 1981SOL    HW217580   0.896   1.640  10.313  1.3560  0.4262  0.8948
 1982SOL     OW17581   3.706   1.651  15.760  0.1423  0.6732  0.1252
 1982SOL    HW117582   3.695   1.653  15.665 -0.3882 -0.9680  0.1624
 1982SOL    HW217583   3.630   1.607  15.795  0.2584 -1.2419 -2.0367
 1983SOL     OW17584   1.657   1.208   1.260  0.4501 -0.9081 -0.7990
 1983SOL    HW117585   1.748   1.182   1.250  0.0697 -2.5299 -0.0240
 1983SOL    HW217586   1.654   1.293   1.216  2.1402 -0.1601  0.5602
 1984SOL     OW17587   2.656   3.836   6.596  0.5859 -0.1320  0.2571
 1984SOL    HW117588   2.671   3.912   6.540 -0.2698 -0.2462 -0.1345
 1984SOL    HW217589   2.678   3.876   6.680  0.0143  0.2724  0.2102
 1985SOL     OW17590   1.263   4.623   7.794 -0.0390 -0.4829  0.0423
 1985SOL    HW117591   1.175   4.619   7.757  0.0184  1.1481 -0.2833
 1985SOL    HW217592   1.259   4.712   7.830  0.2353  0.3042 -1.8349
 1986SOL     OW17593   2.339   1.097  16.701 -0.0796  0.5417 -0.3914
 1986SOL    HW117594   2.286   1.153  16.644 -1.6580 -0.2642  0.2791
 1986SOL    HW217595   2.398   1.046  16.645  1.7956 -0.0234  2.0942
 1987SOL     OW17596   2.633   3.442   8.029 -0.1819 -0.1658 -0.4549
 1987SOL    HW117597   2.640   3.409   7.939 -2.0140  0.4156 -0.7898
 1987SOL    HW217598   2.721   3.427   8.065 -1.1629  1.1565  2.5009
 1988SOL     OW17599   1.077   2.836   5.397 -0.4294 -0.2118 -0.2485
 1988SOL    HW117600   1.021   2.845   5.320  0.7748  0.3836 -1.0432
 1988SOL    HW217601   1.042   2.907   5.450 -0.0267  0.1383 -0.4543
 1989SOL     OW17602   1.819   0.794   2.766 -0.2580  0.6260 -0.1214
 1989SOL    HW117603   1.826   0.719   2.824 -0.4398  1.1774  0.6201
 1989SOL    HW217604   1.792   0.860   2.830 -3.3809 -2.8327  2.0612
 1990SOL     OW17605   4.374   3.361   5.826 -0.2967 -0.4071  0.1621
 1990SOL    HW117606   4.394   3.363   5.733  1.9000 -0.4641  0.6272
 1990SOL    HW217607   4.448   3.309   5.857 -0.8635  0.1126  2.4453
 1991SOL     OW17608   1.354   0.219  17.308 -0.0881  0.3054  0.4072
 1991SOL    HW117609   1.448   0.201  17.307 -0.0217  0.6307  0.8841
 1991SOL    HW217610   1.348   0.306  17.267  0.9594  0.3305  0.2901
 1992SOL     OW17611   1.974   1.908   4.354  0.3776 -0.0360  0.0226
 1992SOL    HW117612   1.975   1.916   4.258  0.9829 -0.4772 -0.0025
 1992SOL    HW217613   2.062   1.935   4.378 -0.1029  0.1289  1.6151
 1993SOL     OW17614   3.380   1.346   4.828  0.7856  0.4564 -0.1733
 1993SOL    HW117615   3.397   1.420   4.769  0.4291  1.9957  1.6582
 1993SOL    HW217616   3.429   1.360   4.909  3.0533 -2.6707 -0.9971
 1994SOL     OW17617   2.510   3.896   1.065 -0.2927 -0.0444 -0.0307
 1994SOL    HW117618   2.454   3.972   1.050  0.6787  0.7490  0.3249
 1994SOL    HW217619   2.478   3.856   1.145  0.0371 -2.1792 -0.9486
 1995SOL     OW17620   0.020   3.110   8.583  0.1539  0.2583 -0.0396
 1995SOL    HW117621   0.017   3.031   8.530 -0.1270  1.0093 -1.1375
 1995SOL    HW217622   0.099   3.153   8.550  1.2669 -1.0973  0.8238
 1996SOL     OW17623   2.852   2.122   2.966  0.2158  0.1733 -0.3698
 1996SOL    HW117624   2.861   2.107   2.872 -0.6629 -0.9848 -0.2738
 1996SOL    HW217625   2.873   2.037   3.005 -1.3247  0.1499  0.3996
 1997SOL     OW17626   0.974   3.483   6.844  0.6582 -0.1596  0.6496
 1997SOL    HW117627   0.964   3.389   6.855 -0.1418 -0.0661  0.6893
 1997SOL    HW217628   1.052   3.479   6.787  0.4384 -0.1278  0.3472
 1998SOL     OW17629   1.308   3.136   1.399  0.0105 -0.1227 -0.4490
 1998SOL    HW117630   1.276   3.094   1.319 -1.3320  2.6014 -1.3240
 1998SOL    HW217631   1.224   3.160   1.438  0.0830  0.6320 -0.7553
 1999SOL     OW17632   1.087   2.513   5.113 -0.2269  0.0198 -0.2178
 1999SOL    HW117633   1.005   2.539   5.154 -0.3314 -0.0671 -0.3702
 1999SOL    HW217634   1.122   2.462   5.186  1.7348 -0.5466 -1.5483
 2000SOL     OW17635   4.062   0.818   6.876 -0.3039 -0.2554  0.5178
 2000SOL    HW117636   4.126   0.856   6.936  0.4458  0.2133 -0.5814
 2000SOL    HW217637   3.980   0.847   6.916  0.0817 -1.8671  2.4650
 2001SOL     OW17638   4.643   3.030   1.540 -0.2799  0.0129  0.2750
 2001SOL    HW117639   4.731   3.047   1.505 -0.0555  1.4082  1.4894
 2001SOL    HW217640   4.666   3.046   1.632 -0.8955  1.4245  0.1931
 2002SOL     OW17641   0.095   4.067   7.191  0.2215 -0.1554 -0.3189
 2002SOL    HW117642   0.010   4.039   7.226  0.1177  0.1665 -0.3156
 2002SOL    HW217643   0.148   3.991   7.215  0.4119 -0.0762 -0.4950
 2003SOL     OW17644   3.460   0.728  16.288 -0.4782 -0.8291 -0.2800
 2003SOL    HW117645   3.456   0.796  16.220 -2.8551  1.3015  2.0054
 2003SOL    HW217646   3.369   0.707  16.307 -1.1705  2.6535  0.3400
 2004SOL     OW17647   0.167   2.356  14.761 -0.6268 -0.0948  0.0915
 2004SOL    HW117648   0.115   2.279  14.738  0.7161 -1.3946  1.4357
 2004SOL    HW217649   0.201   2.328  14.845 -0.6502  4.4956  1.6493
 2005SOL     OW17650   2.118   3.401   3.711 -0.0915  0.1498  0.0252
 2005SOL    HW117651   2.123   3.458   3.635  1.0590 -2.4812 -1.8782
 2005SOL    HW217652   2.208   3.373   3.727  0.3358  1.8290  0.5351
 2006SOL     OW17653   4.589   0.366   9.513 -0.2899 -0.4648 -0.0771
 2006SOL    HW117654   4.611   0.274   9.499 -0.3082 -0.3867 -0.6057
 2006SOL    HW217655   4.642   0.381   9.591  1.1793  0.2144 -1.2034
 2007SOL     OW17656   2.530   1.312   3.641 -0.2114  0.2786  0.5831
 2007SOL    HW117657   2.584   1.334   3.566 -1.1493 -0.8714 -0.4428
 2007SOL    HW217658   2.453   1.364   3.617 -0.0991  0.1089 -0.1379
 2008SOL     OW17659   2.011   2.056   6.400 -0.2734 -0.3374 -0.4958
 2008SOL    HW117660   1.960   2.089   6.473  0.7861 -0.8023  0.4508
 2008SOL    HW217661   2.079   2.007   6.447  1.4249  1.2682 -1.2752
 2009SOL     OW17662   3.618   0.597   9.500  0.6515  0.1786 -0.5462
 2009SOL    HW117663   3.595   0.515   9.456 -2.9970  0.2518  1.2217
 2009SOL    HW217664   3.644   0.567   9.587 -0.7489  2.4659  0.6429
 2010SOL     OW17665   3.210   1.682  12.189  0.1216 -0.0241 -0.0656
 2010SOL    HW117666   3.234   1.590  12.185  0.1224 -0.0870  1.2873
 2010SOL    HW217667   3.247   1.707  12.104  1.5496  1.9555  1.1424
 2011SOL     OW17668   4.549   1.878   9.313 -0.0481  0.2020  0.1385
 2011SOL    HW117669   4.643   1.882   9.329 -0.0250 -2.3936  0.5425
 2011SOL    HW217670   4.511   1.956   9.354 -0.7563  0.4659 -0.9974
 2012SOL     OW17671   4.381   1.766   5.780  0.3441  0.5541  0.5777
 2012SOL    HW117672   4.371   1.760   5.875 -1.6603 -0.9489  0.2715
 2012SOL    HW217673   4.326   1.843   5.765 -0.9631 -0.2989  1.0009
 2013SOL     OW17674   4.168   3.827   5.201  0.0290 -0.4152 -0.2643
 2013SOL    HW117675   4.221   3.776   5.262 -1.6235 -1.5867  0.1892
 2013SOL    HW217676   4.095   3.769   5.182 -0.4616 -0.3587  1.4434
 2014SOL     OW17677   4.654   4.537   6.285  0.1067  0.1433  0.4966
 2014SOL    HW117678   4.638   4.496   6.370 -0.9765 -2.5988 -1.0207
 2014SOL    HW217679   4.728   4.489   6.249 -0.3594  0.0427 -0.3388
 2015SOL     OW17680   4.692   1.055   9.007 -0.0513  0.0170 -0.2211
 2015SOL    HW117681   4.667   1.137   9.050 -0.3156 -0.4008  0.4174
 2015SOL    HW217682   0.037   1.073   8.966  0.5069 -1.3228  0.3297
 2016SOL     OW17683   0.870   4.196  16.237  0.2335  0.4302 -0.1946
 2016SOL    HW117684   0.878   4.229  16.327 -2.9131  4.3761 -1.3567
 2016SOL    HW217685   0.929   4.121  16.239  1.3049  1.2637  0.2394
 2017SOL     OW17686   1.781   2.189   4.938  0.5042 -0.2891  0.2725
 2017SOL    HW117687   1.712   2.216   4.877  0.9690  2.1677  0.8136
 2017SOL    HW217688   1.793   2.103   4.898  0.1532  0.2478 -1.0207
 2018SOL     OW17689   3.636   3.372  16.666  0.0224  0.3022 -0.2184
 2018SOL    HW117690   3.684   3.441  16.712 -0.9658  1.0695 -0.3376
 2018SOL    HW217691   3.601   3.331  16.745  1.4516  0.3813  0.4595
 2019SOL     OW17692   0.459   1.721   3.529 -0.6015  0.1542  0.4640
 2019SOL    HW117693   0.418   1.807   3.533 -1.7142 -0.3599  0.2634
 2019SOL    HW217694   0.542   1.730   3.575 -0.8605 -1.0016  1.1809
 2020SOL     OW17695   2.928   4.589  11.692  0.4788 -0.4979 -0.4521
 2020SOL    HW117696   2.973   4.506  11.706  4.1515  1.4379 -0.7540
 2020SOL    HW217697   2.988   4.625  11.626 -1.2827 -1.3375 -2.5225
 2021SOL     OW17698   1.374   0.826   5.656 -0.5819  0.3291 -0.4041
 2021SOL    HW117699   1.462   0.865   5.659 -1.3085  1.9567  0.0130
 2021SOL    HW217700   1.409   0.739   5.641  1.8580  1.1916  0.1810
 2022SOL     OW17701   2.877   0.090   6.103 -0.8006 -0.0781  0.2933
 2022SOL    HW117702   2.806   0.073   6.041  1.8413 -1.3802 -2.3803
 2022SOL    HW217703   2.891   0.005   6.144  1.6508  0.2248  0.0850
 2023SOL     OW17704   3.334   2.425   4.864  0.1840 -0.2298 -0.1744
 2023SOL    HW117705   3.389   2.435   4.941  2.4188 -1.3360 -1.6174
 2023SOL    HW217706   3.270   2.495   4.873  0.4430 -0.3112  2.2414
 2024SOL     OW17707   3.216   0.356   4.834  0.3080 -0.4340  0.3098
 2024SOL    HW117708   3.185   0.442   4.860  2.8065  1.1259 -1.8829
 2024SOL    HW217709   3.149   0.333   4.769  1.4886 -0.8096 -0.7674
 2025SOL     OW17710   1.257   0.828   9.194  0.7988 -0.5037  0.1856
 2025SOL    HW117711   1.201   0.856   9.267  0.5835  0.8324 -0.4752
 2025SOL    HW217712   1.342   0.857   9.226 -0.1367  1.6322  0.7747
 2026SOL     OW17713   3.467   0.045   4.511 -0.0056  0.0375 -0.4568
 2026SOL    HW117714   3.557   0.012   4.517 -0.2993 -0.4841  0.9225
 2026SOL    HW217715   3.429   4.730   4.442 -2.1891  0.9016  0.0624
 2027SOL     OW17716   1.002   3.631   4.881 -0.2895 -0.2593  0.1234
 2027SOL    HW117717   1.064   3.575   4.835  1.1975  1.3760  0.1317
 2027SOL    HW217718   0.919   3.587   4.862  0.3106 -0.9312 -0.9037
 2028SOL     OW17719   1.043   2.969  15.804  0.0415 -0.5497 -0.1150
 2028SOL    HW117720   0.960   2.955  15.757  0.3342 -0.6769 -0.5941
 2028SOL    HW217721   1.097   3.005  15.734  0.7063 -1.4755 -0.0679
 2029SOL     OW17722   2.714   4.506   2.303 -0.4164  0.0220  0.1151
 2029SOL    HW117723   2.698   4.595   2.333 -1.2720 -0.1543  0.1747
 2029SOL    HW217724   2.704   4.462   2.387  1.2326 -1.8534 -0.6530
 2030SOL     OW17725   1.933   1.113   7.366 -0.4521  0.4634 -0.5541
 2030SOL    HW117726   1.950   1.206   7.357  0.1499  0.3946 -0.1342
 2030SOL    HW217727   1.936   1.093   7.272 -3.6023 -1.0157 -0.3426
 2031SOL     OW17728   2.949   4.083   6.919 -0.1299 -0.2175  0.1825
 2031SOL    HW117729   2.911   4.166   6.889 -0.1481 -0.4549 -0.4335
 2031SOL    HW217730   3.025   4.111   6.970 -0.0128 -0.0179 -0.1029
 2032SOL     OW17731   0.829   2.299   7.790  0.0475 -0.1658 -0.5327
 2032SOL    HW117732   0.833   2.283   7.885 -0.1492  0.0343 -0.4896
 2032SOL    HW217733   0.740   2.335   7.784  0.0736 -0.1821 -1.0106
 2033SOL     OW17734   1.369   2.938   4.979  0.2203 -0.3850 -0.6144
 2033SOL    HW117735   1.416   2.906   5.056 -0.2443  1.5687  0.4843
 2033SOL    HW217736   1.426   3.015   4.973  1.5224 -1.1825  1.5573
 2034SOL     OW17737   1.519   0.546   1.907  0.4843  0.1600  0.4934
 2034SOL    HW117738   1.523   0.608   1.980  1.3854  0.7574 -0.0767
 2034SOL    HW217739   1.448   0.580   1.853  1.7669  2.6094  0.3858
 2035SOL     OW17740   3.558   1.912   6.785  0.4403  0.4074  0.6250
 2035SOL    HW117741   3.588   1.906   6.876  2.3009  0.5395  0.0173
 2035SOL    HW217742   3.572   2.007   6.780 -1.6788  0.7893  1.7529
 2036SOL     OW17743   3.181   4.026   2.902  0.7235 -0.1718  0.0388
 2036SOL    HW117744   3.243   3.959   2.931  0.1608 -0.2023  1.1921
 2036SOL    HW217745   3.192   4.109   2.950  0.7765  0.9874 -1.9929
 2037SOL     OW17746   0.919   1.820   1.499 -0.5643  0.0248 -0.2927
 2037SOL    HW117747   0.842   1.853   1.545 -0.0216  1.3560 -0.3201
 2037SOL    HW217748   0.975   1.849   1.572 -1.0707  0.7544 -0.1972
 2038SOL     OW17749   1.116   0.610   5.922 -0.4463  0.1305  0.3616
 2038SOL    HW117750   1.128   0.516   5.907  1.0033  0.4033 -0.1250
 2038SOL    HW217751   1.099   0.637   5.832 -0.7754  0.0278  0.3909
 2039SOL     OW17752   4.536   1.223   2.631  0.3207  0.9238  0.0555
 2039SOL    HW117753   4.477   1.161   2.588  2.0467  1.5586 -3.2398
 2039SOL    HW217754   4.625   1.206   2.600  1.1866  1.7974  2.0385
 2040SOL     OW17755   3.612   1.984   1.649  0.2310  0.4888 -0.0556
 2040SOL    HW117756   3.592   1.949   1.562  0.7380  0.8379 -0.3178
 2040SOL    HW217757   3.584   2.075   1.648  0.6321  0.6317  1.3445
 2041SOL     OW17758   3.955   2.047   5.936 -0.5101  0.7280 -0.4599
 2041SOL    HW117759   3.984   1.957   5.921  1.3377  1.2822 -0.2364
 2041SOL    HW217760   3.861   2.028   5.938 -0.9947  3.1575 -0.1101
 2042SOL     OW17761   0.952   2.821   7.524  0.1952 -0.2652  0.0340
 2042SOL    HW117762   0.903   2.872   7.588 -0.8633 -1.9779  0.5737
 2042SOL    HW217763   0.884   2.793   7.462  1.4140 -0.1705 -1.3670
 2043SOL     OW17764   3.644   4.382   3.215  0.0621  0.1580  0.6803
 2043SOL    HW117765   3.719   4.365   3.158 -0.6899 -3.3550  0.7341
 2043SOL    HW217766   3.605   4.294   3.214  0.7254 -0.1292  0.4874
 2044SOL     OW17767   3.957   1.024   7.656  0.8450 -0.5379 -0.5729
 2044SOL    HW117768   3.872   1.017   7.612  0.0895  1.3595  0.5670
 2044SOL    HW217769   3.970   1.115   7.682  0.5451 -0.9723  1.1047
 2045SOL     OW17770   3.121   4.045  11.883  0.4956  0.0984  0.3611
 2045SOL    HW117771   3.181   4.000  11.942  0.9071 -0.3337 -0.3771
 2045SOL    HW217772   3.037   4.046  11.929 -0.4639  0.1545 -1.3880
 2046SOL     OW17773   2.374   3.415   2.041 -0.3096  0.2917  0.1830
 2046SOL    HW117774   2.365   3.338   1.984  0.3087  1.1267 -1.0533
 2046SOL    HW217775   2.399   3.485   1.980 -1.5542  0.2212 -0.3949
 2047SOL     OW17776   2.504   0.137  17.671 -0.2916  0.2277 -0.4149
 2047SOL    HW117777   2.475   0.162  17.583 -0.6389 -0.0254 -0.3713
 2047SOL    HW217778   2.492   0.224  17.710 -3.8864 -0.6927  0.5545
 2048SOL     OW17779   1.781   3.409   4.170  0.1237  0.0364  0.2412
 2048SOL    HW117780   1.824   3.361   4.099  2.1476  1.7994  0.2785
 2048SOL    HW217781   1.744   3.489   4.133 -0.2233  0.9618  2.6110
 2049SOL     OW17782   2.252   4.174  14.203 -0.2527 -0.2588 -0.2446
 2049SOL    HW117783   2.273   4.255  14.248 -0.2404  0.9432 -2.4318
 2049SOL    HW217784   2.335   4.160  14.158 -0.5051  1.4346 -1.2093
 2050SOL     OW17785   0.160   1.766   6.646 -0.2797  0.0919  0.0465
 2050SOL    HW117786   0.065   1.757   6.633 -0.2292  0.8190 -0.8586
 2050SOL    HW217787   0.163   1.858   6.674 -0.0882 -0.2445  1.0984
 2051SOL     OW17788   1.718   2.536   6.250 -0.6515  0.4076 -0.0069
 2051SOL    HW117789   1.670   2.617   6.269 -0.3520  0.6804 -0.3970
 2051SOL    HW217790   1.645   2.476   6.237 -0.0095 -0.3582 -0.0180
 2052SOL     OW17791   3.953   4.022   8.516 -0.5852 -0.0536  0.5505
 2052SOL    HW117792   4.008   3.975   8.453  0.5540 -0.0073  1.4962
 2052SOL    HW217793   3.988   4.110   8.505  0.0390 -0.3970 -0.2257
 2053SOL     OW17794   0.114   2.688   3.719  0.1912 -0.6749  0.0420
 2053SOL    HW117795   0.176   2.759   3.703 -1.5767  1.1936  1.5883
 2053SOL    HW217796   0.107   2.652   3.631 -0.0457 -1.7047  0.4834
 2054SOL     OW17797   3.271   1.600   6.592 -0.7301 -0.4310 -0.8372
 2054SOL    HW117798   3.241   1.554   6.670 -0.2998  0.0918 -0.3631
 2054SOL    HW217799   3.279   1.686   6.634  0.9196 -1.0706  0.1694
 2055SOL     OW17800   3.888   0.780   4.753 -0.3290 -0.1657 -0.2027
 2055SOL    HW117801   3.796   0.802   4.738 -0.9819 -2.7902  0.1131
 2055SOL    HW217802   3.886   0.690   4.720  1.6793 -0.2040 -0.2070
 2056SOL     OW17803   3.511   2.660   6.727  0.6780 -0.3835  0.2051
 2056SOL    HW117804   3.424   2.637   6.759  1.3268 -0.7222  1.7337
 2056SOL    HW217805   3.506   2.584   6.669  0.5575 -0.6611  0.5809
 2057SOL     OW17806   0.640   2.184  12.012  0.5364 -0.3418 -0.3714
 2057SOL    HW117807   0.650   2.259  12.071  1.0572 -0.8128  0.1376
 2057SOL    HW217808   0.657   2.227  11.928  1.2380  0.7544  0.3179
 2058SOL     OW17809   0.812   1.544   7.252 -0.3913 -0.1266 -0.4847
 2058SOL    HW117810   0.856   1.567   7.334  1.7843 -2.0279 -1.1167
 2058SOL    HW217811   0.864   1.584   7.183 -1.2216 -0.3431 -1.2385
 2059SOL     OW17812   2.148   1.152  15.585  0.4090  0.2332 -0.1664
 2059SOL    HW117813   2.066   1.107  15.603  1.4915 -2.0171 -0.7913
 2059SOL    HW217814   2.137   1.164  15.491 -0.3868 -2.3496 -0.3915
 2060SOL     OW17815   2.413   0.635   4.313  0.0506 -0.2630  0.4234
 2060SOL    HW117816   2.390   0.726   4.293  0.7246 -0.5808 -1.8619
 2060SOL    HW217817   2.337   0.593   4.272 -0.0994  1.9448 -1.5826
 2061SOL     OW17818   3.701   2.458  14.152 -0.6233 -0.3842  0.4096
 2061SOL    HW117819   3.640   2.531  14.142 -0.7910 -0.6342 -0.4069
 2061SOL    HW217820   3.699   2.452  14.248 -0.4799  0.0911  0.4406
 2062SOL     OW17821   1.499   0.296   1.959  0.0120  0.2526 -0.2523
 2062SOL    HW117822   1.525   0.384   1.934 -1.0569  0.6214 -0.0506
 2062SOL    HW217823   1.548   0.289   2.041 -0.6464  0.4813  0.1580
 2063SOL     OW17824   1.091   4.162  10.002 -0.0208 -0.0643 -0.0869
 2063SOL    HW117825   1.080   4.154   9.908  0.6037 -0.2787 -0.1410
 2063SOL    HW217826   1.025   4.229  10.018  0.5516 -0.2791  3.2964
 2064SOL     OW17827   3.674   0.347  10.563 -0.2949  0.3600  0.5880
 2064SOL    HW117828   3.717   0.414  10.510 -1.2217 -1.9514 -3.1237
 2064SOL    HW217829   3.644   0.285  10.496  2.3338  1.9696 -2.0535
 2065SOL     OW17830   3.888   4.700  12.287  0.1003 -0.2335  0.2973
 2065SOL    HW117831   3.961   0.022  12.277 -0.1611  0.0911  0.4037
 2065SOL    HW217832   3.930   4.614  12.281 -0.0173 -0.1267 -1.8851
 2066SOL     OW17833   0.473   4.088   6.026  0.3885 -0.2610 -0.1047
 2066SOL    HW117834   0.407   4.028   6.060 -1.3298  1.4091 -0.4866
 2066SOL    HW217835   0.561   4.069   6.059  1.5205  0.6330 -2.6021
 2067SOL     OW17836   3.192   2.007  16.685 -0.1552  0.2147  0.2884
 2067SOL    HW117837   3.202   1.996  16.591 -1.3128  1.7203 -0.0114
 2067SOL    HW217838   3.108   1.962  16.696 -0.6667  1.4565  1.4746
 2068SOL     OW17839   3.994   0.992   3.203 -0.3292 -0.0509 -0.7775
 2068SOL    HW117840   3.955   0.939   3.133 -0.0672 -3.8378  1.9572
 2068SOL    HW217841   3.918   1.047   3.222 -2.1526 -2.3866 -1.3664
 2069SOL     OW17842   3.298   2.020  14.178 -0.3494 -0.5801 -0.4238
 2069SOL    HW117843   3.388   2.052  14.189 -0.4428 -0.5555  0.2657
 2069SOL    HW217844   3.302   1.954  14.248  0.4781 -1.1363 -0.9936
 2070SOL     OW17845   1.420   1.200   8.405 -0.3114  0.0467 -0.1185
 2070SOL    HW117846   1.439   1.273   8.346 -1.2413  0.3110 -0.0969
 2070SOL    HW217847   1.461   1.120   8.372 -1.0887 -0.1082 -0.7092
 2071SOL     OW17848   3.966   2.784   2.505  0.2252 -0.6367 -0.7555
 2071SOL    HW117849   4.017   2.825   2.576 -1.8505  0.4372  0.1370
 2071SOL    HW217850   4.025   2.717   2.473 -1.1759 -2.5489  0.6797
 2072SOL     OW17851   1.820   0.175   5.306 -0.2487  0.2071  0.2252
 2072SOL    HW117852   1.873   0.103   5.272  0.4925  0.7872  0.1535
 2072SOL    HW217853   1.888   0.209   5.364 -1.8136 -0.6445  2.5428
 2073SOL     OW17854   3.313   4.312   4.245 -0.1355  0.2569  0.1130
 2073SOL    HW117855   3.398   4.268   4.245  1.0388  2.5310  0.7834
 2073SOL    HW217856   3.298   4.300   4.151  0.2664  0.3255  0.0391
 2074SOL     OW17857   2.036   4.614  12.912  0.5403 -0.0727 -0.2023
 2074SOL    HW117858   2.119   4.590  12.871  0.6360 -1.6380  0.9039
 2074SOL    HW217859   1.986   4.634  12.833 -0.0089  2.1503  0.7041
 2075SOL     OW17860   1.213   1.406   8.368 -0.4087 -0.4411 -0.1281
 2075SOL    HW117861   1.213   1.322   8.414  0.7984 -0.1563  0.4100
 2075SOL    HW217862   1.197   1.379   8.278 -1.3752 -0.5821  0.0942
 2076SOL     OW17863   1.914   2.359   2.631 -0.1556 -0.2351  0.1108
 2076SOL    HW117864   1.893   2.266   2.623 -1.4772  0.0437  0.3935
 2076SOL    HW217865   1.850   2.406   2.578  0.7261 -1.5197 -2.1295
 2077SOL     OW17866   2.327   0.902   0.531 -0.1933 -0.4177 -0.1673
 2077SOL    HW117867   2.377   0.975   0.568  1.2541 -1.7501  0.4865
 2077SOL    HW217868   2.385   0.831   0.506 -0.3757 -0.8023  0.4761
 2078SOL     OW17869   0.850   2.045  12.065  0.3455  0.0105 -0.1116
 2078SOL    HW117870   0.769   2.090  12.041 -0.4648 -2.2448 -1.5833
 2078SOL    HW217871   0.886   2.010  11.983  0.3032  3.4677 -1.6294
 2079SOL     OW17872   2.621   0.033   7.411  0.2803 -0.2932 -0.2470
 2079SOL    HW117873   2.553   0.027   7.478  0.9574 -1.2493  0.3798
 2079SOL    HW217874   2.599   4.710   7.342 -2.7242 -1.3052  1.6630
 2080SOL     OW17875   2.352   3.980   1.704  0.0041  0.4851  0.5491
 2080SOL    HW117876   2.282   3.954   1.763  0.0096  0.4126  0.5244
 2080SOL    HW217877   2.339   3.927   1.625 -1.7874  0.0251  1.1577
 2081SOL     OW17878   1.131   4.728   4.236  0.4190 -0.4269  0.0762
 2081SOL    HW117879   1.110   4.646   4.283 -0.4055  0.7688  1.7896
 2081SOL    HW217880   1.187   0.030   4.302 -0.2808 -0.3704  0.6421
 2082SOL     OW17881   2.388   3.849  10.876  0.4443 -0.3974  0.2770
 2082SOL    HW117882   2.410   3.917  10.940  2.2406 -0.2852 -0.4597
 2082SOL    HW217883   2.293   3.839  10.881  0.2863  1.2223  0.4531
 2083SOL     OW17884   3.679   2.837  14.059  0.1114  0.3674  0.4272
 2083SOL    HW117885   3.689   2.821  14.153  1.5543  1.3009  0.4246
 2083SOL    HW217886   3.590   2.802  14.052  0.6927 -1.2698  1.2345
 2084SOL     OW17887   3.809   3.280   9.678  0.8836 -0.2766  0.6085
 2084SOL    HW117888   3.772   3.221   9.612  1.3298 -0.7013  0.7479
 2084SOL    HW217889   3.761   3.362   9.662  0.1658 -0.5830  1.1793
 2085SOL     OW17890   3.770   1.629   2.458 -0.3941 -0.5663  0.3104
 2085SOL    HW117891   3.860   1.608   2.434 -0.7175  0.9920 -2.2811
 2085SOL    HW217892   3.747   1.664   2.372  1.4608 -1.5990 -0.6056
 2086SOL     OW17893   0.693   0.061   8.261 -0.7046 -0.6830  0.3804
 2086SOL    HW117894   0.607   0.057   8.219 -0.9434  1.1001  0.6962
 2086SOL    HW217895   0.685   0.005   8.338  0.0298 -0.7141  0.4358
 2087SOL     OW17896   1.692   0.197   8.942  0.0508 -0.1574 -0.5780
 2087SOL    HW117897   1.740   0.274   8.973  0.2759 -1.4001  2.0659
 2087SOL    HW217898   1.755   0.131   8.970  0.9699  1.0128  0.0885
 2088SOL     OW17899   3.313   1.106   6.269  0.0171 -0.1934  0.3186
 2088SOL    HW117900   3.378   1.038   6.288 -0.9019 -1.5276 -1.3720
 2088SOL    HW217901   3.271   1.072   6.190  1.6481 -0.3417 -0.4974
 2089SOL     OW17902   1.972   3.611   3.067  0.3173  0.4627 -0.1609
 2089SOL    HW117903   2.007   3.538   3.118 -1.1646 -0.3240 -0.2877
 2089SOL    HW217904   1.877   3.613   3.079  0.0254  3.0284 -2.9918
 2090SOL     OW17905   0.128   2.435   2.790 -0.1043 -0.0105 -0.3482
 2090SOL    HW117906   0.129   2.529   2.809 -0.2213 -0.0347 -0.2136
 2090SOL    HW217907   0.198   2.401   2.845  1.2682  1.4882 -1.1855
 2091SOL     OW17908   1.242   3.176   2.294  0.1788  0.4457 -0.0273
 2091SOL    HW117909   1.325   3.136   2.322  1.4112  2.5960 -0.6082
 2091SOL    HW217910   1.175   3.113   2.321 -0.8784  1.9172  0.7525
 2092SOL     OW17911   4.441   3.378  15.967 -0.5668 -0.2233  0.4566
 2092SOL    HW117912   4.368   3.329  15.929 -2.0847  2.4692 -0.0416
 2092SOL    HW217913   4.404   3.421  16.044 -0.9402  0.7160 -0.2499
 2093SOL     OW17914   4.472   1.098   2.191 -0.3702 -0.1895 -0.3460
 2093SOL    HW117915   4.417   1.108   2.268  0.2482 -0.6412  0.1510
 2093SOL    HW217916   4.471   1.187   2.156 -0.1543 -0.3972 -0.8866
 2094SOL     OW17917   2.235   4.566   8.936 -0.2366  0.6208 -0.4603
 2094SOL    HW117918   2.264   4.496   8.996  1.0598  0.1654 -1.6236
 2094SOL    HW217919   2.177   4.621   8.988 -1.2073 -0.4804 -0.3898
 2095SOL     OW17920   0.854   2.457   8.316  0.1345 -0.1164 -0.1908
 2095SOL    HW117921   0.774   2.487   8.359 -0.2330 -0.6409 -0.5265
 2095SOL    HW217922   0.898   2.401   8.381 -2.0551 -2.2640 -0.6034
 2096SOL     OW17923   2.928   1.424  17.161 -0.0735  0.1925  0.1575
 2096SOL    HW117924   2.859   1.484  17.132 -0.2374 -0.0847 -0.0241
 2096SOL    HW217925   2.986   1.484  17.208  0.3653  1.1049 -1.5365
 2097SOL     OW17926   4.313   3.397   5.032 -0.0389 -0.2668 -0.0047
 2097SOL    HW117927   4.302   3.457   4.958  1.1731 -1.3869 -1.0989
 2097SOL    HW217928   4.264   3.322   4.998 -1.6859  1.4627 -1.3986
 2098SOL     OW17929   4.203   0.365   3.536  0.2764  0.2818  0.3636
 2098SOL    HW117930   4.213   0.288   3.592 -0.3969 -0.2231 -0.2139
 2098SOL    HW217931   4.158   0.330   3.459 -1.1147  1.2588  0.7333
 2099SOL     OW17932   2.107   0.738   5.226  0.2879 -0.1794  0.1030
 2099SOL    HW117933   2.186   0.684   5.225  1.8717  2.1534 -0.6422
 2099SOL    HW217934   2.153   0.808   5.179 -1.4486  0.3297 -0.8362
 2100SOL     OW17935   4.496   0.330   7.793 -0.1510  0.4010 -0.5459
 2100SOL    HW117936   4.427   0.389   7.762  1.7577  2.0372 -1.7124
 2100SOL    HW217937   4.539   0.282   7.722  0.2116 -0.9627  0.6108
 2101SOL     OW17938   4.071   2.880   4.756 -0.1685  0.3409 -0.0875
 2101SOL    HW117939   4.145   2.831   4.790 -1.1845 -1.2039 -0.1103
 2101SOL    HW217940   4.118   2.929   4.689  1.6980 -0.6161  0.5200
 2102SOL     OW17941   2.290   1.860   9.291  0.2932  0.0532  0.6402
 2102SOL    HW117942   2.379   1.830   9.273  0.2644  0.3131  0.0780
 2102SOL    HW217943   2.310   1.944   9.334  1.2109 -0.1931  0.6834
 2103SOL     OW17944   1.275   1.989   4.538 -0.1953 -0.3822 -0.2018
 2103SOL    HW117945   1.230   1.935   4.472 -1.0234  0.7813 -0.5897
 2103SOL    HW217946   1.302   1.916   4.594 -2.9154 -0.3983  1.0645
 2104SOL     OW17947   2.139   0.664   7.451  0.1813  0.2956 -0.0906
 2104SOL    HW117948   2.083   0.672   7.528  2.4596  1.6742  1.4367
 2104SOL    HW217949   2.144   0.570   7.433  0.6649  0.3249 -0.1064
 2105SOL     OW17950   3.135   1.013   6.092  0.6751 -0.2562 -0.1707
 2105SOL    HW117951   3.055   1.042   6.135  0.2415  1.8186 -2.3791
 2105SOL    HW217952   3.132   0.917   6.098  1.9040 -0.4923 -3.1501
 2106SOL     OW17953   4.672   2.084  17.469  0.6672  0.0779 -0.3503
 2106SOL    HW117954   4.595   2.117  17.423 -2.1081 -1.1782  3.4156
 2106SOL    HW217955   4.631   2.044  17.547  1.3989  1.1680  0.5909
 2107SOL     OW17956   2.025   4.023   4.659  0.4766 -0.0102 -0.1074
 2107SOL    HW117957   1.930   4.020   4.650  0.3193 -0.2368  1.7939
 2107SOL    HW217958   2.032   4.058   4.748  1.5236 -1.5109  0.3946
 2108SOL     OW17959   3.455   0.644   8.763 -0.2408 -0.2225 -0.3259
 2108SOL    HW117960   3.380   0.621   8.818  0.8009  0.0327  1.1953
 2108SOL    HW217961   3.460   0.562   8.715 -1.6914 -1.1968  1.1937
 2109SOL     OW17962   2.019   0.704   2.106  0.5812  0.3502  0.0830
 2109SOL    HW117963   2.084   0.772   2.122  0.3546  0.4860  0.4423
 2109SOL    HW217964   1.985   0.696   2.195 -0.4981  1.3909 -0.2294
 2110SOL     OW17965   0.557   1.440   7.532  0.1756 -0.5129  0.1069
 2110SOL    HW117966   0.561   1.466   7.440 -0.0856 -0.2021  0.1835
 2110SOL    HW217967   0.464   1.417   7.532 -0.1451  0.7198  0.9186
 2111SOL     OW17968   2.147   0.560   3.595 -0.2968  0.4618 -0.0140
 2111SOL    HW117969   2.084   0.500   3.635  1.0205 -1.0343 -0.1800
 2111SOL    HW217970   2.220   0.499   3.580  1.7311  2.0928  3.2059
 2112SOL     OW17971   2.562   0.063   5.402  0.3271  0.1958 -0.0706
 2112SOL    HW117972   2.585   0.085   5.311 -2.2641  3.0571 -0.0461
 2112SOL    HW217973   2.604   4.717   5.401  1.6499  0.8655 -1.7191
 2113SOL     OW17974   2.323   0.752   4.867  0.7551  0.0221  0.0170
 2113SOL    HW117975   2.419   0.748   4.871  0.8095  1.1375 -0.0878
 2113SOL    HW217976   2.317   0.681   4.803 -2.7373 -0.0100  0.3768
 2114SOL     OW17977   1.594   1.541   8.777 -0.5311  0.4940  0.2161
 2114SOL    HW117978   1.658   1.489   8.728 -0.8381 -0.2439  0.6009
 2114SOL    HW217979   1.580   1.494   8.858 -1.2579 -0.4843 -0.4785
 2115SOL     OW17980   2.907   1.859   5.328  0.2673 -0.8548 -0.0860
 2115SOL    HW117981   2.829   1.821   5.368  0.7123 -0.3238  1.2623
 2115SOL    HW217982   2.891   1.954   5.332 -0.0527 -1.0082  2.1217
 2116SOL     OW17983   2.358   0.605  11.654  0.3421  0.3083  0.0646
 2116SOL    HW117984   2.414   0.569  11.585 -1.2407 -1.0510 -0.4837
 2116SOL    HW217985   2.284   0.545  11.655  0.5617  0.0418  0.6115
 2117SOL     OW17986   0.335   0.890   9.169 -0.1230  0.8022 -0.5183
 2117SOL    HW117987   0.297   0.818   9.118  3.8379 -0.9229 -1.1017
 2117SOL    HW217988   0.265   0.937   9.214  1.2091  2.1342  0.1445
 2118SOL     OW17989   3.367   0.943   5.842  0.6391  0.6606  0.1901
 2118SOL    HW117990   3.275   0.920   5.835  0.8031  0.1876 -0.4238
 2118SOL    HW217991   3.398   0.917   5.755 -0.4751  2.0476 -0.6295
 2119SOL     OW17992   1.505   0.895  12.229  0.4645 -0.3984  0.0977
 2119SOL    HW117993   1.431   0.928  12.281  0.6870 -1.3303  0.9978
 2119SOL    HW217994   1.551   0.977  12.208 -1.4102  0.1256 -2.0129
 2120SOL     OW17995   1.911   1.679   2.416 -0.6558 -0.4187 -0.0637
 2120SOL    HW117996   1.816   1.685   2.417 -0.7390 -1.7356 -2.4079
 2120SOL    HW217997   1.918   1.602   2.472  0.7627  0.9698  1.7262
 2121SOL     OW17998   3.645   2.338   2.883 -0.0279  0.3752  0.1936
 2121SOL    HW117999   3.624   2.280   2.956 -0.1197  0.5154  0.2784
 2121SOL    HW218000   3.567   2.393   2.879  1.3654  2.3864  0.3999
 2122SOL     OW18001   2.007   2.925   7.136 -0.2025  0.3668 -0.2737
 2122SOL    HW118002   1.942   2.870   7.092  0.3160  1.8004 -2.8365
 2122SOL    HW218003   1.970   3.008   7.105 -0.2744 -0.0656 -1.3372
 2123SOL     OW18004   1.572   4.339   6.261 -0.1283  0.1628  0.3372
 2123SOL    HW118005   1.604   4.331   6.351 -1.2791 -3.0259  0.4614
 2123SOL    HW218006   1.533   4.252   6.251  0.6802 -0.2305  0.5801
 2124SOL     OW18007   2.891   4.332   3.046  0.1482 -0.1672 -0.0387
 2124SOL    HW118008   2.868   4.246   3.012  0.6377 -0.7422  1.0814
 2124SOL    HW218009   2.985   4.336   3.028 -0.3237 -0.8813 -2.6611
 2125SOL     OW18010   1.997   4.253  14.315  0.2495 -0.5920  0.6571
 2125SOL    HW118011   2.083   4.210  14.314  0.4497 -0.1823 -1.5831
 2125SOL    HW218012   2.014   4.329  14.259  0.6798 -0.4056  1.0435
 2126SOL     OW18013   0.208   0.246   2.778  0.2794 -0.3193  0.2232
 2126SOL    HW118014   0.150   0.323   2.778  1.5874  0.6610  1.3812
 2126SOL    HW218015   0.213   0.238   2.683  2.1922  0.4879  0.2631
 2127SOL     OW18016   2.239   0.007   5.921  0.0502  0.0646  0.4892
 2127SOL    HW118017   2.199   4.705   5.998  2.1052  1.7396  2.4550
 2127SOL    HW218018   2.276   4.674   5.871 -1.9853  0.5789 -1.7516
 2128SOL     OW18019   0.102   3.447  15.573 -0.3858 -0.3279  0.1523
 2128SOL    HW118020   0.033   3.486  15.627  0.9735  2.3103 -0.0086
 2128SOL    HW218021   0.105   3.530  15.525 -0.2557 -0.1727  0.4269
 2129SOL     OW18022   2.873   2.984   4.119 -0.2467  0.0795 -0.2821
 2129SOL    HW118023   2.922   2.933   4.055  2.1052  1.5968  0.3021
 2129SOL    HW218024   2.782   2.956   4.110  0.5446 -2.1938 -1.2404
 2130SOL     OW18025   1.344   1.218   9.248 -0.1117  0.0695 -0.3592
 2130SOL    HW118026   1.329   1.249   9.337 -0.3307 -2.8156  0.5899
 2130SOL    HW218027   1.435   1.236   9.228  0.9991 -2.5312  2.4323
 2131SOL     OW18028   3.201   2.925  13.374  0.0642 -0.3324  0.8120
 2131SOL    HW118029   3.275   2.926  13.313 -0.2614 -2.0071  0.3879
 2131SOL    HW218030   3.163   3.013  13.368 -3.0318 -1.7327 -0.5720
 2132SOL     OW18031   4.077   2.809  13.037 -0.2698 -0.1731 -0.6209
 2132SOL    HW118032   4.002   2.868  13.045 -0.0064 -0.1408  1.7619
 2132SOL    HW218033   4.117   2.823  13.123 -0.0454 -0.5241 -0.6669
 2133SOL     OW18034   2.267   4.660   7.846 -0.2624  0.4439 -0.3542
 2133SOL    HW118035   2.265   4.569   7.816  1.8604  0.7285 -1.3599
 2133SOL    HW218036   2.312   4.637   7.927 -0.3987 -1.4856 -0.8332
 2134SOL     OW18037   1.926   1.238  15.118  0.1907  0.4840 -0.3855
 2134SOL    HW118038   1.978   1.229  15.038  0.2249  0.5039 -0.3658
 2134SOL    HW218039   1.909   1.331  15.102 -0.4392  1.0343  3.4818
 2135SOL     OW18040   2.119   3.208   0.518  0.5414  0.6472  0.0871
 2135SOL    HW118041   2.130   3.144   0.448 -1.0950  0.0652  0.3513
 2135SOL    HW218042   2.205   3.203   0.559  0.9232  2.9084 -0.4829
 2136SOL     OW18043   1.020   0.573   1.704  0.0594  0.0032 -0.2985
 2136SOL    HW118044   1.083   0.542   1.769 -0.6719 -1.3622 -0.2420
 2136SOL    HW218045   1.072   0.638   1.657  0.0534 -0.6735 -1.2312
 2137SOL     OW18046   1.584   1.676   7.116 -0.4006 -0.2370 -0.7729
 2137SOL    HW118047   1.532   1.734   7.172  2.5377 -1.8447  3.5863
 2137SOL    HW218048   1.648   1.742   7.090  1.6676 -2.2323 -0.6696
 2138SOL     OW18049   4.090   3.110  11.374  0.5640 -0.4791 -0.0465
 2138SOL    HW118050   4.021   3.052  11.405 -0.3591  0.7923  0.2840
 2138SOL    HW218051   4.159   3.054  11.340 -0.8686 -2.3297  0.1367
 2139SOL     OW18052   3.192   3.315   8.153  0.4447  0.2610  0.1546
 2139SOL    HW118053   3.195   3.346   8.063 -1.1735 -3.9160 -1.3671
 2139SOL    HW218054   3.261   3.368   8.193 -1.8454  2.5703  1.0684
 2140SOL     OW18055   1.531   2.511   7.278  0.9402 -0.3968 -0.7568
 2140SOL    HW118056   1.449   2.469   7.305 -0.3701  2.4284 -0.3706
 2140SOL    HW218057   1.499   2.589   7.233 -1.7436  0.0755  1.9819
 2141SOL     OW18058   3.836   3.898  15.719  0.0412  0.3036 -0.2065
 2141SOL    HW118059   3.931   3.897  15.706  0.1269 -3.7272  0.6626
 2141SOL    HW218060   3.820   3.833  15.787 -2.6883  0.1509 -1.0030
 2142SOL     OW18061   2.617   4.038   1.733 -0.2387  0.4890  0.1967
 2142SOL    HW118062   2.664   3.958   1.758 -0.8575  0.2625  0.6438
 2142SOL    HW218063   2.526   4.008   1.721  0.1367  0.0419 -1.4506
 2143SOL     OW18064   1.768   0.644  12.413  0.3481  0.0920 -0.6251
 2143SOL    HW118065   1.737   0.693  12.337 -1.6008 -2.0292 -1.1656
 2143SOL    HW218066   1.814   0.717  12.456 -1.2341  1.8464 -1.9125
 2144SOL     OW18067   2.355   0.902   4.246 -0.7567  0.5093  0.4414
 2144SOL    HW118068   2.272   0.876   4.286 -0.3017 -1.3558  0.1832
 2144SOL    HW218069   2.387   0.983   4.285  1.6197 -0.7544  1.0705
 2145SOL     OW18070   3.341   4.172   9.299 -0.1555  0.2968 -0.2831
 2145SOL    HW118071   3.423   4.146   9.257 -0.0912 -2.4938  1.5881
 2145SOL    HW218072   3.297   4.210   9.223  0.2787 -1.0456 -1.2042
 2146SOL     OW18073   0.001   1.617   4.217 -0.0129 -0.2407 -0.7726
 2146SOL    HW118074   0.050   1.689   4.258  1.0178 -1.7287  0.6128
 2146SOL    HW218075   4.659   1.657   4.188  0.7022 -0.1361 -2.6413
 2147SOL     OW18076   4.705   4.539   7.577  0.1460 -0.0163 -0.1375
 2147SOL    HW118077   4.734   4.469   7.635  0.7731  0.1080 -0.3084
 2147SOL    HW218078   0.002   4.615   7.622  0.2423 -0.7315  0.9972
 2148SOL     OW18079   3.855   0.463   7.541 -0.7459 -0.1973  0.2375
 2148SOL    HW118080   3.842   0.465   7.446  0.5993  0.9095  0.0570
 2148SOL    HW218081   3.893   0.551   7.550  0.0869 -0.5970  0.6314
 2149SOL     OW18082   4.461   0.207  15.262  0.1153 -0.1208 -0.6791
 2149SOL    HW118083   4.535   0.147  15.263  0.5057  0.3473 -1.5991
 2149SOL    HW218084   4.457   0.244  15.350  0.3114 -3.6352  0.8003
 2150SOL     OW18085   0.981   0.920  17.569 -0.1777 -0.1955 -0.3357
 2150SOL    HW118086   0.950   0.853  17.508 -0.0135  0.0640 -0.7050
 2150SOL    HW218087   0.896   0.955  17.594  0.0340  0.3681 -0.4044
 2151SOL     OW18088   2.595   1.633   8.043  0.3705 -0.2273 -0.1060
 2151SOL    HW118089   2.631   1.691   8.111  1.4935  0.0233 -0.9253
 2151SOL    HW218090   2.661   1.642   7.975 -1.0110  0.9738 -1.2931
 2152SOL     OW18091   2.106   4.154   0.626 -0.0323  0.2011  0.1110
 2152SOL    HW118092   2.165   4.085   0.594  1.9021  2.0313 -0.2997
 2152SOL    HW218093   2.103   4.127   0.718  1.1701 -3.0313 -0.8067
 2153SOL     OW18094   1.720   3.011  16.865 -0.1473  0.4523 -0.1913
 2153SOL    HW118095   1.767   3.008  16.948  0.7225  0.3313 -0.6921
 2153SOL    HW218096   1.765   3.081  16.818 -0.3665  0.1747 -0.8214
 2154SOL     OW18097   4.006   0.743   9.490 -0.0155 -0.2145 -0.3181
 2154SOL    HW118098   4.058   0.821   9.471  2.8417 -2.1014 -0.2022
 2154SOL    HW218099   4.031   0.694   9.411 -2.4196  0.0239 -1.2444
 2155SOL     OW18100   2.209   4.669   6.313 -0.1930 -0.9678  0.1094
 2155SOL    HW118101   2.142   4.655   6.380 -0.3809  0.7850  0.2847
 2155SOL    HW218102   2.171   4.635   6.232  1.0545 -0.9819 -0.4793
 2156SOL     OW18103   3.432   2.136   5.594  0.2986 -0.0367  0.0282
 2156SOL    HW118104   3.398   2.165   5.509  0.6632  0.9222  0.2206
 2156SOL    HW218105   3.363   2.081   5.630  1.1646  0.1269  1.9093
 2157SOL     OW18106   3.456   1.082  15.196  0.1936 -0.5642 -0.3852
 2157SOL    HW118107   3.430   0.994  15.222  0.3643  0.2575  2.5980
 2157SOL    HW218108   3.543   1.049  15.175  1.3485  1.8452  0.6133
 2158SOL     OW18109   3.624   2.146  12.390 -0.1608  0.2711  0.5388
 2158SOL    HW118110   3.713   2.143  12.425  0.2619  0.5362 -0.4823
 2158SOL    HW218111   3.635   2.234  12.353  2.1510  0.1730  0.9965
 2159SOL     OW18112   3.535   2.866   6.002  0.4234  0.3899  0.3008
 2159SOL    HW118113   3.623   2.832   6.021 -0.3742 -1.7298  0.2048
 2159SOL    HW218114   3.554   2.948   5.957 -1.1653 -1.0684 -2.9877
 2160SOL     OW18115   2.286   2.607   6.455  0.0729 -0.5136 -0.1041
 2160SOL    HW118116   2.360   2.654   6.417  0.7740  0.2460  2.2038
 2160SOL    HW218117   2.325   2.520   6.453  0.9897 -0.0651 -2.2176
 2161SOL     OW18118   1.073   0.071   9.055 -0.0894  0.0287  0.3050
 2161SOL    HW118119   1.049   4.721   9.080  2.3304 -1.2624 -1.9942
 2161SOL    HW218120   0.989   0.109   9.034 -0.9859 -1.6413  0.8384
 2162SOL     OW18121   3.602   2.720   2.682  0.4808 -0.0519  0.7117
 2162SOL    HW118122   3.681   2.756   2.721  0.5525 -0.6406  1.1100
 2162SOL    HW218123   3.584   2.795   2.626 -0.9288  0.1163  1.3686
 2163SOL     OW18124   2.676   4.079   8.609 -0.0521 -0.1876 -0.1548
 2163SOL    HW118125   2.720   4.001   8.575  0.7749  0.2895 -0.1788
 2163SOL    HW218126   2.595   4.045   8.646 -1.6983  2.2100 -1.6004
 2164SOL     OW18127   1.067   0.398  15.119  0.2908 -0.1879  0.3314
 2164SOL    HW118128   0.995   0.397  15.055 -2.0383 -2.1270  2.9941
 2164SOL    HW218129   1.022   0.409  15.202  2.5465  1.0597  1.3837
 2165SOL     OW18130   3.522   3.770  13.559  1.0677 -0.3789 -0.2428
 2165SOL    HW118131   3.509   3.682  13.524  0.7998  0.0549 -1.2275
 2165SOL    HW218132   3.592   3.800  13.500  0.0549  0.6275 -0.9194
 2166SOL     OW18133   4.285   3.026  13.521 -0.0443  0.3823  0.2690
 2166SOL    HW118134   4.334   3.093  13.474  0.3472 -0.0966 -0.0080
 2166SOL    HW218135   4.194   3.037  13.491  0.6895 -1.5604 -2.7540
 2167SOL     OW18136   4.703   4.397   7.337 -0.5889  0.7232  0.1772
 2167SOL    HW118137   4.708   4.488   7.368  0.2756  0.0053  2.1475
 2167SOL    HW218138   0.056   4.380   7.324 -0.7949 -0.0198 -0.2759
 2168SOL     OW18139   2.316   1.472   1.761  0.1062  0.4237  0.0899
 2168SOL    HW118140   2.383   1.471   1.829 -0.6265 -0.3761  0.8059
 2168SOL    HW218141   2.314   1.386   1.720  2.6852  0.5605 -0.3233
 2169SOL     OW18142   2.587   0.474   0.495  0.0197 -0.4412  0.3524
 2169SOL    HW118143   2.647   0.399   0.498  0.7346  0.0729 -1.0711
 2169SOL    HW218144   2.543   0.449   0.414 -1.4608  1.8845  0.4281
 2170SOL     OW18145   0.130   0.615   6.313 -0.3755  0.0043  0.0337
 2170SOL    HW118146   0.223   0.596   6.300 -0.5137 -1.6353  1.3911
 2170SOL    HW218147   0.123   0.694   6.260 -2.9012  0.8334  1.5490
 2171SOL     OW18148   0.391   1.740   5.064 -0.2170  1.0764 -0.1930
 2171SOL    HW118149   0.466   1.703   5.110 -0.2807  1.2321  0.0384
 2171SOL    HW218150   0.320   1.691   5.106 -0.0275  0.2230 -0.8835
 2172SOL     OW18151   2.762   3.499   3.291 -0.3835  0.5625  0.0813
 2172SOL    HW118152   2.709   3.531   3.364 -0.5477 -0.3012  0.3395
 2172SOL    HW218153   2.773   3.405   3.301  2.6789  0.9487  0.4524
 2173SOL     OW18154   3.674   1.268   5.711  0.1334 -0.0136 -0.3796
 2173SOL    HW118155   3.595   1.321   5.705 -0.0999 -0.4673 -1.3300
 2173SOL    HW218156   3.631   1.191   5.748  0.9816 -1.5361 -2.5408
 2174SOL     OW18157   4.360   4.409  11.867 -0.2774 -0.4571  0.0044
 2174SOL    HW118158   4.433   4.459  11.830 -0.8738  0.6545  0.3419
 2174SOL    HW218159   4.295   4.479  11.863  1.1060  0.6692 -3.3617
 2175SOL     OW18160   0.324   4.329   4.727  0.1227  0.2291 -0.2984
 2175SOL    HW118161   0.288   4.257   4.778  0.0242  0.2582 -0.3271
 2175SOL    HW218162   0.296   4.413   4.764 -0.9704  0.7215 -2.2564
 2176SOL     OW18163   1.025   3.229   5.684 -0.0274 -0.3292 -0.2143
 2176SOL    HW118164   0.943   3.227   5.733  0.7843  0.1902  1.1499
 2176SOL    HW218165   1.095   3.228   5.749  0.6710  1.2168 -0.9529
 2177SOL     OW18166   2.743   1.779   2.963 -0.5484  1.1225 -0.5250
 2177SOL    HW118167   2.826   1.798   2.919 -0.0736 -1.0964 -0.5591
 2177SOL    HW218168   2.765   1.795   3.055 -0.6404 -1.4899 -0.0577
 2178SOL     OW18169   0.994   1.609   7.045  0.2719  0.3777 -0.8691
 2178SOL    HW118170   1.027   1.592   6.956 -0.3514  0.2309 -1.0723
 2178SOL    HW218171   1.076   1.583   7.087  0.9986  2.0767 -1.2327
 2179SOL     OW18172   2.994   1.267  13.524 -0.3978 -0.0176 -0.6397
 2179SOL    HW118173   3.018   1.359  13.532 -0.1321 -0.0834 -0.6631
 2179SOL    HW218174   2.977   1.238  13.613  1.4404  1.1298  0.0956
 2180SOL     OW18175   2.939   1.572  14.744  0.3741 -0.3847 -0.4482
 2180SOL    HW118176   3.029   1.558  14.773  0.0538 -0.9669  0.2585
 2180SOL    HW218177   2.916   1.639  14.809  0.7976 -0.3035 -0.3846
 2181SOL     OW18178   4.093   2.555  12.933 -0.4410  0.0569  0.8512
 2181SOL    HW118179   4.090   2.642  12.971 -0.8780 -0.0192  0.9963
 2181SOL    HW218180   4.165   2.541  12.871 -3.0548 -1.1740 -1.8918
 2182SOL     OW18181   2.832   3.055   5.232 -0.0507 -0.3466 -0.2999
 2182SOL    HW118182   2.924   3.080   5.240 -0.4149  0.9087 -0.0393
 2182SOL    HW218183   2.819   2.985   5.295 -1.7349  1.0086  0.8838
 2183SOL     OW18184   3.970   4.673   5.044  0.3978  0.4288 -0.3780
 2183SOL    HW118185   4.061   4.647   5.025 -0.7203 -2.0534 -2.3664
 2183SOL    HW218186   3.972   4.689   5.139  0.2251 -2.8312  0.1545
 2184SOL     OW18187   3.112   2.359   6.235 -0.1555  0.6182 -0.2246
 2184SOL    HW118188   3.025   2.383   6.202 -0.6455  0.8832  1.2747
 2184SOL    HW218189   3.147   2.447   6.220 -0.6988  0.8017 -0.4374
 2185SOL     OW18190   2.724   3.140   6.842 -0.0968 -0.3277  0.3644
 2185SOL    HW118191   2.635   3.164   6.867 -1.1247 -1.9269 -1.7813
 2185SOL    HW218192   2.703   3.068   6.784 -0.5150 -0.7519  1.0485
 2186SOL     OW18193   1.284   0.308   2.376  0.0775 -0.6711  0.3470
 2186SOL    HW118194   1.267   0.397   2.345 -0.5375 -0.3777  1.5713
 2186SOL    HW218195   1.261   0.309   2.469 -0.4692 -2.5718  0.2295
 2187SOL     OW18196   2.492   2.023   6.787  0.1598 -0.2013 -0.0005
 2187SOL    HW118197   2.543   1.962   6.840 -1.5962 -0.0827  1.8419
 2187SOL    HW218198   2.441   2.077   6.848 -1.7130 -1.9092 -0.0850
 2188SOL     OW18199   0.867   0.241   8.961  0.2974 -0.0383 -0.1744
 2188SOL    HW118200   0.896   0.254   8.871  1.2012  1.1539  0.2942
 2188SOL    HW218201   0.922   0.304   9.007  2.2847 -1.0144 -1.2001
 2189SOL     OW18202   1.235   1.795  12.882  0.6783 -0.6193 -0.4244
 2189SOL    HW118203   1.244   1.822  12.791 -0.3434  1.1750 -0.0055
 2189SOL    HW218204   1.289   1.861  12.926  0.3588 -0.0766 -0.8621
 2190SOL     OW18205   2.653   2.639  17.478  0.0896 -0.8928  0.0372
 2190SOL    HW118206   2.747   2.628  17.491  0.1268  0.7063  1.0119
 2190SOL    HW218207   2.640   2.733  17.487  1.0385 -0.8443  0.8121
 2191SOL     OW18208   3.592   0.454   6.649  0.1917  0.3121 -0.6478
 2191SOL    HW118209   3.545   0.449   6.733 -0.2196  1.3788 -0.8119
 2191SOL    HW218210   3.668   0.505   6.674  0.7185  0.2304 -2.1012
 2192SOL     OW18211   3.276   4.443  14.309  0.0388  0.1569  0.6517
 2192SOL    HW118212   3.238   4.529  14.289 -0.3038 -0.0842  0.2852
 2192SOL    HW218213   3.277   4.441  14.405 -0.6071  0.5220  0.6677
 2193SOL     OW18214   4.351   4.363   5.784 -0.0060  0.2366 -0.4839
 2193SOL    HW118215   4.270   4.382   5.738 -0.0624  0.3642 -0.3299
 2193SOL    HW218216   4.410   4.413   5.727 -0.6187  0.7437 -0.6648
 2194SOL     OW18217   0.429   0.084   7.070 -0.3558  0.7320 -0.0435
 2194SOL    HW118218   0.376   0.045   7.140 -0.8055  1.1224 -0.1658
 2194SOL    HW218219   0.399   0.175   7.074 -0.6626  0.5499  1.9738
 2195SOL     OW18220   0.937   3.925   4.551  0.0529 -0.1621  0.2644
 2195SOL    HW118221   0.861   3.982   4.546 -0.9566 -1.4995  0.5615
 2195SOL    HW218222   0.980   3.959   4.472  0.4298 -0.1596  0.4681
 2196SOL     OW18223   2.663   4.169  16.534  0.1186 -0.0505  0.1080
 2196SOL    HW118224   2.696   4.090  16.577 -0.6399  0.3807  1.5026
 2196SOL    HW218225   2.725   4.239  16.553 -0.0845 -0.0348  0.7183
 2197SOL     OW18226   1.268   3.207   7.684 -0.7411 -0.0443  0.1009
 2197SOL    HW118227   1.175   3.194   7.704 -1.6240  1.6183 -3.0690
 2197SOL    HW218228   1.301   3.269   7.749  2.1652 -0.9959 -0.4569
 2198SOL     OW18229   3.366   2.043   4.937 -0.0450  0.1196  0.0875
 2198SOL    HW118230   3.291   2.068   4.884 -0.7148  0.0263  1.0024
 2198SOL    HW218231   3.325   1.993   5.007 -0.9737 -1.4793 -1.6007
 2199SOL     OW18232   3.979   0.902   8.631 -0.0064  0.4500 -0.6282
 2199SOL    HW118233   3.938   0.964   8.691 -2.1213 -1.2728 -0.2603
 2199SOL    HW218234   3.904   0.846   8.609 -0.0312  0.7582 -1.3379
 2200SOL     OW18235   3.649   3.105   7.237 -0.1501 -0.2009 -0.1007
 2200SOL    HW118236   3.649   3.197   7.261  2.1169  0.3460 -2.2967
 2200SOL    HW218237   3.741   3.081   7.231  0.2339  0.6487  2.3578
 2201SOL     OW18238   1.503   3.121   3.406  0.2364 -0.5592 -0.1776
 2201SOL    HW118239   1.599   3.113   3.413  0.0816 -1.5210  0.8819
 2201SOL    HW218240   1.501   3.037   3.360  0.7053 -0.4301 -0.4312
 2202SOL     OW18241   2.533   3.999   9.275  0.1857  0.3374  0.0575
 2202SOL    HW118242   2.454   3.987   9.223  1.5118 -2.5756 -1.3010
 2202SOL    HW218243   2.513   4.089   9.303 -2.0589  0.5018 -2.1337
 2203SOL     OW18244   1.663   0.278   3.795 -0.3967  0.3563 -0.2194
 2203SOL    HW118245   1.723   0.352   3.782 -0.3863 -0.0906 -2.8182
 2203SOL    HW218246   1.714   0.225   3.856 -0.3329 -0.1788 -0.7375
 2204SOL     OW18247   2.160   2.716  12.989 -0.1553 -0.1461  0.5067
 2204SOL    HW118248   2.189   2.807  13.001  0.3444 -0.5025  2.0113
 2204SOL    HW218249   2.175   2.672  13.073  0.1521  0.0528  0.5545
 2205SOL     OW18250   4.689   2.046   3.799  0.0169 -0.6107  0.4167
 2205SOL    HW118251   4.726   2.018   3.883  1.3793  1.7197  0.6086
 2205SOL    HW218252   0.023   2.054   3.738  1.5236  0.3943  2.3448
 2206SOL     OW18253   4.098   3.799   2.291 -0.5486 -0.2147 -0.2878
 2206SOL    HW118254   4.130   3.862   2.226  0.1725 -1.7482 -1.4143
 2206SOL    HW218255   4.013   3.770   2.257  0.6260 -1.5402 -2.0932
 2207SOL     OW18256   3.814   4.492   2.667  0.1527  0.3144  0.2215
 2207SOL    HW118257   3.738   4.526   2.619 -0.5550 -0.4378  0.7987
 2207SOL    HW218258   3.768   4.414   2.698 -0.4617  1.2921  1.8324
 2208SOL     OW18259   3.991   1.682   4.037 -0.8933  0.0183  0.4384
 2208SOL    HW118260   3.935   1.611   4.069  0.3827 -0.5875  1.3020
 2208SOL    HW218261   4.018   1.730   4.115 -1.6985 -0.6201  1.1109
 2209SOL     OW18262   4.290   1.212  11.339  0.0293  0.4469 -0.3287
 2209SOL    HW118263   4.284   1.150  11.412 -2.0487  0.8378 -0.1625
 2209SOL    HW218264   4.222   1.175  11.283  0.9778 -2.2079  0.2575
 2210SOL     OW18265   2.585   3.202   4.406 -0.4512 -0.2090 -0.3094
 2210SOL    HW118266   2.598   3.255   4.485 -0.6013 -1.5950  0.6451
 2210SOL    HW218267   2.527   3.133   4.439 -1.4297  0.2151 -1.1375
 2211SOL     OW18268   4.313   4.697   7.417  0.6620  0.1142 -0.2763
 2211SOL    HW118269   4.223   4.721   7.439  1.1121  0.4909  1.1502
 2211SOL    HW218270   4.313   4.739   7.331 -0.0663 -0.1713 -0.4072
 2212SOL     OW18271   3.452   0.630   5.655  0.2604  0.2887 -0.1416
 2212SOL    HW118272   3.408   0.662   5.575  0.1070 -0.4488 -0.3499
 2212SOL    HW218273   3.378   0.614   5.714 -0.6419 -1.0204 -1.6221
 2213SOL     OW18274   1.718   3.394   1.833 -0.1012 -0.1012  0.4765
 2213SOL    HW118275   1.644   3.440   1.871  0.1476  0.2712  0.5103
 2213SOL    HW218276   1.744   3.342   1.909 -0.3440 -1.3878 -0.2992
 2214SOL     OW18277   0.475   3.382  15.304 -0.1649  0.0677 -0.3426
 2214SOL    HW118278   0.555   3.387  15.357 -0.7597  0.4647  0.5125
 2214SOL    HW218279   0.472   3.287  15.305 -3.1072  0.1757 -0.4852
 2215SOL     OW18280   2.963   4.063   0.605  0.4489 -0.2801 -0.0787
 2215SOL    HW118281   2.916   3.983   0.582 -1.0255  0.1848  1.2606
 2215SOL    HW218282   2.927   4.130   0.546  0.3130 -1.2979 -1.1317
 2216SOL     OW18283   2.569   3.686   4.739  0.0395 -0.0815  0.4047
 2216SOL    HW118284   2.617   3.674   4.821 -0.2080  2.3551  0.9208
 2216SOL    HW218285   2.630   3.737   4.686 -0.3022 -0.3419 -0.2449
 2217SOL     OW18286   2.698   0.790   5.921 -0.9035 -0.4473 -0.1437
 2217SOL    HW118287   2.696   0.885   5.932  2.9260 -0.3882 -0.1199
 2217SOL    HW218288   2.607   0.759   5.921 -0.8410 -0.6527  0.9388
 2218SOL     OW18289   2.317   1.164  17.590 -0.1896  0.3100  0.1200
 2218SOL    HW118290   2.281   1.216  17.662  0.0358  0.4027  0.1656
 2218SOL    HW218291   2.265   1.085  17.603  0.4719 -0.4934 -2.0767
 2219SOL     OW18292   2.282   0.481  13.535  0.5570  0.2818 -0.1847
 2219SOL    HW118293   2.316   0.524  13.613 -0.7878 -0.2247  0.6848
 2219SOL    HW218294   2.359   0.430  13.510 -0.7829 -0.5538 -2.6381
 2220SOL     OW18295   4.572   0.026  12.316 -0.7353 -0.2196 -0.2288
 2220SOL    HW118296   4.589   4.704  12.387  0.4456 -0.1203 -0.4266
 2220SOL    HW218297   4.643   0.086  12.337  0.2383 -1.5101  0.1880
 2221SOL     OW18298   0.448   2.779  14.623 -0.4105  0.3465 -0.1938
 2221SOL    HW118299   0.365   2.817  14.652  0.0810 -0.3204  2.0754
 2221SOL    HW218300   0.408   2.705  14.578  0.8590 -0.0516 -0.6782
 2222SOL     OW18301   0.141   3.727   4.595 -0.5652  0.3056  0.8770
 2222SOL    HW118302   0.187   3.718   4.678  2.8417 -0.4423 -1.1161
 2222SOL    HW218303   0.185   3.678   4.526 -2.1734  1.3777 -0.9054
 2223SOL     OW18304   1.752   1.684   6.440  0.4867 -0.0561 -0.7387
 2223SOL    HW118305   1.745   1.674   6.345 -3.2404 -1.4222 -0.3069
 2223SOL    HW218306   1.731   1.594   6.464  1.4743  0.9394  3.7976
 2224SOL     OW18307   0.746   1.409  13.374 -0.9508  0.5812 -0.1706
 2224SOL    HW118308   0.751   1.338  13.310 -1.0886 -0.6666  1.2207
 2224SOL    HW218309   0.801   1.384  13.448 -0.7248  1.1928 -0.1330
 2225SOL     OW18310   2.556   1.828  11.467  0.3510  0.0364 -0.1199
 2225SOL    HW118311   2.632   1.774  11.489 -0.9346 -0.5988  2.7707
 2225SOL    HW218312   2.494   1.793  11.532 -0.2732 -1.1668 -1.3653
 2226SOL     OW18313   0.242   4.056   1.356  0.4361 -0.6781  0.7455
 2226SOL    HW118314   0.201   4.127   1.307  0.7320  0.0129  1.5081
 2226SOL    HW218315   0.202   4.070   1.442 -0.6389 -0.0733  0.1430
 2227SOL     OW18316   3.088   2.257  16.444 -0.2964 -0.1613  0.1672
 2227SOL    HW118317   3.115   2.248  16.352  0.3922  1.2650  0.2397
 2227SOL    HW218318   3.106   2.350  16.454  1.6429 -0.5290  0.1815
 2228SOL     OW18319   2.788   4.518  16.681  0.0821 -0.4390 -0.1402
 2228SOL    HW118320   2.729   4.472  16.742  2.0201 -3.8126 -0.8190
 2228SOL    HW218321   2.823   4.589  16.734 -2.2153 -0.0429  0.8794
 2229SOL     OW18322   3.297   3.689  15.653  0.1503 -0.0382 -0.2995
 2229SOL    HW118323   3.381   3.659  15.618 -0.2141 -1.5349  0.1145
 2229SOL    HW218324   3.321   3.775  15.689  0.2734 -0.4720  0.6429
 2230SOL     OW18325   0.465   1.680   5.692 -0.0214  0.3591 -0.8905
 2230SOL    HW118326   0.495   1.591   5.709 -0.9104 -0.2628 -2.5470
 2230SOL    HW218327   0.545   1.731   5.677  0.0847  0.7910  1.1591
 2231SOL     OW18328   1.915   0.835   6.818 -0.2544 -0.5617 -0.5065
 2231SOL    HW118329   1.949   0.922   6.839  0.7846 -1.3034  0.7786
 2231SOL    HW218330   1.843   0.863   6.761  1.1022  2.7069 -0.6370
 2232SOL     OW18331   2.278   3.548   6.986  0.2792  0.1254 -0.4895
 2232SOL    HW118332   2.345   3.526   6.922 -0.6672  0.1596 -1.4822
 2232SOL    HW218333   2.231   3.620   6.944 -0.8947  0.0481  0.6800
 2233SOL     OW18334   3.014   2.412   2.241 -0.2559  0.3867  0.0726
 2233SOL    HW118335   2.936   2.365   2.272  0.7268 -0.5600  1.1328
 2233SOL    HW218336   2.979   2.445   2.159 -1.0050 -4.2150 -1.4894
 2234SOL     OW18337   0.700   0.557   6.800  0.6112 -0.6873  0.1829
 2234SOL    HW118338   0.781   0.584   6.843  1.7480 -1.8431 -1.2230
 2234SOL    HW218339   0.707   0.465   6.777  2.2790 -0.7467  0.9495
 2235SOL     OW18340   0.368   3.869   8.622  0.0088  0.1646  0.3609
 2235SOL    HW118341   0.313   3.853   8.545 -1.6195 -0.6272  1.6885
 2235SOL    HW218342   0.413   3.946   8.588 -1.9083  0.3994 -1.6955
 2236SOL     OW18343   4.316   4.449   3.091 -0.0132 -0.4120  0.1185
 2236SOL    HW118344   4.276   4.363   3.099 -2.0307  0.5726  0.6089
 2236SOL    HW218345   4.280   4.500   3.164  1.1072  0.5508  0.0075
 2237SOL     OW18346   4.195   4.258   6.809  0.1917 -0.0309 -0.1214
 2237SOL    HW118347   4.180   4.206   6.729 -0.4607 -1.0991  0.7010
 2237SOL    HW218348   4.255   4.197   6.852 -1.0681 -0.8878  0.4382
 2238SOL     OW18349   0.706   0.287   2.877 -0.4272 -0.0136  0.0694
 2238SOL    HW118350   0.728   0.312   2.787 -1.7328 -2.0420 -0.8052
 2238SOL    HW218351   0.666   0.203   2.855  1.0755 -1.2719  2.1970
 2239SOL     OW18352   4.014   0.742  16.091  0.6984 -0.3132  0.0656
 2239SOL    HW118353   4.067   0.675  16.133  1.5638  1.3457  1.5700
 2239SOL    HW218354   3.946   0.751  16.158 -0.0403  1.0801 -0.8725
 2240SOL     OW18355   4.420   4.563   4.809  0.0154 -0.4438 -0.2521
 2240SOL    HW118356   4.489   4.629   4.807  0.3715 -0.7470  1.3262
 2240SOL    HW218357   4.460   4.509   4.741 -0.5223  0.4734 -1.2865
 2241SOL     OW18358   1.496   3.745  14.049  0.1620  0.4761  0.8450
 2241SOL    HW118359   1.413   3.697  14.045  0.6208 -0.1933 -0.7781
 2241SOL    HW218360   1.467   3.831  14.017 -0.3967  0.8338  2.3036
 2242SOL     OW18361   2.604   4.093   0.916 -0.5595 -0.1439  0.2453
 2242SOL    HW118362   2.596   4.121   1.007  1.6142 -0.6467  0.5911
 2242SOL    HW218363   2.519   4.124   0.884  0.8417 -0.5238 -3.8058
 2243SOL     OW18364   2.612   4.154   5.563 -0.0500 -0.3447 -0.2515
 2243SOL    HW118365   2.660   4.235   5.543  1.6222 -1.5448 -1.0323
 2243SOL    HW218366   2.652   4.101   5.495  0.7133 -1.7493  1.3108
 2244SOL     OW18367   2.340   3.306   5.122 -0.9414  0.0708 -0.2623
 2244SOL    HW118368   2.315   3.309   5.029  0.0895 -1.9576 -0.6093
 2244SOL    HW218369   2.435   3.300   5.112 -0.9830  0.6223 -1.0048
 2245SOL     OW18370   0.584   2.101  10.349 -0.1519 -0.6838 -0.2311
 2245SOL    HW118371   0.651   2.066  10.407 -0.3412 -3.2376 -1.5352
 2245SOL    HW218372   0.573   2.181  10.400 -0.8112 -1.5650  1.0151
 2246SOL     OW18373   3.411   2.825   0.183  0.2519 -0.6371  0.4303
 2246SOL    HW118374   3.409   2.731   0.168 -1.6664 -0.6776  0.9260
 2246SOL    HW218375   3.497   2.857   0.157  1.0376 -2.2067  1.1703
 2247SOL     OW18376   0.591   1.111   1.165 -0.2348  0.0608  0.5485
 2247SOL    HW118377   0.538   1.047   1.118 -0.1344 -0.6270  1.3715
 2247SOL    HW218378   0.631   1.051   1.228  0.3067 -0.6757 -0.5026
 2248SOL     OW18379   0.080   0.615   3.977  0.1854 -0.1715 -1.1983
 2248SOL    HW118380   0.163   0.619   4.025  0.6174 -0.9826 -1.8647
 2248SOL    HW218381   0.019   0.629   4.049  1.9977  1.0824  0.0827
 2249SOL     OW18382   2.258   0.552  16.806  0.3302 -0.2477  0.0398
 2249SOL    HW118383   2.201   0.616  16.849 -0.9277 -1.5111  0.2275
 2249SOL    HW218384   2.213   0.550  16.722 -0.0212 -0.5221  0.2377
 2250SOL     OW18385   1.412   2.669   5.134 -0.2903 -0.6484  0.2181
 2250SOL    HW118386   1.356   2.611   5.082 -1.5987  2.3063 -1.6603
 2250SOL    HW218387   1.496   2.632   5.107  0.5463  0.9883  0.6008
 2251SOL     OW18388   1.456   4.566   4.522 -0.4055  0.1544  0.4108
 2251SOL    HW118389   1.447   4.475   4.550 -0.5123 -0.0529 -0.2804
 2251SOL    HW218390   1.542   4.571   4.563  0.6768 -0.2457 -1.7903
 2252SOL     OW18391   0.743   4.593   4.358  0.5837  0.2769 -0.4737
 2252SOL    HW118392   0.716   4.553   4.276  0.8881 -0.0086 -0.4321
 2252SOL    HW218393   0.657   4.627   4.386  0.3280 -0.3858 -0.4560
 2253SOL     OW18394   3.729   3.368   2.632 -0.5658 -0.0017  0.0268
 2253SOL    HW118395   3.734   3.413   2.716  0.3322  2.1692 -1.2129
 2253SOL    HW218396   3.817   3.335   2.616  0.0994  2.0350 -0.4115
 2254SOL     OW18397   2.820   0.959   2.616  0.0199 -0.5899  0.2343
 2254SOL    HW118398   2.857   1.021   2.553  0.9000 -1.6068 -0.2613
 2254SOL    HW218399   2.859   0.972   2.703  0.8746  0.4150 -0.3103
 2255SOL     OW18400   4.381   4.146  11.922  0.0575 -0.0966  0.1904
 2255SOL    HW118401   4.292   4.163  11.889  0.4528  1.5757 -0.0040
 2255SOL    HW218402   4.400   4.238  11.906  1.6542 -0.2229  1.4415
 2256SOL     OW18403   3.586   2.985   5.208  0.6942  0.2377 -0.4361
 2256SOL    HW118404   3.625   3.073   5.214  0.0841  0.5222 -0.6000
 2256SOL    HW218405   3.537   2.990   5.125  0.2980 -0.2951 -0.2294
 2257SOL     OW18406   2.825   3.668   3.068  0.3513  0.3900 -0.4769
 2257SOL    HW118407   2.797   3.610   3.138  0.8767 -0.3567 -0.8939
 2257SOL    HW218408   2.742   3.680   3.021  0.1696 -2.1895 -0.8059
 2258SOL     OW18409   4.104   2.818   0.237 -0.2005 -0.6724 -0.3114
 2258SOL    HW118410   4.182   2.762   0.240 -0.8539 -1.5982 -0.4837
 2258SOL    HW218411   4.141   2.904   0.258  0.6221 -1.2287  0.5274
 2259SOL     OW18412   2.581   1.270   3.015 -0.3251  0.4640 -0.1468
 2259SOL    HW118413   2.594   1.190   3.066 -0.0335 -0.4841 -1.7155
 2259SOL    HW218414   2.575   1.225   2.931 -2.0564 -0.2009  0.3344
 2260SOL     OW18415   2.180   1.232   3.258 -0.0935 -0.4489 -0.7213
 2260SOL    HW118416   2.192   1.212   3.165  0.7714  0.1809 -0.7468
 2260SOL    HW218417   2.254   1.189   3.300 -1.4667  0.5838  2.7646
 2261SOL     OW18418   1.081   0.827   2.296  0.1667 -0.1624  0.1175
 2261SOL    HW118419   1.099   0.896   2.360 -0.0612 -1.4739  1.5884
 2261SOL    HW218420   0.990   0.812   2.322  0.4041 -1.3657  0.2453
 2262SOL     OW18421   2.040   4.622   6.085 -0.2431 -0.6336  0.0994
 2262SOL    HW118422   1.968   4.659   6.135 -0.1133  0.0590 -0.2179
 2262SOL    HW218423   1.998   4.563   6.022  2.8664 -3.0992  0.3112
 2263SOL     OW18424   2.434   2.660   5.921  0.1594 -0.5982  0.0555
 2263SOL    HW118425   2.426   2.739   5.975  1.6343 -0.7463  0.4859
 2263SOL    HW218426   2.352   2.614   5.937 -0.0185 -0.3738 -0.1971
 2264SOL     OW18427   3.280   3.442  12.383 -0.5876  0.8263  0.7133
 2264SOL    HW118428   3.214   3.374  12.371  0.7441 -0.5141  0.8919
 2264SOL    HW218429   3.315   3.420  12.470  0.7589 -0.0017 -0.0272
 2265SOL     OW18430   3.258   0.514  10.765  0.4889 -0.0485  0.3954
 2265SOL    HW118431   3.302   0.523  10.680 -1.4859  0.8003 -0.5409
 2265SOL    HW218432   3.324   0.474  10.822  1.0853 -0.9158 -0.9194
 2266SOL     OW18433   4.510   0.738   3.516  0.4709  0.3929  0.8284
 2266SOL    HW118434   4.496   0.644   3.519  1.3268  0.2307 -0.2179
 2266SOL    HW218435   4.472   0.750   3.429  0.4062  0.2346  0.8350
 2267SOL     OW18436   2.180   0.834   3.174 -0.0357  0.2746 -0.1386
 2267SOL    HW118437   2.188   0.847   3.268  1.8310  1.8362 -0.5122
 2267SOL    HW218438   2.271   0.818   3.149  0.7654  1.1063  2.2775
 2268SOL     OW18439   3.813   3.666   1.554  0.3770 -0.3696  0.4126
 2268SOL    HW118440   3.870   3.734   1.518 -0.7770  0.1106 -0.4731
 2268SOL    HW218441   3.869   3.613   1.611 -1.5073 -4.7820 -1.8761
 2269SOL     OW18442   3.514   3.657   0.094  0.5214 -0.3347  0.4737
 2269SOL    HW118443   3.473   3.574   0.068 -0.6989  0.0992  1.0177
 2269SOL    HW218444   3.441   3.715   0.069  2.6401  1.1660 -2.2275
 2270SOL     OW18445   3.401   3.777   2.708  0.1950  0.0326  0.1452
 2270SOL    HW118446   3.317   3.771   2.754 -0.4071 -0.2077 -0.9719
 2270SOL    HW218447   3.431   3.690   2.731 -1.1953 -0.8553 -1.3632
 2271SOL     OW18448   4.264   0.999   0.711 -0.2360  0.4512  0.1823
 2271SOL    HW118449   4.288   0.949   0.789 -0.8548  2.3872  1.6244
 2271SOL    HW218450   4.306   1.083   0.728 -2.6392  1.3023  1.9425
 2272SOL     OW18451   3.790   0.637   8.349 -0.3995 -0.4089 -0.6851
 2272SOL    HW118452   3.747   0.559   8.384  0.4319  0.0017  1.2437
 2272SOL    HW218453   3.798   0.698   8.422  1.1148 -0.6849 -0.6374
 2273SOL     OW18454   3.182   1.897   9.108  0.2364  0.0592 -0.5892
 2273SOL    HW118455   3.226   1.976   9.077  1.3511 -1.1236 -2.0008
 2273SOL    HW218456   3.140   1.919   9.191  0.9923  1.1548 -0.4965
 2274SOL     OW18457   0.084   0.594  16.901  0.1240 -0.4591 -0.0280
 2274SOL    HW118458   0.149   0.616  16.834  0.0602 -1.3611 -0.3760
 2274SOL    HW218459   0.018   0.588  16.832  0.6071 -1.8816 -0.3470
 2275SOL     OW18460   4.077   3.470   8.678 -0.1193 -0.2731  0.1648
 2275SOL    HW118461   4.140   3.405   8.649  1.2967  0.7610  0.9408
 2275SOL    HW218462   4.133   3.539   8.713  0.5302  0.6177 -2.6021
 2276SOL     OW18463   2.277   0.498   9.144 -0.4056 -0.1240 -1.0112
 2276SOL    HW118464   2.314   0.431   9.202  1.0963  0.3505 -1.4142
 2276SOL    HW218465   2.290   0.576   9.198  0.4240  0.3071 -1.8351
 2277SOL     OW18466   4.153   3.384   1.057  0.7507  0.5943 -0.0116
 2277SOL    HW118467   4.103   3.333   1.121  2.4130 -0.7885  0.1917
 2277SOL    HW218468   4.103   3.464   1.042 -1.1470 -0.4717  0.6913
 2278SOL     OW18469   1.973   3.125   6.176  0.0123  0.1360  0.2188
 2278SOL    HW118470   1.999   3.072   6.100  1.7058  1.9339 -0.4543
 2278SOL    HW218471   2.049   3.108   6.232  0.2765 -0.7537 -0.3910
 2279SOL     OW18472   3.335   0.642   8.396  0.1915 -0.0224  0.0814
 2279SOL    HW118473   3.385   0.648   8.315  0.6306 -1.2591  0.2683
 2279SOL    HW218474   3.328   0.733   8.425 -2.5328 -0.3953  0.6122
 2280SOL     OW18475   1.220   3.821   6.322 -0.2368  0.2204  0.2686
 2280SOL    HW118476   1.163   3.771   6.262 -0.1674  2.4672 -1.6578
 2280SOL    HW218477   1.291   3.758   6.332 -1.5891 -1.3118  0.2445
 2281SOL     OW18478   2.156   2.823   5.312  0.0598 -0.3476 -0.3593
 2281SOL    HW118479   2.211   2.763   5.262 -0.0907 -1.4979  0.8424
 2281SOL    HW218480   2.164   2.905   5.263  2.1187  1.2553  2.6209
 2282SOL     OW18481   1.536   0.546   1.432 -0.1710 -0.2014 -0.2526
 2282SOL    HW118482   1.498   0.459   1.448 -0.2313  0.1268  1.3575
 2282SOL    HW218483   1.469   0.588   1.378 -1.6003 -2.5444 -0.3191
 2283SOL     OW18484   4.181   3.176  16.687 -0.0280  0.3269  0.3509
 2283SOL    HW118485   4.194   3.199  16.595 -1.2612 -0.3673  0.0171
 2283SOL    HW218486   4.258   3.127  16.718  1.0807  1.6666 -0.2766
 2284SOL     OW18487   0.136   4.737   8.191 -0.2368 -0.4564  0.2967
 2284SOL    HW118488   0.181   4.666   8.236 -0.8664 -0.8746  0.2508
 2284SOL    HW218489   0.054   4.689   8.184 -1.2316  1.3565 -0.5423
 2285SOL     OW18490   2.218   2.320  13.327 -0.0854 -0.0600  0.8443
 2285SOL    HW118491   2.266   2.239  13.344  2.5275  1.6890  1.9516
 2285SOL    HW218492   2.135   2.283  13.297  0.1503 -0.9964  1.3695
 2286SOL     OW18493   1.003   0.274  16.049  0.5235  0.2177  0.5096
 2286SOL    HW118494   0.954   0.354  16.064  0.0694  0.0741 -0.2347
 2286SOL    HW218495   1.039   0.256  16.136 -2.2857 -1.6662  1.2993
 2287SOL     OW18496   3.839   4.191   5.109  0.2462  0.1687  0.3742
 2287SOL    HW118497   3.837   4.097   5.127 -1.2771  0.1535  0.1270
 2287SOL    HW218498   3.929   4.219   5.128 -0.2627  1.7837  0.3812
 2288SOL     OW18499   1.153   0.422  11.626  0.0375 -0.4835 -0.0719
 2288SOL    HW118500   1.154   0.412  11.721  0.6419  0.5736  0.0318
 2288SOL    HW218501   1.087   0.489  11.611 -0.6118 -0.7031  1.7882
 2289SOL     OW18502   1.204   2.677   1.827  0.4889 -0.0916  0.0048
 2289SOL    HW118503   1.209   2.734   1.904 -0.3445  1.1567 -0.8637
 2289SOL    HW218504   1.283   2.712   1.785 -0.5152  1.3824 -0.6809
 2290SOL     OW18505   4.150   0.345   6.548 -0.1472  0.3865  0.1034
 2290SOL    HW118506   4.091   0.388   6.485  2.8886  2.0428 -1.6173
 2290SOL    HW218507   4.113   0.380   6.629 -0.1193  1.9970 -0.5836
 2291SOL     OW18508   4.384   1.631   4.383  0.1382 -0.2497 -0.4278
 2291SOL    HW118509   4.364   1.599   4.295 -3.4787 -0.2318  0.3609
 2291SOL    HW218510   4.388   1.546   4.427 -1.8697 -0.4834 -0.6722
 2292SOL     OW18511   4.722   3.906   8.885  0.1426 -0.2313  0.5832
 2292SOL    HW118512   0.002   3.922   8.977  1.8819  0.0595  0.1597
 2292SOL    HW218513   0.075   3.916   8.864 -0.0798 -0.0194 -0.3408
 2293SOL     OW18514   1.357   2.327   6.402 -0.0485  0.5945 -0.0169
 2293SOL    HW118515   1.278   2.273   6.399  1.5405 -1.9167  2.9332
 2293SOL    HW218516   1.384   2.328   6.310 -0.5975 -0.6181 -0.1959
 2294SOL     OW18517   4.595   1.920   7.367  0.2563  0.3656 -0.3728
 2294SOL    HW118518   4.593   2.012   7.392 -0.3153  0.1185  0.4945
 2294SOL    HW218519   4.572   1.923   7.274  1.0026 -4.8371 -0.7775
 2295SOL     OW18520   1.627   1.648   3.796 -0.0352  0.0690  0.0631
 2295SOL    HW118521   1.714   1.611   3.776 -0.3215 -0.7636  0.3425
 2295SOL    HW218522   1.649   1.740   3.810 -0.8749  0.3195 -0.3141
 2296SOL     OW18523   2.257   0.858   3.822  0.5846  0.3221 -0.6602
 2296SOL    HW118524   2.267   0.941   3.869 -0.2153  1.0174 -1.7326
 2296SOL    HW218525   2.321   0.807   3.873  1.7446  0.8770 -1.5774
 2297SOL     OW18526   1.494   2.058   5.777 -0.5204 -0.5313 -1.0432
 2297SOL    HW118527   1.458   2.080   5.863  0.3766 -1.8256 -0.3289
 2297SOL    HW218528   1.436   2.114   5.726 -0.8922  0.6518  0.6904
 2298SOL     OW18529   1.894   3.795   1.805  1.0227  0.2709 -0.1630
 2298SOL    HW118530   1.831   3.781   1.875 -1.6407  2.2391 -2.1813
 2298SOL    HW218531   1.899   3.708   1.767  0.9268 -0.7762  2.2559
 2299SOL     OW18532   0.264   3.173  17.577 -0.6511 -0.1806 -0.2291
 2299SOL    HW118533   0.223   3.151  17.661  0.0457 -2.8839 -0.5827
 2299SOL    HW218534   0.228   3.116  17.509  1.8303 -1.8449 -0.1483
 2300SOL     OW18535   0.527   1.358  13.185 -0.5923 -0.3192 -0.0439
 2300SOL    HW118536   0.575   1.432  13.148  2.0494 -0.3247  3.4030
 2300SOL    HW218537   0.581   1.283  13.160  1.0370  0.4409  1.1760
 2301SOL     OW18538   2.699   1.548   9.266  0.3095 -0.0283 -0.1676
 2301SOL    HW118539   2.633   1.496   9.221  0.5472 -0.1882 -0.3301
 2301SOL    HW218540   2.763   1.478   9.279 -0.5611 -1.1047 -1.7089
 2302SOL     OW18541   1.567   0.188  11.693 -0.6980 -0.5566 -0.5614
 2302SOL    HW118542   1.493   0.136  11.722  0.0374 -0.0157  2.2847
 2302SOL    HW218543   1.524   0.270  11.665  0.9282  1.1724  2.0203
 2303SOL     OW18544   0.292   4.348   1.694  0.0546  1.0575  0.0893
 2303SOL    HW118545   0.323   4.286   1.760  1.5219  1.1307 -0.5282
 2303SOL    HW218546   0.323   4.308   1.612  1.5426 -1.2251  1.7589
 2304SOL     OW18547   0.105   2.441  10.076  0.1484 -0.2663 -0.1662
 2304SOL    HW118548   0.045   2.509  10.106 -1.0816 -0.8866 -1.2126
 2304SOL    HW218549   0.185   2.465  10.123 -0.1789  0.1161  0.1937
 2305SOL     OW18550   1.989   1.645   8.301 -0.1415  0.4092 -0.0113
 2305SOL    HW118551   1.893   1.651   8.302 -0.3038 -2.0274  0.3207
 2305SOL    HW218552   2.015   1.664   8.390 -0.5163 -1.6837  0.5555
 2306SOL     OW18553   1.899   2.112   5.612  0.0054 -0.6399 -0.3546
 2306SOL    HW118554   1.952   2.128   5.534 -1.5527  0.6430 -1.1723
 2306SOL    HW218555   1.965   2.115   5.680  0.4303 -0.6028 -0.7707
 2307SOL     OW18556   2.618   0.082   3.056  0.5169 -0.2155  1.0752
 2307SOL    HW118557   2.569   0.045   3.129  0.0381 -0.8261  0.4364
 2307SOL    HW218558   2.675   0.006   3.042 -2.7874 -2.5393  0.1735
 2308SOL     OW18559   1.037   3.933   3.389 -0.3053  0.3064  0.2853
 2308SOL    HW118560   1.032   4.025   3.363  2.3439  0.0655 -1.1101
 2308SOL    HW218561   1.035   3.935   3.484 -3.1533  1.3378  0.2086
 2309SOL     OW18562   2.108   3.056   4.023 -0.4763  0.0652  0.4094
 2309SOL    HW118563   2.118   3.136   4.075  1.6900  0.8122 -1.1481
 2309SOL    HW218564   2.094   3.077   3.931 -0.2933 -4.3982 -0.6406
 2310SOL     OW18565   1.978   2.816   3.995 -0.1099 -0.4664 -0.5581
 2310SOL    HW118566   2.023   2.796   3.913 -3.6639  0.1395 -2.6668
 2310SOL    HW218567   2.011   2.905   4.006  3.5436 -2.2162  2.5710
 2311SOL     OW18568   4.525   4.200   6.235 -0.5374  0.2975  0.2611
 2311SOL    HW118569   4.489   4.240   6.156  2.3223 -1.5360 -1.9349
 2311SOL    HW218570   4.547   4.276   6.289  1.1859 -0.2288  0.3005
 2312SOL     OW18571   4.309   1.116   4.404  0.5349 -0.1619  1.1340
 2312SOL    HW118572   4.223   1.123   4.446 -0.3241  2.3159 -1.0709
 2312SOL    HW218573   4.280   1.098   4.314 -0.8239  1.1429  1.3198
 2313SOL     OW18574   1.800   0.863   8.278  0.1695 -0.1553  0.1663
 2313SOL    HW118575   1.826   0.936   8.221  1.0082  0.6640  1.5986
 2313SOL    HW218576   1.873   0.803   8.293 -1.2428 -1.8311  0.3432
 2314SOL     OW18577   3.247   2.168   9.142  0.1051 -0.2436 -0.2650
 2314SOL    HW118578   3.193   2.231   9.189 -0.9025 -0.5360 -1.0321
 2314SOL    HW218579   3.255   2.216   9.059 -0.7889  2.0292  0.9781
 2315SOL     OW18580   2.309   3.701   4.400  0.0424  0.0943  0.0119
 2315SOL    HW118581   2.267   3.762   4.460  3.7092  0.9848  1.6717
 2315SOL    HW218582   2.333   3.632   4.462  1.0755 -0.4936 -1.0384
 2316SOL     OW18583   1.879   2.341   9.988  0.0200 -0.7804  0.2392
 2316SOL    HW118584   1.971   2.357  10.008 -0.4350 -0.2361  1.9202
 2316SOL    HW218585   1.876   2.307   9.898 -0.0522  1.7660 -0.7279
 2317SOL     OW18586   1.125   0.003  13.417 -0.3575  0.1967  0.1412
 2317SOL    HW118587   1.048   4.732  13.362  0.5707 -0.6590 -0.9882
 2317SOL    HW218588   1.103   0.070  13.483 -0.1938  0.0871  0.3063
 2318SOL     OW18589   1.595   0.449   6.963  0.3318  0.3582  0.0932
 2318SOL    HW118590   1.591   0.504   7.041 -1.2277 -0.0422  0.2921
 2318SOL    HW218591   1.531   0.379   6.979  0.6152 -0.4609 -2.2312
 2319SOL     OW18592   4.531   0.806   1.391  0.1545  0.0557 -0.5744
 2319SOL    HW118593   4.563   0.894   1.412  0.6160 -0.6438  1.6949
 2319SOL    HW218594   4.521   0.758   1.473  3.1129  1.3839  0.5770
 2320SOL     OW18595   3.261   1.497   3.685 -0.4129  0.4507 -0.7212
 2320SOL    HW118596   3.257   1.588   3.715 -1.9516  0.1205  0.1144
 2320SOL    HW218597   3.351   1.479   3.713 -0.5339 -0.5941 -1.0127
 2321SOL     OW18598   2.440   1.436   3.172 -0.1894  0.4120  0.4054
 2321SOL    HW118599   2.407   1.498   3.107  0.9642 -0.4044 -0.9704
 2321SOL    HW218600   2.493   1.381   3.114  0.9594  0.1945  1.6599
 2322SOL     OW18601   3.847   2.930   2.044  0.3263 -0.3949 -0.4653
 2322SOL    HW118602   3.894   2.998   1.996  0.7270  0.0041  0.4981
 2322SOL    HW218603   3.810   2.993   2.107 -0.9113 -1.4013 -0.1836
 2323SOL     OW18604   0.736   0.791   5.798 -0.9245  0.2194  0.2076
 2323SOL    HW118605   0.669   0.725   5.810  0.6172 -1.9090 -3.1751
 2323SOL    HW218606   0.697   0.863   5.849  1.6899  1.6832  0.2046
 2324SOL     OW18607   4.192   3.484  11.196 -0.0206 -0.5367 -0.3727
 2324SOL    HW118608   4.125   3.470  11.262  0.2861  1.8233  0.4052
 2324SOL    HW218609   4.247   3.410  11.221  1.7642  0.2832 -1.8794
 2325SOL     OW18610   1.178   4.379  13.228 -0.2848 -0.3638  0.0117
 2325SOL    HW118611   1.118   4.346  13.295 -0.2901 -0.1049  0.1326
 2325SOL    HW218612   1.248   4.414  13.282  0.3163  0.4278 -1.2861
 2326SOL     OW18613   3.653   0.399   8.878 -0.2365  0.0911 -0.5125
 2326SOL    HW118614   3.715   0.468   8.855 -1.2038  0.4584 -2.0223
 2326SOL    HW218615   3.613   0.437   8.956  0.6616 -1.4217  0.6976
 2327SOL     OW18616   4.731   2.686   6.715 -0.0468 -0.8570 -0.6579
 2327SOL    HW118617   4.700   2.772   6.688 -0.0568  0.0825  2.2962
 2327SOL    HW218618   4.663   2.660   6.777  0.8518  1.0619  1.1510
 2328SOL     OW18619   1.440   4.650   1.115  0.0090  0.0425  0.5188
 2328SOL    HW118620   1.384   4.677   1.042 -1.4559 -1.6504  1.0220
 2328SOL    HW218621   1.402   4.693   1.191 -0.1956  0.2751  0.2855
 2329SOL     OW18622   2.552   2.490  10.317 -0.7501 -0.3809  0.5617
 2329SOL    HW118623   2.612   2.428  10.356 -1.1628 -1.5228 -0.5987
 2329SOL    HW218624   2.600   2.541  10.252 -0.1968 -1.8798 -0.2152
 2330SOL     OW18625   4.052   2.645  11.167  0.4556  0.2348 -0.2030
 2330SOL    HW118626   4.044   2.727  11.216 -1.2204 -1.4705  2.3744
 2330SOL    HW218627   3.962   2.627  11.139  0.5769 -1.4486  0.4581
 2331SOL     OW18628   3.016   0.585  15.832  0.3763 -0.7475  0.2618
 2331SOL    HW118629   2.987   0.557  15.745  1.6347  0.1349 -0.4315
 2331SOL    HW218630   2.949   0.648  15.859  1.1726  0.3942 -0.4234
 2332SOL     OW18631   3.622   3.365   7.359 -0.4501 -0.2885  0.3725
 2332SOL    HW118632   3.673   3.446   7.357  0.3645 -0.8061  0.2781
 2332SOL    HW218633   3.676   3.319   7.423  1.6776  0.6342 -0.7523
 2333SOL     OW18634   1.462   2.798   7.502 -0.1932 -0.5089  0.6356
 2333SOL    HW118635   1.393   2.844   7.550  1.6709  2.4013  0.4751
 2333SOL    HW218636   1.420   2.776   7.419  0.6211  0.4394 -0.0201
 2334SOL     OW18637   3.104   3.837  16.716 -0.4257 -0.5130 -0.3349
 2334SOL    HW118638   3.096   3.881  16.801 -0.8100 -0.5270 -0.3631
 2334SOL    HW218639   3.198   3.843  16.696 -0.2757 -0.4931  0.3706
 2335SOL     OW18640   0.824   4.705  11.978  0.2919 -0.2208 -0.0052
 2335SOL    HW118641   0.768   0.018  11.920  0.8098  0.8905  0.5257
 2335SOL    HW218642   0.860   4.649  11.909 -0.0962  0.2585 -0.5990
 2336SOL     OW18643   3.869   2.341   3.745 -0.0457  0.0929 -0.3079
 2336SOL    HW118644   3.821   2.401   3.802  3.1523  1.8914  0.5351
 2336SOL    HW218645   3.808   2.336   3.672  0.1805 -1.7917 -0.3551
 2337SOL     OW18646   0.219   2.777   4.397  0.4669  0.2077  0.0030
 2337SOL    HW118647   0.257   2.757   4.482 -0.7898 -0.2886  0.4445
 2337SOL    HW218648   0.257   2.709   4.342  1.0084 -0.4295  1.1764
 2338SOL     OW18649   0.045   1.961   8.629  0.0034  0.9879 -0.2088
 2338SOL    HW118650   0.125   1.931   8.586  0.7016  2.0446  0.3720
 2338SOL    HW218651   0.030   2.042   8.580 -0.6735  0.6529 -0.5520
 2339SOL     OW18652   3.967   1.000  15.011 -0.2121 -0.0246 -0.4133
 2339SOL    HW118653   4.031   0.963  15.072 -2.5895 -1.8356  1.0199
 2339SOL    HW218654   3.996   0.958  14.930 -0.4615 -2.1381  0.5912
 2340SOL     OW18655   3.197   1.696  11.597  0.0148 -0.3779 -0.3869
 2340SOL    HW118656   3.154   1.698  11.682  2.2649  0.3115  0.7426
 2340SOL    HW218657   3.263   1.631  11.623  0.8624  0.1849 -1.1565
 2341SOL     OW18658   3.904   3.659   0.678  0.0383  0.3976 -0.2846
 2341SOL    HW118659   3.852   3.739   0.665  1.1264  1.2754  0.8288
 2341SOL    HW218660   3.914   3.625   0.589 -0.2940 -2.0736  0.6098
 2342SOL     OW18661   1.577   0.929   8.918  0.2181 -0.3061  0.0508
 2342SOL    HW118662   1.645   0.996   8.909 -0.5259  0.4696  0.1579
 2342SOL    HW218663   1.504   0.990   8.929  0.8282  0.4338 -0.0100
 2343SOL     OW18664   2.334   3.867   5.082  0.0106 -0.4174 -0.2847
 2343SOL    HW118665   2.263   3.903   5.136 -0.8621 -0.0721 -1.6636
 2343SOL    HW218666   2.408   3.866   5.142 -0.4182  0.8230  0.2606
 2344SOL     OW18667   1.448   3.654   5.854  0.5364 -0.2936  0.0269
 2344SOL    HW118668   1.452   3.749   5.841  2.6875 -0.3947 -0.1283
 2344SOL    HW218669   1.492   3.637   5.938 -0.8112 -0.4329  0.7025
 2345SOL     OW18670   1.099   1.402   1.718 -0.2781 -0.0326 -0.1899
 2345SOL    HW118671   1.065   1.321   1.680  0.0243 -0.7783  1.1586
 2345SOL    HW218672   1.048   1.467   1.670 -1.8269 -0.6415  0.6584
 2346SOL     OW18673   1.966   2.431   3.562  0.0014 -0.0414 -0.7471
 2346SOL    HW118674   2.054   2.457   3.533 -0.9618  3.3783 -0.5053
 2346SOL    HW218675   1.983   2.336   3.560  0.2219 -0.0568  1.7512
 2347SOL     OW18676   4.188   1.451   4.654 -0.5306  0.4964  0.7951
 2347SOL    HW118677   4.108   1.450   4.602  0.6439 -0.1132 -0.9877
 2347SOL    HW218678   4.249   1.388   4.615 -2.3513 -0.5549 -0.3322
 2348SOL     OW18679   3.187   2.362   4.050  0.5956  0.2994  0.2092
 2348SOL    HW118680   3.114   2.406   4.094 -0.5975  0.0299 -1.4923
 2348SOL    HW218681   3.206   2.439   3.997  0.1825  0.2859  0.0341
 2349SOL     OW18682   3.700   0.052   5.043  0.4016  0.0008 -0.7446
 2349SOL    HW118683   3.794   0.043   5.058  0.1663  0.4909  0.9464
 2349SOL    HW218684   3.678   4.702   5.069  0.2091 -0.9278 -4.1601
 2350SOL     OW18685   4.543   1.875   8.992 -0.3097 -0.5509 -0.5123
 2350SOL    HW118686   4.569   1.966   9.003 -0.0125 -0.2940 -3.4944
 2350SOL    HW218687   4.513   1.847   9.078 -0.0133 -1.4013 -0.6787
 2351SOL     OW18688   2.403   3.105   3.006 -0.5053 -0.6015  0.4453
 2351SOL    HW118689   2.424   3.025   3.054 -2.0942 -0.3855  1.5029
 2351SOL    HW218690   2.425   3.072   2.919  1.8291 -0.4844  0.9798
 2352SOL     OW18691   2.507   3.350   1.613 -0.1342  0.1191  0.1742
 2352SOL    HW118692   2.454   3.335   1.535  1.6119 -3.8216 -0.2414
 2352SOL    HW218693   2.500   3.445   1.621 -1.7476 -0.1822  2.4142
 2353SOL     OW18694   4.171   3.654   3.760 -0.2753  0.3169 -0.0996
 2353SOL    HW118695   4.110   3.584   3.782  0.3164  0.5663  2.2698
 2353SOL    HW218696   4.144   3.725   3.819 -0.3256 -1.0819  1.5324
 2354SOL     OW18697   3.502   4.133   3.261  0.2348  0.4304 -0.0704
 2354SOL    HW118698   3.569   4.110   3.326 -1.4488 -0.8334  1.2217
 2354SOL    HW218699   3.449   4.055   3.276  1.5103 -0.6023 -0.8989
 2355SOL     OW18700   3.217   3.082   9.286  0.1021 -0.2216  0.2205
 2355SOL    HW118701   3.141   3.124   9.246  0.0496 -0.2361  0.3059
 2355SOL    HW218702   3.254   3.035   9.211  0.1523 -0.8367  0.6321
 2356SOL     OW18703   4.610   2.616   9.036 -0.5663  0.1401  0.0325
 2356SOL    HW118704   4.516   2.611   9.055 -0.4314  3.4100  1.5409
 2356SOL    HW218705   4.613   2.633   8.942  0.2616  0.7049  0.1645
 2357SOL     OW18706   0.293   1.349   6.233 -0.4774  0.1155 -0.0557
 2357SOL    HW118707   0.271   1.385   6.319 -0.0019  1.7555 -0.5987
 2357SOL    HW218708   0.208   1.347   6.190  0.1490  0.2230 -1.2914
 2358SOL     OW18709   1.953   3.087   4.629 -0.3953  0.0863 -0.2545
 2358SOL    HW118710   1.899   3.023   4.675 -1.5728  1.1751 -0.0929
 2358SOL    HW218711   1.927   3.160   4.686 -0.3120  0.5934 -0.8628
 2359SOL     OW18712   1.162   2.571   5.463 -0.1178 -0.3541 -0.1615
 2359SOL    HW118713   1.210   2.594   5.542  0.7508  1.3588 -1.1855
 2359SOL    HW218714   1.097   2.640   5.453 -1.1875 -1.3253  0.0398
 2360SOL     OW18715   2.951   0.481   4.504  0.1557  0.1679  0.7171
 2360SOL    HW118716   2.999   0.411   4.548 -1.9564 -0.8984  1.3016
 2360SOL    HW218717   3.021   0.545   4.492 -1.5297  1.4225 -2.4434
 2361SOL     OW18718   3.113   3.426  14.066  0.5008 -0.4184 -0.0662
 2361SOL    HW118719   3.073   3.460  14.146 -0.6147 -1.6776 -0.1006
 2361SOL    HW218720   3.048   3.432  13.996  0.3698 -1.2459 -0.0205
 2362SOL     OW18721   2.905   4.300  16.581 -0.0420 -0.6126 -0.2118
 2362SOL    HW118722   2.998   4.323  16.588  0.0343 -0.6214 -1.2220
 2362SOL    HW218723   2.861   4.382  16.604  1.0209  0.1171 -0.7392
 2363SOL     OW18724   1.001   1.452  11.586 -0.0197  0.1318  0.5683
 2363SOL    HW118725   0.919   1.409  11.610 -1.1637  0.8915 -1.8919
 2363SOL    HW218726   1.004   1.432  11.492 -0.5894  1.0219  0.3535
 2364SOL     OW18727   2.569   3.570  15.203  0.1882  0.3814  0.2318
 2364SOL    HW118728   2.490   3.522  15.179 -0.4572  2.2764 -1.3947
 2364SOL    HW218729   2.531   3.658  15.203  1.2659  0.8235 -2.2924
 2365SOL     OW18730   1.774   2.036  11.122 -0.5640  0.5010 -0.1760
 2365SOL    HW118731   1.830   2.091  11.176  0.0559 -0.4129  0.1069
 2365SOL    HW218732   1.809   1.949  11.138  1.4520  1.2919 -0.3012
 2366SOL     OW18733   3.936   0.614  12.585 -0.2222  0.2995  0.0184
 2366SOL    HW118734   3.955   0.707  12.599 -0.2848  0.0093  2.0315
 2366SOL    HW218735   3.935   0.605  12.490  0.9055 -2.8170  0.2950
 2367SOL     OW18736   2.031   2.668  13.626 -0.4635 -0.6858 -0.2491
 2367SOL    HW118737   2.107   2.628  13.582  0.5920  0.9970  0.0709
 2367SOL    HW218738   2.069   2.674  13.713  0.2656 -1.3534 -0.5185
 2368SOL     OW18739   4.380   4.392   2.668  0.4964  0.2974  0.2038
 2368SOL    HW118740   4.346   4.302   2.674  0.3466  0.4778  1.9865
 2368SOL    HW218741   4.429   4.407   2.749  4.2970 -0.3782 -1.9354
 2369SOL     OW18742   0.423   1.647  11.837 -0.5521  0.5345 -0.2584
 2369SOL    HW118743   0.428   1.554  11.815 -2.4459  1.0064 -2.6567
 2369SOL    HW218744   0.514   1.674  11.842 -0.5844  0.6359 -0.2087
 2370SOL     OW18745   2.348   3.964   2.498 -0.0422  0.0991 -0.1766
 2370SOL    HW118746   2.270   3.992   2.546 -0.9074 -0.5674 -1.2191
 2370SOL    HW218747   2.343   4.005   2.412 -1.2390  0.0631 -0.1260
 2371SOL     OW18748   0.934   0.784   8.817  0.2296  0.4607 -0.0012
 2371SOL    HW118749   0.990   0.721   8.864 -0.8811  0.3736  1.1973
 2371SOL    HW218750   0.869   0.814   8.880 -1.5683 -2.3616 -0.5343
 2372SOL     OW18751   4.191   2.215   4.967 -0.2029  0.0197 -0.2068
 2372SOL    HW118752   4.256   2.154   5.001 -1.1550 -1.4008 -0.9472
 2372SOL    HW218753   4.118   2.154   4.954  0.5853 -0.6136 -1.5980
 2373SOL     OW18754   0.471   1.290   3.191 -0.5104 -0.1993  0.2397
 2373SOL    HW118755   0.544   1.256   3.241  1.4343  2.0820 -1.0196
 2373SOL    HW218756   0.436   1.358   3.248 -0.7056 -1.6017  1.7637
 2374SOL     OW18757   4.565   1.414  13.278 -0.2532  0.4205 -0.5009
 2374SOL    HW118758   4.607   1.491  13.318 -2.3915  0.7950  1.0174
 2374SOL    HW218759   4.475   1.445  13.268 -0.3134  1.2585  2.4426
 2375SOL     OW18760   3.107   1.662   8.401 -0.1584 -0.1261 -0.0545
 2375SOL    HW118761   3.087   1.690   8.312 -0.6752  0.3284  0.2024
 2375SOL    HW218762   3.081   1.570   8.408 -0.9249  0.0409 -0.6498
 2376SOL     OW18763   2.986   4.649   9.570 -0.4315 -0.0978  0.2533
 2376SOL    HW118764   3.009   4.725   9.517 -1.2694 -0.0232  0.0001
 2376SOL    HW218765   3.073   4.617   9.592 -0.8462 -0.5009  1.3114
 2377SOL     OW18766   1.023   3.688   6.160  0.4526  0.4225  0.2327
 2377SOL    HW118767   1.062   3.617   6.109  0.1140 -0.8905  1.7811
 2377SOL    HW218768   0.928   3.673   6.162  0.6980 -1.0642  1.6846
 2378SOL     OW18769   3.592   1.921  17.536  0.2161 -0.6755  0.2002
 2378SOL    HW118770   3.682   1.946  17.558  0.5221 -1.7901  0.2163
 2378SOL    HW218771   3.600   1.844  17.480  1.5454 -1.0038  0.8364
 2379SOL     OW18772   0.724   4.355   2.448 -0.3225 -0.0183  0.9147
 2379SOL    HW118773   0.680   4.438   2.466  1.0011  0.3901  2.2879
 2379SOL    HW218774   0.690   4.323   2.365 -0.6823  3.0546 -0.0850
 2380SOL     OW18775   2.015   0.769   4.782  0.3449  0.0278 -0.1156
 2380SOL    HW118776   2.110   0.755   4.782  0.2600 -0.5420  1.0995
 2380SOL    HW218777   1.983   0.740   4.867  1.1921 -1.6845 -0.3741
 2381SOL     OW18778   2.579   3.523   2.731  0.0515  0.2441 -0.3530
 2381SOL    HW118779   2.661   3.493   2.692  0.3469  1.9146 -1.0047
 2381SOL    HW218780   2.599   3.499   2.822  1.3660 -0.1880 -0.7527
 2382SOL     OW18781   3.008   1.078  14.768  0.4409  0.1200  0.1099
 2382SOL    HW118782   2.912   1.077  14.772  0.5349 -1.8065  2.4187
 2382SOL    HW218783   3.020   1.163  14.726 -3.1028  1.0588  0.9645
 2383SOL     OW18784   3.309   3.163   5.724  0.4954  0.8143 -0.5457
 2383SOL    HW118785   3.395   3.122   5.733 -0.4549 -1.1579 -0.4193
 2383SOL    HW218786   3.319   3.222   5.649 -2.1876  0.7494 -0.9435
 2384SOL     OW18787   2.518   2.579   4.695 -0.6173  1.2707  0.0591
 2384SOL    HW118788   2.558   2.650   4.645  0.4785  1.0211  0.5889
 2384SOL    HW218789   2.526   2.514   4.625  0.9770  1.7844 -0.2273
 2385SOL     OW18790   1.482   3.301   3.073 -0.1695  0.2283  0.2131
 2385SOL    HW118791   1.437   3.348   3.143  0.3080  2.1282 -0.7460
 2385SOL    HW218792   1.536   3.374   3.041 -0.1483  0.0127 -0.2414
 2386SOL     OW18793   3.637   3.396   3.972  0.1230 -0.0831 -0.0101
 2386SOL    HW118794   3.721   3.423   4.008  0.0070  0.1299  0.1022
 2386SOL    HW218795   3.647   3.399   3.877  1.7204  1.4850  0.2218
 2387SOL     OW18796   2.239   0.652   2.769  0.3423  1.1658  0.3463
 2387SOL    HW118797   2.322   0.616   2.739  0.7367  0.7943  1.8698
 2387SOL    HW218798   2.244   0.672   2.863 -2.2124  1.8799  0.3442
 2388SOL     OW18799   1.963   0.475  17.599  0.1318  0.0892 -0.1843
 2388SOL    HW118800   2.028   0.448  17.533 -0.7224 -1.7789 -0.2840
 2388SOL    HW218801   1.975   0.407  17.666 -0.4349  1.2397  1.0665
 2389SOL     OW18802   4.183   3.378  16.883  0.4132  0.0739 -0.1806
 2389SOL    HW118803   4.089   3.378  16.900  0.4591  1.0616  0.0557
 2389SOL    HW218804   4.188   3.340  16.795 -0.7637 -1.2202  0.3125
 2390SOL     OW18805   3.568   4.302   8.940 -0.4427 -1.0999  0.0701
 2390SOL    HW118806   3.523   4.386   8.948  1.7042  0.0272  0.2313
 2390SOL    HW218807   3.649   4.333   8.982 -0.3757 -0.9095 -0.1992
 2391SOL     OW18808   1.028   0.300  14.632 -0.1148 -0.4829 -0.1509
 2391SOL    HW118809   1.028   0.369  14.565 -1.3766 -1.4200 -1.1061
 2391SOL    HW218810   0.953   0.248  14.603 -0.3667 -0.5609  0.6328
 2392SOL     OW18811   4.018   0.688   5.011 -0.1305 -0.8576  0.1192
 2392SOL    HW118812   3.935   0.649   4.984  0.1716  0.6661 -3.0849
 2392SOL    HW218813   4.014   0.775   4.970 -0.4259 -1.0359 -0.2299
 2393SOL     OW18814   0.002   4.152   9.325  0.5183 -0.7666  0.4451
 2393SOL    HW118815   4.685   4.229   9.319  0.5832 -0.7795 -0.4140
 2393SOL    HW218816   0.007   4.139   9.420 -2.1311 -0.1132  0.6649
 2394SOL     OW18817   1.135   2.215   8.153 -0.5299  0.3834 -0.0801
 2394SOL    HW118818   1.179   2.130   8.153 -0.7773  0.2669 -1.4922
 2394SOL    HW218819   1.188   2.274   8.099  0.9486 -0.5705  0.3324
 2395SOL     OW18820   3.911   3.942   9.317  0.2995  0.1440  0.3524
 2395SOL    HW118821   3.829   3.945   9.365 -0.0437 -1.7022 -0.1079
 2395SOL    HW218822   3.918   3.847   9.314  1.0590  0.2311 -0.5762
 2396SOL     OW18823   4.096   0.949  15.238  0.2914  0.2280  0.5160
 2396SOL    HW118824   4.063   1.031  15.273  1.2324  1.1603 -0.7899
 2396SOL    HW218825   4.133   0.901  15.313 -2.1323 -0.5618  1.1885
 2397SOL     OW18826   0.572   2.057   5.882  0.1624 -0.1620  0.3143
 2397SOL    HW118827   0.509   1.987   5.867  0.8186 -0.4713 -0.9896
 2397SOL    HW218828   0.577   2.065   5.977  0.3766  0.4939  0.2475
 2398SOL     OW18829   4.649   1.551   7.078 -0.0935 -0.6478 -0.1565
 2398SOL    HW118830   4.569   1.598   7.056  0.7834  0.6496 -0.5488
 2398SOL    HW218831   4.675   1.515   6.994 -1.2943  0.4547 -1.0022
 2399SOL     OW18832   3.418   4.467   2.605  0.6407  0.2847 -0.6678
 2399SOL    HW118833   3.474   4.532   2.562  2.1083 -1.2648 -1.0809
 2399SOL    HW218834   3.479   4.408   2.647 -0.6268 -1.2273 -0.9568
 2400SOL     OW18835   1.836   4.267   4.794  0.0714  0.0346  0.5993
 2400SOL    HW118836   1.855   4.304   4.707 -0.3468  2.2489  1.4429
 2400SOL    HW218837   1.865   4.328   4.862 -0.8904  2.6471 -1.3188
 2401SOL     OW18838   4.336   2.438  15.710  0.8151 -0.1626  0.4944
 2401SOL    HW118839   4.253   2.412  15.750 -0.0158  1.2585 -0.2910
 2401SOL    HW218840   4.340   2.529  15.738  0.7412 -0.2048  0.6395
 2402SOL     OW18841   3.198   3.050   4.222 -0.5386  0.1214  0.1420
 2402SOL    HW118842   3.132   3.092   4.277  0.7192 -0.8637  2.4446
 2402SOL    HW218843   3.167   3.085   4.139  3.3939  1.0916 -0.8927
 2403SOL     OW18844   2.279   3.677   6.394  0.3295 -0.4934 -0.2020
 2403SOL    HW118845   2.330   3.758   6.401 -1.1914  0.3430  1.2918
 2403SOL    HW218846   2.337   3.630   6.335  0.5352  0.2331 -0.5773
 2404SOL     OW18847   0.005   3.364  10.122  0.1222 -0.0041 -0.3047
 2404SOL    HW118848   0.031   3.402  10.206 -1.1955  0.1664  0.0219
 2404SOL    HW218849   0.079   3.321  10.080  1.5682  1.0707  1.1679
 2405SOL     OW18850   0.579   3.370   4.092 -0.3473 -0.0795  0.2178
 2405SOL    HW118851   0.528   3.428   4.036  0.5232 -0.0251 -0.5266
 2405SOL    HW218852   0.585   3.414   4.176  0.6367  0.0721  0.0669
 2406SOL     OW18853   0.801   0.268  11.201  0.3040  0.1998 -0.0566
 2406SOL    HW118854   0.861   0.341  11.216  0.5207  0.2374 -1.0914
 2406SOL    HW218855   0.735   0.305  11.143 -0.0251  0.4705  0.4946
 2407SOL     OW18856   0.633   0.672   4.003 -0.2880 -0.1588 -0.1510
 2407SOL    HW118857   0.682   0.738   4.052 -0.8461  0.0230  0.1584
 2407SOL    HW218858   0.699   0.641   3.940  0.5638 -0.0818  0.7032
 2408SOL     OW18859   1.535   0.644   3.344 -0.2082 -0.4244 -0.0893
 2408SOL    HW118860   1.557   0.688   3.262 -0.2137 -0.4428 -0.1008
 2408SOL    HW218861   1.546   0.550   3.330  0.3023  0.0071 -2.5506
 2409SOL     OW18862   0.605   0.152   9.003  0.5308 -0.2937  0.1985
 2409SOL    HW118863   0.699   0.172   9.001  0.8327 -1.8339 -0.4509
 2409SOL    HW218864   0.563   0.237   9.016  2.4419  0.5898  0.5219
 2410SOL     OW18865   0.004   2.382   1.336 -0.0288 -0.1598  0.7588
 2410SOL    HW118866   4.673   2.437   1.370  0.2641  1.9598 -2.0238
 2410SOL    HW218867   0.084   2.425   1.365  0.7533 -1.5445  0.6443
 2411SOL     OW18868   0.796   3.370   3.360  0.0641 -0.3586  0.3584
 2411SOL    HW118869   0.786   3.427   3.437  0.5524  2.6189 -1.7946
 2411SOL    HW218870   0.889   3.360   3.345  0.3377 -0.7673  2.2483
 2412SOL     OW18871   4.467   3.236   4.568 -0.0035  0.2183  0.5737
 2412SOL    HW118872   4.516   3.194   4.497  2.1209 -0.2317  2.2851
 2412SOL    HW218873   4.407   3.296   4.523  1.1132 -0.9965 -2.5136
 2413SOL     OW18874   1.855   1.783  10.939  0.2020  0.0134  0.0155
 2413SOL    HW118875   1.877   1.758  11.029  0.7779  0.3065 -0.0404
 2413SOL    HW218876   1.790   1.853  10.949 -0.6891 -0.7431 -0.5136
 2414SOL     OW18877   2.095   4.178   4.454 -0.4450 -0.1320 -0.6386
 2414SOL    HW118878   2.091   4.113   4.384 -1.1658  1.0796 -1.7205
 2414SOL    HW218879   2.040   4.135   4.519 -0.5469  0.6195 -0.2231
 2415SOL     OW18880   0.407   1.108  15.152  0.4801  0.4925  0.1251
 2415SOL    HW118881   0.432   1.064  15.070  0.0967  0.3058  0.1096
 2415SOL    HW218882   0.460   1.051  15.208  0.0332  0.3767  0.4324
 2416SOL     OW18883   0.965   3.207  14.647 -0.2510  0.0124  0.1091
 2416SOL    HW118884   0.961   3.287  14.594 -3.6237 -0.0494  0.2434
 2416SOL    HW218885   1.059   3.206  14.665  0.1010  1.1495 -1.6885
 2417SOL     OW18886   1.165   1.599   6.827 -0.3265 -0.4787 -0.6984
 2417SOL    HW118887   1.167   1.517   6.777 -2.2723 -0.7493 -0.3486
 2417SOL    HW218888   1.252   1.634   6.811 -0.2579  0.3344  1.4405
 2418SOL     OW18889   2.701   0.307  12.895  0.2350  0.3507  0.2421
 2418SOL    HW118890   2.637   0.253  12.848  1.6778 -0.2728 -0.9830
 2418SOL    HW218891   2.643   0.369  12.940 -0.7491  0.0453 -0.6062
 2419SOL     OW18892   4.075   0.194   3.367 -0.1076 -0.6529 -0.7924
 2419SOL    HW118893   4.062   0.187   3.272  0.5773 -0.7772 -0.8732
 2419SOL    HW218894   3.983   0.194   3.393  0.0437 -1.1759 -0.2751
 2420SOL     OW18895   4.166   0.771   6.094 -0.1311  0.2393  0.4409
 2420SOL    HW118896   4.127   0.684   6.096 -0.2179  0.2900  0.8537
 2420SOL    HW218897   4.157   0.771   5.998 -2.9043 -1.7861  0.6919
 2421SOL     OW18898   1.985   3.388  10.614 -0.1645 -0.5698  0.5112
 2421SOL    HW118899   1.971   3.475  10.652  4.0133  0.4579 -0.2633
 2421SOL    HW218900   2.071   3.357  10.643 -0.7226 -0.0291  2.7672
 2422SOL     OW18901   2.275   2.454   4.493 -0.0861 -0.2252  0.1997
 2422SOL    HW118902   2.367   2.434   4.477 -0.1045  0.5432 -0.8032
 2422SOL    HW218903   2.254   2.537   4.451  2.2879  1.5345  2.4974
 2423SOL     OW18904   1.231   3.994   7.575 -0.3146 -0.4849  0.0517
 2423SOL    HW118905   1.219   3.918   7.631 -0.2668 -0.0105  0.7052
 2423SOL    HW218906   1.139   4.008   7.554  0.5354  1.9368 -2.1132
 2424SOL     OW18907   3.920   3.508   0.143 -0.2464 -0.3895  0.0182
 2424SOL    HW118908   3.890   3.469   0.061  1.6256 -2.0011  0.1171
 2424SOL    HW218909   3.910   3.603   0.132  1.7842 -0.2865 -1.0124
 2425SOL     OW18910   0.051   4.447   3.474 -0.4517 -0.4034 -1.1164
 2425SOL    HW118911   4.699   4.432   3.494 -0.3357  0.4927  0.1121
 2425SOL    HW218912   0.052   4.516   3.407 -2.2418  0.2397 -0.4746
 2426SOL     OW18913   0.619   2.347   1.956 -0.1316 -0.1493  0.8350
 2426SOL    HW118914   0.586   2.387   2.036 -1.0237 -1.6049  1.2069
 2426SOL    HW218915   0.641   2.425   1.906 -1.3851 -0.8699 -0.8748
 2427SOL     OW18916   0.648   4.079   5.136  0.0005 -0.0610  1.0613
 2427SOL    HW118917   0.625   4.011   5.200 -0.1213  0.0836  1.1723
 2427SOL    HW218918   0.679   4.149   5.193  0.6861  0.4761  0.0047
 2428SOL     OW18919   2.864   0.756  11.397 -0.3506  0.6791 -0.1367
 2428SOL    HW118920   2.800   0.733  11.465 -0.6663  0.4820 -0.4957
 2428SOL    HW218921   2.929   0.696  11.432 -1.6313 -0.0033  1.0811
 2429SOL     OW18922   4.161   4.245   5.434 -0.4654 -0.2833  0.3411
 2429SOL    HW118923   4.167   4.185   5.360 -0.6365  2.2527 -1.7438
 2429SOL    HW218924   4.255   4.260   5.449 -0.6494  0.5837  0.6323
 2430SOL     OW18925   3.721   4.026   3.384  0.2006  0.1426 -0.1369
 2430SOL    HW118926   3.802   4.076   3.372  0.5474  0.0689  1.9081
 2430SOL    HW218927   3.738   3.984   3.468 -1.9976  0.0678  0.2613
 2431SOL     OW18928   0.733   0.921  11.944  0.0649  0.5975 -0.4471
 2431SOL    HW118929   0.808   0.934  12.002 -0.8052 -0.5656  0.9320
 2431SOL    HW218930   0.689   0.842  11.975 -0.9763  0.8662 -1.2115
 2432SOL     OW18931   4.222   1.727   8.361 -0.7264 -0.6864  0.0381
 2432SOL    HW118932   4.173   1.800   8.400 -1.3777 -0.3113 -1.4843
 2432SOL    HW218933   4.158   1.694   8.298 -1.8601 -0.5613  1.1318
 2433SOL     OW18934   2.398   0.223   7.857  0.3354  0.4619  0.4686
 2433SOL    HW118935   2.310   0.234   7.893 -0.1386 -1.9002  0.0404
 2433SOL    HW218936   2.450   0.299   7.882  1.5163 -0.4797  0.8839
 2434SOL     OW18937   4.490   3.612   6.795  0.1260  0.4139 -0.2396
 2434SOL    HW118938   4.530   3.569   6.870 -1.2498 -1.3806 -0.5427
 2434SOL    HW218939   4.467   3.536   6.743  0.0527  1.1558 -1.3009
 2435SOL     OW18940   2.206   4.208   9.248  0.1429 -0.9369 -0.7714
 2435SOL    HW118941   2.194   4.203   9.153  0.1207 -0.1638 -0.8050
 2435SOL    HW218942   2.121   4.174   9.277  0.4438 -2.1138 -1.2491
 2436SOL     OW18943   3.987   3.810   0.982 -0.0307  0.2159 -0.1539
 2436SOL    HW118944   4.058   3.788   1.042 -0.8214  1.2357  1.1436
 2436SOL    HW218945   4.032   3.874   0.927 -0.5678  1.0584  0.3965
 2437SOL     OW18946   3.157   1.536   1.454  0.3327 -0.6368 -0.0663
 2437SOL    HW118947   3.233   1.521   1.399 -0.3279 -1.4582 -0.7574
 2437SOL    HW218948   3.197   1.532   1.541 -0.3936 -0.9504  0.2610
 2438SOL     OW18949   1.247   1.359  11.637 -0.3644 -0.4542 -0.4673
 2438SOL    HW118950   1.157   1.388  11.624  0.1824  1.3728 -0.2522
 2438SOL    HW218951   1.277   1.420  11.704  1.0717 -2.0206  0.3236
 2439SOL     OW18952   3.374   2.133   7.953 -0.0430 -0.5779  0.2381
 2439SOL    HW118953   3.432   2.096   7.886  1.1046  2.8898 -0.7252
 2439SOL    HW218954   3.415   2.219   7.966 -1.2335  0.2321 -1.3801
 2440SOL     OW18955   0.260   4.639  14.289 -0.7564  0.0212 -0.8691
 2440SOL    HW118956   0.299   4.571  14.344  0.1141  2.6494  1.7402
 2440SOL    HW218957   0.290   4.715  14.338 -2.0666 -0.5796  0.8479
 2441SOL     OW18958   0.493   0.309   0.110 -0.6583  0.6195 -0.4780
 2441SOL    HW118959   0.448   0.362   0.045  1.5510  1.7371 -1.0962
 2441SOL    HW218960   0.434   0.235   0.125  0.4188 -0.0436  0.5156
 2442SOL     OW18961   1.277   3.324   8.196 -0.1832  0.2322  0.4623
 2442SOL    HW118962   1.268   3.419   8.185  3.5849  0.3104 -1.8710
 2442SOL    HW218963   1.281   3.316   8.291  1.5578 -0.8037  0.3146
 2443SOL     OW18964   2.313   3.933   7.829  0.1315  0.6413  0.0282
 2443SOL    HW118965   2.342   3.941   7.738  0.3957 -2.2888 -0.1511
 2443SOL    HW218966   2.287   3.842   7.817 -2.5850  1.4049  0.1054
 2444SOL     OW18967   3.186   0.497   2.585  0.4276 -0.0718  0.0288
 2444SOL    HW118968   3.192   0.569   2.521  1.2740 -0.0289  0.1637
 2444SOL    HW218969   3.137   0.537   2.657 -0.4419  1.9518 -1.6566
 2445SOL     OW18970   0.919   1.868   5.401 -0.4222  0.0784 -0.4743
 2445SOL    HW118971   0.929   1.896   5.492  2.5310  0.0527 -0.8200
 2445SOL    HW218972   0.907   1.773   5.409 -0.8659  0.1275 -0.5529
 2446SOL     OW18973   1.953   2.823   2.457 -0.1535 -0.3755 -0.0778
 2446SOL    HW118974   2.019   2.873   2.409 -1.0902  0.6975 -0.2428
 2446SOL    HW218975   1.908   2.775   2.387 -0.1098  0.8746 -0.9608
 2447SOL     OW18976   4.592   4.139   2.900  0.0324  0.0177  0.1492
 2447SOL    HW118977   4.649   4.147   2.976 -0.4333 -2.4952  0.7508
 2447SOL    HW218978   4.554   4.226   2.887  1.2421  0.6006  0.4741
 2448SOL     OW18979   1.644   4.308   6.526 -0.0254  0.7369 -0.1391
 2448SOL    HW118980   1.720   4.322   6.582 -0.2814  2.2117 -0.1494
 2448SOL    HW218981   1.579   4.361   6.572  0.3774  1.5065 -0.4602
 2449SOL     OW18982   2.557   4.035   7.596  0.1250  0.2528  0.1313
 2449SOL    HW118983   2.553   4.069   7.506 -1.8743 -0.8429 -0.1978
 2449SOL    HW218984   2.481   3.977   7.595  0.1700  0.2034 -1.2080
 2450SOL     OW18985   3.871   4.120   8.920  0.7668  0.0137 -0.2705
 2450SOL    HW118986   3.928   4.197   8.916  0.6978  0.0669 -0.2088
 2450SOL    HW218987   3.822   4.146   8.998  0.3554  0.6836 -0.7613
 2451SOL     OW18988   0.830   3.051   7.279 -0.3326  0.4321 -0.2483
 2451SOL    HW118989   0.817   3.028   7.187 -1.3701  0.7975 -0.1832
 2451SOL    HW218990   0.804   2.968   7.319 -0.4370  0.7770  0.3823
 2452SOL     OW18991   2.608   3.264  13.928  0.0841 -0.1251 -0.2551
 2452SOL    HW118992   2.585   3.178  13.963  0.7674  0.3897  1.4945
 2452SOL    HW218993   2.540   3.319  13.969  0.1682 -0.3930  0.2526
 2453SOL     OW18994   1.860   2.658   2.664  0.4443  0.7382 -0.5254
 2453SOL    HW118995   1.779   2.651   2.614 -0.0654 -0.2805  0.4285
 2453SOL    HW218996   1.920   2.703   2.605  2.0811 -1.5399 -0.5519
 2454SOL     OW18997   3.172   1.478   2.763  0.0756  0.7877  0.8150
 2454SOL    HW118998   3.182   1.542   2.693 -0.9231 -0.7088 -0.7027
 2454SOL    HW218999   3.167   1.529   2.844  2.1852  2.5051 -0.1532
 2455SOL     OW19000   0.603   2.232   8.053  0.5934  0.2957 -0.1307
 2455SOL    HW119001   0.592   2.195   8.141  0.6507  0.2917 -0.1254
 2455SOL    HW219002   0.686   2.279   8.064  0.5436  0.8766 -2.2630
 2456SOL     OW19003   3.043   2.282   9.366 -0.5163 -1.0228  0.4079
 2456SOL    HW119004   3.004   2.369   9.376  0.4812 -0.3496 -1.5882
 2456SOL    HW219005   3.081   2.258   9.451  2.1563  0.7986 -0.2839
 2457SOL     OW19006   1.339   0.735   8.448  0.3539  0.4258 -0.0078
 2457SOL    HW119007   1.305   0.657   8.490 -0.2016  0.4904 -0.3387
 2457SOL    HW219008   1.280   0.755   8.376  0.9043  0.6102 -0.4090
 2458SOL     OW19009   3.776   1.015   2.425 -0.1708  0.5207  0.3938
 2458SOL    HW119010   3.759   1.078   2.494 -2.4837 -2.6486  2.6966
 2458SOL    HW219011   3.833   0.944   2.455 -0.2759 -0.3268 -1.4147
 2459SOL     OW19012   3.568   1.274   6.126  0.0544  0.2695 -0.3140
 2459SOL    HW119013   3.538   1.183   6.125 -0.9974  0.6141 -0.2750
 2459SOL    HW219014   3.661   1.257   6.143 -0.1827 -1.0133 -0.3604
 2460SOL     OW19015   2.430   2.006  13.048  0.6831 -0.2183  0.0102
 2460SOL    HW119016   2.470   2.027  12.963  2.0312 -0.0044  0.7003
 2460SOL    HW219017   2.428   2.098  13.074 -1.9346  0.3968 -2.3648
 2461SOL     OW19018   1.390   0.477   5.806 -0.1952  0.5914  0.7322
 2461SOL    HW119019   1.306   0.468   5.851 -1.0098  2.4216 -0.4043
 2461SOL    HW219020   1.419   0.387   5.798  2.8838  1.6547  0.1718
 2462SOL     OW19021   4.426   2.927   4.428  0.5056  0.1746 -0.0553
 2462SOL    HW119022   4.462   2.839   4.434  0.4470  0.0743 -1.1085
 2462SOL    HW219023   4.507   2.971   4.404  1.0505 -0.2970  0.9189
 2463SOL     OW19024   3.211   2.333   3.373  0.1348 -0.2867  0.3386
 2463SOL    HW119025   3.229   2.251   3.326 -0.8442 -1.8236  2.6069
 2463SOL    HW219026   3.302   2.365   3.377  0.3782 -0.7642 -1.2507
 2464SOL     OW19027   4.465   1.420   2.821  0.2156 -0.0566  0.3471
 2464SOL    HW119028   4.542   1.476   2.822  0.5515 -0.5418  1.3875
 2464SOL    HW219029   4.471   1.356   2.750 -0.1946 -0.1943  0.4329
 2465SOL     OW19030   3.885   4.255   7.564  0.5447 -0.2061 -0.6238
 2465SOL    HW119031   3.964   4.257   7.510  0.6031  0.6182 -0.5072
 2465SOL    HW219032   3.920   4.239   7.652  1.8617  0.0054 -1.1068
 2466SOL     OW19033   1.892   3.427   2.768 -0.3527 -0.0954  0.2584
 2466SOL    HW119034   1.824   3.361   2.752  1.2881 -1.3272 -1.6185
 2466SOL    HW219035   1.966   3.381   2.729 -2.1202 -2.2429 -0.5619
 2467SOL     OW19036   4.124   3.421   3.109  0.0255 -0.1435 -0.1115
 2467SOL    HW119037   4.174   3.417   3.191  0.6236 -1.5584 -0.5325
 2467SOL    HW219038   4.189   3.438   3.041  0.5502  1.1462  0.7194
 2468SOL     OW19039   4.551   2.343   2.288 -0.1381  0.1480  0.2926
 2468SOL    HW119040   4.597   2.370   2.208  0.4680  1.0309  0.9375
 2468SOL    HW219041   4.545   2.248   2.275 -0.5559  0.0998  0.8307
 2469SOL     OW19042   3.758   2.778  16.233  0.2996 -0.2705 -0.2172
 2469SOL    HW119043   3.825   2.846  16.225  0.0569 -0.1954 -1.6605
 2469SOL    HW219044   3.787   2.738  16.314  1.2436  0.9798  0.0690
 2470SOL     OW19045   3.590   2.184   5.041  0.3150 -0.3571 -0.7349
 2470SOL    HW119046   3.667   2.139   5.007  0.5116  0.0643 -0.8514
 2470SOL    HW219047   3.516   2.146   4.995 -0.5467  0.2261  0.1662
 2471SOL     OW19048   2.830   1.085  11.573  0.5457 -0.3326 -0.6056
 2471SOL    HW119049   2.806   1.083  11.666 -2.2367  1.1278 -1.2701
 2471SOL    HW219050   2.791   1.002  11.546  0.1536 -0.0659 -0.8820
 2472SOL     OW19051   2.133   3.854   9.348 -0.6506 -0.6515 -0.0558
 2472SOL    HW119052   2.157   3.885   9.261 -0.7842 -1.4221 -0.3715
 2472SOL    HW219053   2.053   3.905   9.356 -0.5755 -0.7438  1.2327
 2473SOL     OW19054   0.117   0.316   6.089  0.0744 -0.7722 -0.5006
 2473SOL    HW119055   0.197   0.265   6.091  1.6252  1.6855  0.1312
 2473SOL    HW219056   0.070   0.278   6.163  0.7400  0.1703  0.4136
 2474SOL     OW19057   3.817   0.379   6.029 -0.2919 -0.4128 -0.0267
 2474SOL    HW119058   3.737   0.428   6.011  0.6647  1.1233 -0.1519
 2474SOL    HW219059   3.803   0.305   5.970 -2.1111  0.7257 -1.0206
 2475SOL     OW19060   1.512   3.427  17.048  0.2257  0.3368  0.1019
 2475SOL    HW119061   1.557   3.379  17.117  1.3124  0.1497 -0.7315
 2475SOL    HW219062   1.577   3.473  16.994  1.7411 -2.1596 -0.2394
 2476SOL     OW19063   0.988   1.640   3.532 -0.5480 -0.2432  0.2643
 2476SOL    HW119064   1.032   1.562   3.500 -3.3241 -1.3116 -0.9374
 2476SOL    HW219065   1.027   1.635   3.619 -1.4505 -1.4467  0.5930
 2477SOL     OW19066   3.843   3.603  11.901 -0.4390  0.7956 -0.2923
 2477SOL    HW119067   3.870   3.592  11.810  1.8547  0.3591  0.4417
 2477SOL    HW219068   3.750   3.579  11.898 -0.4525  0.5800  1.9883
 2478SOL     OW19069   2.080   3.579   1.932  0.4465  0.2522 -0.0207
 2478SOL    HW119070   2.031   3.589   1.851 -0.8926 -1.5750  0.5543
 2478SOL    HW219071   2.151   3.516   1.921  0.3492  0.4450 -1.7676
 2479SOL     OW19072   0.460   0.803   6.482 -0.0118 -0.1539  0.1329
 2479SOL    HW119073   0.471   0.764   6.569 -0.6133  1.3923  0.9117
 2479SOL    HW219074   0.551   0.798   6.455 -0.2322 -0.3793 -0.5522
 2480SOL     OW19075   0.761   0.100  14.814 -0.2625  0.3804 -0.1773
 2480SOL    HW119076   0.819   0.162  14.859 -1.0978  0.9096  0.1638
 2480SOL    HW219077   0.777   0.128  14.724  2.7453  2.4561  1.0091
 2481SOL     OW19078   0.926   2.514   6.067 -0.2182  0.3189  0.1647
 2481SOL    HW119079   0.875   2.595   6.061 -0.7462 -0.0275 -0.0425
 2481SOL    HW219080   0.858   2.463   6.110 -0.1101 -1.1385 -1.3819
 2482SOL     OW19081   2.590   1.188  12.561  0.0340 -0.1933 -0.3199
 2482SOL    HW119082   2.647   1.172  12.485 -0.9321 -0.1229 -1.0625
 2482SOL    HW219083   2.526   1.119  12.544  0.5544 -0.1625 -2.4589
 2483SOL     OW19084   2.655   0.506   2.065  0.1337  0.0322 -0.6319
 2483SOL    HW119085   2.608   0.483   1.985 -0.7683 -2.3296  0.5822
 2483SOL    HW219086   2.623   0.442   2.128 -1.7838  1.2417 -0.3781
 2484SOL     OW19087   2.341   0.938   0.209 -0.0940  0.6424 -0.7524
 2484SOL    HW119088   2.289   0.946   0.129  2.0538  2.1628 -1.9968
 2484SOL    HW219089   2.335   1.026   0.244  2.3830  0.6065 -0.2346
 2485SOL     OW19090   4.206   4.371   6.482 -0.3311  0.3176 -0.4806
 2485SOL    HW119091   4.249   4.320   6.550  1.8581  1.1411 -1.2265
 2485SOL    HW219092   4.116   4.369   6.514 -1.0512 -1.0995 -2.5998
 2486SOL     OW19093   2.270   3.804   3.875 -0.5331  0.2251 -0.2727
 2486SOL    HW119094   2.302   3.790   3.964  0.9122  0.0517 -0.8349
 2486SOL    HW219095   2.235   3.894   3.878  1.4006  0.9799 -0.7549
 2487SOL     OW19096   0.731   3.108   1.489 -0.0821 -0.3776 -0.7779
 2487SOL    HW119097   0.641   3.115   1.523  1.1255  1.3433  2.1099
 2487SOL    HW219098   0.767   3.195   1.505  0.4742 -0.8218  0.3973
 2488SOL     OW19099   4.580   2.784   1.458 -0.4364  0.1351  0.0068
 2488SOL    HW119100   4.575   2.823   1.371 -1.9778 -2.1399 -0.9062
 2488SOL    HW219101   4.591   2.859   1.517 -3.2873  0.8981 -0.3984
 2489SOL     OW19102   2.532   0.977  11.300  0.2526 -0.4813  0.4746
 2489SOL    HW119103   2.536   0.950  11.208 -0.6303 -0.4561  0.4343
 2489SOL    HW219104   2.447   1.020  11.304 -0.2595 -1.5452  0.9261
 2490SOL     OW19105   3.937   1.422  13.390  0.5090 -0.2189 -0.2549
 2490SOL    HW119106   3.870   1.486  13.370 -0.9761 -1.7643 -0.2490
 2490SOL    HW219107   4.013   1.480  13.400  0.8871 -0.3964 -2.1148
 2491SOL     OW19108   4.033   2.600   6.756 -0.5217 -0.1533  0.4235
 2491SOL    HW119109   4.000   2.688   6.772  2.1133  1.0463 -0.6964
 2491SOL    HW219110   3.959   2.543   6.775  1.3782 -2.3727  1.2288
 2492SOL     OW19111   2.047   0.274   6.243 -0.2439  0.3027  0.5227
 2492SOL    HW119112   1.996   0.298   6.321 -2.0616 -0.5879 -0.3928
 2492SOL    HW219113   2.105   0.350   6.253  2.7235 -1.9592  0.5192
 2493SOL     OW19114   1.145   3.075   7.983 -0.0113  0.3763  0.0101
 2493SOL    HW119115   1.105   3.023   7.913  3.6569 -1.6246 -0.6258
 2493SOL    HW219116   1.105   3.161   7.971  0.3267  0.2472 -2.0624
 2494SOL     OW19117   0.070   3.409   1.754  0.4815  0.1607  0.3060
 2494SOL    HW119118   0.133   3.411   1.681  0.5342 -0.8561  0.3237
 2494SOL    HW219119   0.014   3.477   1.717 -0.7988 -0.8990  0.2993
 2495SOL     OW19120   2.349   1.245   7.925  0.3138  0.0606  0.3685
 2495SOL    HW119121   2.418   1.193   7.883  0.9395 -0.4480  2.0151
 2495SOL    HW219122   2.389   1.270   8.008 -2.6975  1.4527  1.3856
 2496SOL     OW19123   2.357   2.609   5.659  0.4203  0.5601  0.4156
 2496SOL    HW119124   2.409   2.629   5.736  2.5092 -0.4358 -0.7566
 2496SOL    HW219125   2.368   2.691   5.611  0.9130 -0.1988 -0.7673
 2497SOL     OW19126   4.576   1.165  11.969  0.1037  0.1801  0.2825
 2497SOL    HW119127   4.611   1.183  11.882 -1.3461  0.2363 -0.2786
 2497SOL    HW219128   4.488   1.132  11.949  0.0095  0.4240  0.3013
 2498SOL     OW19129   1.934   0.912  17.741 -0.0625 -0.1662 -0.4075
 2498SOL    HW119130   1.887   0.829  17.744 -0.5755  0.0883 -1.5056
 2498SOL    HW219131   1.864   0.975   0.002 -0.5359 -0.9459  0.4366
 2499SOL     OW19132   1.680   2.887  17.452 -0.1452  0.5026  0.3575
 2499SOL    HW119133   1.678   2.820  17.384 -0.0618  1.0826 -0.2064
 2499SOL    HW219134   1.591   2.880  17.486  0.8721  0.3848  3.0109
 2500SOL     OW19135   1.422   0.116  11.385 -0.3783  0.5813 -0.4386
 2500SOL    HW119136   1.445   0.069  11.305 -0.7436  0.4754 -0.4777
 2500SOL    HW219137   1.508   0.140  11.420  0.6588 -2.1337 -1.1026
 2501SOL     OW19138   1.256   0.082   6.678 -0.5414  0.0585 -0.0032
 2501SOL    HW119139   1.183   0.119   6.628  0.0608  1.5128  0.1978
 2501SOL    HW219140   1.218   0.067   6.764 -1.1863  0.2306 -0.2566
 2502SOL     OW19141   1.922   0.676   5.037  0.3377  0.7219 -0.7449
 2502SOL    HW119142   1.997   0.684   5.095  0.8688 -3.0821 -0.9020
 2502SOL    HW219143   1.873   0.752   5.068  0.0013  1.0429 -2.0775
 2503SOL     OW19144   3.204   0.110  17.497  0.1758 -0.4828  0.0412
 2503SOL    HW119145   3.234   0.113  17.587  0.6721 -0.2894 -0.1292
 2503SOL    HW219146   3.247   0.192  17.474 -0.3445  0.0840  1.1140
 2504SOL     OW19147   2.118   2.467   8.366 -0.0959  0.1410 -0.2399
 2504SOL    HW119148   2.108   2.440   8.457 -1.7499 -0.2338 -0.5279
 2504SOL    HW219149   2.029   2.493   8.344 -0.7700 -1.2021  0.9301
 2505SOL     OW19150   2.125   2.007   6.038  0.1960 -0.0089  0.4857
 2505SOL    HW119151   2.108   1.913   6.045 -0.2137  0.0787  0.6290
 2505SOL    HW219152   2.144   2.033   6.128  1.3313 -0.4974  0.3836
 2506SOL     OW19153   3.121   3.874   8.164 -0.2386 -0.2739 -0.2033
 2506SOL    HW119154   3.150   3.919   8.085 -0.1862  1.5415  0.8536
 2506SOL    HW219155   3.144   3.937   8.232 -2.6485  0.3236  0.0615
 2507SOL     OW19156   4.116   1.596  17.464 -0.4950 -0.8748 -0.2618
 2507SOL    HW119157   4.041   1.649  17.491 -2.1152 -2.1138 -2.3394
 2507SOL    HW219158   4.101   1.577  17.372 -0.2763  3.8724 -1.2895
 2508SOL     OW19159   2.532   3.058   8.501  0.0657 -0.3926 -0.0073
 2508SOL    HW119160   2.532   3.008   8.420  0.7110 -1.7739  0.8406
 2508SOL    HW219161   2.579   3.139   8.483  0.1943 -1.2826 -3.5426
 2509SOL     OW19162   2.012   0.416  15.412  0.6408  0.3732  0.3490
 2509SOL    HW119163   2.017   0.322  15.427  1.4362  0.5852  1.5100
 2509SOL    HW219164   2.023   0.414  15.317  1.3498  0.3954  0.4299
 2510SOL     OW19165   2.640   4.303   3.749 -0.0010  0.0642  0.1961
 2510SOL    HW119166   2.675   4.312   3.661  0.0941  2.3087  0.4553
 2510SOL    HW219167   2.672   4.387   3.782 -1.6229  0.8405 -0.1727
 2511SOL     OW19168   1.838   1.934   5.986  0.3223 -0.1636 -0.0045
 2511SOL    HW119169   1.863   1.909   6.075 -4.3494 -1.3950  0.9517
 2511SOL    HW219170   1.924   1.933   5.943  1.2347  0.0866  1.7843
 2512SOL     OW19171   3.625   2.846  15.766  0.2107 -0.3051 -0.7340
 2512SOL    HW119172   3.691   2.813  15.826 -2.6624 -3.1125  0.8484
 2512SOL    HW219173   3.609   2.934  15.801 -0.8404 -1.1927  0.9815
 2513SOL     OW19174   3.230   2.029   8.750 -0.5257 -0.4268 -0.4166
 2513SOL    HW119175   3.312   2.079   8.743  0.0857 -0.7969  3.6540
 2513SOL    HW219176   3.168   2.093   8.785 -0.3078  0.5719 -1.8408
 2514SOL     OW19177   2.517   0.592   6.186 -0.2625  0.6123  0.3180
 2514SOL    HW119178   2.474   0.561   6.106  1.0462 -2.5217  0.8026
 2514SOL    HW219179   2.540   0.508   6.227  0.9605  0.7162 -0.1401
 2515SOL     OW19180   0.925   1.159  11.873  0.3038  0.2134  0.6443
 2515SOL    HW119181   1.013   1.122  11.881  1.1995  2.2249  0.1136
 2515SOL    HW219182   0.885   1.147  11.959  0.6814  0.4241  0.8500
 2516SOL     OW19183   2.990   2.164  14.828  0.5121  0.8898 -0.2187
 2516SOL    HW119184   2.962   2.078  14.795 -0.1668  1.2227 -0.5109
 2516SOL    HW219185   3.058   2.135  14.890 -1.3759  2.2063  2.4466
 2517SOL     OW19186   3.089   0.082   4.334 -0.0958  0.4500  0.4151
 2517SOL    HW119187   3.124   0.149   4.275  1.0874  1.8161  2.6514
 2517SOL    HW219188   3.152   0.011   4.322 -0.2422  0.2723  0.7019
 2518SOL     OW19189   0.166   0.083   8.618  0.4797 -0.4083 -0.3973
 2518SOL    HW119190   0.200   0.151   8.676 -1.6212  1.6953 -1.6350
 2518SOL    HW219191   0.159   0.123   8.531 -0.8277 -1.3624 -0.7311
 2519SOL     OW19192   1.861   4.382  16.700  0.1069 -0.1345 -0.0097
 2519SOL    HW119193   1.930   4.317  16.688  0.8040  0.0791  2.7188
 2519SOL    HW219194   1.833   4.364  16.790 -0.5082  0.1375 -0.1471
 2520SOL     OW19195   3.869   0.156  11.882  0.0604 -0.5554  0.3411
 2520SOL    HW119196   3.927   0.198  11.819  0.3600  0.2186  1.1414
 2520SOL    HW219197   3.794   0.216  11.885  0.3413 -0.2193  0.5941
 2521SOL     OW19198   2.396   4.497  12.737  0.4238  0.1058 -0.4512
 2521SOL    HW119199   2.301   4.486  12.734  0.2908  0.8825  0.9197
 2521SOL    HW219200   2.407   4.553  12.814 -1.3845  0.2759 -0.3140
 2522SOL     OW19201   0.726   1.253   4.966 -0.3086  0.7852  0.1087
 2522SOL    HW119202   0.664   1.195   5.011  1.5521 -0.8556  0.5637
 2522SOL    HW219203   0.657   1.296   4.917  0.2372  1.2221 -0.2763
 2523SOL     OW19204   0.341   0.135   5.843  0.1300  0.2613  0.4232
 2523SOL    HW119205   0.303   0.047   5.840 -0.0388  0.3932 -1.7646
 2523SOL    HW219206   0.417   0.121   5.786  1.4090 -1.0270  2.4488
 2524SOL     OW19207   3.794   4.364  17.548 -0.3116  0.2177  0.6088
 2524SOL    HW119208   3.732   4.303  17.508 -1.0526  1.3229  0.0942
 2524SOL    HW219209   3.735   4.385  17.620 -1.4645 -0.4278 -0.1558
 2525SOL     OW19210   0.063   2.875   5.321  0.0931  0.2135  0.1569
 2525SOL    HW119211   0.099   2.960   5.295  0.8633 -1.0696 -2.9550
 2525SOL    HW219212   0.130   2.811   5.297 -0.8901  0.1530 -2.4280
 2526SOL     OW19213   4.233   4.490  14.242 -0.4884 -0.4657 -0.1146
 2526SOL    HW119214   4.233   4.403  14.283  0.6305 -0.7677 -0.7489
 2526SOL    HW219215   4.233   4.475  14.148 -0.5287 -1.9449  0.1241
 2527SOL     OW19216   0.928   0.811   9.106  0.4521 -0.4020  0.6784
 2527SOL    HW119217   0.939   0.843   9.195  1.1824  1.3103 -0.0350
 2527SOL    HW219218   0.941   0.886   9.048 -2.6169 -1.9525 -2.0378
 2528SOL     OW19219   2.876   0.485   2.217 -0.4751  0.0315  0.4065
 2528SOL    HW119220   2.903   0.565   2.264  2.5420 -0.9733  0.4189
 2528SOL    HW219221   2.828   0.524   2.145 -0.1725  0.7812  0.6063
 2529SOL     OW19222   4.355   0.158   2.076  0.0962  0.1670  0.2442
 2529SOL    HW119223   4.428   0.107   2.042 -0.8645 -1.0178 -0.0656
 2529SOL    HW219224   4.334   0.122   2.162  0.7049 -1.4404 -0.2848
 2530SOL     OW19225   0.612   0.360  17.375 -0.0557  0.1956  0.5221
 2530SOL    HW119226   0.535   0.417  17.371  0.2506  0.6134  0.6040
 2530SOL    HW219227   0.630   0.359  17.469 -1.2748  2.4240  0.7770
 2531SOL     OW19228   2.295   3.482   5.762 -0.2347 -0.2260  0.1917
 2531SOL    HW119229   2.212   3.507   5.803 -0.8763 -3.3395  0.8038
 2531SOL    HW219230   2.268   3.399   5.722  0.5972 -0.0886 -0.6504
 2532SOL     OW19231   0.992   0.308   7.030 -0.3000  0.0960 -0.0513
 2532SOL    HW119232   0.975   0.339   6.941  0.8292  0.8249 -0.0067
 2532SOL    HW219233   0.902   0.280   7.049 -0.0904 -1.1754 -0.9025
 2533SOL     OW19234   2.236   0.684  12.065 -0.0637 -0.2333  0.4885
 2533SOL    HW119235   2.157   0.639  12.034 -0.2060  0.7456 -0.5769
 2533SOL    HW219236   2.233   0.764  12.012  2.7982  0.1516  0.8787
 2534SOL     OW19237   3.074   2.799   3.578 -0.2588  0.0711  0.0201
 2534SOL    HW119238   3.032   2.814   3.493 -0.8650 -0.2944  0.2574
 2534SOL    HW219239   3.164   2.798   3.545 -1.0125  3.0164 -2.1325
 2535SOL     OW19240   1.396   1.935   7.155  0.4115  0.3405 -0.6029
 2535SOL    HW119241   1.486   1.969   7.155  0.3339  0.5523 -0.0852
 2535SOL    HW219242   1.368   1.947   7.065  2.1187  3.5406 -0.7226
 2536SOL     OW19243   0.174   2.985   1.411 -0.0863 -0.0524  0.9142
 2536SOL    HW119244   0.265   2.985   1.380 -0.6940  0.6760 -0.8035
 2536SOL    HW219245   0.179   2.898   1.453 -2.0292  0.8695  3.0376
 2537SOL     OW19246   2.646   1.073  15.815  0.2985 -0.4029  0.4881
 2537SOL    HW119247   2.599   0.991  15.795 -0.4812  0.0393  0.5094
 2537SOL    HW219248   2.568   1.128  15.810  0.3014 -0.6983 -3.0531
 2538SOL     OW19249   3.304   4.305  13.978 -0.1839  0.4217 -0.3272
 2538SOL    HW119250   3.278   4.358  14.054 -0.7371 -2.2800  1.3611
 2538SOL    HW219251   3.326   4.222  14.019 -0.3066 -0.2120 -1.5407
 2539SOL     OW19252   0.976   0.875  13.373  0.4568  0.2196 -0.0238
 2539SOL    HW119253   0.979   0.969  13.353  0.5767  0.1629 -0.2811
 2539SOL    HW219254   1.058   0.872  13.422 -0.7027  0.0224  1.8964
 2540SOL     OW19255   0.125   2.601   4.779  0.4398 -0.4653  0.2961
 2540SOL    HW119256   0.141   2.519   4.826 -0.3060 -1.8241 -1.8253
 2540SOL    HW219257   0.047   2.573   4.731  1.0082 -3.2294  0.9438
 2541SOL     OW19258   0.488   0.602   4.877 -0.1902 -0.6258  0.7265
 2541SOL    HW119259   0.419   0.650   4.831 -0.9938 -2.6136 -0.1295
 2541SOL    HW219260   0.471   0.509   4.861  1.4527 -0.1650 -3.7571
 2542SOL     OW19261   2.459   2.349   5.002  0.0748  0.2025 -0.1953
 2542SOL    HW119262   2.514   2.310   4.934 -0.8558  0.2975 -0.9995
 2542SOL    HW219263   2.528   2.368   5.067 -0.5021 -1.6429  0.9712
 2543SOL     OW19264   3.696   0.556   2.952  0.4835  0.5857  0.3125
 2543SOL    HW119265   3.650   0.475   2.931  0.3743  0.8607 -0.5231
 2543SOL    HW219266   3.623   0.617   2.946  0.7610  0.7783 -1.2446
 2544SOL     OW19267   0.860   1.408   0.334  0.6955 -0.2301  0.8341
 2544SOL    HW119268   0.907   1.471   0.279 -2.6136  1.9555  0.4284
 2544SOL    HW219269   0.921   1.411   0.407  0.7350  0.8572  0.7584
 2545SOL     OW19270   1.643   4.609   2.908  1.0931  0.7845  0.3863
 2545SOL    HW119271   1.601   4.672   2.967  0.7919  2.7862 -1.9660
 2545SOL    HW219272   1.647   4.530   2.962  0.4871 -1.5411 -2.9746
 2546SOL     OW19273   0.467   1.764   4.735 -0.0640 -0.0896 -0.4473
 2546SOL    HW119274   0.468   1.747   4.830 -0.1909  1.0404 -0.2494
 2546SOL    HW219275   0.380   1.725   4.725 -0.3314  0.2080  0.7199
 2547SOL     OW19276   1.554   1.451   4.329 -0.0098  0.0871 -0.2311
 2547SOL    HW119277   1.481   1.390   4.334 -0.3734  0.4972 -0.5794
 2547SOL    HW219278   1.549   1.476   4.237  1.3235 -0.6699 -0.5157
 2548SOL     OW19279   2.345   3.224   4.147  0.1675 -0.2438  0.4645
 2548SOL    HW119280   2.416   3.249   4.206  0.0968 -1.0697  0.8962
 2548SOL    HW219281   2.295   3.306   4.151  1.2510  0.3990  0.8014
 2549SOL     OW19282   1.094   0.249   5.086 -0.8006 -0.2855  0.0537
 2549SOL    HW119283   1.007   0.277   5.114  0.2556 -0.1473  3.2422
 2549SOL    HW219284   1.075   0.161   5.056 -0.1039  1.2569 -4.8181
 2550SOL     OW19285   2.078   0.786   9.597  0.1909 -0.2291 -0.2348
 2550SOL    HW119286   2.118   0.868   9.627 -0.5996  0.7223 -1.7592
 2550SOL    HW219287   2.072   0.736   9.678 -2.8028  1.8047  0.7802
 2551SOL     OW19288   2.445   1.624   2.426  0.4844 -0.3041 -0.5667
 2551SOL    HW119289   2.447   1.719   2.435 -0.7414 -0.2872 -0.4504
 2551SOL    HW219290   2.465   1.611   2.333  1.2213  0.3135 -0.4937
 2552SOL     OW19291   0.046   0.874   7.495 -0.4965 -0.4707 -0.1839
 2552SOL    HW119292   0.136   0.864   7.527 -0.3064  1.9270  0.0298
 2552SOL    HW219293   0.001   0.860   7.579  0.1113 -0.7145  0.0967
 2553SOL     OW19294   4.555   1.450   1.630 -0.7651  0.5097  0.3269
 2553SOL    HW119295   4.550   1.406   1.545  1.4166  0.2120  0.3407
 2553SOL    HW219296   4.650   1.441   1.637 -0.6444  1.3923 -0.2023
 2554SOL     OW19297   2.950   0.597  12.193 -0.0419  1.2632  0.1867
 2554SOL    HW119298   2.905   0.530  12.243  1.1635 -0.3239 -0.8768
 2554SOL    HW219299   2.928   0.572  12.104 -1.8327 -2.5196  1.7156
 2555SOL     OW19300   1.941   1.418   5.962 -0.0180  0.3438 -0.2693
 2555SOL    HW119301   1.882   1.421   5.887  1.7954 -1.8316 -1.7806
 2555SOL    HW219302   1.876   1.393   6.028 -0.5170 -1.3569 -1.4179
 2556SOL     OW19303   3.412   0.257   9.704 -0.3764 -0.0487  0.2964
 2556SOL    HW119304   3.439   0.165   9.714  0.2615  0.1332  0.2328
 2556SOL    HW219305   3.398   0.283   9.795 -1.0954 -0.1886  0.2287
 2557SOL     OW19306   4.305   3.533   2.914 -1.4737  0.2480 -0.0746
 2557SOL    HW119307   4.344   3.592   2.979 -3.7951 -0.1199  1.6546
 2557SOL    HW219308   4.294   3.588   2.836  2.4609 -1.1677 -1.6285
 2558SOL     OW19309   0.782   2.521   5.427  0.5624 -0.3729 -0.0967
 2558SOL    HW119310   0.774   2.551   5.336 -0.8986 -0.0512  0.1420
 2558SOL    HW219311   0.731   2.441   5.432 -0.5088  0.4238  1.6921
 2559SOL     OW19312   1.268   4.563  11.409  0.3677 -0.0322 -0.2090
 2559SOL    HW119313   1.253   4.570  11.503  2.3963  0.1982  0.1111
 2559SOL    HW219314   1.359   4.592  11.402 -0.0469  1.1362 -0.6696
 2560SOL     OW19315   1.218   0.758   5.145 -0.1170  0.0418 -0.9748
 2560SOL    HW119316   1.213   0.704   5.066  0.4994 -0.2478 -0.8163
 2560SOL    HW219317   1.306   0.733   5.173 -0.9717  0.9190  2.5075
 2561SOL     OW19318   0.934   4.304   4.121  0.2017 -0.4030  0.5942
 2561SOL    HW119319   0.869   4.252   4.074  0.2381 -1.1373  1.3480
 2561SOL    HW219320   0.870   4.370   4.149 -0.3442 -1.2451  1.3276
 2562SOL     OW19321   0.366   1.723   6.079 -0.6385  0.2228 -0.4091
 2562SOL    HW119322   0.440   1.674   6.114  0.5370  1.7409 -0.7491
 2562SOL    HW219323   0.339   1.763   6.162  1.8665  1.4347 -0.1647
 2563SOL     OW19324   2.532   2.231   4.757 -0.4259  0.3354  0.1414
 2563SOL    HW119325   2.526   2.136   4.770  2.1561  0.1603  0.0078
 2563SOL    HW219326   2.575   2.215   4.673  0.7669  0.0239  0.8125
 2564SOL     OW19327   4.105   3.858   3.553 -0.3734  0.6042 -0.4968
 2564SOL    HW119328   4.016   3.886   3.529 -0.5331  0.7315  0.2289
 2564SOL    HW219329   4.089   3.772   3.592 -1.0373 -0.4586 -3.0716
 2565SOL     OW19330   2.640   0.347   3.002 -0.3226  0.1753  0.8553
 2565SOL    HW119331   2.641   0.253   2.980 -1.4779  0.4532 -0.3962
 2565SOL    HW219332   2.637   0.356   3.097 -2.6125 -0.8332  0.8671
 2566SOL     OW19333   2.794   1.100   2.039 -0.4374  0.2772 -0.5528
 2566SOL    HW119334   2.816   1.011   2.010 -1.4735 -0.7487  1.7975
 2566SOL    HW219335   2.880   1.141   2.040 -0.7903  1.0604 -2.3194
 2567SOL     OW19336   2.616   4.482   5.738 -0.1082  0.0853 -0.2810
 2567SOL    HW119337   2.655   4.568   5.750  0.1219  0.1768 -1.7188
 2567SOL    HW219338   2.686   4.426   5.771  0.5700  1.3103  0.3669
 2568SOL     OW19339   3.880   1.315   7.906  0.7542 -0.1683 -0.0904
 2568SOL    HW119340   3.963   1.302   7.860  0.7187 -0.2153 -0.1415
 2568SOL    HW219341   3.817   1.251   7.873 -0.9934  0.6210  1.6423
 2569SOL     OW19342   0.159   1.482   5.601  0.1774  0.4913  0.1235
 2569SOL    HW119343   0.205   1.490   5.684  1.2575  3.1872 -0.7451
 2569SOL    HW219344   0.087   1.540   5.624 -0.8551 -1.2422  1.3032
 2570SOL     OW19345   2.173   3.004   6.349 -0.1257 -0.2651 -0.1063
 2570SOL    HW119346   2.175   2.975   6.440 -0.8094  0.7585  0.2308
 2570SOL    HW219347   2.184   3.097   6.370 -0.4540 -0.3353  0.3805
 2571SOL     OW19348   3.677   4.256  12.485  0.5115  0.0109  0.0980
 2571SOL    HW119349   3.720   4.184  12.439  0.0036  1.3695 -2.5142
 2571SOL    HW219350   3.595   4.269  12.437  2.2457  0.9386 -2.6582
 2572SOL     OW19351   1.757   3.798  15.067  0.2426 -0.4471 -0.4066
 2572SOL    HW119352   1.811   3.729  15.104 -0.5999 -1.0570 -0.3214
 2572SOL    HW219353   1.813   3.876  15.064  0.8519 -0.8757 -0.0928
 2573SOL     OW19354   2.037   1.374   4.001  0.2429 -0.3819  0.0972
 2573SOL    HW119355   1.999   1.381   3.913  1.7486  0.8413 -0.4494
 2573SOL    HW219356   1.979   1.309   4.042 -0.3105  0.5771  0.8562
 2574SOL     OW19357   0.555   0.221   1.721  0.6454  0.3002  0.2837
 2574SOL    HW119358   0.510   0.281   1.780 -0.1090  0.6578 -0.6675
 2574SOL    HW219359   0.509   0.232   1.638 -1.3676 -0.8173  1.2597
 2575SOL     OW19360   2.719   1.120   6.820  0.4049  0.4989  0.1588
 2575SOL    HW119361   2.694   1.168   6.899 -1.3101  0.2954 -0.2774
 2575SOL    HW219362   2.679   1.035   6.838 -0.1411  0.8606  0.6245
 2576SOL     OW19363   2.054   1.039   3.650  0.1775 -0.0220  0.2353
 2576SOL    HW119364   2.082   0.950   3.626  0.0158 -0.3100  1.0946
 2576SOL    HW219365   2.105   1.064   3.727  2.1487  0.6725 -1.3183
 2577SOL     OW19366   0.304   0.740   5.260  0.1580  0.4649  0.9796
 2577SOL    HW119367   0.378   0.761   5.203  0.2051 -0.1674  0.8138
 2577SOL    HW219368   0.340   0.676   5.322  0.1432 -1.1906 -0.7206
 2578SOL     OW19369   3.383   0.571  15.250 -0.5899  0.2396  0.1266
 2578SOL    HW119370   3.455   0.523  15.209 -1.3119 -1.0190  0.3570
 2578SOL    HW219371   3.329   0.503  15.290  0.4514  0.2925  1.5894
 2579SOL     OW19372   1.082   3.258  13.310  0.3764  0.1238  0.2695
 2579SOL    HW119373   1.152   3.209  13.267  0.8550  1.0748 -0.0331
 2579SOL    HW219374   1.124   3.289  13.390 -0.2699  3.5409 -0.7080
 2580SOL     OW19375   2.830   0.295   1.750  0.1568  0.0058 -0.7485
 2580SOL    HW119376   2.798   0.285   1.661 -0.5139 -2.0325 -0.2739
 2580SOL    HW219377   2.809   0.387   1.763  0.6223  0.1274 -0.8571
 2581SOL     OW19378   0.784   0.430   3.095 -0.3359 -0.0534 -0.7361
 2581SOL    HW119379   0.700   0.474   3.110  0.3272  0.3064  1.9039
 2581SOL    HW219380   0.775   0.383   3.012  1.9661 -1.3909 -0.2275
 2582SOL     OW19381   1.027   1.665  16.895 -0.6124 -0.3353 -0.4407
 2582SOL    HW119382   0.983   1.737  16.849  1.7516  0.9030 -0.7691
 2582SOL    HW219383   1.111   1.652  16.851  0.7467  2.9578  1.1512
 2583SOL     OW19384   4.213   2.842  16.195 -0.0544  0.0809  0.1534
 2583SOL    HW119385   4.268   2.862  16.271 -1.1296 -1.3101  1.2989
 2583SOL    HW219386   4.155   2.773  16.228 -0.2141  0.9985  1.8329
 2584SOL     OW19387   0.403   4.283  14.965  0.7700  0.0599  0.7147
 2584SOL    HW119388   0.372   4.268  14.876 -2.6037  2.4013  1.5275
 2584SOL    HW219389   0.482   4.228  14.972  0.5993 -0.4324 -1.3840
 2585SOL     OW19390   0.361   0.186   6.132  0.4393 -0.1361  0.3843
 2585SOL    HW119391   0.398   0.155   6.049 -0.8396  1.8562 -0.8932
 2585SOL    HW219392   0.349   0.101   6.174 -1.4381  0.0376  0.1781
 2586SOL     OW19393   0.217   1.376   4.937  0.0721  0.1658  0.5693
 2586SOL    HW119394   0.124   1.367   4.959 -0.3999  0.4929 -1.2248
 2586SOL    HW219395   0.257   1.373   5.024 -0.7558  2.0540  1.0084
 2587SOL     OW19396   1.761   2.649  11.900 -0.2845  0.0571 -0.4640
 2587SOL    HW119397   1.779   2.559  11.872  0.2542  0.5963 -1.8510
 2587SOL    HW219398   1.826   2.693  11.845 -0.0159 -0.4414 -0.5536
 2588SOL     OW19399   1.126   0.944   5.634 -0.1568 -0.5017 -0.1303
 2588SOL    HW119400   1.214   0.907   5.629  0.1185 -0.0130  1.2778
 2588SOL    HW219401   1.085   0.897   5.707 -0.8422 -0.4428 -0.4771
 2589SOL     OW19402   1.335   3.889   3.089 -0.0074 -0.3329  0.2418
 2589SOL    HW119403   1.411   3.947   3.091 -0.1235 -0.1320 -1.1199
 2589SOL    HW219404   1.258   3.944   3.100 -0.6238 -0.4876 -3.3273
 2590SOL     OW19405   0.687   3.485   7.919  0.1118  0.1014  0.1065
 2590SOL    HW119406   0.742   3.531   7.984  2.1995 -2.7486  0.3574
 2590SOL    HW219407   0.613   3.461   7.974  0.0850  1.8157  0.8230
 2591SOL     OW19408   1.648   2.510  10.300  0.3366  0.5313 -0.1355
 2591SOL    HW119409   1.622   2.562  10.224  1.3387 -0.1280 -0.9148
 2591SOL    HW219410   1.720   2.554  10.345 -0.2169  0.7517  0.5539
 2592SOL     OW19411   1.596   2.249   5.316  0.5192  0.2055  0.2264
 2592SOL    HW119412   1.560   2.332   5.346 -0.1117  0.5894 -1.5980
 2592SOL    HW219413   1.610   2.217   5.405  0.7958  1.6757  0.6965
 2593SOL     OW19414   1.210   2.915   2.680  0.0151 -0.3916 -0.1161
 2593SOL    HW119415   1.258   2.957   2.752  0.1712  0.2082 -0.5801
 2593SOL    HW219416   1.217   2.823   2.705 -0.0567  0.1575  1.9239
 2594SOL     OW19417   3.390   2.124   8.259 -0.3410 -0.3995 -0.2931
 2594SOL    HW119418   3.326   2.086   8.320 -0.0647 -2.3536 -1.2475
 2594SOL    HW219419   3.335   2.142   8.183 -1.8131  1.1248  1.1267
 2595SOL     OW19420   2.388   3.954   5.397 -0.2775  0.3651 -0.3904
 2595SOL    HW119421   2.356   3.968   5.486  0.6227 -0.0541  0.0076
 2595SOL    HW219422   2.420   3.864   5.401 -1.3813  0.0753  1.7765
 2596SOL     OW19423   3.648   3.020  15.991  0.3561  0.6813 -0.5593
 2596SOL    HW119424   3.701   3.075  15.933 -0.4082  2.7292  0.6798
 2596SOL    HW219425   3.721   3.002  16.051 -0.5078  0.0087  0.2926
 2597SOL     OW19426   1.612   0.921  17.046 -0.3124  0.1245 -0.1911
 2597SOL    HW119427   1.622   0.872  17.128 -1.5110 -0.3014 -0.2891
 2597SOL    HW219428   1.567   0.997  17.085  1.1099  1.6120 -1.4838
 2598SOL     OW19429   0.925   2.120   9.036 -0.8006  0.2124  0.1670
 2598SOL    HW119430   0.927   2.213   9.014 -0.8470 -0.5687 -3.1133
 2598SOL    HW219431   0.906   2.129   9.130 -1.2550 -0.9230  0.1902
 2599SOL     OW19432   1.838   1.633   4.135 -0.0865 -0.0753  0.3693
 2599SOL    HW119433   1.811   1.719   4.104 -0.2209 -0.4791 -0.6293
 2599SOL    HW219434   1.768   1.584   4.093 -0.3645  0.2149  0.4970
 2600SOL     OW19435   4.061   0.986  15.528 -0.0531  0.3007 -0.2491
 2600SOL    HW119436   4.030   1.002  15.617  0.1375 -0.4977 -0.0406
 2600SOL    HW219437   4.057   1.072  15.488  0.3676 -0.7143 -2.4728
 2601SOL     OW19438   2.290   0.438   2.412 -0.0258  0.5243  0.2620
 2601SOL    HW119439   2.311   0.352   2.448 -0.5966 -0.5129 -1.8638
 2601SOL    HW219440   2.226   0.475   2.472  0.3037  0.4233  0.6748
 2602SOL     OW19441   2.781   1.488   3.014 -0.3565  0.1882 -0.5462
 2602SOL    HW119442   2.713   1.555   3.019 -0.3165  0.1707  0.2869
 2602SOL    HW219443   2.731   1.408   2.996 -0.4337  0.5259 -1.8178
 2603SOL     OW19444   2.076   4.019   1.471  0.6452 -0.3318  0.3310
 2603SOL    HW119445   2.161   4.061   1.457  0.7403  0.0227  1.9779
 2603SOL    HW219446   2.058   4.073   1.548 -2.3844 -0.7076 -0.1110
 2604SOL     OW19447   4.227   3.376   5.284 -0.3062 -0.0716 -0.1505
 2604SOL    HW119448   4.276   3.295   5.295  1.4612  1.2868  1.7745
 2604SOL    HW219449   4.252   3.397   5.194  1.9239  0.6304  0.6445
 2605SOL     OW19450   4.740   3.454   0.822 -0.2461 -0.5446 -0.4172
 2605SOL    HW119451   0.063   3.383   0.805 -0.0337 -0.5614  0.4372
 2605SOL    HW219452   4.682   3.458   0.746 -0.4380  5.1645  0.0341
 2606SOL     OW19453   3.235   3.075  10.608  0.2924 -0.7084 -0.5218
 2606SOL    HW119454   3.195   3.144  10.660 -0.7251  0.5011 -2.9162
 2606SOL    HW219455   3.222   3.114  10.522  0.6615 -1.1610 -0.7866
 2607SOL     OW19456   2.449   2.170   4.322 -0.0380 -0.2264 -0.3658
 2607SOL    HW119457   2.461   2.108   4.250 -2.6725 -2.0472  0.7784
 2607SOL    HW219458   2.458   2.251   4.273 -2.8842  0.4586  0.2158
 2608SOL     OW19459   1.796   1.597   3.507  0.5213 -0.2885  0.1620
 2608SOL    HW119460   1.852   1.605   3.584 -0.8129  4.5838  0.6074
 2608SOL    HW219461   1.831   1.532   3.447 -0.7662 -0.8951  0.0729
 2609SOL     OW19462   1.489   3.048   3.743  0.2043  0.4002 -1.0248
 2609SOL    HW119463   1.460   3.134   3.713 -0.4568  0.6350  0.3083
 2609SOL    HW219464   1.561   3.033   3.682  1.1974 -0.5277  0.3779
 2610SOL     OW19465   2.602   0.187  12.619 -0.6673  0.5664 -0.2251
 2610SOL    HW119466   2.613   0.137  12.538 -0.6228  0.4103 -0.1219
 2610SOL    HW219467   2.675   0.248  12.606 -2.8957  3.5464  1.2869
 2611SOL     OW19468   0.982   4.282   9.334  0.4316  0.3807 -0.1507
 2611SOL    HW119469   0.937   4.367   9.339  0.5332  0.4026  0.4161
 2611SOL    HW219470   0.941   4.245   9.412 -0.5154 -2.9303 -2.2255
 2612SOL     OW19471   2.745   1.302   2.647 -0.1499  0.3346 -0.1414
 2612SOL    HW119472   2.816   1.338   2.593  0.2296  1.2298  0.9489
 2612SOL    HW219473   2.795   1.262   2.718 -2.9718 -2.4444  0.2966
 2613SOL     OW19474   4.083   0.729   7.922 -0.1657  0.3874  0.1171
 2613SOL    HW119475   4.033   0.747   8.002  1.2340 -0.5188  1.2089
 2613SOL    HW219476   4.066   0.634   7.920 -1.4146  0.4619  5.3169
 2614SOL     OW19477   4.480   0.630   5.573 -0.1753 -0.0324 -0.0679
 2614SOL    HW119478   4.528   0.603   5.651  1.1421 -0.1658 -0.9339
 2614SOL    HW219479   4.464   0.724   5.582  0.4144 -0.1504  2.1531
 2615SOL     OW19480   0.870   1.365   4.566 -0.3730  0.2784 -0.1797
 2615SOL    HW119481   0.775   1.355   4.556 -0.5566  2.3733 -0.5177
 2615SOL    HW219482   0.886   1.315   4.646 -1.9593 -0.8279 -0.5602
 2616SOL     OW19483   4.406   3.578  10.375 -0.6258  0.0972  0.0595
 2616SOL    HW119484   4.462   3.517  10.423 -1.0303  0.6115  1.1944
 2616SOL    HW219485   4.468   3.638  10.334  2.1070 -3.6422 -1.2637
 2617SOL     OW19486   3.958   3.905   6.490 -0.7470 -0.1097 -0.2109
 2617SOL    HW119487   3.894   3.969   6.523  3.2785  2.6837  2.2068
 2617SOL    HW219488   3.938   3.828   6.544  1.1162 -1.1380 -0.9759
 2618SOL     OW19489   1.942   3.465   8.249  0.0042  1.0980  0.5642
 2618SOL    HW119490   1.867   3.523   8.237 -0.4732  0.2169 -0.6988
 2618SOL    HW219491   1.972   3.454   8.159  1.0026  1.4701  0.8569
 2619SOL     OW19492   1.849   3.253   4.866  0.2590  0.3630  0.2213
 2619SOL    HW119493   1.817   3.174   4.909 -0.8247  1.0578  0.6727
 2619SOL    HW219494   1.909   3.290   4.932 -0.0164  2.2325 -0.5868
 2620SOL     OW19495   1.377   2.790   3.011  0.5467  0.4447  0.2767
 2620SOL    HW119496   1.349   2.770   3.100  1.1568  1.2923  0.6599
 2620SOL    HW219497   1.454   2.842   3.033 -0.3698  2.6372 -1.5857
 2621SOL     OW19498   2.268   1.459   2.526 -0.4540 -0.6740 -0.4883
 2621SOL    HW119499   2.247   1.512   2.603  0.8021  0.7052 -1.1046
 2621SOL    HW219500   2.328   1.518   2.480 -0.1770 -0.2149  0.4644
 2622SOL     OW19501   1.495   2.282  12.150  0.1466  0.3066 -0.0340
 2622SOL    HW119502   1.588   2.257  12.154 -0.5101 -1.9521  0.6603
 2622SOL    HW219503   1.499   2.364  12.099 -0.4847  0.2954 -0.1032
 2623SOL     OW19504   3.969   2.972  16.235 -0.1362  0.3005  0.8644
 2623SOL    HW119505   4.054   2.935  16.211  0.1616  0.2273  2.0624
 2623SOL    HW219506   3.983   3.062  16.207 -1.0799 -0.0751 -0.8126
 2624SOL     OW19507   0.025   4.387   5.908 -0.0809  0.4346 -0.6440
 2624SOL    HW119508   0.027   4.316   5.972  1.3659  2.2857  1.3472
 2624SOL    HW219509   0.102   4.370   5.854  1.1298 -0.7274  1.4650
 2625SOL     OW19510   2.246   1.675   7.828 -0.6932  0.4695 -0.2679
 2625SOL    HW119511   2.284   1.761   7.842  1.0544 -0.2278 -0.6558
 2625SOL    HW219512   2.168   1.680   7.884  0.9645 -0.0602  2.1291
 2626SOL     OW19513   3.853   4.581   5.883 -0.1643  0.2709 -0.0085
 2626SOL    HW119514   3.866   4.661   5.934  0.5918 -1.0040  1.8255
 2626SOL    HW219515   3.930   4.530   5.907  1.0584  1.5903 -1.1358
 2627SOL     OW19516   1.563   3.684   4.359  0.3624 -0.2190  0.1215
 2627SOL    HW119517   1.514   3.623   4.304 -1.2446  2.3368 -1.2786
 2627SOL    HW219518   1.490   3.734   4.395 -1.2234 -3.3847  1.2271
 2628SOL     OW19519   2.867   0.289  11.828  0.0942 -0.2099  0.6210
 2628SOL    HW119520   2.910   0.225  11.885  0.7130  0.7231  1.2111
 2628SOL    HW219521   2.844   0.240  11.749  0.7590  1.2592 -0.4990
 2629SOL     OW19522   0.239   4.392  12.918  0.1705 -0.1913 -0.3306
 2629SOL    HW119523   0.181   4.465  12.940 -1.7378 -0.8754 -3.0427
 2629SOL    HW219524   0.279   4.386  13.005 -0.5322 -3.3642 -0.2198
 2630SOL     OW19525   0.886   1.934   5.856  0.2915 -0.2803 -0.0248
 2630SOL    HW119526   0.824   1.966   5.791  0.2600  1.1174  0.6992
 2630SOL    HW219527   0.943   1.886   5.797 -1.5543 -1.7402 -0.6428
 2631SOL     OW19528   1.838   0.881   2.027  0.4002  0.0824  0.0352
 2631SOL    HW119529   1.782   0.823   1.975 -0.1076 -0.0578  0.7550
 2631SOL    HW219530   1.896   0.809   2.054  0.9879  0.7462  0.5211
 2632SOL     OW19531   3.137   3.166   3.953  0.2736 -0.9342  0.1468
 2632SOL    HW119532   3.198   3.211   3.894 -0.5957  0.5240  0.3683
 2632SOL    HW219533   3.054   3.170   3.905  0.8596 -2.4340 -0.9830
 2633SOL     OW19534   0.381   0.151  12.793  0.5339 -0.0947 -0.5870
 2633SOL    HW119535   0.422   0.064  12.788  0.8604 -0.0020  0.3528
 2633SOL    HW219536   0.303   0.122  12.747  0.8092 -1.6433 -0.0833
 2634SOL     OW19537   2.355   0.264   4.813  0.0989 -0.5458  1.2834
 2634SOL    HW119538   2.332   0.302   4.728 -0.4335  0.3882  1.8463
 2634SOL    HW219539   2.379   0.341   4.864  0.1766 -0.1445  0.6449
 2635SOL     OW19540   1.533   3.673   9.436  0.3783  0.0363  0.5764
 2635SOL    HW119541   1.535   3.587   9.393 -1.4576  1.1936 -1.8029
 2635SOL    HW219542   1.573   3.730   9.370  2.4025 -0.4554  1.3933
 2636SOL     OW19543   3.585   4.411  17.715 -0.0715 -0.5629  0.5666
 2636SOL    HW119544   3.498   4.371  17.709 -0.6060  0.6335  0.3221
 2636SOL    HW219545   3.572   4.456   0.041 -1.6034  2.0156 -1.0683
 2637SOL     OW19546   0.390   1.267   6.958 -0.2619 -0.0119 -0.2477
 2637SOL    HW119547   0.429   1.194   7.006 -1.8903 -0.3763  0.5374
 2637SOL    HW219548   0.465   1.325   6.945  1.1468 -1.8621 -0.4436
 2638SOL     OW19549   3.875   3.845   3.863 -0.7912 -0.2097 -0.1240
 2638SOL    HW119550   3.874   3.751   3.844 -0.9961  0.2731 -2.4759
 2638SOL    HW219551   3.953   3.847   3.919 -0.5560 -1.9773 -0.3647
 2639SOL     OW19552   4.103   2.197   3.739  0.5791 -0.8050  0.0885
 2639SOL    HW119553   4.016   2.236   3.744  0.7116 -0.2600 -1.9861
 2639SOL    HW219554   4.138   2.240   3.817  1.3808 -1.4173  0.0651
 2640SOL     OW19555   4.420   4.162   1.601  0.0450  0.9461 -0.1011
 2640SOL    HW119556   4.372   4.189   1.523 -1.0154 -0.2395  0.1468
 2640SOL    HW219557   4.416   4.238   1.659 -2.7999 -1.3024  2.6533
 2641SOL     OW19558   2.107   0.229   3.696 -0.0725 -0.6139 -0.1261
 2641SOL    HW119559   2.120   0.205   3.604 -0.4534 -1.8301  0.1360
 2641SOL    HW219560   2.169   0.164   3.729  0.8104  1.1173  1.6652
 2642SOL     OW19561   2.049   0.904   0.261 -0.1640  0.2696 -0.0359
 2642SOL    HW119562   2.047   0.892   0.166  0.7115  0.2764 -0.0537
 2642SOL    HW219563   2.142   0.882   0.273  0.7418  3.2862 -1.6197
 2643SOL     OW19564   4.550   2.162   4.113 -0.0195 -0.1596  0.7050
 2643SOL    HW119565   4.548   2.171   4.208  1.5123  1.2101  0.5977
 2643SOL    HW219566   4.540   2.253   4.087 -0.9900 -0.5454 -0.2951
 2644SOL     OW19567   0.486   2.197   6.120 -0.2639 -0.0536 -0.2966
 2644SOL    HW119568   0.411   2.210   6.063  1.0261  1.2806 -1.6733
 2644SOL    HW219569   0.455   2.248   6.195  0.5755  2.0553 -1.3941
 2645SOL     OW19570   1.248   3.572   8.393  1.0654 -0.0847 -1.2533
 2645SOL    HW119571   1.158   3.571   8.425  1.1786  1.5065 -0.8984
 2645SOL    HW219572   1.270   3.665   8.401  1.6521 -0.1582 -2.0109
 2646SOL     OW19573   0.222   4.260   4.451 -0.2163  0.2967 -0.0442
 2646SOL    HW119574   0.254   4.286   4.537 -0.6301 -1.3406  0.6084
 2646SOL    HW219575   0.274   4.319   4.397  0.0142  0.5517  0.4585
 2647SOL     OW19576   1.713   0.855   1.659 -0.3875 -0.0764  0.6977
 2647SOL    HW119577   1.688   0.840   1.568  1.2567 -0.2774  0.2913
 2647SOL    HW219578   1.709   0.950   1.663  0.5536  0.0005 -0.2159
 2648SOL     OW19579   0.424   2.747   7.032 -0.1789 -1.1219 -0.4927
 2648SOL    HW119580   0.473   2.672   6.998 -1.9850 -2.7470  0.4208
 2648SOL    HW219581   0.333   2.721   7.017 -1.5424  2.3291  1.9940
 2649SOL     OW19582   1.167   3.054   1.721  0.1685  0.4296 -0.5863
 2649SOL    HW119583   1.111   3.121   1.681  0.5018  0.9481 -0.1854
 2649SOL    HW219584   1.179   2.984   1.657  0.0484 -1.5630  1.5819
 2650SOL     OW19585   1.815   1.175   2.430  0.2024 -0.6525 -0.3556
 2650SOL    HW119586   1.837   1.087   2.461 -0.3307 -0.6949 -0.0931
 2650SOL    HW219587   1.874   1.226   2.485 -0.3055 -1.5398  1.0095
 2651SOL     OW19588   2.548   2.770   1.647 -0.3134 -0.3187 -0.0276
 2651SOL    HW119589   2.573   2.725   1.566  1.0158  0.5570 -0.1206
 2651SOL    HW219590   2.599   2.725   1.714  1.0676  0.8426 -0.2858
 2652SOL     OW19591   4.312   0.711   4.249  0.4978 -0.1385 -0.1757
 2652SOL    HW119592   4.320   0.641   4.313 -0.5342  0.3796  0.5146
 2652SOL    HW219593   4.405   0.725   4.229  0.1527  2.0876 -0.2104
 2653SOL     OW19594   3.704   1.589  17.754  0.1785  0.2670 -0.3499
 2653SOL    HW119595   3.631   1.616   0.052  0.4096  0.3735 -0.0981
 2653SOL    HW219596   3.686   1.495  17.754 -2.0494  0.7086  1.1066
 2654SOL     OW19597   3.112   4.459   8.755 -0.8902 -0.1915  0.6977
 2654SOL    HW119598   3.044   4.501   8.702  1.2086  0.3788 -1.5681
 2654SOL    HW219599   3.054   4.413   8.815 -0.6974  0.6546  1.5448
 2655SOL     OW19600   3.787   3.611  16.698 -0.5406  0.4349 -0.2661
 2655SOL    HW119601   3.812   3.630  16.607 -0.8344  0.3388 -0.3685
 2655SOL    HW219602   3.721   3.675  16.727  0.7071  0.8357  1.6462
 2656SOL     OW19603   4.693   1.315   5.534 -0.1454  0.4511 -0.8859
 2656SOL    HW119604   4.684   1.297   5.628 -0.8428 -0.0046 -1.0361
 2656SOL    HW219605   0.043   1.347   5.531  0.4360 -1.0526  0.2079
 2657SOL     OW19606   4.563   1.123   5.255 -0.3965 -0.2597  0.3299
 2657SOL    HW119607   4.609   1.125   5.339  0.7804  1.1285 -0.3470
 2657SOL    HW219608   4.492   1.183   5.278 -0.2063 -0.0088  0.2596
 2658SOL     OW19609   3.372   4.364   7.217  0.0546  0.2212 -0.0633
 2658SOL    HW119610   3.436   4.347   7.287 -0.3601  0.4970  0.3889
 2658SOL    HW219611   3.290   4.373   7.265 -0.1068 -0.7963 -0.1503
 2659SOL     OW19612   0.455   1.107  12.213  0.5216 -0.3189 -0.1723
 2659SOL    HW119613   0.398   1.065  12.149  1.1008 -2.8304  0.9472
 2659SOL    HW219614   0.478   1.027  12.261 -0.1387  0.7706  1.9884
 2660SOL     OW19615   0.748   2.356   7.498  0.1881  0.0054  0.7101
 2660SOL    HW119616   0.796   2.331   7.577  2.0099  1.9281  0.1954
 2660SOL    HW219617   0.692   2.423   7.537  1.5341  0.7597  1.3457
 2661SOL     OW19618   3.657   0.789   2.721  0.0452 -0.1663  0.3731
 2661SOL    HW119619   3.707   0.801   2.639 -1.8654  1.0787 -0.6024
 2661SOL    HW219620   3.724   0.742   2.771  0.2809 -0.7164 -0.4522
 2662SOL     OW19621   1.735   3.962  11.088 -0.4664  0.0625  0.3077
 2662SOL    HW119622   1.647   3.927  11.104  0.5014 -0.8102  3.7149
 2662SOL    HW219623   1.751   3.921  11.003 -1.4690  1.7713 -0.7172
 2663SOL     OW19624   4.161   2.698  11.757  0.4843 -0.4491  0.2052
 2663SOL    HW119625   4.142   2.735  11.670 -1.4981 -2.0836 -0.0540
 2663SOL    HW219626   4.100   2.626  11.772 -0.0440 -0.0121  0.1645
 2664SOL     OW19627   1.901   0.635   2.325  0.3782 -0.2562  0.2616
 2664SOL    HW119628   1.814   0.649   2.361  0.7798  3.0388 -0.0506
 2664SOL    HW219629   1.958   0.631   2.402  1.4196  1.0664 -0.4325
 2665SOL     OW19630   0.491   3.356   5.162  0.6666 -0.6473  0.6449
 2665SOL    HW119631   0.444   3.317   5.236  0.9477 -0.3798  0.9655
 2665SOL    HW219632   0.443   3.314   5.090 -2.5700  0.5855  2.0919
 2666SOL     OW19633   3.919   0.298  12.504 -0.5832 -0.1747  0.2012
 2666SOL    HW119634   4.007   0.333  12.522 -1.0416  0.1029  1.8425
 2666SOL    HW219635   3.912   0.289  12.408 -1.0825 -0.4042  0.2636
 2667SOL     OW19636   3.183   3.269  11.156 -0.3821  0.2889  0.8773
 2667SOL    HW119637   3.093   3.252  11.183 -0.7235  0.7316 -0.0099
 2667SOL    HW219638   3.181   3.216  11.077  0.7448  1.7661 -0.1357
 2668SOL     OW19639   2.634   3.395   5.314 -0.8662 -0.5181  0.3837
 2668SOL    HW119640   2.563   3.458   5.303  0.6805  1.4003  1.3970
 2668SOL    HW219641   2.656   3.423   5.403 -0.6624 -1.9328  0.7881
 2669SOL     OW19642   4.122   3.748   0.432 -0.6704  0.1212 -0.8525
 2669SOL    HW119643   4.123   3.769   0.339 -0.5102 -0.7587 -1.0480
 2669SOL    HW219644   4.067   3.669   0.439 -0.5539  0.1881  1.0314
 2670SOL     OW19645   3.874   2.924   4.932  0.0704 -0.1965  0.0809
 2670SOL    HW119646   3.922   2.945   5.011 -0.9673 -0.8522  0.8924
 2670SOL    HW219647   3.947   2.913   4.872  0.0347 -0.4438  0.0821
 2671SOL     OW19648   0.544   1.306   1.415 -0.2071 -0.3890  0.3102
 2671SOL    HW119649   0.554   1.251   1.338 -1.1878 -1.2256  0.7723
 2671SOL    HW219650   0.631   1.307   1.455 -0.3625  1.6655  0.5831
 2672SOL     OW19651   2.674   1.878   3.932  0.3129 -0.2253  0.9784
 2672SOL    HW119652   2.713   1.791   3.932 -4.3851 -2.3507  0.9778
 2672SOL    HW219653   2.629   1.863   3.849  1.7166  2.1143 -0.1962
 2673SOL     OW19654   4.113   4.262   7.434 -0.0370  0.9148  0.3106
 2673SOL    HW119655   4.157   4.270   7.519 -0.7284  0.3942  0.7238
 2673SOL    HW219656   4.173   4.217   7.374  1.7039 -0.8645  3.3742
 2674SOL     OW19657   4.603   2.001   3.337 -0.6260  0.2029  0.3559
 2674SOL    HW119658   4.619   2.071   3.274 -0.6319  0.5147  0.7015
 2674SOL    HW219659   4.564   1.935   3.280  0.9036 -0.0094 -0.4273
 2675SOL     OW19660   1.866   4.414  17.009  0.6217 -0.1287  0.1399
 2675SOL    HW119661   1.826   4.498  17.030 -1.3961 -0.7955 -0.9829
 2675SOL    HW219662   1.839   4.367  17.087  0.0138 -0.0526 -0.0274
 2676SOL     OW19663   3.832   3.637   9.865 -0.5732  0.4376  0.2552
 2676SOL    HW119664   3.780   3.688   9.927  0.8010 -0.8167  2.4461
 2676SOL    HW219665   3.776   3.612   9.792 -0.2424 -0.4893  0.3188
 2677SOL     OW19666   1.496   3.212   8.074  0.1850  0.2109  0.0690
 2677SOL    HW119667   1.418   3.262   8.098 -0.7789 -1.0940 -0.3220
 2677SOL    HW219668   1.486   3.165   7.990 -0.2919 -0.7447  0.6602
 2678SOL     OW19669   0.581   3.332   6.452  0.1978  0.4101 -0.3519
 2678SOL    HW119670   0.589   3.354   6.359  2.2735  0.7027 -0.0982
 2678SOL    HW219671   0.490   3.302   6.458  0.0578  0.8583 -0.1998
 2679SOL     OW19672   3.184   0.099  11.506  0.1773  0.1324  0.2462
 2679SOL    HW119673   3.096   0.065  11.490 -0.8748  1.3109  3.4192
 2679SOL    HW219674   3.232   0.016  11.500 -0.6932 -0.5530  2.5757
 2680SOL     OW19675   0.204   3.566   8.936  0.6820  0.5999 -0.2924
 2680SOL    HW119676   0.137   3.572   8.868 -0.3584  1.8007  0.8468
 2680SOL    HW219677   0.289   3.576   8.894  1.7869 -0.1094  1.7791
 2681SOL     OW19678   0.944   2.054   4.499 -0.6770 -0.2763  0.3263
 2681SOL    HW119679   0.937   2.104   4.580 -0.8704  1.0728 -0.5323
 2681SOL    HW219680   0.929   2.124   4.436 -0.2068 -0.3031  0.1840
 2682SOL     OW19681   0.609   4.282   3.288  0.3080  0.3115  0.1516
 2682SOL    HW119682   0.662   4.212   3.251  1.6863  0.4840  1.7727
 2682SOL    HW219683   0.627   4.349   3.221  0.3904  0.8637  0.7222
 2683SOL     OW19684   3.116   1.441   6.768  0.1241 -0.6662 -0.3006
 2683SOL    HW119685   3.073   1.401   6.843  0.1684 -1.4395 -0.6873
 2683SOL    HW219686   3.163   1.369   6.727  0.7078  0.8093 -2.2065
 2684SOL     OW19687   1.468   0.639  14.550 -0.1233 -0.5833  0.9132
 2684SOL    HW119688   1.515   0.723  14.555 -0.8623 -0.0211 -1.2082
 2684SOL    HW219689   1.397   0.664  14.490 -2.5296  1.2332  4.5717
 2685SOL     OW19690   4.123   3.890   8.682 -0.6718  0.2470 -0.1086
 2685SOL    HW119691   4.036   3.918   8.653 -0.5439  0.9940  0.2159
 2685SOL    HW219692   4.121   3.905   8.777 -0.0215  0.9774 -0.2081
 2686SOL     OW19693   3.539   1.734   5.678 -0.3011 -0.3963  0.0608
 2686SOL    HW119694   3.544   1.753   5.772  1.5187  3.3568 -0.7696
 2686SOL    HW219695   3.449   1.762   5.659  0.1741  1.0434 -0.0613
 2687SOL     OW19696   0.079   1.774   3.411 -0.5921  0.6980 -0.0725
 2687SOL    HW119697   0.008   1.783   3.475  1.2683 -3.8259  2.5708
 2687SOL    HW219698   0.131   1.704   3.451  2.2147  2.1932 -1.0885
 2688SOL     OW19699   1.028   0.775  11.837 -0.2621 -0.1098  0.5686
 2688SOL    HW119700   0.999   0.684  11.829  0.1341 -0.2086  0.2355
 2688SOL    HW219701   0.967   0.822  11.779  1.3328  1.1798 -0.0468
 2689SOL     OW19702   3.652   0.664   5.383  0.6019 -0.1517 -0.1753
 2689SOL    HW119703   3.668   0.602   5.454 -1.0653  1.8591  1.9793
 2689SOL    HW219704   3.725   0.721   5.410  0.6315 -0.5009  0.4718
 2690SOL     OW19705   1.545   3.346   5.581  0.1050  0.0262 -1.0524
 2690SOL    HW119706   1.473   3.390   5.626 -0.0407 -0.9569 -0.3102
 2690SOL    HW219707   1.591   3.425   5.551 -0.3307 -0.2094 -2.3329
 2691SOL     OW19708   0.317   1.630   6.879  0.8670 -0.1980  0.2318
 2691SOL    HW119709   0.272   1.694   6.824  1.7309  0.4482  0.2765
 2691SOL    HW219710   0.347   1.560   6.821 -2.5395 -1.7608  0.3559
 2692SOL     OW19711   0.269   2.135   1.900 -0.1847 -0.0268  0.1992
 2692SOL    HW119712   0.265   2.220   1.855 -0.4082 -1.4465 -2.4296
 2692SOL    HW219713   0.209   2.089   1.841 -1.5376  1.8652  0.0877
 2693SOL     OW19714   3.152   2.114   7.491 -0.2477  0.0871 -0.0993
 2693SOL    HW119715   3.228   2.116   7.433 -0.3205  2.0350 -0.1135
 2693SOL    HW219716   3.149   2.205   7.520 -1.5818 -0.2493  0.8404
 2694SOL     OW19717   1.020   1.015   9.313  0.2187 -0.0643 -0.0790
 2694SOL    HW119718   0.939   1.066   9.307  0.5592  0.5793  0.6939
 2694SOL    HW219719   1.068   1.049   9.238  0.5412 -1.7906 -0.6696
 2695SOL     OW19720   0.684   1.604   7.743  0.1338  0.3955  0.0422
 2695SOL    HW119721   0.690   1.554   7.662  1.8728  0.2514  0.2545
 2695SOL    HW219722   0.654   1.683   7.697 -2.8218 -0.6785  0.0931
 2696SOL     OW19723   0.250   0.438   7.047 -0.1194 -0.2336 -0.0078
 2696SOL    HW119724   0.292   0.520   7.021  0.3301 -0.0791  1.2075
 2696SOL    HW219725   0.227   0.395   6.965 -1.4305 -0.9699  0.7360
 2697SOL     OW19726   1.849   3.897   1.305  0.3158 -0.1460  0.1802
 2697SOL    HW119727   1.905   3.932   1.374 -0.7396  2.2933 -0.1754
 2697SOL    HW219728   1.893   3.814   1.286 -0.1989 -0.5661  0.8170
 2698SOL     OW19729   2.793   2.271   5.564  1.0081 -0.4023 -0.3492
 2698SOL    HW119730   2.814   2.319   5.644 -1.8330 -1.4017  0.9989
 2698SOL    HW219731   2.698   2.262   5.577  1.2414 -2.2648  0.0514
 2699SOL     OW19732   2.250   3.620   8.139 -0.1248  0.0308 -0.3317
 2699SOL    HW119733   2.239   3.583   8.052 -1.2149  1.3361 -0.7549
 2699SOL    HW219734   2.336   3.656   8.117  0.2890  0.6969  2.2783
 2700SOL     OW19735   1.075   1.912   1.679 -0.1323  0.1485 -0.0261
 2700SOL    HW119736   1.090   1.909   1.774 -1.6512  0.4416  0.2377
 2700SOL    HW219737   1.163   1.916   1.643  0.7854  1.6872  2.3760
 2701SOL     OW19738   2.857   2.427   8.616  0.6820  0.4467 -0.3828
 2701SOL    HW119739   2.865   2.519   8.593 -0.8490  0.7352  0.2331
 2701SOL    HW219740   2.944   2.407   8.649 -0.0461  1.6664  2.2474
 2702SOL     OW19741   1.509   3.272  13.530  0.8305  0.3000 -0.1660
 2702SOL    HW119742   1.567   3.205  13.566 -2.0992 -2.2487 -0.1430
 2702SOL    HW219743   1.560   3.331  13.475  2.1793 -0.9258 -0.2180
 2703SOL     OW19744   1.419   4.591  15.050 -0.3538  0.5573  0.3352
 2703SOL    HW119745   1.510   4.579  15.022 -1.2264  1.0226 -2.6577
 2703SOL    HW219746   1.385   4.624  14.967  0.6629  1.0772  0.1261
 2704SOL     OW19747   4.426   1.270  14.785  0.2232  0.5780  0.5624
 2704SOL    HW119748   4.513   1.245  14.754 -1.8910 -1.4275 -3.7354
 2704SOL    HW219749   4.373   1.246  14.709  0.5604 -0.7205  0.7362
 2705SOL     OW19750   3.356   3.784   5.608  0.1984  0.3664  0.0841
 2705SOL    HW119751   3.333   3.794   5.700  1.1380  3.2251 -0.0169
 2705SOL    HW219752   3.380   3.872   5.581 -1.2469  0.5315 -0.6904
 2706SOL     OW19753   2.464   2.509  10.576  0.2411  0.0654 -0.1407
 2706SOL    HW119754   2.459   2.517  10.481  3.2615 -4.3093 -0.6733
 2706SOL    HW219755   2.545   2.458  10.585 -0.2844 -0.6523  0.4917
 2707SOL     OW19756   2.619   3.644   2.431  0.4835  0.6184  0.2096
 2707SOL    HW119757   2.546   3.585   2.413  0.8295  0.6136 -1.1733
 2707SOL    HW219758   2.617   3.620   2.524  0.1043  0.9216  0.2799
 2708SOL     OW19759   2.477   1.068  17.153 -0.3445  0.4275 -0.2346
 2708SOL    HW119760   2.408   1.108  17.100  0.5887  0.7219 -1.2277
 2708SOL    HW219761   2.542   1.138  17.157  0.8117 -0.5880 -0.9844
 2709SOL     OW19762   3.975   1.553   6.014 -0.3059  0.0980 -0.9722
 2709SOL    HW119763   3.944   1.515   5.932 -1.4461  1.1254 -1.0306
 2709SOL    HW219764   3.931   1.491   6.073 -2.0264  0.2437 -2.1224
 2710SOL     OW19765   2.529   0.354  10.757  0.1998 -0.9949  0.1490
 2710SOL    HW119766   2.507   0.400  10.676  1.7679  0.1569  0.3687
 2710SOL    HW219767   2.624   0.355  10.750  0.0163 -0.3678 -2.1162
 2711SOL     OW19768   2.861   2.370   5.784 -0.4959 -0.1914  0.7164
 2711SOL    HW119769   2.923   2.424   5.834  0.1502 -0.6347  0.3928
 2711SOL    HW219770   2.822   2.316   5.853 -0.5213 -0.0144  0.8417
 2712SOL     OW19771   1.929   1.340  17.726  0.1019 -0.1453 -0.2541
 2712SOL    HW119772   1.860   1.395   0.007  0.9108  0.6075  0.1067
 2712SOL    HW219773   1.882   1.261  17.751  2.5298 -1.6350 -0.4404
 2713SOL     OW19774   2.185   2.898   8.360 -0.5946 -0.3894 -0.3771
 2713SOL    HW119775   2.251   2.838   8.328 -0.6315 -0.3139 -0.5945
 2713SOL    HW219776   2.129   2.838   8.408  2.3516 -2.5452  0.3364
 2714SOL     OW19777   1.045   0.582   1.115 -0.0514 -0.4200  0.2334
 2714SOL    HW119778   0.958   0.622   1.110 -0.2672 -0.9761 -0.4473
 2714SOL    HW219779   1.012   0.501   1.155  0.0659 -1.6823 -2.2486
 2715SOL     OW19780   2.385   0.559  14.139 -0.0163  0.0748  0.5915
 2715SOL    HW119781   2.302   0.574  14.185 -0.3965  0.8672 -0.3668
 2715SOL    HW219782   2.378   0.633  14.078  1.9581 -0.6137 -0.4487
 2716SOL     OW19783   0.328   2.435   4.015 -0.0736 -0.0116  0.2324
 2716SOL    HW119784   0.255   2.399   3.965 -0.1360 -1.3442  1.3163
 2716SOL    HW219785   0.386   2.360   4.018 -0.8156 -0.6225 -0.6997
 2717SOL     OW19786   0.260   0.068   3.320  0.6484  0.1876  0.0379
 2717SOL    HW119787   0.269   0.162   3.303 -2.7441  0.1752 -1.9197
 2717SOL    HW219788   0.239   0.071   3.413  1.8376  0.5491  0.2934
 2718SOL     OW19789   0.779   0.545   2.715 -0.6710 -0.0352  0.1429
 2718SOL    HW119790   0.866   0.581   2.698 -0.4660 -1.5130 -2.0266
 2718SOL    HW219791   0.748   0.597   2.789  0.6589 -1.1266  1.4547
 2719SOL     OW19792   0.200   4.733   2.493  0.4261  0.7285  0.0975
 2719SOL    HW119793   0.185   0.083   2.524 -2.2340  0.4447 -0.4282
 2719SOL    HW219794   0.288   0.017   2.464  0.0681  0.1538 -1.4235
 2720SOL     OW19795   1.563   0.747   3.965  0.6257 -0.1439  0.4772
 2720SOL    HW119796   1.633   0.714   3.907  3.4217  4.3414  1.3362
 2720SOL    HW219797   1.496   0.682   3.942 -0.7689  0.9680  1.4177
 2721SOL     OW19798   1.877   3.013   5.023  0.4719  0.2084 -0.4623
 2721SOL    HW119799   1.921   3.068   5.088  0.8187 -1.3152  0.5820
 2721SOL    HW219800   1.862   2.936   5.078 -1.7087 -0.0415 -1.4117
 2722SOL     OW19801   1.985   0.912  14.442 -0.3840  0.5227  0.1047
 2722SOL    HW119802   1.923   0.980  14.470  0.5497  1.0574  0.8551
 2722SOL    HW219803   1.944   0.867  14.369 -0.0605 -1.8505  1.3821
 2723SOL     OW19804   2.843   2.828   9.299 -0.1086  0.3719  0.0274
 2723SOL    HW119805   2.813   2.887   9.368  0.0714  0.3369  0.1377
 2723SOL    HW219806   2.931   2.803   9.328 -0.8213 -1.6878  0.3899
 2724SOL     OW19807   1.483   4.303  11.908  0.0207  0.4798  0.6555
 2724SOL    HW119808   1.450   4.274  11.823  3.5053  0.6919 -0.7970
 2724SOL    HW219809   1.473   4.231  11.969 -1.1690 -2.0484 -2.5138
 2725SOL     OW19810   1.877   1.142   0.927  0.0222 -0.2388  0.2325
 2725SOL    HW119811   1.785   1.126   0.906  0.0253  0.7926 -0.5358
 2725SOL    HW219812   1.874   1.179   1.016  0.4106  0.2460  0.0456
 2726SOL     OW19813   4.608   3.334   1.060  0.4613  0.7321  0.1262
 2726SOL    HW119814   4.662   3.256   1.066 -0.2725  0.1912 -0.3094
 2726SOL    HW219815   4.653   3.376   0.986  0.9523 -1.1995 -0.6608
 2727SOL     OW19816   2.818   0.345   9.463 -0.1832  0.0729  0.0291
 2727SOL    HW119817   2.859   0.287   9.398  0.0943  0.4823 -0.1626
 2727SOL    HW219818   2.797   0.423   9.412  0.1181 -1.3326 -2.2670
 2728SOL     OW19819   4.445   3.582   2.075 -0.3927  0.9736 -0.2263
 2728SOL    HW119820   4.514   3.637   2.113  0.2038 -0.0792  0.2157
 2728SOL    HW219821   4.390   3.650   2.037  0.5071  2.2390  0.7211
 2729SOL     OW19822   0.161   0.605   5.730  0.6487 -0.2931  0.3495
 2729SOL    HW119823   0.115   0.609   5.814 -1.9678 -1.1491 -1.0414
 2729SOL    HW219824   0.189   0.514   5.730 -2.1613 -1.1655  0.9003
 2730SOL     OW19825   1.393   1.606  17.104 -0.4356  0.4725  0.0861
 2730SOL    HW119826   1.355   1.520  17.124 -1.4252  0.9762  0.3680
 2730SOL    HW219827   1.336   1.674  17.140  0.0717  0.5148  0.7914
 2731SOL     OW19828   2.052   0.126   7.869  0.6735 -0.3621 -0.8278
 2731SOL    HW119829   2.013   0.119   7.956 -1.1615  1.6932 -1.4737
 2731SOL    HW219830   2.108   0.049   7.865 -0.6710 -1.4156  0.9986
 2732SOL     OW19831   2.641   1.249   7.051  0.0848  0.3089  0.3507
 2732SOL    HW119832   2.676   1.338   7.062  0.4392  0.0753  1.0621
 2732SOL    HW219833   2.630   1.225   7.143  1.2573 -0.7588  0.2077
 2733SOL     OW19834   4.007   0.311   4.434 -0.0310 -0.0620  0.1618
 2733SOL    HW119835   4.044   0.397   4.411  0.0453  0.2106  1.2968
 2733SOL    HW219836   4.046   0.303   4.521 -0.1218 -2.7870 -0.0737
 2734SOL     OW19837   2.902   4.247  11.641  0.2277  0.6396 -0.7407
 2734SOL    HW119838   2.874   4.269  11.730 -0.1334  2.0406 -1.2017
 2734SOL    HW219839   2.994   4.225  11.653 -0.0360  0.2665  0.6404
 2735SOL     OW19840   4.071   0.613   0.565  0.1200  0.1156  0.2987
 2735SOL    HW119841   4.018   0.675   0.514 -1.5472 -0.7843  0.9309
 2735SOL    HW219842   4.148   0.668   0.582 -0.5437  0.8554  0.8810
 2736SOL     OW19843   4.325   1.749   3.641 -0.2116 -0.2497 -0.4916
 2736SOL    HW119844   4.294   1.659   3.649  1.3544 -0.6052  1.4027
 2736SOL    HW219845   4.296   1.786   3.724 -0.5868  0.1059 -0.7787
 2737SOL     OW19846   3.276   2.567   9.145 -0.3948  0.3108  0.2069
 2737SOL    HW119847   3.321   2.626   9.084 -1.2511 -0.5372 -1.2374
 2737SOL    HW219848   3.279   2.484   9.097 -2.5343  1.1641 -1.3980
 2738SOL     OW19849   3.896   0.889   4.422  0.1886 -0.1449  0.0896
 2738SOL    HW119850   3.946   0.847   4.492  2.7480  2.9625  0.1123
 2738SOL    HW219851   3.965   0.921   4.363  1.2006 -1.1157  0.7501
 2739SOL     OW19852   1.780   3.658   8.150  0.5971 -0.5624  0.3646
 2739SOL    HW119853   1.801   3.748   8.123  0.8028 -1.2852 -1.9241
 2739SOL    HW219854   1.685   3.668   8.162  0.7202  1.8005 -0.6454
 2740SOL     OW19855   1.656   1.914   2.501  0.5591  0.6789  0.3534
 2740SOL    HW119856   1.570   1.888   2.533  0.4182  1.9753  1.0411
 2740SOL    HW219857   1.676   1.849   2.434  0.3077  2.5248 -1.4893
 2741SOL     OW19858   1.676   1.019  13.475  0.2105 -0.8355 -0.4443
 2741SOL    HW119859   1.756   1.000  13.525 -0.3478 -0.3587  0.6148
 2741SOL    HW219860   1.658   1.112  13.493  3.2742 -0.3540  0.2945
 2742SOL     OW19861   2.567   0.344   5.491 -0.3937 -0.0478  0.3630
 2742SOL    HW119862   2.590   0.251   5.482 -0.9277  0.0449 -1.7914
 2742SOL    HW219863   2.622   0.384   5.424 -2.3705  3.1770  0.6921
 2743SOL     OW19864   1.768   1.635  17.454 -0.0333 -0.0578 -0.0926
 2743SOL    HW119865   1.736   1.723  17.433 -0.3290 -0.0999  0.1777
 2743SOL    HW219866   1.721   1.581  17.392 -0.3429  0.3705 -0.2311
 2744SOL     OW19867   4.179   1.321   9.130 -0.2578  0.8120  0.3683
 2744SOL    HW119868   4.258   1.292   9.083 -1.0627  1.3159 -1.2944
 2744SOL    HW219869   4.210   1.367   9.208  2.8364 -0.0677 -0.3151
 2745SOL     OW19870   1.388   1.030   5.354 -0.3714  0.1750  0.1934
 2745SOL    HW119871   1.383   1.025   5.259 -0.6887 -1.4669  0.2871
 2745SOL    HW219872   1.331   0.963   5.392 -2.3801  1.4545 -0.5458
 2746SOL     OW19873   2.639   2.996   7.506  0.1466  0.5608 -0.6576
 2746SOL    HW119874   2.715   2.974   7.561 -1.9240 -0.3254  1.8510
 2746SOL    HW219875   2.658   2.955   7.422  3.1619  0.2118  0.1781
 2747SOL     OW19876   3.168   3.732  10.920 -0.0289  0.1483 -0.2784
 2747SOL    HW119877   3.213   3.729  11.004 -1.4167  0.5034  0.4697
 2747SOL    HW219878   3.086   3.772  10.946 -1.8678 -2.2780 -2.3225
 2748SOL     OW19879   2.225   0.806  11.534  0.2684 -0.3013 -0.0392
 2748SOL    HW119880   2.271   0.889  11.526  0.4614 -0.3884  0.1826
 2748SOL    HW219881   2.283   0.748  11.584  1.8467  0.7255 -0.6954
 2749SOL     OW19882   2.362   1.837  14.105 -0.7662 -0.4255 -0.3167
 2749SOL    HW119883   2.270   1.835  14.132 -0.7022 -0.0628 -0.0763
 2749SOL    HW219884   2.356   1.777  14.030 -2.4108  0.9164 -1.2697
 2750SOL     OW19885   2.916   0.951  16.032 -0.3986  0.1057 -0.4093
 2750SOL    HW119886   2.904   1.006  15.954  2.2115  1.1270 -0.0862
 2750SOL    HW219887   2.864   0.872  16.016 -0.5382  0.1486 -0.1525
 2751SOL     OW19888   2.785   2.397  17.712  0.0672 -0.0563  0.5834
 2751SOL    HW119889   2.696   2.367  17.730 -0.2965 -0.0730 -1.2172
 2751SOL    HW219890   2.842   2.349   0.014  4.0708  2.5645 -1.1507
 2752SOL     OW19891   1.780   0.482   5.788 -0.2555 -0.3282 -0.4805
 2752SOL    HW119892   1.752   0.394   5.762  1.3191 -0.9274 -0.1509
 2752SOL    HW219893   1.866   0.472   5.830 -0.7559 -3.2154 -0.1413
 2753SOL     OW19894   0.918   0.440   3.704  0.7977 -0.3990 -1.1026
 2753SOL    HW119895   0.953   0.356   3.732 -0.0693 -0.4746 -0.2352
 2753SOL    HW219896   0.830   0.413   3.678 -0.2481  0.5733  1.3636
 2754SOL     OW19897   0.103   3.243   4.990  0.1666  0.3426 -0.2277
 2754SOL    HW119898   0.030   3.304   5.004 -1.1723 -1.1622 -0.5973
 2754SOL    HW219899   0.062   3.159   4.968  0.3563  0.2757 -0.3224
 2755SOL     OW19900   1.722   4.587   4.583  0.3420  0.5328  0.4321
 2755SOL    HW119901   1.792   4.521   4.579 -0.2014 -0.0203  0.0052
 2755SOL    HW219902   1.774   4.666   4.595  1.5974 -0.3000  0.4472
 2756SOL     OW19903   1.444   1.813   2.059  0.0607  0.0547  0.0782
 2756SOL    HW119904   1.396   1.812   2.142  2.5522  2.0295  1.5371
 2756SOL    HW219905   1.427   1.905   2.038 -0.4907 -0.3752 -1.3597
 2757SOL     OW19906   2.475   0.450   4.079 -0.1465 -0.2949  0.7848
 2757SOL    HW119907   2.461   0.490   4.165 -2.4541  0.7488 -0.1112
 2757SOL    HW219908   2.398   0.394   4.066 -0.2805  0.2573 -0.7230
 2758SOL     OW19909   3.736   2.901   9.858  0.0860 -0.3788 -0.6304
 2758SOL    HW119910   3.704   2.843   9.926  1.1877  0.1915  0.3713
 2758SOL    HW219911   3.662   2.878   9.801 -1.6810  2.3607  0.5559
 2759SOL     OW19912   2.900   0.827   2.012  0.0826 -0.3075 -0.2043
 2759SOL    HW119913   2.806   0.826   2.027  0.0447 -3.1767 -0.6180
 2759SOL    HW219914   2.933   0.790   2.094 -0.1705  0.7022  0.3520
 2760SOL     OW19915   2.216   2.231   3.790 -0.5158  0.0298  0.1133
 2760SOL    HW119916   2.300   2.277   3.786 -0.1066 -0.8059 -0.8920
 2760SOL    HW219917   2.203   2.212   3.697 -0.0156  0.2484 -0.0011
 2761SOL     OW19918   0.965   2.919   3.724  0.0521  0.0834  0.1062
 2761SOL    HW119919   0.976   3.010   3.752 -1.5160 -0.4068  2.2825
 2761SOL    HW219920   0.892   2.879   3.770 -0.6294 -0.1420 -1.1736
 2762SOL     OW19921   4.040   1.973  17.150 -0.2691 -0.3505  0.3992
 2762SOL    HW119922   4.091   1.966  17.230 -1.7642  0.1808  1.3996
 2762SOL    HW219923   4.060   2.061  17.118  2.6761 -0.8736  0.8408
 2763SOL     OW19924   0.020   2.070   2.293  0.1675  0.5844  0.0577
 2763SOL    HW119925   0.109   2.090   2.322  0.5412 -0.9245 -0.0343
 2763SOL    HW219926   4.700   2.078   2.367 -1.8001 -1.7735 -1.2779
 2764SOL     OW19927   1.000   3.379  16.913  0.3917 -0.3692  0.3006
 2764SOL    HW119928   1.079   3.410  16.957 -0.1296  1.1781  0.1610
 2764SOL    HW219929   0.995   3.434  16.835 -3.2244 -2.0531 -0.6578
 2765SOL     OW19930   0.766   4.473   9.358 -0.1591  0.5781 -0.4778
 2765SOL    HW119931   0.711   4.442   9.287  1.6708 -1.1038 -1.1822
 2765SOL    HW219932   0.715   4.436   9.430  2.8483 -1.9050  0.3924
 2766SOL     OW19933   3.994   1.265  14.863 -0.1734  0.3497  0.4536
 2766SOL    HW119934   4.073   1.299  14.906 -0.8480  1.5822  0.7186
 2766SOL    HW219935   3.980   1.193  14.925  0.7559  1.1246  1.5673
 2767SOL     OW19936   3.828   0.053   3.090  0.3253  0.0724 -0.0419
 2767SOL    HW119937   3.802   0.049   2.998 -0.6725 -0.5018  0.2633
 2767SOL    HW219938   3.760   0.000   3.132  0.8454  0.3962  1.1984
 2768SOL     OW19939   2.320   2.004  15.935 -0.3810 -0.4191 -0.2591
 2768SOL    HW119940   2.328   1.955  16.017  0.7815  0.0117 -0.1147
 2768SOL    HW219941   2.397   2.059  15.953 -0.5104 -0.5457  0.6615
 2769SOL     OW19942   2.141   0.766  16.952  0.4648  0.2823 -0.0674
 2769SOL    HW119943   2.050   0.789  16.970  0.3726 -1.3262  1.5101
 2769SOL    HW219944   2.180   0.851  16.932  1.1647  0.3579  1.6052
 2770SOL     OW19945   0.861   3.549   2.462  0.4070 -0.1420 -0.2104
 2770SOL    HW119946   0.895   3.604   2.533  0.7177 -0.9043  0.2321
 2770SOL    HW219947   0.836   3.469   2.508  1.1813 -0.5258 -0.4687
 2771SOL     OW19948   4.432   0.821  10.082 -0.4515 -0.3567 -0.0601
 2771SOL    HW119949   4.384   0.827  10.164 -1.1321  0.2373 -0.4997
 2771SOL    HW219950   4.373   0.879  10.034 -0.5476  0.0342  0.5404
 2772SOL     OW19951   3.490   4.001   6.116 -0.2963 -0.3696 -0.6365
 2772SOL    HW119952   3.482   3.913   6.155  0.2035  0.3390  1.0866
 2772SOL    HW219953   3.584   4.019   6.117 -0.8143  2.2686  1.2786
 2773SOL     OW19954   2.459   0.409   0.260 -0.6550  0.3239 -0.0664
 2773SOL    HW119955   2.481   0.385   0.170 -0.1970 -2.0444  0.6757
 2773SOL    HW219956   2.387   0.470   0.245 -2.0657 -0.9732  1.3845
 2774SOL     OW19957   4.352   4.057   6.902  0.2870  0.0707  0.1581
 2774SOL    HW119958   4.275   4.002   6.920  0.0614  0.4022  0.2101
 2774SOL    HW219959   4.401   4.049   6.983 -1.2796 -0.9863  1.0159
 2775SOL     OW19960   1.754   2.876   5.995  0.6309 -0.3358 -0.1251
 2775SOL    HW119961   1.666   2.887   5.957  0.5127 -0.1498  0.2066
 2775SOL    HW219962   1.758   2.781   6.005  2.1830 -0.2806 -0.3304
 2776SOL     OW19963   1.284   0.806  10.956 -0.3155 -0.5355  0.1288
 2776SOL    HW119964   1.361   0.769  10.913  0.9017  0.3345  1.5758
 2776SOL    HW219965   1.238   0.850  10.885  0.5858  2.3721  1.3444
 2777SOL     OW19966   1.331   0.754  12.084 -0.0447  0.0195 -0.2386
 2777SOL    HW119967   1.271   0.826  12.104  1.0081  1.4736 -2.4570
 2777SOL    HW219968   1.404   0.784  12.138  0.8711 -0.1768 -1.3646
 2778SOL     OW19969   2.680   0.067   3.515 -0.0022 -0.2160 -0.2004
 2778SOL    HW119970   2.726   0.064   3.599  0.2411 -0.0539 -0.3283
 2778SOL    HW219971   2.750   0.052   3.452 -1.1949  0.5429 -1.7041
 2779SOL     OW19972   3.525   2.989   6.986  0.1673  0.4518 -0.5698
 2779SOL    HW119973   3.559   3.043   7.057  2.1257 -0.0096 -1.1503
 2779SOL    HW219974   3.510   3.062   6.925  0.0321  0.9184  0.0200
 2780SOL     OW19975   4.024   1.696  12.117  0.1249 -0.1324  0.6546
 2780SOL    HW119976   4.110   1.733  12.139  0.1154  1.0060 -1.2453
 2780SOL    HW219977   3.971   1.772  12.141  0.0591 -0.4769  1.5845
 2781SOL     OW19978   3.335   3.667  10.197 -0.0214 -0.0165  0.1428
 2781SOL    HW119979   3.302   3.598  10.139  4.2238 -0.4279 -1.7932
 2781SOL    HW219980   3.304   3.740  10.143  1.8689  0.4356 -0.3323
 2782SOL     OW19981   3.945   4.571   5.604  0.8084  1.0140  0.2862
 2782SOL    HW119982   3.881   4.551   5.535 -0.7882 -0.1059  2.0939
 2782SOL    HW219983   3.899   4.551   5.685  0.4627 -2.4755 -0.7610
 2783SOL     OW19984   4.230   0.270   7.596  0.2668  0.0839  1.0664
 2783SOL    HW119985   4.171   0.301   7.527  0.1868  1.1513  1.6124
 2783SOL    HW219986   4.271   0.355   7.613 -0.3634  0.0821  2.5617
 2784SOL     OW19987   4.247   1.137   5.165 -0.2045 -0.1845 -0.2830
 2784SOL    HW119988   4.201   1.182   5.236  1.6876 -0.3613  1.0566
 2784SOL    HW219989   4.296   1.212   5.132  0.5962 -0.4546  0.3230
 2785SOL     OW19990   0.514   3.338  13.748 -0.2542 -0.2638 -0.1170
 2785SOL    HW119991   0.490   3.250  13.779 -3.3534  0.6856  0.1745
 2785SOL    HW219992   0.480   3.327  13.660  0.7430 -1.0942 -0.4059
 2786SOL     OW19993   4.638   3.405   5.021  0.0625 -0.1311  0.1185
 2786SOL    HW119994   4.542   3.407   5.029 -0.0875 -0.3377 -1.4562
 2786SOL    HW219995   4.640   3.500   5.007 -2.1638 -0.1480 -0.4075
 2787SOL     OW19996   0.585   2.132   2.487  0.1874  0.0807 -0.2834
 2787SOL    HW119997   0.548   2.100   2.569 -1.1266  0.1759 -0.8343
 2787SOL    HW219998   0.652   2.067   2.469 -0.0075 -0.9494  2.7092
 2788SOL     OW19999   2.527   0.430   7.923 -0.1378  0.5593  0.3180
 2788SOL    HW120000   2.515   0.461   8.013 -0.1588  0.3086  0.4018
 2788SOL    HW220001   2.598   0.482   7.887  0.5723 -0.1639  0.6849
 2789SOL     OW20002   1.393   4.380   7.300  0.1405 -0.1216  0.4469
 2789SOL    HW120003   1.314   4.394   7.248  0.2095  1.3244  0.7381
 2789SOL    HW220004   1.380   4.286   7.309 -0.2674 -0.1410 -0.3567
 2790SOL     OW20005   1.564   2.771  13.613 -0.2351  0.6554 -0.0097
 2790SOL    HW120006   1.569   2.695  13.670  0.9417 -1.1670 -2.5464
 2790SOL    HW220007   1.472   2.762  13.591 -0.2574 -0.5527  0.5589
 2791SOL     OW20008   2.467   1.145   0.554 -0.1185 -0.2589 -0.1976
 2791SOL    HW120009   2.538   1.102   0.507 -0.7318 -0.2913 -1.0963
 2791SOL    HW220010   2.509   1.228   0.574  0.7180 -0.1664 -2.3866
 2792SOL     OW20011   3.811   2.139   6.333  0.5799  1.0054 -0.3978
 2792SOL    HW120012   3.868   2.172   6.263  0.9085  4.0401  1.3091
 2792SOL    HW220013   3.733   2.107   6.289  0.7815  0.5003 -0.3855
 2793SOL     OW20014   2.563   1.000   6.171 -0.2090 -0.0161 -0.9017
 2793SOL    HW120015   2.651   0.965   6.160 -0.7988 -2.3168  1.6733
 2793SOL    HW220016   2.539   0.944   6.245 -0.2378 -0.9382 -1.6089
 2794SOL     OW20017   3.491   1.326  14.722  0.0946 -0.6677 -0.1408
 2794SOL    HW120018   3.483   1.417  14.752  0.2648 -0.0036 -2.1145
 2794SOL    HW220019   3.412   1.312  14.670 -0.5807  0.2352  0.6480
 2795SOL     OW20020   4.352   3.146   1.427 -0.1884 -0.0099 -0.4618
 2795SOL    HW120021   4.393   3.221   1.384 -1.6673  2.2925  2.1856
 2795SOL    HW220022   4.436   3.107   1.453 -0.3430  0.9661  1.4603
 2796SOL     OW20023   2.662   1.486   6.494  0.6975 -0.4891 -0.1115
 2796SOL    HW120024   2.667   1.555   6.560  0.0617  0.2351 -0.8319
 2796SOL    HW220025   2.572   1.457   6.507  0.6494 -0.0103  0.6137
 2797SOL     OW20026   3.344   1.011   3.799  0.1806  0.0486  0.5266
 2797SOL    HW120027   3.368   0.946   3.864 -1.6636  0.4603  1.6233
 2797SOL    HW220028   3.293   1.076   3.848 -1.4274  0.7764 -2.1102
 2798SOL     OW20029   3.814   3.903  11.873  0.2029  0.7864 -0.6461
 2798SOL    HW120030   3.752   3.870  11.808  2.0627  0.2596 -2.1450
 2798SOL    HW220031   3.848   3.819  11.903  1.3560  1.4192 -0.2194
 2799SOL     OW20032   3.974   3.514   2.881 -0.9746  0.3255  0.1068
 2799SOL    HW120033   4.047   3.454   2.895 -1.3148  0.0196  0.5510
 2799SOL    HW220034   3.992   3.554   2.796 -2.1999 -0.5852 -0.5778
 2800SOL     OW20035   1.410   3.814   7.861  0.4106 -0.0493 -0.0133
 2800SOL    HW120036   1.410   3.909   7.872 -0.7966 -0.3615  2.7077
 2800SOL    HW220037   1.415   3.784   7.951 -0.7874  1.7999  0.6683
 2801SOL     OW20038   1.778   4.000   4.522  0.6506 -0.0671  0.4640
 2801SOL    HW120039   1.777   3.923   4.465 -2.5792  0.5471 -0.3084
 2801SOL    HW220040   1.775   4.072   4.460  0.7133 -1.4227 -1.1043
 2802SOL     OW20041   4.554   1.316  14.476 -0.1510 -0.3891  0.1522
 2802SOL    HW120042   4.608   1.284  14.548  0.8078 -0.9444 -0.8263
 2802SOL    HW220043   4.499   1.239  14.457 -0.3647  0.2726 -1.8085
 2803SOL     OW20044   4.080   4.502   5.340 -0.1236  0.0984  0.2144
 2803SOL    HW120045   3.988   4.528   5.327  0.0469 -0.3287 -1.9135
 2803SOL    HW220046   4.074   4.414   5.377  1.1562 -1.2909 -2.8630
 2804SOL     OW20047   0.264   3.411   2.809 -0.5493 -0.0561 -0.0401
 2804SOL    HW120048   0.290   3.459   2.887 -2.2856 -0.7809  0.9757
 2804SOL    HW220049   0.306   3.470   2.745 -0.7890 -0.3352 -0.4558
 2805SOL     OW20050   2.516   0.327  13.516  0.6255 -0.1176 -0.3084
 2805SOL    HW120051   2.471   0.249  13.486 -1.3961  0.7906  0.4131
 2805SOL    HW220052   2.596   0.283  13.544  0.4098 -0.6781 -0.5787
 2806SOL     OW20053   2.423   0.763   4.011 -0.4783  0.2074 -0.7837
 2806SOL    HW120054   2.477   0.689   4.037 -0.1138  0.4567 -0.8305
 2806SOL    HW220055   2.399   0.809   4.092  0.3287  0.8982 -0.9416
 2807SOL     OW20056   1.485   3.672   5.305  0.1160 -0.5469 -0.1968
 2807SOL    HW120057   1.475   3.670   5.210 -0.2960 -0.4582 -0.1519
 2807SOL    HW220058   1.462   3.763   5.322 -1.6097 -1.0265 -0.0427
 2808SOL     OW20059   3.108   1.789   8.703 -0.3726 -0.5172  0.5953
 2808SOL    HW120060   3.092   1.792   8.609 -1.7959  1.4840  0.8915
 2808SOL    HW220061   3.132   1.881   8.714 -2.2762  0.0901 -0.4309
 2809SOL     OW20062   1.557   0.776   3.066  0.0388 -0.0085 -0.8514
 2809SOL    HW120063   1.577   0.692   3.025 -0.4570  0.3636 -1.8511
 2809SOL    HW220064   1.622   0.833   3.026  0.8021 -1.5091 -1.7563
 2810SOL     OW20065   3.745   0.809   7.821 -0.2008 -0.4768  0.6113
 2810SOL    HW120066   3.739   0.867   7.897 -3.4502 -0.0125  0.0124
 2810SOL    HW220067   3.770   0.721   7.848 -0.9337 -0.6750  0.6220
 2811SOL     OW20068   0.437   1.381  11.793 -0.4710  0.4088  0.3088
 2811SOL    HW120069   0.496   1.317  11.833  0.0040 -0.6186 -2.0456
 2811SOL    HW220070   0.480   1.401  11.710 -0.3235 -0.4494  0.1787
 2812SOL     OW20071   2.324   1.442   2.925 -0.2258  0.0824  0.0955
 2812SOL    HW120072   2.260   1.373   2.906  0.7601 -1.2486  1.5652
 2812SOL    HW220073   2.383   1.456   2.852  2.5008 -2.3520  1.8350
 2813SOL     OW20074   1.519   1.333   5.054  0.2546  0.1676 -0.4290
 2813SOL    HW120075   1.487   1.245   5.076  2.0342 -0.3207  0.1907
 2813SOL    HW220076   1.585   1.319   4.986  1.1702 -2.8540  1.0732
 2814SOL     OW20077   0.885   0.683   8.383  0.4103  0.2341  0.1166
 2814SOL    HW120078   0.817   0.710   8.445  2.7680  1.2553  2.2688
 2814SOL    HW220079   0.851   0.740   8.315 -0.7372  0.1266  0.6027
 2815SOL     OW20080   0.234   3.044  12.466 -0.5757 -0.3083 -0.2435
 2815SOL    HW120081   0.199   3.134  12.466  0.1651 -0.0147  0.4385
 2815SOL    HW220082   0.325   3.063  12.491  0.0492 -0.2109 -2.6110
 2816SOL     OW20083   2.116   4.109  16.961 -0.1669  0.3225  0.1342
 2816SOL    HW120084   2.117   4.049  16.887  2.3106 -0.2069  0.5854
 2816SOL    HW220085   2.155   4.189  16.927 -0.8808  1.6663  2.4265
 2817SOL     OW20086   1.835   4.172   1.892 -0.1016  0.4430  0.5504
 2817SOL    HW120087   1.744   4.143   1.887 -0.6097  2.1505 -0.3070
 2817SOL    HW220088   1.840   4.226   1.972 -0.4723  1.6902 -0.2608
 2818SOL     OW20089   2.000   0.687  11.965 -0.1716 -0.2139  0.4745
 2818SOL    HW120090   1.985   0.750  11.894 -2.1068  1.6885  2.5514
 2818SOL    HW220091   1.974   0.733  12.044  0.7681  1.4345 -0.1889
 2819SOL     OW20092   1.422   0.067   2.378  0.3245 -0.4105 -0.1346
 2819SOL    HW120093   1.377   0.013   2.313  0.6019 -2.0371  1.0219
 2819SOL    HW220094   1.373   0.149   2.368  0.8044 -0.1146 -0.0681
 2820SOL     OW20095   1.531   4.639   7.238 -0.5622 -0.4422  0.3363
 2820SOL    HW120096   1.449   4.662   7.195 -0.4864 -0.8344 -0.0094
 2820SOL    HW220097   1.500   4.604   7.322 -1.2808 -2.3191 -0.7328
 2821SOL     OW20098   1.385   0.855  10.329 -0.5177  0.3013 -0.6742
 2821SOL    HW120099   1.349   0.917  10.266 -2.3984  1.1854  1.2584
 2821SOL    HW220100   1.446   0.805  10.274 -1.0500 -1.4375  0.3118
 2822SOL     OW20101   0.813   3.900  17.137 -0.0233 -0.0636 -0.0036
 2822SOL    HW120102   0.809   3.954  17.216 -0.2343  2.3286 -1.6312
 2822SOL    HW220103   0.745   3.947  17.088  0.0629 -0.1593 -0.2145
 2823SOL     OW20104   2.217   3.315  17.119 -0.9169 -0.2909  0.3100
 2823SOL    HW120105   2.288   3.260  17.087  0.4855  0.3009  2.4561
 2823SOL    HW220106   2.174   3.340  17.036 -1.0096 -1.0898  0.1202
 2824SOL     OW20107   3.554   0.633   8.220 -0.2840 -0.0982 -0.0747
 2824SOL    HW120108   3.636   0.647   8.267 -0.5441 -1.0450  0.6745
 2824SOL    HW220109   3.572   0.566   8.153 -1.3957 -0.6883  0.2106
 2825SOL     OW20110   0.791   2.679   4.869 -0.2652 -0.6855 -0.5893
 2825SOL    HW120111   0.751   2.594   4.885  1.9934 -1.5017  0.7373
 2825SOL    HW220112   0.756   2.691   4.780  0.5272  2.0651 -0.5245
 2826SOL     OW20113   2.198   0.438   3.003  0.1553  0.0216 -0.1386
 2826SOL    HW120114   2.228   0.398   3.085 -1.1583 -0.7669 -0.0487
 2826SOL    HW220115   2.252   0.407   2.931  0.1521 -2.0574  0.7550
 2827SOL     OW20116   3.536   0.391   8.064 -0.8454 -0.3869 -0.2924
 2827SOL    HW120117   3.583   0.422   7.987 -1.8190 -0.2843 -0.8420
 2827SOL    HW220118   3.449   0.419   8.035 -0.3119  1.2160 -0.3099
 2828SOL     OW20119   3.882   1.659   4.439 -0.4923 -0.1804 -0.3017
 2828SOL    HW120120   3.835   1.634   4.519  1.1340 -0.5346  0.5327
 2828SOL    HW220121   3.856   1.579   4.394 -0.2588  0.1567 -1.0471
 2829SOL     OW20122   0.476   4.441   0.658  0.2835  0.2636  0.2121
 2829SOL    HW120123   0.483   4.534   0.635  2.9241 -0.1458 -0.6240
 2829SOL    HW220124   0.568   4.421   0.642  1.0005  0.8973  3.5105
 2830SOL     OW20125   0.900   2.845   5.787 -0.2120 -0.6932 -0.4803
 2830SOL    HW120126   0.863   2.789   5.855 -1.1133  1.3179  0.7115
 2830SOL    HW220127   0.962   2.891   5.845  0.6762 -2.4395 -0.0614
 2831SOL     OW20128   3.606   3.714   2.224 -0.3032 -0.1404  0.3854
 2831SOL    HW120129   3.516   3.736   2.248  0.0213 -1.2130  2.4973
 2831SOL    HW220130   3.585   3.626   2.193  0.3583 -0.5200  1.0313
 2832SOL     OW20131   2.066   0.126   4.451 -0.2772  0.0190  0.0079
 2832SOL    HW120132   2.118   0.048   4.429  0.4808  0.2557  0.9446
 2832SOL    HW220133   1.988   0.090   4.494  1.1175 -1.2327  1.5090
 2833SOL     OW20134   3.326   2.742  17.146 -0.1223 -0.3198  0.3369
 2833SOL    HW120135   3.373   2.666  17.113 -1.5788 -0.5139 -1.2846
 2833SOL    HW220136   3.365   2.757  17.232 -0.8103 -1.6304  0.8895
 2834SOL     OW20137   3.094   3.119   5.287  0.1590  0.3958 -0.2097
 2834SOL    HW120138   3.143   3.185   5.236 -1.4162  0.6739 -1.3554
 2834SOL    HW220139   3.157   3.047   5.294 -1.8753 -1.4258 -0.9254
 2835SOL     OW20140   1.190   0.561   6.402  0.1114 -0.1652 -0.1831
 2835SOL    HW120141   1.153   0.611   6.329 -0.1143 -0.6140 -0.3734
 2835SOL    HW220142   1.138   0.596   6.474  0.8218  0.1903  0.1606
 2836SOL     OW20143   4.699   0.140   5.148  0.2197  0.2704  0.6867
 2836SOL    HW120144   4.725   0.232   5.152 -1.6697  0.7645  1.8928
 2836SOL    HW220145   4.649   0.130   5.229 -0.6212 -1.6642 -0.0624
 2837SOL     OW20146   4.158   1.141   3.388 -0.2283  0.2900  0.3028
 2837SOL    HW120147   4.124   1.093   3.312  0.4045  0.0315  0.1855
 2837SOL    HW220148   4.200   1.211   3.339 -0.3251  0.3912  0.3623
 2838SOL     OW20149   1.185   2.854  12.765  0.2602 -0.1677  0.0664
 2838SOL    HW120150   1.265   2.822  12.722  0.0865  1.1574 -1.2674
 2838SOL    HW220151   1.123   2.783  12.752  1.0536 -0.6944 -0.8882
 2839SOL     OW20152   2.237   2.366  17.501 -0.3103 -0.2905  0.6347
 2839SOL    HW120153   2.278   2.280  17.513 -0.2902 -0.4879 -0.8137
 2839SOL    HW220154   2.302   2.432  17.525 -1.9468  1.9233 -1.0158
 2840SOL     OW20155   1.993   1.838   0.297 -0.1937 -0.1070 -0.3210
 2840SOL    HW120156   1.934   1.821   0.371 -0.3239  0.1278 -0.3716
 2840SOL    HW220157   2.032   1.918   0.332 -0.7215  0.9191 -2.1031
 2841SOL     OW20158   2.438   2.131   7.586  0.1245 -0.0370 -0.1877
 2841SOL    HW120159   2.376   2.099   7.521 -0.5397  0.6849  0.1073
 2841SOL    HW220160   2.433   2.226   7.576  0.3920  0.2028  2.1088
 2842SOL     OW20161   1.002   2.440   4.572 -0.4219 -0.3568  0.3528
 2842SOL    HW120162   1.086   2.424   4.529  0.6340  0.5192  2.1237
 2842SOL    HW220163   1.021   2.497   4.646  1.1522 -0.0961 -0.2427
 2843SOL     OW20164   2.424   3.009   6.758  0.4297 -0.3090 -0.0881
 2843SOL    HW120165   2.331   3.031   6.758  0.3379 -0.6957 -0.2065
 2843SOL    HW220166   2.460   3.079   6.703 -0.7422  0.3424 -0.0248
 2844SOL     OW20167   1.276   1.109   6.792  0.7016  0.0466  0.6464
 2844SOL    HW120168   1.324   1.161   6.729 -0.6953  0.1886 -0.2925
 2844SOL    HW220169   1.349   1.088   6.851 -0.8417 -1.4238  2.0469
 2845SOL     OW20170   1.276   3.429   7.888 -0.3965 -0.4295 -0.7028
 2845SOL    HW120171   1.222   3.465   7.958 -0.2406  0.4816 -1.0411
 2845SOL    HW220172   1.363   3.453   7.919 -0.3102  0.2548 -1.4737
 2846SOL     OW20173   4.436   0.337  15.496  0.2864 -0.1107 -0.7870
 2846SOL    HW120174   4.482   0.276  15.553 -0.5092  0.7365  0.7578
 2846SOL    HW220175   4.343   0.325  15.513  0.6610 -0.1904  1.2717
 2847SOL     OW20176   0.650   0.897   9.310 -0.0934 -0.1860 -0.2317
 2847SOL    HW120177   0.570   0.915   9.360  0.2305 -0.8680  0.5316
 2847SOL    HW220178   0.685   0.813   9.339 -0.2527 -0.2971 -0.3626
 2848SOL     OW20179   1.485   0.881  17.696 -0.6429 -0.0416  0.0331
 2848SOL    HW120180   1.514   0.804  17.647  1.6946  0.8724 -0.0296
 2848SOL    HW220181   1.438   0.838   0.010  0.4595  0.0850  0.8393
 2849SOL     OW20182   0.209   1.658   5.266  0.0117 -0.5608  0.1691
 2849SOL    HW120183   0.138   1.601   5.293 -1.1206  0.1785 -1.2330
 2849SOL    HW220184   0.237   1.714   5.339 -0.9858 -0.7233  0.6707
 2850SOL     OW20185   4.262   4.335   2.339  0.2411 -0.2500  0.6421
 2850SOL    HW120186   4.274   4.341   2.245 -0.3101  0.6530  0.6212
 2850SOL    HW220187   4.297   4.247   2.348 -1.6092 -1.1914 -1.2187
 2851SOL     OW20188   3.437   0.617   6.907 -0.3271 -0.5247  0.1120
 2851SOL    HW120189   3.382   0.686   6.871  1.4596  2.0449  2.3333
 2851SOL    HW220190   3.374   0.575   6.966 -2.0534 -0.2826 -1.5412
 2852SOL     OW20191   3.390   0.934   8.060  0.0238 -0.1607 -0.1489
 2852SOL    HW120192   3.311   0.890   8.091 -0.1340  0.3402  0.1663
 2852SOL    HW220193   3.409   0.881   7.983 -1.1477  0.2918 -0.7338
 2853SOL     OW20194   1.180   1.738   7.915  0.0407  0.3692  0.1910
 2853SOL    HW120195   1.196   1.717   7.823 -0.1387 -0.1388  0.2750
 2853SOL    HW220196   1.267   1.727   7.952  1.0497  1.4305 -1.8154
 2854SOL     OW20197   2.707   1.441   4.658 -0.1868  0.3067 -0.1363
 2854SOL    HW120198   2.649   1.498   4.709  1.9220  0.2109  2.3739
 2854SOL    HW220199   2.703   1.362   4.712  3.1918  0.2137 -0.0728
 2855SOL     OW20200   1.021   2.345   5.852 -0.3505  0.0310 -0.4428
 2855SOL    HW120201   0.986   2.271   5.902  1.3132  0.3068  1.1023
 2855SOL    HW220202   0.974   2.415   5.897 -1.1514 -1.5922  1.2382
 2856SOL     OW20203   4.524   0.687   4.526 -0.3495 -0.4135 -0.2624
 2856SOL    HW120204   4.526   0.782   4.515 -0.7600 -0.1964  1.6118
 2856SOL    HW220205   4.615   0.659   4.532  0.2655  1.7602  0.2900
 2857SOL     OW20206   1.468   3.858  15.065  0.5104 -0.5037  0.1975
 2857SOL    HW120207   1.498   3.931  15.119 -0.1889 -0.5402  0.6359
 2857SOL    HW220208   1.552   3.813  15.069  1.2550  0.7212 -1.4557
 2858SOL     OW20209   3.368   0.571   3.830  0.3440 -0.2963 -0.5164
 2858SOL    HW120210   3.351   0.625   3.908  1.4089 -1.2407  0.3794
 2858SOL    HW220211   3.462   0.584   3.817  0.6738 -1.6487  0.5044
 2859SOL     OW20212   0.898   0.011   5.635 -0.0079  0.0110 -0.0451
 2859SOL    HW120213   0.811   4.718   5.659  0.1768 -2.4473 -2.7733
 2859SOL    HW220214   0.954   4.680   5.665 -0.8100 -0.6585 -0.1198
 2860SOL     OW20215   0.041   4.589   2.670  0.3722 -0.3498  0.0248
 2860SOL    HW120216   0.094   4.635   2.604  1.9860 -0.5050  1.2220
 2860SOL    HW220217   0.076   4.630   2.749  0.7785 -0.7995  0.0750
 2861SOL     OW20218   3.101   3.031   8.314  0.0342  0.3446 -0.1567
 2861SOL    HW120219   3.131   3.118   8.289 -1.7073  1.1306  0.5346
 2861SOL    HW220220   3.106   3.049   8.408  0.9079 -2.1231  0.2823
 2862SOL     OW20221   0.211   3.233   0.573 -0.5973  0.4748  0.4582
 2862SOL    HW120222   0.215   3.272   0.660  1.8229 -1.0172  1.0367
 2862SOL    HW220223   0.116   3.235   0.561 -0.3299  0.8954 -1.6134
 2863SOL     OW20224   1.601   4.411   7.796  0.2613 -0.6748  0.2645
 2863SOL    HW120225   1.523   4.357   7.793 -0.2843  0.1362 -0.0016
 2863SOL    HW220226   1.567   4.494   7.831 -1.4091 -0.8143 -1.0518
 2864SOL     OW20227   2.782   0.941   5.545  0.1283  0.2464  0.1909
 2864SOL    HW120228   2.708   0.987   5.505 -0.0157 -0.2679 -0.1283
 2864SOL    HW220229   2.742   0.864   5.585  1.7353  0.2632  1.8288
 2865SOL     OW20230   2.158   0.211  14.457 -0.1651 -0.1590  0.3235
 2865SOL    HW120231   2.136   0.304  14.464  0.8737  0.1896 -1.3498
 2865SOL    HW220232   2.071   0.175  14.438 -0.3296  1.0227 -1.1607
 2866SOL     OW20233   3.121   4.155   6.206 -0.4296 -0.8798 -0.1793
 2866SOL    HW120234   3.206   4.194   6.227 -1.2508  1.0776 -0.4222
 2866SOL    HW220235   3.063   4.176   6.279  1.2809  2.0126  0.3714
 2867SOL     OW20236   0.806   4.029   2.585  0.3302 -0.3465 -0.2508
 2867SOL    HW120237   0.828   4.093   2.653 -1.7728  0.9129 -0.7395
 2867SOL    HW220238   0.821   3.955   2.644 -1.7594  0.6921  1.5838
 2868SOL     OW20239   3.818   0.800   6.640 -0.3276  0.6143 -0.4209
 2868SOL    HW120240   3.850   0.720   6.681 -0.6040  0.2114 -0.9865
 2868SOL    HW220241   3.899   0.850   6.626 -0.6284  0.4210 -2.8795
 2869SOL     OW20242   4.543   0.767  13.066 -0.0403  0.2617 -0.1697
 2869SOL    HW120243   4.510   0.853  13.039  0.7214  0.5416 -0.2079
 2869SOL    HW220244   4.635   0.771  13.039  0.6801  1.1046  2.4079
 2870SOL     OW20245   0.607   0.017   3.444  0.3782 -0.7130  0.1552
 2870SOL    HW120246   0.610   0.080   3.516  0.3705  1.1149 -1.4431
 2870SOL    HW220247   0.622   0.074   3.369  2.5269 -0.5835  0.6859
 2871SOL     OW20248   1.247   3.350   5.105 -0.0517  0.1123  0.2650
 2871SOL    HW120249   1.208   3.264   5.120 -1.8027  1.1571  1.7610
 2871SOL    HW220250   1.241   3.389   5.192  1.1999 -1.1504  0.9024
 2872SOL     OW20251   0.990   3.066  17.079 -0.7838 -0.3044 -0.8001
 2872SOL    HW120252   1.042   3.130  17.127 -2.1423 -0.3843  0.7818
 2872SOL    HW220253   1.013   3.087  16.988  0.7318 -0.9943 -0.5637
 2873SOL     OW20254   4.216   2.136   3.131 -0.0739  0.1750 -0.6140
 2873SOL    HW120255   4.215   2.217   3.181 -1.5674 -0.9529  1.1843
 2873SOL    HW220256   4.293   2.149   3.075  0.6689  0.9168  0.5765
 2874SOL     OW20257   2.438   0.053   6.273 -0.1981  0.7247 -0.4559
 2874SOL    HW120258   2.415   0.116   6.204 -0.0549 -0.5489 -1.6668
 2874SOL    HW220259   2.351   0.014   6.265  0.2107 -0.2019 -0.3343
 2875SOL     OW20260   3.171   3.355  16.756 -0.2943  0.0787 -0.1577
 2875SOL    HW120261   3.128   3.408  16.823  0.6542 -0.2537  0.6971
 2875SOL    HW220262   3.103   3.369  16.690 -1.9817 -0.9182  1.3697
 2876SOL     OW20263   3.388   0.977   6.581 -0.1425 -0.3200  0.0373
 2876SOL    HW120264   3.357   0.910   6.642 -0.3725  2.2963  2.8359
 2876SOL    HW220265   3.472   0.936   6.563 -0.8534 -0.7195 -2.3446
 2877SOL     OW20266   4.179   3.940   4.197 -0.0443  0.1183  0.2914
 2877SOL    HW120267   4.242   3.892   4.252  1.0779 -0.2214 -1.2695
 2877SOL    HW220268   4.247   3.997   4.162 -0.4171 -0.2229 -0.9821
 2878SOL     OW20269   4.122   1.627  13.420 -0.0878 -0.4276 -0.4145
 2878SOL    HW120270   4.055   1.695  13.411 -0.0492 -0.3161  0.1233
 2878SOL    HW220271   4.157   1.632  13.509  1.4300 -3.1222 -0.8738
 2879SOL     OW20272   1.512   1.072   3.501  0.0724 -0.4667 -0.0780
 2879SOL    HW120273   1.426   1.104   3.531  0.3905  0.1391  0.1876
 2879SOL    HW220274   1.488   1.040   3.414 -3.5202  0.5628  0.5073
 2880SOL     OW20275   2.637   4.002  15.843 -0.2837  0.1111 -0.5768
 2880SOL    HW120276   2.666   4.077  15.896 -0.3033 -1.6141  1.8889
 2880SOL    HW220277   2.709   3.992  15.781 -0.3052  4.0837 -1.2386
 2881SOL     OW20278   3.899   3.878  12.675  0.0497  0.3050 -0.0837
 2881SOL    HW120279   3.900   3.814  12.603 -1.2149  2.1280 -1.7192
 2881SOL    HW220280   3.925   3.958  12.630  0.3408  0.6344  0.6813
 2882SOL     OW20281   3.727   3.122  13.909  0.1904  0.7169  0.3036
 2882SOL    HW120282   3.772   3.092  13.988 -0.7451 -1.9952 -0.2031
 2882SOL    HW220283   3.640   3.123  13.947 -0.9238  2.3230 -2.3030
 2883SOL     OW20284   0.357   2.271   7.554 -0.1018 -0.9786 -0.8272
 2883SOL    HW120285   0.357   2.273   7.650 -1.8778 -0.1559 -0.8459
 2883SOL    HW220286   0.310   2.352   7.534  3.0812  1.6709  2.4798
 2884SOL     OW20287   4.393   0.202   6.073 -0.3482  0.4281  0.8283
 2884SOL    HW120288   4.307   0.222   6.109 -0.8014  0.1457 -0.0873
 2884SOL    HW220289   4.421   0.139   6.140 -2.0090 -1.0889  0.0922
 2885SOL     OW20290   3.791   0.517   4.951 -0.1917 -0.3295 -0.2388
 2885SOL    HW120291   3.777   0.445   4.890  1.3506  0.0794 -1.0783
 2885SOL    HW220292   3.749   0.486   5.032  1.1486 -2.3002 -0.3158
 2886SOL     OW20293   2.937   3.189   4.350 -0.2769 -0.1243 -0.1432
 2886SOL    HW120294   2.900   3.181   4.262  0.0431 -0.3838 -0.2534
 2886SOL    HW220295   2.885   3.248   4.405  1.4604  1.4284 -0.1471
 2887SOL     OW20296   4.594   3.082  10.415  0.2026  0.2208  0.0578
 2887SOL    HW120297   4.598   2.995  10.455 -1.6842 -0.0073 -0.2623
 2887SOL    HW220298   4.509   3.063  10.377  0.3984 -2.4138  0.9323
 2888SOL     OW20299   2.043   0.228   3.390 -0.2951  0.5058 -0.0210
 2888SOL    HW120300   1.951   0.247   3.409 -1.4649 -1.1892 -4.0618
 2888SOL    HW220301   2.061   0.261   3.302  0.8200 -0.2215 -0.0625
 2889SOL     OW20302   0.391   1.920  15.061  0.0130  0.2523 -0.2038
 2889SOL    HW120303   0.310   1.869  15.055 -0.7719  1.3059  1.2242
 2889SOL    HW220304   0.403   1.905  15.155  1.0866  0.8705 -0.2448
 2890SOL     OW20305   1.571   2.880   7.042  0.1221  0.7415  0.6186
 2890SOL    HW120306   1.548   2.950   7.102 -0.4671  1.7451 -0.7750
 2890SOL    HW220307   1.604   2.939   6.974 -1.4700  1.0699  0.1451
 2891SOL     OW20308   0.577   2.367   2.641 -0.3963 -0.1277  0.0067
 2891SOL    HW120309   0.534   2.411   2.568 -2.2065  2.0582  2.3689
 2891SOL    HW220310   0.572   2.273   2.625  1.9888 -0.5243  1.5432
 2892SOL     OW20311   0.921   4.703   2.812 -0.2079  0.0775 -0.1480
 2892SOL    HW120312   1.008   4.700   2.852  0.0774  2.6182 -0.5590
 2892SOL    HW220313   0.946   4.664   2.728 -0.9220  0.6862 -0.6390
 2893SOL     OW20314   2.167   3.581  15.289 -0.4073 -0.0491 -0.1624
 2893SOL    HW120315   2.120   3.647  15.238 -1.4105 -2.0519 -1.8487
 2893SOL    HW220316   2.234   3.546  15.231 -0.2747 -1.9688  1.1487
 2894SOL     OW20317   2.561   4.112   4.982  0.0276 -0.0900  0.0526
 2894SOL    HW120318   2.514   4.151   5.055 -0.8446  1.9588 -1.6235
 2894SOL    HW220319   2.497   4.106   4.911  1.2018 -0.2482 -1.0123
 2895SOL     OW20320   1.418   0.585  12.813 -0.4265 -0.3528  0.2979
 2895SOL    HW120321   1.393   0.500  12.776  1.4129  0.2219 -2.1788
 2895SOL    HW220322   1.514   0.588  12.815 -0.4219  1.2555 -3.5146
 2896SOL     OW20323   0.812   1.213   7.186 -0.0963  0.0933  0.0793
 2896SOL    HW120324   0.831   1.252   7.100  0.9857  0.7864  0.6255
 2896SOL    HW220325   0.718   1.199   7.186  0.2823 -2.2828  1.1538
 2897SOL     OW20326   2.954   0.563  13.469  0.1057 -0.2828  0.2383
 2897SOL    HW120327   3.002   0.543  13.389 -0.0199 -0.2942  0.1652
 2897SOL    HW220328   2.860   0.561  13.447 -0.1966  0.4677  1.4578
 2898SOL     OW20329   2.261   3.443   8.364  0.4245  0.2642 -0.1802
 2898SOL    HW120330   2.254   3.465   8.271 -1.7783 -1.5909 -0.4525
 2898SOL    HW220331   2.260   3.348   8.362  2.9826  0.2296  0.7895
 2899SOL     OW20332   2.940   2.456   8.978  0.6234 -0.0168 -0.2141
 2899SOL    HW120333   2.849   2.447   8.949  0.2509  1.8665  0.3395
 2899SOL    HW220334   2.927   2.454   9.073 -0.7940 -1.0210 -0.4201
 2900SOL     OW20335   0.878   4.337   7.205  0.2563  0.0389  0.2672
 2900SOL    HW120336   0.909   4.397   7.137 -0.4067  0.4840  0.3466
 2900SOL    HW220337   0.814   4.283   7.159 -0.8395  0.8040  0.8760
 2901SOL     OW20338   3.745   3.148   6.679  0.6645 -0.0110 -0.1903
 2901SOL    HW120339   3.699   3.210   6.735  1.3402  2.4137 -2.3411
 2901SOL    HW220340   3.797   3.106   6.748  0.4858  0.3546  0.1621
 2902SOL     OW20341   1.820   3.677  10.564 -0.1339  0.4258 -0.1502
 2902SOL    HW120342   1.846   3.769  10.557  0.3606  0.1389 -2.1289
 2902SOL    HW220343   1.734   3.678  10.522 -1.0710 -0.7682  1.7334
 2903SOL     OW20344   1.912   2.346  15.592 -0.1441 -0.4790  0.0650
 2903SOL    HW120345   1.892   2.353  15.685  1.7064 -0.1646  0.4501
 2903SOL    HW220346   1.929   2.252  15.593  1.2237 -0.2470 -0.4734
 2904SOL     OW20347   2.006   1.635   8.037  0.4739 -0.0548 -0.3675
 2904SOL    HW120348   1.941   1.705   8.026 -0.1068 -0.3100  1.5041
 2904SOL    HW220349   2.025   1.627   8.130 -0.3218  2.2779  0.0009
 2905SOL     OW20350   2.230   0.536   8.310  0.0383  0.0194 -0.0381
 2905SOL    HW120351   2.249   0.489   8.392  1.5279  0.7239  0.0207
 2905SOL    HW220352   2.142   0.571   8.323  0.6846  0.9044  2.0620
 2906SOL     OW20353   4.600   0.999   0.649  0.3656  0.0113 -0.3858
 2906SOL    HW120354   4.540   1.070   0.671  1.7492  0.6201  1.3788
 2906SOL    HW220355   4.543   0.949   0.591  1.5927 -0.7014 -0.9872
 2907SOL     OW20356   3.760   4.052   7.452 -0.1927  0.2038  0.6288
 2907SOL    HW120357   3.803   4.111   7.514 -2.2713  3.8127 -1.3330
 2907SOL    HW220358   3.756   3.972   7.504  0.0335  0.5012  1.0970
 2908SOL     OW20359   2.950   1.132   2.380 -0.0727 -0.0632  0.3346
 2908SOL    HW120360   3.033   1.096   2.349 -0.2606 -0.4018  0.2287
 2908SOL    HW220361   2.974   1.219   2.412 -0.7428  0.2313  0.0482
 2909SOL     OW20362   1.573   2.854   4.139  0.2729 -0.3484 -0.4357
 2909SOL    HW120363   1.644   2.872   4.200  0.8443  3.4695 -2.2193
 2909SOL    HW220364   1.613   2.781   4.093  2.8839  2.4615 -2.6437
 2910SOL     OW20365   1.388   4.550   3.338  0.1421  0.4117  0.3659
 2910SOL    HW120366   1.425   4.638   3.326 -0.0200  0.9084  3.5530
 2910SOL    HW220367   1.351   4.558   3.426 -1.7314 -0.4068 -0.3539
 2911SOL     OW20368   3.016   4.330  10.764 -0.3235 -0.2735  0.0963
 2911SOL    HW120369   3.105   4.296  10.772  0.9620  2.8814 -1.2907
 2911SOL    HW220370   3.018   4.374  10.680  1.2257  1.1586  0.8844
 2912SOL     OW20371   2.736   0.951   5.080  0.5012  0.2805 -0.1167
 2912SOL    HW120372   2.683   0.945   5.159  0.1585  0.1243 -0.3534
 2912SOL    HW220373   2.734   1.043   5.055 -1.6171 -0.1817 -1.7465
 2913SOL     OW20374   3.326   0.908   8.512  0.3287 -0.2273  0.4463
 2913SOL    HW120375   3.300   0.986   8.462  1.9089  0.3618  0.5414
 2913SOL    HW220376   3.418   0.930   8.527  1.2315 -1.9989 -2.5478
 2914SOL     OW20377   3.270   2.529   8.453  0.1609 -0.1110  0.6218
 2914SOL    HW120378   3.241   2.617   8.477  1.0435  0.3168  0.0962
 2914SOL    HW220379   3.189   2.494   8.415  0.3217 -0.5439  0.6772
 2915SOL     OW20380   0.377   1.625  11.127  0.1170  0.3409  0.6346
 2915SOL    HW120381   0.459   1.662  11.159 -0.8269  2.0699  1.0689
 2915SOL    HW220382   0.408   1.561  11.063 -2.0546  1.3556 -1.4406
 2916SOL     OW20383   1.821   0.011   8.685  0.0713 -0.6819 -0.2149
 2916SOL    HW120384   1.794   0.084   8.628 -0.6274 -0.3166  0.5815
 2916SOL    HW220385   1.908   0.045   8.703  1.4997 -3.0044 -2.7630
 2917SOL     OW20386   4.010   3.681  13.691  0.2466  0.1773  0.3608
 2917SOL    HW120387   3.953   3.757  13.705  0.8956  1.0542 -1.7772
 2917SOL    HW220388   4.066   3.680  13.769  0.7194 -0.4798  0.0076
 2918SOL     OW20389   4.519   1.671  17.037 -0.1135  0.6882  0.2050
 2918SOL    HW120390   4.572   1.747  17.013  0.7465  0.8028  2.3850
 2918SOL    HW220391   4.472   1.695  17.117  2.5757  0.2904  1.9261
 2919SOL     OW20392   2.039   4.460   5.813  0.1000  0.1243  0.3589
 2919SOL    HW120393   2.121   4.463   5.764  2.0824 -0.8754  3.6240
 2919SOL    HW220394   2.044   4.372   5.850 -3.1147 -0.2935 -0.1691
 2920SOL     OW20395   4.528   1.913   8.732  0.1718  0.0961  0.3289
 2920SOL    HW120396   4.620   1.939   8.724 -0.3324  1.9132  0.6565
 2920SOL    HW220397   4.533   1.875   8.820  0.6825 -0.2742  0.1426
 2921SOL     OW20398   3.974   2.831   6.217 -0.1473 -0.0834  0.1785
 2921SOL    HW120399   4.025   2.765   6.171  0.2488 -1.3301  2.4375
 2921SOL    HW220400   3.889   2.798   6.188  1.2291 -1.6790 -2.0103
 2922SOL     OW20401   3.342   4.393   5.334  0.7354 -0.0861 -0.4900
 2922SOL    HW120402   3.259   4.346   5.341  1.7790 -1.7107  0.9507
 2922SOL    HW220403   3.352   4.385   5.240  1.3708 -0.6423 -0.3683
 2923SOL     OW20404   3.617   4.126   7.949  0.0793 -0.2302 -0.3414
 2923SOL    HW120405   3.577   4.207   7.981  2.3653  0.6589  0.2896
 2923SOL    HW220406   3.572   4.061   8.003 -0.9435  0.5624 -0.2525
 2924SOL     OW20407   2.601   1.847  12.262  0.1981 -0.1693  0.1467
 2924SOL    HW120408   2.563   1.877  12.345 -0.4131  0.0620 -0.2224
 2924SOL    HW220409   2.528   1.863  12.202  0.2695  0.7828  0.3207
 2925SOL     OW20410   1.366   3.521   4.215  0.1452 -0.1371  0.1820
 2925SOL    HW120411   1.390   3.437   4.176  2.2194  0.5126  0.0427
 2925SOL    HW220412   1.300   3.488   4.276 -1.0734 -0.0547 -1.0956
 2926SOL     OW20413   3.317   4.457   6.202  0.4039  0.0403  0.1949
 2926SOL    HW120414   3.324   4.511   6.281 -0.4292  1.8270 -0.9561
 2926SOL    HW220415   3.331   4.362   6.211  0.8424 -0.0803 -1.8343
 2927SOL     OW20416   3.652   3.485   4.416 -0.4081  0.6183  0.2340
 2927SOL    HW120417   3.572   3.452   4.376 -1.2894  0.3601  2.2011
 2927SOL    HW220418   3.646   3.572   4.377 -0.7487  0.6238  0.3015
 2928SOL     OW20419   2.782   3.656   8.682 -0.5074  0.0075  0.0085
 2928SOL    HW120420   2.860   3.694   8.722  2.2322 -1.6398 -3.7292
 2928SOL    HW220421   2.737   3.732   8.644  0.6920  0.2873 -0.8761
 2929SOL     OW20422   1.068   0.455   7.235  0.3133 -0.2434  0.1608
 2929SOL    HW120423   1.026   0.386   7.183  2.1415 -2.1885  1.2436
 2929SOL    HW220424   1.158   0.425   7.248  0.3153  0.8915  2.7668
 2930SOL     OW20425   0.833   2.085   3.977  0.0911  0.0890 -0.0203
 2930SOL    HW120426   0.789   2.133   4.047  1.6853  0.0707  1.0068
 2930SOL    HW220427   0.811   1.994   3.999 -0.5463  0.1082 -0.5953
 2931SOL     OW20428   4.163   0.842   5.801 -0.3265 -0.3744 -0.3890
 2931SOL    HW120429   4.117   0.767   5.763 -0.4961 -1.8809  2.7644
 2931SOL    HW220430   4.147   0.907   5.732  0.4527 -0.0873 -0.2889
 2932SOL     OW20431   0.251   1.277   5.477 -0.0540  0.2168 -0.2997
 2932SOL    HW120432   0.220   1.365   5.500 -0.2856 -0.0190  0.2700
 2932SOL    HW220433   0.234   1.228   5.557  1.5703  0.8669  0.4469
 2933SOL     OW20434   3.682   0.198   8.282  0.0731  0.5009 -0.1350
 2933SOL    HW120435   3.751   0.133   8.299  1.7795  2.0821 -0.9441
 2933SOL    HW220436   3.661   0.182   8.190 -1.8138 -1.7451  0.7172
 2934SOL     OW20437   1.472   4.219  14.702  0.0030 -0.3660 -0.2176
 2934SOL    HW120438   1.479   4.210  14.607  0.0818  0.1900 -0.2649
 2934SOL    HW220439   1.566   4.218  14.721 -0.1729 -2.0420  0.4918
 2935SOL     OW20440   0.655   3.347   7.462  0.3657 -0.3319 -0.6860
 2935SOL    HW120441   0.748   3.323   7.460 -0.0071 -1.7609 -0.6441
 2935SOL    HW220442   0.646   3.376   7.371 -1.9848  0.2347 -0.2731
 2936SOL     OW20443   0.352   4.550  13.395  0.1788  0.0233 -0.3595
 2936SOL    HW120444   0.376   4.457  13.400 -0.1949  0.0418  1.6788
 2936SOL    HW220445   0.262   4.559  13.427  0.6294  0.6634  0.7176
 2937SOL     OW20446   3.338   3.156   6.259 -0.3007 -0.0732 -0.3092
 2937SOL    HW120447   3.332   3.165   6.164 -0.7801 -0.9707 -0.3552
 2937SOL    HW220448   3.362   3.247   6.277  0.1100 -0.3912  0.7703
 2938SOL     OW20449   4.426   2.167  12.765 -0.4169  0.3943  0.3423
 2938SOL    HW120450   4.482   2.192  12.692 -2.1257 -1.0624 -1.4533
 2938SOL    HW220451   4.476   2.092  12.798  0.3295 -0.1054 -1.9472
 2939SOL     OW20452   1.507   2.905   1.588  0.3563  0.8581  0.0336
 2939SOL    HW120453   1.468   2.818   1.583 -0.3620  1.2876 -1.6454
 2939SOL    HW220454   1.464   2.943   1.664 -0.8540  0.6026 -0.5315
 2940SOL     OW20455   0.513   2.697   8.997 -0.1022  0.3594 -0.9173
 2940SOL    HW120456   0.450   2.769   8.997  0.4766  0.8757 -1.3196
 2940SOL    HW220457   0.459   2.622   9.021 -0.1521  0.9860  0.8760
 2941SOL     OW20458   1.016   1.204   1.088 -0.4656 -0.1698 -0.0199
 2941SOL    HW120459   1.027   1.243   1.002 -2.5732 -0.3651 -0.3586
 2941SOL    HW220460   0.981   1.119   1.063 -0.0624 -0.1049 -0.7994
 2942SOL     OW20461   3.986   0.101   4.797 -0.8282  0.5443  0.3030
 2942SOL    HW120462   4.062   0.053   4.764 -3.0116 -3.0393  0.4515
 2942SOL    HW220463   3.963   0.040   4.867 -0.6775  0.9880  0.7419
 2943SOL     OW20464   4.488   3.035  16.671 -0.0099  0.6806 -0.0826
 2943SOL    HW120465   4.506   3.090  16.595  0.1353 -2.4262 -2.2805
 2943SOL    HW220466   4.576   3.026  16.706 -0.1310  1.8960  0.5210
 2944SOL     OW20467   0.775   1.221   8.464  0.5603  0.2639  0.5868
 2944SOL    HW120468   0.831   1.148   8.440 -1.6589 -1.2289  0.0612
 2944SOL    HW220469   0.742   1.193   8.549 -0.3523 -0.5586 -0.0458
 2945SOL     OW20470   0.035   1.815   1.167  0.2670  0.1583 -0.2954
 2945SOL    HW120471   4.695   1.860   1.193  0.2354 -1.0994  1.7474
 2945SOL    HW220472   0.091   1.880   1.210 -0.3564  0.5947 -0.1416
 2946SOL     OW20473   1.601   2.482   5.658  0.4515  0.1545 -0.2946
 2946SOL    HW120474   1.666   2.552   5.652 -0.2458  1.1292  3.1621
 2946SOL    HW220475   1.643   2.428   5.725  0.5966  0.7359  0.0815
 2947SOL     OW20476   2.123   4.052  17.227  0.2652 -0.0855  0.4836
 2947SOL    HW120477   2.118   4.070  17.133 -0.5484  1.6108  0.8682
 2947SOL    HW220478   2.057   3.985  17.243  0.5994 -0.2416  1.2326
 2948SOL     OW20479   0.583   3.839   2.227 -0.4938 -0.1792 -0.6601
 2948SOL    HW120480   0.596   3.825   2.133 -2.0962 -1.0314 -0.7593
 2948SOL    HW220481   0.650   3.904   2.247  2.0742 -2.5753 -1.4500
 2949SOL     OW20482   0.407   3.913   3.904 -0.5365  0.0800  0.1284
 2949SOL    HW120483   0.474   3.977   3.879  0.3321 -0.2824  1.5585
 2949SOL    HW220484   0.333   3.975   3.898 -1.3120 -1.1542 -3.1854
 2950SOL     OW20485   0.978   4.676  16.828  1.0346 -0.1874  0.2409
 2950SOL    HW120486   0.905   4.660  16.769  0.8849 -2.8296  1.1670
 2950SOL    HW220487   0.975   4.591  16.872 -0.0146 -0.5940 -0.6320
 2951SOL     OW20488   1.297   3.758  10.035 -0.1131 -0.3074  0.5466
 2951SOL    HW120489   1.329   3.668  10.048  1.1014  0.1214  0.5578
 2951SOL    HW220490   1.203   3.740  10.030 -0.6995  2.9601  0.0975
 2952SOL     OW20491   4.511   0.957   7.196  0.3647  0.0527  0.2390
 2952SOL    HW120492   4.488   0.946   7.288 -0.3411 -0.1004  0.0437
 2952SOL    HW220493   4.499   1.050   7.179 -1.9091 -0.1461  0.8096
 2953SOL     OW20494   1.246   3.045   4.016  0.2562 -0.1767  0.0908
 2953SOL    HW120495   1.242   2.959   3.975  1.7048 -0.1844 -0.0278
 2953SOL    HW220496   1.189   3.096   3.958  0.5117 -0.0299 -0.0322
 2954SOL     OW20497   3.768   1.365  16.866 -0.2061 -0.4235 -0.3348
 2954SOL    HW120498   3.709   1.306  16.819 -0.5040 -1.2063  1.0393
 2954SOL    HW220499   3.804   1.418  16.794 -2.2002  0.0981 -0.9546
 2955SOL     OW20500   4.584   1.277   7.564 -0.0714  0.0651 -0.1254
 2955SOL    HW120501   4.662   1.234   7.529 -0.9301 -0.3194 -1.5843
 2955SOL    HW220502   4.520   1.244   7.501  1.6037 -1.4716 -1.0084
 2956SOL     OW20503   4.292   2.669   6.075  0.2996 -0.3287 -0.1879
 2956SOL    HW120504   4.342   2.712   6.144  1.3379  0.7457 -1.6244
 2956SOL    HW220505   4.334   2.702   5.996  0.1163  0.3010 -0.0294
 2957SOL     OW20506   0.791   4.347  14.928 -0.3322 -0.1809  0.0191
 2957SOL    HW120507   0.739   4.301  14.862 -0.5555  1.4022 -0.8957
 2957SOL    HW220508   0.752   4.434  14.923 -1.8572 -0.9843 -2.0511
 2958SOL     OW20509   4.597   0.157   8.524 -0.3406  0.3893  0.5926
 2958SOL    HW120510   4.602   0.236   8.578 -2.1172  1.1044 -0.2889
 2958SOL    HW220511   4.663   0.175   8.457 -0.6731 -0.9668 -0.0994
 2959SOL     OW20512   1.062   3.046   2.482 -0.5151  0.3723  0.3411
 2959SOL    HW120513   0.993   2.997   2.528 -0.3513 -0.1339  0.0429
 2959SOL    HW220514   1.124   3.026   2.552  1.2990  3.0881 -0.4750
 2960SOL     OW20515   2.969   2.751   5.404 -0.4607  0.1356 -0.1182
 2960SOL    HW120516   2.958   2.661   5.434 -0.3753 -0.1543 -0.9719
 2960SOL    HW220517   3.035   2.735   5.337  0.3174  1.8204  0.2487
 2961SOL     OW20518   2.671   2.103   3.565 -0.1622 -0.0588  0.5864
 2961SOL    HW120519   2.709   2.120   3.651  0.9353 -2.3982  0.5642
 2961SOL    HW220520   2.683   2.008   3.564 -1.4641 -0.2136  0.2670
 2962SOL     OW20521   4.290   4.062   3.258 -0.0787  0.2337 -0.3225
 2962SOL    HW120522   4.260   3.972   3.249  1.4061 -0.2102 -0.7179
 2962SOL    HW220523   4.297   4.090   3.166 -0.4497 -0.2914 -0.5146
 2963SOL     OW20524   4.165   2.373   6.375 -0.5935 -0.5389 -0.1188
 2963SOL    HW120525   4.114   2.367   6.294  0.0593 -2.5918 -0.3764
 2963SOL    HW220526   4.144   2.288   6.415 -0.1022 -0.0713  1.1470
 2964SOL     OW20527   1.104   0.188  12.161 -0.0207  0.0549  0.0578
 2964SOL    HW120528   1.072   0.099  12.179 -0.0599 -0.2691 -1.6049
 2964SOL    HW220529   1.197   0.174  12.144 -0.2763 -1.7121  0.0607
 2965SOL     OW20530   0.429   2.304   4.942 -0.1967  0.4282  0.7526
 2965SOL    HW120531   0.368   2.322   5.014 -1.0574  1.5889 -0.2541
 2965SOL    HW220532   0.430   2.209   4.950 -0.9613  0.3197 -0.4547
 2966SOL     OW20533   3.349   2.480   0.847  0.1555 -0.1611  0.0275
 2966SOL    HW120534   3.284   2.503   0.780  1.1146  0.8172 -0.5664
 2966SOL    HW220535   3.349   2.384   0.848  1.4053 -0.1626  0.4189
 2967SOL     OW20536   2.009   1.173  12.599 -0.2783  0.3773  0.1348
 2967SOL    HW120537   2.092   1.140  12.563 -1.3346 -1.9160 -0.2348
 2967SOL    HW220538   2.040   1.229  12.670 -2.0039  0.4901  0.7959
 2968SOL     OW20539   3.274   4.174   2.662  0.0449  0.0294  0.6789
 2968SOL    HW120540   3.231   4.124   2.732  1.1266 -2.8678 -0.7195
 2968SOL    HW220541   3.227   4.257   2.665  0.5598  0.3657 -0.7422
 2969SOL     OW20542   2.218   2.655  17.487 -0.1513  0.7033 -0.4470
 2969SOL    HW120543   2.211   2.727  17.550 -3.7159 -0.1836  0.1377
 2969SOL    HW220544   2.301   2.613  17.512 -0.8564 -1.5669 -1.9301
 2970SOL     OW20545   3.781   2.558   7.404  0.2580  0.1535  0.0562
 2970SOL    HW120546   3.871   2.540   7.433  0.1290  0.7216  0.8181
 2970SOL    HW220547   3.747   2.469   7.407 -1.5753  0.8555 -0.4544
 2971SOL     OW20548   3.290   3.297   4.884 -0.2792  0.8081 -0.2169
 2971SOL    HW120549   3.271   3.325   4.974  1.9322 -2.4754  1.2768
 2971SOL    HW220550   3.248   3.211   4.888 -0.5743  0.9065 -1.1136
 2972SOL     OW20551   3.623   3.665  17.316  0.2046 -0.2615 -0.6719
 2972SOL    HW120552   3.715   3.648  17.298  0.4713  0.6946 -0.2391
 2972SOL    HW220553   3.631   3.674  17.411  0.3328  1.1605 -0.8175
 2973SOL     OW20554   0.322   3.870   9.563 -0.3105  0.1420  1.3292
 2973SOL    HW120555   0.356   3.935   9.624 -1.0504  2.6803 -0.9801
 2973SOL    HW220556   0.385   3.799   9.574  1.6273  1.6181 -0.1249
 2974SOL     OW20557   3.344   3.407  12.644  0.2877 -0.3478  0.1542
 2974SOL    HW120558   3.424   3.430  12.690 -0.7139  2.0029  0.7389
 2974SOL    HW220559   3.319   3.329  12.694 -1.4941  0.6208  0.7971
 2975SOL     OW20560   2.517   1.124   1.704 -0.2020 -0.3654  0.1173
 2975SOL    HW120561   2.539   1.170   1.785  1.7245 -1.3596  0.1521
 2975SOL    HW220562   2.525   1.034   1.738  1.0367 -0.3410 -0.1187
 2976SOL     OW20563   0.485   3.793   4.789 -0.4222 -0.1229 -0.1792
 2976SOL    HW120564   0.532   3.855   4.845 -2.3844 -1.0260  2.4728
 2976SOL    HW220565   0.422   3.749   4.845  0.6915 -1.8878 -0.3012
 2977SOL     OW20566   1.184   4.317  12.402 -0.1536  0.1093 -0.3058
 2977SOL    HW120567   1.270   4.359  12.401 -0.1735  0.2229  3.1599
 2977SOL    HW220568   1.159   4.339  12.491  0.6484 -0.1126 -0.0317
 2978SOL     OW20569   3.080   2.451  12.282 -0.5328  0.0886 -0.0435
 2978SOL    HW120570   3.134   2.379  12.253  0.0253  0.1104  0.9401
 2978SOL    HW220571   3.105   2.455  12.374 -0.7505  2.5997 -0.0756
 2979SOL     OW20572   0.195   2.991   4.164  0.0752  0.0621 -0.1749
 2979SOL    HW120573   0.198   2.993   4.259  0.6813  1.0651 -0.2183
 2979SOL    HW220574   0.277   2.943   4.147  1.5693  1.8735  1.9545
 2980SOL     OW20575   3.174   0.212   1.916 -0.2212 -0.3871  0.8379
 2980SOL    HW120576   3.080   0.210   1.895  0.0146  0.6631 -0.3423
 2980SOL    HW220577   3.218   0.191   1.834 -1.6567 -0.2274  0.0246
 2981SOL     OW20578   1.975   4.198  15.481  0.2531 -0.3507 -0.8064
 2981SOL    HW120579   1.918   4.123  15.497 -0.1586 -0.3342 -2.2207
 2981SOL    HW220580   2.047   4.168  15.537 -0.8771 -1.7384 -0.0980
 2982SOL     OW20581   3.293   3.610   9.178  0.0645 -0.0388  0.4755
 2982SOL    HW120582   3.335   3.578   9.258 -0.0673 -0.0537  0.5391
 2982SOL    HW220583   3.353   3.571   9.115 -1.3802 -1.1664 -0.1984
 2983SOL     OW20584   0.030   0.182  11.990  0.2365 -0.9044 -0.3642
 2983SOL    HW120585   0.046   0.093  12.021 -0.1967 -0.7188  0.3800
 2983SOL    HW220586   4.704   0.171  11.921 -0.1491 -2.1154  0.2089
 2984SOL     OW20587   2.748   1.954   4.218 -0.5109  0.1146 -0.3966
 2984SOL    HW120588   2.690   1.934   4.144 -0.4357 -1.6592  0.0284
 2984SOL    HW220589   2.755   2.049   4.213  0.6733  0.0344 -0.2853
 2985SOL     OW20590   0.717   2.168   7.156 -0.2886  0.0938  0.0729
 2985SOL    HW120591   0.782   2.105   7.190 -0.9028 -0.0528  0.9654
 2985SOL    HW220592   0.643   2.152   7.214 -0.2942 -0.8643 -0.1888
 2986SOL     OW20593   1.487   0.923   9.281 -0.3645  0.2965 -0.6608
 2986SOL    HW120594   1.526   0.990   9.224 -0.3363  1.5896  0.8607
 2986SOL    HW220595   1.501   0.960   9.369 -1.5574  0.5064 -0.5578
 2987SOL     OW20596   0.244   2.875   3.250 -0.3507 -0.1065  0.4474
 2987SOL    HW120597   0.330   2.879   3.210 -0.7688  2.8079 -0.1293
 2987SOL    HW220598   0.198   2.827   3.181  0.2388 -0.6889  0.4625
 2988SOL     OW20599   2.191   2.422  16.787  0.2401  0.4471 -0.1361
 2988SOL    HW120600   2.169   2.505  16.744 -0.7945  0.1074 -0.2617
 2988SOL    HW220601   2.287   2.427  16.781  0.2977 -0.1477  0.2798
 2989SOL     OW20602   2.955   4.651   8.185 -0.0005 -0.3118 -0.0779
 2989SOL    HW120603   2.860   4.663   8.190 -0.1016 -1.2375  0.2144
 2989SOL    HW220604   2.965   4.560   8.155  1.3797 -0.0553 -0.4231
 2990SOL     OW20605   3.464   1.557  15.870  0.1873  0.0205  0.3954
 2990SOL    HW120606   3.380   1.599  15.889 -0.6269  0.1632 -3.4629
 2990SOL    HW220607   3.448   1.465  15.889 -2.0754 -0.3073 -3.0101
 2991SOL     OW20608   1.193   0.881   9.492  0.0153 -0.0637  0.3442
 2991SOL    HW120609   1.123   0.925   9.444 -0.0653  0.1037  0.6174
 2991SOL    HW220610   1.202   0.945   9.562 -3.0099 -0.5657  1.1621
 2992SOL     OW20611   3.167   2.579   2.392 -0.0034 -0.0578  0.2432
 2992SOL    HW120612   3.255   2.581   2.355  0.1391 -0.1799  0.5747
 2992SOL    HW220613   3.126   2.522   2.327 -0.8686  1.8243 -0.8616
 2993SOL     OW20614   0.073   1.364   6.069 -0.1145  0.2934 -0.2786
 2993SOL    HW120615   4.726   1.373   6.110  0.8102 -0.1128  1.7753
 2993SOL    HW220616   0.041   1.380   5.980  0.3928  1.1918 -0.3026
 2994SOL     OW20617   4.224   4.723   4.724  0.4234 -0.0818 -0.5602
 2994SOL    HW120618   4.302   4.690   4.768  0.8272  0.4868 -0.8485
 2994SOL    HW220619   4.261   0.041   4.657 -1.4522 -0.2930 -1.8082
 2995SOL     OW20620   0.798   3.137   2.428  0.3776 -0.6183 -0.1650
 2995SOL    HW120621   0.761   3.208   2.375 -0.4292 -0.6699  0.3247
 2995SOL    HW220622   0.893   3.141   2.421  0.3715 -0.2050 -0.0169
 2996SOL     OW20623   1.937   0.413   3.803  0.5678  0.2221  0.1538
 2996SOL    HW120624   1.979   0.385   3.884  0.8217  1.2525  0.3750
 2996SOL    HW220625   1.980   0.340   3.756 -0.6289 -0.0894 -0.4596
 2997SOL     OW20626   3.215   0.543   1.780  0.6400  0.3298 -0.2193
 2997SOL    HW120627   3.265   0.464   1.759 -1.0885 -0.9984  0.7137
 2997SOL    HW220628   3.265   0.616   1.743  1.9310  0.1287  1.1088
 2998SOL     OW20629   4.540   0.086   7.988 -0.2968 -0.2044  0.1026
 2998SOL    HW120630   4.522   0.087   8.082  0.5240  0.3223  0.2495
 2998SOL    HW220631   4.627   0.127   7.988  0.9915 -2.9408 -0.8185
 2999SOL     OW20632   4.583   4.364   9.317 -0.0399 -0.9356 -0.3188
 2999SOL    HW120633   4.583   4.456   9.345 -0.8755 -0.5975 -1.4776
 2999SOL    HW220634   4.510   4.362   9.256 -0.6814  0.0585  0.4230
 3000SOL     OW20635   1.830   4.680   8.998 -0.3393  0.3212  0.0308
 3000SOL    HW120636   1.868   4.657   8.913 -0.6786 -0.1504  0.0086
 3000SOL    HW220637   1.785   4.597   9.015 -0.3252  0.5336  1.1317
 3001SOL     OW20638   2.945   3.183  14.744  0.4610  0.5993  0.7247
 3001SOL    HW120639   2.995   3.175  14.662  1.4099  0.6868  1.2908
 3001SOL    HW220640   2.996   3.255  14.780  2.0989  0.5980 -1.5808
 3002SOL     OW20641   1.936   0.074   7.132  0.1335  0.7883 -0.2108
 3002SOL    HW120642   1.904   0.112   7.214  2.4597  0.5264  0.8132
 3002SOL    HW220643   1.914   4.722   7.149  1.3979  0.9324  2.1414
 3003SOL     OW20644   1.995   0.654   9.264  0.0410  0.0362  0.0628
 3003SOL    HW120645   1.977   0.577   9.318 -1.9903  0.3043 -0.2196
 3003SOL    HW220646   1.942   0.722   9.306  0.7405  0.8915 -0.4373
 3004SOL     OW20647   1.862   0.040   6.212 -0.3625  0.1743  0.0711
 3004SOL    HW120648   1.796   0.089   6.260 -1.1565  0.0713 -0.9064
 3004SOL    HW220649   1.940   0.076   6.254 -0.0107 -0.0328 -0.4067
 3005SOL     OW20650   3.472   2.477   5.991  0.6120  0.1144 -0.2286
 3005SOL    HW120651   3.478   2.425   5.911 -1.0271 -1.4021  0.6482
 3005SOL    HW220652   3.555   2.467   6.038  1.0033  2.3070 -0.4631
 3006SOL     OW20653   2.170   1.317  17.120  0.4689  0.2004  0.4550
 3006SOL    HW120654   2.200   1.380  17.186 -0.1554  1.0629 -0.0875
 3006SOL    HW220655   2.253   1.300  17.075  0.3706 -2.6316  1.3339
 3007SOL     OW20656   0.978   2.280   2.419 -1.2099  0.1117 -0.0469
 3007SOL    HW120657   1.038   2.351   2.441 -1.9070  0.3158  1.1482
 3007SOL    HW220658   0.907   2.343   2.419 -0.2404  1.2405 -3.4166
 3008SOL     OW20659   1.419   2.286   9.397  0.1407  0.3917 -0.2383
 3008SOL    HW120660   1.383   2.225   9.461  2.5443 -0.3062  0.4564
 3008SOL    HW220661   1.400   2.244   9.313  3.5091 -1.3468 -0.1458
 3009SOL     OW20662   1.864   0.866   5.259 -0.2715 -0.2023  0.2265
 3009SOL    HW120663   1.944   0.815   5.268 -1.6030 -1.8241  2.8078
 3009SOL    HW220664   1.801   0.797   5.278  1.5364 -1.9903 -0.3790
 3010SOL     OW20665   1.954   3.592  10.811  0.7287 -0.1554  0.5094
 3010SOL    HW120666   1.905   3.612  10.732  1.5677 -3.4534 -0.8465
 3010SOL    HW220667   1.881   3.551  10.857  0.5573  1.6181  1.8068
 3011SOL     OW20668   3.912   2.315   2.703 -0.4185  0.7111 -0.3234
 3011SOL    HW120669   3.824   2.306   2.738 -1.2884  0.9181 -2.4627
 3011SOL    HW220670   3.890   2.326   2.611 -1.2573 -0.2123 -0.2310
 3012SOL     OW20671   2.194   2.682   2.610  0.3859 -0.0937  0.2676
 3012SOL    HW120672   2.171   2.733   2.687 -2.4329 -0.4956 -0.3114
 3012SOL    HW220673   2.242   2.742   2.553 -2.0205  0.9435 -0.6701
 3013SOL     OW20674   1.766   2.440   7.438 -0.6005  0.2064  0.2545
 3013SOL    HW120675   1.698   2.392   7.485 -0.1429  0.4516  1.1831
 3013SOL    HW220676   1.713   2.483   7.371 -1.1868 -0.7066  0.1428
 3014SOL     OW20677   2.999   1.415   4.703 -0.4800  0.3809 -0.2654
 3014SOL    HW120678   2.910   1.419   4.668 -1.9337 -2.1739  3.0249
 3014SOL    HW220679   3.026   1.506   4.692 -0.4159  0.5194  1.0541
 3015SOL     OW20680   3.999   1.221   2.398 -0.1920 -0.4727 -0.1880
 3015SOL    HW120681   3.921   1.168   2.418  0.2449 -0.7890  0.7005
 3015SOL    HW220682   3.958   1.286   2.341  0.7459 -2.1651 -2.7933
 3016SOL     OW20683   3.686   1.046   4.320  0.1396  0.2346  0.4486
 3016SOL    HW120684   3.770   1.007   4.344  1.4920  1.8804 -1.6254
 3016SOL    HW220685   3.662   0.976   4.259 -0.4005  2.4052 -1.8427
 3017SOL     OW20686   0.653   2.437   4.868  0.1816 -0.6616  0.2115
 3017SOL    HW120687   0.560   2.419   4.884  0.1543 -0.8086 -0.1096
 3017SOL    HW220688   0.690   2.355   4.900 -1.8222 -1.9122 -0.6672
 3018SOL     OW20689   4.344   2.886   4.990 -0.2700  0.6770 -0.1225
 3018SOL    HW120690   4.366   2.865   4.899 -1.9068 -1.0659 -0.1072
 3018SOL    HW220691   4.311   2.803   5.024  0.1087  0.8895  0.7749
 3019SOL     OW20692   2.582   2.367   2.854  0.3657  0.3596  0.0716
 3019SOL    HW120693   2.598   2.397   2.765 -0.3349  0.7936  0.0914
 3019SOL    HW220694   2.493   2.335   2.843  0.4236  0.3316 -0.3028
 3020SOL     OW20695   2.932   2.391  11.422  0.0652  0.3058  0.3800
 3020SOL    HW120696   2.958   2.319  11.479 -0.3620  0.9502  1.3926
 3020SOL    HW220697   2.839   2.407  11.440 -0.2216  2.5040 -2.8156
 3021SOL     OW20698   1.631   4.562   9.767  0.0814  0.8688  0.1576
 3021SOL    HW120699   1.553   4.605   9.732 -1.7113 -1.0776  1.7426
 3021SOL    HW220700   1.600   4.471   9.765  0.8517  0.5837  1.3487
 3022SOL     OW20701   1.862   3.296   8.889 -0.6415  0.1427  0.0573
 3022SOL    HW120702   1.913   3.304   8.808 -0.0613 -0.2229  0.3845
 3022SOL    HW220703   1.861   3.202   8.903  1.4042  0.5332  2.8391
 3023SOL     OW20704   2.722   0.460  16.000  0.0124  0.0971 -0.0099
 3023SOL    HW120705   2.674   0.464  15.917  1.0768  0.6639 -0.5975
 3023SOL    HW220706   2.798   0.414  15.963  0.7157  1.7478 -0.6181
 3024SOL     OW20707   2.101   0.864   9.967  0.1620 -0.8883 -0.6653
 3024SOL    HW120708   2.056   0.799   9.913  0.7998 -2.0848  0.2578
 3024SOL    HW220709   2.062   0.839  10.050 -0.0895 -1.1122 -0.8529
 3025SOL     OW20710   1.528   3.492   7.972 -0.5539 -0.5567  0.1465
 3025SOL    HW120711   1.559   3.412   8.014  0.2634 -0.4457 -0.2450
 3025SOL    HW220712   1.611   3.515   7.930 -0.6116 -2.3644 -0.9343
 3026SOL     OW20713   2.655   0.486  15.753 -0.0866  0.2015 -0.2242
 3026SOL    HW120714   2.572   0.490  15.706  0.6755 -2.6382 -1.8174
 3026SOL    HW220715   2.720   0.486  15.683 -0.7049  0.4285 -0.7930
 3027SOL     OW20716   4.371   1.632   6.266  0.2752  0.0082  0.0375
 3027SOL    HW120717   4.323   1.714   6.257 -0.0869 -0.4385 -2.1329
 3027SOL    HW220718   4.363   1.601   6.175 -0.0981 -2.1620  0.7947
 3028SOL     OW20719   1.155   1.673   5.297  0.0529  0.0403  0.5865
 3028SOL    HW120720   1.224   1.673   5.364 -0.0067 -0.2366  0.6442
 3028SOL    HW220721   1.121   1.762   5.308  3.8411  1.6371 -0.5929
 3029SOL     OW20722   4.259   4.334   9.461 -0.3923  0.0733  0.5970
 3029SOL    HW120723   4.180   4.280   9.457 -0.6845  0.6404 -0.9600
 3029SOL    HW220724   4.285   4.344   9.370 -2.3112 -0.7102 -0.0287
 3030SOL     OW20725   1.600   1.136   3.107 -0.3653 -0.4524  0.1609
 3030SOL    HW120726   1.573   1.220   3.146  0.1733 -1.2906  2.3267
 3030SOL    HW220727   1.571   1.073   3.173  0.4261  0.0320  0.9729
 3031SOL     OW20728   0.933   3.654   9.599 -0.3823  0.5400  0.5611
 3031SOL    HW120729   0.896   3.601   9.669  0.7207 -0.7937  0.1478
 3031SOL    HW220730   1.013   3.688   9.638  1.3694 -3.3688  0.3849
 3032SOL     OW20731   1.584   1.119   7.114 -0.3077 -0.0289  0.1296
 3032SOL    HW120732   1.624   1.096   7.198 -0.1722  1.5871  0.4961
 3032SOL    HW220733   1.631   1.199   7.093 -1.5415  0.7447  0.3479
 3033SOL     OW20734   0.825   4.163   5.765 -0.1978  0.1363 -0.1409
 3033SOL    HW120735   0.733   4.184   5.776 -0.4190 -0.0335 -1.6626
 3033SOL    HW220736   0.859   4.144   5.852 -1.5050 -0.3343  0.2645
 3034SOL     OW20737   0.160   2.546   3.194 -0.6999  0.2448 -0.0578
 3034SOL    HW120738   0.158   2.542   3.098  0.6488  0.5815 -0.0990
 3034SOL    HW220739   0.078   2.583   3.225 -0.3936  0.7986  0.0800
 3035SOL     OW20740   4.157   0.240  10.175 -0.1856 -0.0651  0.7306
 3035SOL    HW120741   4.097   0.175  10.212 -0.5615 -0.2099 -0.1296
 3035SOL    HW220742   4.121   0.326  10.196 -0.3274  0.7786 -3.0497
 3036SOL     OW20743   4.034   0.290   7.374  0.1457 -0.0597  0.3072
 3036SOL    HW120744   4.054   0.205   7.413 -0.8454 -0.6109 -0.3930
 3036SOL    HW220745   3.960   0.260   7.321  0.2963  1.8887 -1.0096
 3037SOL     OW20746   2.864   3.495  13.962 -0.6135 -0.1011 -0.1858
 3037SOL    HW120747   2.776   3.486  13.924 -0.9671 -0.3208  0.7044
 3037SOL    HW220748   2.853   3.582  14.000  0.2963 -1.3320  2.8041
 3038SOL     OW20749   2.232   1.370   5.728  0.5255 -0.2470 -0.3305
 3038SOL    HW120750   2.153   1.319   5.709  1.5613 -1.0794 -2.4993
 3038SOL    HW220751   2.232   1.425   5.649 -3.5736 -0.6294 -0.5891
 3039SOL     OW20752   3.234   2.607  13.034 -0.0957  0.0950  0.0152
 3039SOL    HW120753   3.152   2.589  12.988  1.6138 -0.9345 -2.6639
 3039SOL    HW220754   3.299   2.617  12.964 -0.6956  0.0938 -0.5456
 3040SOL     OW20755   1.174   2.274   3.603 -0.2983  0.0532 -0.0551
 3040SOL    HW120756   1.254   2.224   3.619  0.0626  0.2916 -1.1698
 3040SOL    HW220757   1.116   2.248   3.675  1.4764 -0.3657  1.2133
 3041SOL     OW20758   2.249   4.138   8.011  0.1304 -0.1830 -0.0699
 3041SOL    HW120759   2.265   4.050   7.979  1.5830  0.7294 -1.8795
 3041SOL    HW220760   2.166   4.140   7.963  1.6053  1.0235 -2.5830
 3042SOL     OW20761   0.965   2.128  16.257  0.0229  0.3105 -0.9395
 3042SOL    HW120762   0.943   2.200  16.197 -0.7203  1.4223  0.6513
 3042SOL    HW220763   1.059   2.120  16.244  0.0061 -0.1923 -0.7508
 3043SOL     OW20764   3.824   3.564   3.603 -0.3532 -0.2024 -0.6149
 3043SOL    HW120765   3.866   3.537   3.684 -0.5471  0.7658 -0.1919
 3043SOL    HW220766   3.771   3.484   3.601  0.0566 -0.4890  0.3885
 3044SOL     OW20767   0.150   1.773  15.016  0.3277  0.0463  0.5472
 3044SOL    HW120768   0.078   1.736  15.066  1.8382  0.4611  3.0339
 3044SOL    HW220769   0.101   1.798  14.938  2.1112  2.5264  0.1941
 3045SOL     OW20770   1.479   4.548   9.195  0.0774 -0.0519  0.4216
 3045SOL    HW120771   1.389   4.518   9.204  0.2615 -0.3130  1.3807
 3045SOL    HW220772   1.474   4.622   9.134 -1.8155 -1.2237 -0.8378
 3046SOL     OW20773   0.906   1.869   6.991  0.1607 -0.0039  0.3645
 3046SOL    HW120774   0.975   1.878   6.926 -0.8022 -0.5755 -0.7465
 3046SOL    HW220775   0.896   1.774   6.978 -0.6042  0.3233 -1.3637
 3047SOL     OW20776   1.000   0.055  11.645  0.4655 -0.1984 -0.1141
 3047SOL    HW120777   1.035   4.706  11.656 -0.3362 -0.3241  1.4092
 3047SOL    HW220778   1.072   0.098  11.599 -0.1689  3.0287  1.9216
 3048SOL     OW20779   3.125   4.446  11.870 -0.0917 -0.0240 -0.2687
 3048SOL    HW120780   3.041   4.400  11.868  0.3167 -0.8192  1.4574
 3048SOL    HW220781   3.163   4.400  11.944 -0.8669 -2.2799 -1.2631
 3049SOL     OW20782   4.418   3.978  11.647 -0.1117 -0.1093  0.1167
 3049SOL    HW120783   4.341   3.948  11.695  0.6615  0.9397  2.0298
 3049SOL    HW220784   4.466   3.904  11.611 -0.7261 -0.0397 -0.8659
 3050SOL     OW20785   0.108   4.031   3.219  0.4111  0.4086 -0.3119
 3050SOL    HW120786   0.167   4.063   3.287  0.4722 -0.2480 -0.0621
 3050SOL    HW220787   0.054   4.106   3.194 -1.6471  0.0589  3.2817
 3051SOL     OW20788   2.739   0.398   4.180 -0.0082 -0.0837 -0.2230
 3051SOL    HW120789   2.669   0.391   4.114  1.3180  1.8085 -1.8534
 3051SOL    HW220790   2.692   0.372   4.259  0.2613  0.1347  0.0087
 3052SOL     OW20791   0.068   4.051   4.418 -0.5856 -0.1831  0.1958
 3052SOL    HW120792   0.132   4.118   4.396 -2.4959  1.6129  0.1392
 3052SOL    HW220793   0.094   3.980   4.358  0.7793 -1.9567  2.8968
 3053SOL     OW20794   3.092   4.281   5.295 -0.1033  0.0287  0.1244
 3053SOL    HW120795   2.998   4.294   5.280 -0.3412 -0.4416  1.1713
 3053SOL    HW220796   3.104   4.196   5.337  1.2411 -0.4494 -1.2576
 3054SOL     OW20797   0.165   2.520  15.033  0.0014 -0.0018  0.1181
 3054SOL    HW120798   0.255   2.489  15.025  0.4914  1.1154  1.2865
 3054SOL    HW220799   0.163   2.568  15.116  0.6553 -1.0748  0.7511
 3055SOL     OW20800   1.568   3.524   1.206  0.1454  0.0103 -0.0926
 3055SOL    HW120801   1.501   3.592   1.214 -0.8647 -0.8771 -1.0927
 3055SOL    HW220802   1.540   3.469   1.134  3.1387 -1.1186 -0.4106
 3056SOL     OW20803   0.713   2.148   4.216  0.0521  0.6952  0.3393
 3056SOL    HW120804   0.645   2.201   4.257 -1.4985 -0.6108 -0.5441
 3056SOL    HW220805   0.792   2.189   4.252  0.7451 -0.7032  0.4128
 3057SOL     OW20806   2.824   1.830   7.640  0.1547  0.2880  0.3185
 3057SOL    HW120807   2.890   1.889   7.677  1.4672 -0.3843 -0.9174
 3057SOL    HW220808   2.761   1.885   7.594 -1.0110 -2.0673 -0.8787
 3058SOL     OW20809   0.905   0.351  14.891 -0.2102 -0.4936  0.4399
 3058SOL    HW120810   0.961   0.355  14.813  0.8431  1.7930  1.3236
 3058SOL    HW220811   0.831   0.397  14.851  1.8064 -0.1735 -2.9812
 3059SOL     OW20812   3.714   2.539   3.883 -0.2225 -0.3044  0.2756
 3059SOL    HW120813   3.702   2.630   3.909  0.3076 -0.9681  2.8706
 3059SOL    HW220814   3.638   2.494   3.920 -1.5840  0.6196 -1.3706
 3060SOL     OW20815   4.109   3.505   6.935  0.1226 -0.1056  0.1889
 3060SOL    HW120816   4.176   3.552   6.985  1.1895  0.0370 -1.4107
 3060SOL    HW220817   4.053   3.484   7.011 -1.4657  1.7140 -0.4791
 3061SOL     OW20818   3.983   3.687   9.653 -0.6338 -0.0369  0.2749
 3061SOL    HW120819   3.931   3.682   9.733 -1.8657 -1.6420 -0.6100
 3061SOL    HW220820   4.030   3.605   9.666  0.2588  0.5810  0.9054
 3062SOL     OW20821   3.032   3.317   8.367 -0.5378 -0.2864  0.0314
 3062SOL    HW120822   2.962   3.367   8.326 -1.3531 -1.1834  0.3522
 3062SOL    HW220823   3.094   3.318   8.294 -0.4709  1.8683  0.0998
 3063SOL     OW20824   4.173   2.451   8.559 -0.1092  0.2797 -0.2029
 3063SOL    HW120825   4.205   2.503   8.632 -2.1110  0.6617  0.4183
 3063SOL    HW220826   4.125   2.385   8.609 -0.0331  1.0610  0.8972
 3064SOL     OW20827   0.430   2.365   0.641 -0.1247 -0.0744  0.3632
 3064SOL    HW120828   0.428   2.431   0.710  3.9716  0.1708  0.2053
 3064SOL    HW220829   0.394   2.284   0.678 -0.3118  0.1791  0.7269
 3065SOL     OW20830   0.592   3.955  16.238  0.2387  0.5846  0.4297
 3065SOL    HW120831   0.512   3.913  16.208 -0.2263  1.3645  0.5667
 3065SOL    HW220832   0.608   3.902  16.316  0.0850  0.6479  0.5025
 3066SOL     OW20833   1.258   1.794   7.643  0.1181  0.0422 -0.0644
 3066SOL    HW120834   1.342   1.749   7.639  0.2046  0.3272 -1.7791
 3066SOL    HW220835   1.270   1.879   7.600 -2.5143  0.9510  0.9945
 3067SOL     OW20836   3.727   4.189   6.296 -0.1326 -0.1031 -0.4240
 3067SOL    HW120837   3.677   4.161   6.372 -0.0223 -1.3335 -0.8097
 3067SOL    HW220838   3.739   4.105   6.252  0.3818 -0.1760 -0.1365
 3068SOL     OW20839   4.275   1.450   3.657  0.6812 -0.2275 -0.6998
 3068SOL    HW120840   4.327   1.443   3.737  1.3196  1.9459 -0.9311
 3068SOL    HW220841   4.185   1.427   3.679  0.6887  0.3530 -0.0650
 3069SOL     OW20842   1.307   1.429   0.518 -0.4843  0.0335  0.5331
 3069SOL    HW120843   1.321   1.523   0.525 -0.5135 -0.0307  1.4562
 3069SOL    HW220844   1.387   1.394   0.557 -1.3152 -0.6322  1.6764
 3070SOL     OW20845   4.630   4.026  14.700  0.1664  0.0460  0.4933
 3070SOL    HW120846   4.632   4.013  14.606  1.6262  0.4886  0.4572
 3070SOL    HW220847   4.541   4.057  14.716 -0.4741 -1.1166 -0.8706
 3071SOL     OW20848   2.389   3.040   4.531 -0.1928  0.4902  0.1475
 3071SOL    HW120849   2.304   3.070   4.501 -0.6791 -0.7795  0.2580
 3071SOL    HW220850   2.365   3.001   4.615 -0.8495 -1.2294 -0.8230
 3072SOL     OW20851   2.901   0.791   9.337 -0.3360  0.1508  0.1224
 3072SOL    HW120852   2.892   0.748   9.422 -3.5684 -1.7885 -1.1936
 3072SOL    HW220853   2.901   0.881   9.370 -0.1125 -0.0839  0.7651
 3073SOL     OW20854   1.491   0.101   5.456 -0.0990  0.3330  0.1144
 3073SOL    HW120855   1.577   0.140   5.476 -0.8370  2.2994 -0.5577
 3073SOL    HW220856   1.446   0.114   5.539  1.6469  0.6522  1.0156
 3074SOL     OW20857   3.881   0.389   6.958 -0.3412  0.2232  0.2535
 3074SOL    HW120858   3.810   0.393   7.022 -0.7567 -1.7886 -0.0718
 3074SOL    HW220859   3.858   0.299   6.934 -1.2196  0.2836  0.8923
 3075SOL     OW20860   0.456   1.018   7.952 -0.0999  0.3699  0.4356
 3075SOL    HW120861   0.413   0.946   7.906  0.0633  1.2078 -1.0046
 3075SOL    HW220862   0.384   1.046   8.009  0.0271  0.5712  0.4971
 3076SOL     OW20863   3.322   2.117   7.259  0.1578  0.3955  0.0500
 3076SOL    HW120864   3.393   2.144   7.200  1.5120 -1.6496  0.7485
 3076SOL    HW220865   3.250   2.118   7.197  0.1861 -1.8780 -0.0104
 3077SOL     OW20866   2.428   4.386   7.688 -0.0783 -0.2476 -0.0154
 3077SOL    HW120867   2.344   4.378   7.733 -0.2063  2.0413  0.1673
 3077SOL    HW220868   2.471   4.312   7.730 -1.9504 -0.6022  1.2763
 3078SOL     OW20869   3.332   3.314   5.491  0.0655 -0.2662 -0.3447
 3078SOL    HW120870   3.310   3.407   5.496  0.2798 -0.3536  2.2618
 3078SOL    HW220871   3.314   3.303   5.398  1.0447 -1.0466 -0.4420
 3079SOL     OW20872   3.061   0.296   2.419 -0.6182  0.1003 -0.1207
 3079SOL    HW120873   3.084   0.355   2.348  1.2919 -1.6374 -0.9749
 3079SOL    HW220874   3.073   0.353   2.494  2.8464 -1.1835  0.3132
 3080SOL     OW20875   0.111   4.249  10.933  0.1251 -0.3051 -0.4177
 3080SOL    HW120876   0.046   4.265  11.002  0.6481  0.6158 -0.1279
 3080SOL    HW220877   0.169   4.319  10.963 -3.3884  1.7638  1.5911
 3081SOL     OW20878   2.262   1.519   9.412 -0.4169  0.1486  0.5813
 3081SOL    HW120879   2.314   1.512   9.492  0.1785 -2.0919 -0.0226
 3081SOL    HW220880   2.325   1.548   9.346  1.2251 -2.0935  1.1855
 3082SOL     OW20881   2.897   3.183   8.593 -0.0669  0.1618 -0.1726
 3082SOL    HW120882   2.905   3.246   8.521  2.7270 -0.5573 -0.4899
 3082SOL    HW220883   2.823   3.222   8.640 -0.3607  0.4054 -0.8379
 3083SOL     OW20884   2.556   1.213   3.918 -0.1441  0.3258  0.1478
 3083SOL    HW120885   2.490   1.240   3.982  0.7730 -1.2654  1.7604
 3083SOL    HW220886   2.512   1.223   3.833  2.6002  0.4628 -1.2540
 3084SOL     OW20887   4.539   3.828   8.246  0.0795  1.0560 -0.0413
 3084SOL    HW120888   4.507   3.913   8.214 -1.0983  1.0314  1.0547
 3084SOL    HW220889   4.607   3.804   8.184  1.4406 -0.9981  2.2431
 3085SOL     OW20890   0.987   3.800  13.343 -0.3345  0.2555  0.1366
 3085SOL    HW120891   1.055   3.763  13.400  0.3645 -0.0993 -0.9394
 3085SOL    HW220892   0.994   3.891  13.372 -1.5173  0.0487  1.0624
 3086SOL     OW20893   4.196   0.016   2.778 -0.1008  0.1429  0.0236
 3086SOL    HW120894   4.218   0.109   2.781  1.6009 -0.2645  0.2221
 3086SOL    HW220895   4.271   4.724   2.728  0.0530 -0.7553  0.8291
 3087SOL     OW20896   2.955   2.001  17.403  0.3189  0.1882 -0.2894
 3087SOL    HW120897   2.934   2.022  17.493  0.2000 -0.6294 -0.1248
 3087SOL    HW220898   3.050   1.992  17.409  0.3290  0.3783 -0.1657
 3088SOL     OW20899   0.954   3.999   0.506  0.6403  0.3346  0.3085
 3088SOL    HW120900   1.033   3.981   0.456  0.5830 -0.9586  0.6972
 3088SOL    HW220901   0.894   3.934   0.471  1.3617  1.2201 -2.5776
 3089SOL     OW20902   0.590   4.595   7.202 -0.2152  0.0034 -0.2950
 3089SOL    HW120903   0.561   4.619   7.290  1.2632 -0.0659  0.2233
 3089SOL    HW220904   0.677   4.569   7.234 -0.2973 -0.3263 -0.3473
 3090SOL     OW20905   2.005   3.159   3.775  0.2907  1.0785 -0.9280
 3090SOL    HW120906   2.037   3.244   3.745 -1.6545  1.3960 -2.0957
 3090SOL    HW220907   2.034   3.119   3.693 -0.3188 -1.8476  0.2628
 3091SOL     OW20908   3.100   0.229   3.059  0.6552  0.1575 -0.1780
 3091SOL    HW120909   3.112   0.135   3.040 -1.1679 -0.1207  0.0217
 3091SOL    HW220910   3.184   0.270   3.042  1.3418 -0.3293  2.0776
 3092SOL     OW20911   2.905   1.146   6.178 -0.2014 -0.6546 -0.3748
 3092SOL    HW120912   2.974   1.207   6.202 -1.4377  1.2050 -1.5383
 3092SOL    HW220913   2.837   1.209   6.155 -0.8573 -0.4470  2.1599
 3093SOL     OW20914   3.113   0.508   8.359  0.7447 -0.2027  0.1579
 3093SOL    HW120915   3.197   0.554   8.355  0.6238 -0.0953 -1.1733
 3093SOL    HW220916   3.133   0.442   8.425  0.8435  0.8096  1.1343
 3094SOL     OW20917   0.172   4.330   8.807 -0.1273 -0.3478 -0.2764
 3094SOL    HW120918   0.212   4.244   8.826  0.7841 -0.5293 -2.9211
 3094SOL    HW220919   0.082   4.314   8.832 -0.1868  1.2500  0.4827
 3095SOL     OW20920   2.677   1.242   1.536  0.4242  0.1868 -0.4700
 3095SOL    HW120921   2.621   1.208   1.606  0.4355 -0.3660 -0.7246
 3095SOL    HW220922   2.646   1.177   1.472  2.4210 -1.0237 -0.2187
 3096SOL     OW20923   3.125   3.741  13.898 -0.4096  0.0646 -0.2948
 3096SOL    HW120924   3.116   3.777  13.809 -1.6987  1.4921  0.4113
 3096SOL    HW220925   3.048   3.686  13.906 -0.4484 -0.0432 -1.2964
 3097SOL     OW20926   1.182   0.535  14.912  0.2416 -0.4244 -0.4958
 3097SOL    HW120927   1.246   0.584  14.965  0.1394 -0.0371 -0.7331
 3097SOL    HW220928   1.135   0.494  14.985 -0.0515  0.8683  0.0429
 3098SOL     OW20929   0.101   3.204   2.737 -0.1018  0.4604 -0.0727
 3098SOL    HW120930   0.168   3.268   2.761  1.5898 -1.3055 -0.0826
 3098SOL    HW220931   0.140   3.150   2.667 -1.9195 -2.2561  1.0008
 3099SOL     OW20932   3.383   2.636  13.262  0.3228  0.2596 -0.1545
 3099SOL    HW120933   3.302   2.635  13.314 -1.7972 -2.3752 -3.5003
 3099SOL    HW220934   3.340   2.624  13.177  0.6246 -3.1946  0.1600
 3100SOL     OW20935   4.695   3.030   9.341  0.2661 -0.3260  0.3104
 3100SOL    HW120936   4.667   2.945   9.307 -0.1470 -0.1058  0.1078
 3100SOL    HW220937   4.728   2.994   9.423  2.4133  0.3550 -0.2452
 3101SOL     OW20938   1.379   3.136   6.466 -1.1691  0.1566  0.5100
 3101SOL    HW120939   1.405   3.082   6.540  0.9014 -1.8884 -1.7378
 3101SOL    HW220940   1.416   3.082   6.397 -2.1615  1.3849 -0.9811
 3102SOL     OW20941   1.468   3.711   8.109 -0.4244  0.0381 -0.1346
 3102SOL    HW120942   1.479   3.631   8.058  0.6634  1.0107 -1.4288
 3102SOL    HW220943   1.482   3.698   8.203  0.5801  1.4353 -0.0876
 3103SOL     OW20944   1.368   2.319   2.938 -0.3797 -0.4669  0.1504
 3103SOL    HW120945   1.303   2.340   3.005  1.4320 -0.1796  1.8301
 3103SOL    HW220946   1.309   2.342   2.867  0.1815 -0.1934 -0.2299
 3104SOL     OW20947   2.845   1.065   4.724  0.1527  0.0537 -0.6540
 3104SOL    HW120948   2.914   1.131   4.725  0.3945 -0.1794 -3.8486
 3104SOL    HW220949   2.856   1.009   4.647  0.0381  1.1070 -1.4272
 3105SOL     OW20950   3.175   3.870   5.238 -0.7239  0.0906  0.3953
 3105SOL    HW120951   3.140   3.787   5.270 -3.4803  0.8024 -0.7868
 3105SOL    HW220952   3.266   3.867   5.265 -0.8368  0.8538  0.8603
 3106SOL     OW20953   4.120   1.186   1.509 -0.1310 -0.0344 -0.3489
 3106SOL    HW120954   4.084   1.124   1.573 -0.2811  0.8993  0.4906
 3106SOL    HW220955   4.145   1.255   1.571 -1.9724  0.3945 -0.0647
 3107SOL     OW20956   3.757   2.182   8.799 -0.1902 -0.1865  0.3832
 3107SOL    HW120957   3.767   2.129   8.878 -1.7290 -0.0843  0.6316
 3107SOL    HW220958   3.801   2.263   8.826 -2.1610  0.5724  1.3434
 3108SOL     OW20959   3.156   4.250  10.304 -0.0324  0.0433 -0.1942
 3108SOL    HW120960   3.187   4.186  10.368  2.3339  1.4639  0.0746
 3108SOL    HW220961   3.104   4.299  10.367  2.4876 -0.6101  2.3948
 3109SOL     OW20962   0.336   2.900   2.918 -0.3412  0.1763  0.1577
 3109SOL    HW120963   0.368   2.889   3.007 -0.0989 -0.3709  0.0084
 3109SOL    HW220964   0.410   2.880   2.860 -2.6143 -1.4201 -2.2496
 3110SOL     OW20965   3.029   3.794   3.219  0.8202  0.5412  0.2649
 3110SOL    HW120966   2.970   3.774   3.146  2.0976  0.4460 -0.7320
 3110SOL    HW220967   2.974   3.748   3.282 -2.2791  1.5293 -1.7150
 3111SOL     OW20968   4.586   2.523   3.582 -0.2823 -0.1439 -0.2038
 3111SOL    HW120969   4.599   2.566   3.666  2.0028 -1.3892  0.0828
 3111SOL    HW220970   4.513   2.580   3.557 -0.9762 -0.1153  1.9408
 3112SOL     OW20971   4.149   4.062   6.626  0.2199  0.3987  0.1072
 3112SOL    HW120972   4.089   4.024   6.561 -0.3990 -0.6702  1.2954
 3112SOL    HW220973   4.206   3.990   6.653 -0.3589  0.3561  1.2526
 3113SOL     OW20974   0.344   1.935   3.255 -0.5326 -0.6602 -0.4110
 3113SOL    HW120975   0.312   2.025   3.243 -0.9141 -0.8434 -0.8051
 3113SOL    HW220976   0.355   1.939   3.350  2.8880 -2.8195 -0.7425
 3114SOL     OW20977   2.786   3.715   4.936 -0.6657 -0.1586 -0.4117
 3114SOL    HW120978   2.782   3.659   5.013 -0.4826 -1.1723 -1.1451
 3114SOL    HW220979   2.800   3.802   4.975 -2.8691 -0.3129  0.7579
 3115SOL     OW20980   3.419   2.361  17.453 -0.4710 -0.1517  0.1819
 3115SOL    HW120981   3.423   2.304  17.529  0.5473  1.2300  1.1582
 3115SOL    HW220982   3.406   2.298  17.382 -0.5468  0.4685 -0.3648
 3116SOL     OW20983   3.521   2.709   3.144 -0.2350 -0.1565 -0.2353
 3116SOL    HW120984   3.472   2.629   3.165  0.4133 -0.8803 -1.4966
 3116SOL    HW220985   3.598   2.672   3.101 -0.9160 -2.2842  0.3836
 3117SOL     OW20986   2.892   4.146   8.035 -0.1030 -0.4673  0.4780
 3117SOL    HW120987   2.898   4.132   7.940  2.2368  0.6310  0.4735
 3117SOL    HW220988   2.981   4.163   8.065 -0.4421  1.5618  0.3259
 3118SOL     OW20989   0.660   4.622   7.667  0.0574 -0.0778  0.4810
 3118SOL    HW120990   0.575   4.665   7.681 -0.5689 -1.9599  2.4618
 3118SOL    HW220991   0.676   4.593   7.757 -1.7395 -1.5658  0.3322
 3119SOL     OW20992   4.428   1.071  16.288 -0.1424 -0.3493 -0.1194
 3119SOL    HW120993   4.444   1.132  16.215  3.5059 -1.3525 -0.1523
 3119SOL    HW220994   4.431   1.139  16.355  3.0812  1.6785 -2.3294
 3120SOL     OW20995   2.128   3.917   2.878 -0.6410 -0.0001 -0.1434
 3120SOL    HW120996   2.154   3.841   2.827 -0.8951 -0.4170  0.3472
 3120SOL    HW220997   2.189   3.984   2.848 -1.0732  0.2571 -0.4579
 3121SOL     OW20998   1.958   2.565  11.102  0.0081 -0.2500 -0.0486
 3121SOL    HW120999   1.955   2.535  11.193 -2.2922  0.4284  0.1027
 3121SOL    HW221000   1.962   2.660  11.116 -1.0169 -0.2652  0.3112
 3122SOL     OW21001   2.935   4.527   4.435 -0.0840  0.3196  0.0512
 3122SOL    HW121002   3.010   4.570   4.476  3.1574 -2.1136 -3.3480
 3122SOL    HW221003   2.968   4.439   4.450 -1.1723 -0.1070 -0.0589
 3123SOL     OW21004   1.145   0.368  11.940  0.2208 -0.5320 -0.2004
 3123SOL    HW121005   1.221   0.411  11.978 -1.7941  2.4362  0.5161
 3123SOL    HW221006   1.123   0.300  12.005  1.2507  0.7926  1.5354
 3124SOL     OW21007   4.295   0.641   3.006 -0.1825  0.0775  0.0760
 3124SOL    HW121008   4.323   0.719   2.958 -0.2520  1.0292  1.5993
 3124SOL    HW221009   4.285   0.674   3.095 -0.7205 -1.2240  0.4873
 3125SOL     OW21010   0.364   1.885   5.854  0.4984  0.1631  0.2925
 3125SOL    HW121011   0.377   1.814   5.792  2.1905  0.9861 -0.3123
 3125SOL    HW221012   0.371   1.840   5.938 -3.1845 -0.1066  0.4490
 3126SOL     OW21013   3.002   3.064   7.826 -0.0490  0.3663  0.0500
 3126SOL    HW121014   2.956   3.127   7.881  0.3682 -0.5554  1.4649
 3126SOL    HW221015   2.938   3.024   7.767  0.0610 -0.0068  0.1835
 3127SOL     OW21016   4.638   4.589   3.941  0.0248  0.5099  0.0666
 3127SOL    HW121017   4.637   4.518   4.006  1.5723  0.8076  0.4102
 3127SOL    HW221018   4.545   4.608   3.927  0.5505  1.8535 -1.5227
 3128SOL     OW21019   1.474   0.792   9.628 -0.1820 -0.5605 -0.7223
 3128SOL    HW121020   1.528   0.755   9.558 -2.9315 -3.4750 -1.2831
 3128SOL    HW221021   1.453   0.874   9.583  2.2000 -0.7791 -2.2402
 3129SOL     OW21022   4.044   4.738   7.437 -0.5661  0.0084 -0.0570
 3129SOL    HW121023   4.009   4.691   7.513 -0.8072 -0.6269 -0.5629
 3129SOL    HW221024   3.961   4.738   7.389 -0.3513 -1.0579 -0.4175
 3130SOL     OW21025   1.895   0.368   8.724 -0.7601  0.0614  0.7957
 3130SOL    HW121026   1.810   0.364   8.680 -0.8521 -2.1941  1.2117
 3130SOL    HW221027   1.870   0.402   8.810  0.4197 -0.7941  1.4584
 3131SOL     OW21028   0.740   1.349   3.903  0.0037  0.1340  0.0179
 3131SOL    HW121029   0.674   1.365   3.971  1.4415  3.4784  0.6691
 3131SOL    HW221030   0.720   1.260   3.874 -0.5022  0.5258 -0.8359
 3132SOL     OW21031   0.301   4.605   9.348  0.7777 -0.1787 -0.2237
 3132SOL    HW121032   0.350   4.525   9.331  1.1741 -0.3402  1.6194
 3132SOL    HW221033   0.369   4.673   9.345  0.4830  0.0785 -0.9878
 3133SOL     OW21034   0.151   3.795  17.097 -0.2022 -0.2772  0.1282
 3133SOL    HW121035   0.243   3.820  17.105 -0.0168 -0.7228 -0.5347
 3133SOL    HW221036   0.147   3.809  17.002 -0.3222  1.9057  0.4600
 3134SOL     OW21037   4.394   3.128  13.751 -0.4413  0.0180  0.1739
 3134SOL    HW121038   4.389   3.070  13.675  1.0740  0.9305 -0.6199
 3134SOL    HW221039   4.302   3.128  13.779 -0.4269  1.9339  0.2356
 3135SOL     OW21040   2.838   1.828   1.799  0.0101 -0.6142  0.3591
 3135SOL    HW121041   2.859   1.738   1.821  2.6159 -0.3000 -0.8680
 3135SOL    HW221042   2.925   1.855   1.769  0.2180 -0.7579  0.8377
 3136SOL     OW21043   0.401   4.210   2.280  0.5915 -0.1087  0.5912
 3136SOL    HW121044   0.401   4.291   2.332 -2.4319 -0.5065  1.2143
 3136SOL    HW221045   0.323   4.171   2.320 -0.4774 -1.7607 -3.1741
 3137SOL     OW21046   0.749   1.178  13.212  0.1550  0.2002  0.4565
 3137SOL    HW121047   0.724   1.137  13.130  0.2386 -2.1403  1.5883
 3137SOL    HW221048   0.814   1.115  13.244 -1.2189 -1.9894 -1.1755
 3138SOL     OW21049   3.912   3.620  11.297  0.0752  0.5508  0.1803
 3138SOL    HW121050   3.818   3.611  11.305  0.3197 -1.1623  1.1548
 3138SOL    HW221051   3.919   3.524  11.293 -0.7723  0.5221 -0.7116
 3139SOL     OW21052   3.245   2.507   8.721  0.0534 -0.5465  0.0611
 3139SOL    HW121053   3.287   2.522   8.636 -0.9556  2.0419  0.0168
 3139SOL    HW221054   3.167   2.562   8.720  0.7970  0.4243 -3.6175
 3140SOL     OW21055   3.911   1.790   5.111  0.3971 -0.0973 -0.0562
 3140SOL    HW121056   3.966   1.765   5.185  3.1464  2.0750 -1.3986
 3140SOL    HW221057   3.854   1.846   5.163 -1.7757 -0.3927 -2.0667
 3141SOL     OW21058   0.827   4.662   3.899 -0.2409 -0.0651 -0.0226
 3141SOL    HW121059   0.781   4.727   3.951 -1.4932 -3.1819  2.7248
 3141SOL    HW221060   0.763   4.592   3.895  0.0523 -0.4236  1.8532
 3142SOL     OW21061   1.545   3.167  16.533  0.1610 -0.3020 -0.1220
 3142SOL    HW121062   1.589   3.091  16.495  0.7616  0.1178 -0.2703
 3142SOL    HW221063   1.599   3.244  16.515  1.1162 -0.4029  2.3641
 3143SOL     OW21064   4.626   0.376   9.996  0.0218 -0.1482  0.5826
 3143SOL    HW121065   4.642   0.399   9.905 -0.1283  2.6647  1.2437
 3143SOL    HW221066   4.537   0.340   9.994 -0.6970  1.5785  0.6089
 3144SOL     OW21067   3.500   1.383  10.981 -0.3266 -0.3351 -0.0127
 3144SOL    HW121068   3.442   1.395  11.057 -0.7611 -0.1324 -0.3799
 3144SOL    HW221069   3.577   1.428  11.017 -1.6365  1.1240  0.9614
 3145SOL     OW21070   2.049   3.917   4.922  0.3709  0.2025  0.6066
 3145SOL    HW121071   2.068   3.902   5.015  1.6475  1.2078  0.5012
 3145SOL    HW221072   2.094   3.846   4.874 -0.6131  1.6932 -2.5246
 3146SOL     OW21073   2.221   0.345  10.994 -0.1038  0.0407  0.5110
 3146SOL    HW121074   2.179   0.354  10.909 -2.9012 -1.1572  1.7618
 3146SOL    HW221075   2.284   0.275  10.978  0.0650 -0.1389  1.9791
 3147SOL     OW21076   0.536   2.402   3.529  0.5039  0.1013 -0.4250
 3147SOL    HW121077   0.587   2.340   3.582 -0.5706 -1.9244 -1.7744
 3147SOL    HW221078   0.455   2.424   3.574  1.6696  1.6932  0.8611
 3148SOL     OW21079   0.650   2.387   3.272  0.3946  0.1384 -0.0897
 3148SOL    HW121080   0.687   2.301   3.252  2.1711  0.5940  1.1731
 3148SOL    HW221081   0.607   2.366   3.354  0.4066 -0.0416 -0.1285
 3149SOL     OW21082   2.797   4.033   2.309 -0.1216 -0.0650 -0.0133
 3149SOL    HW121083   2.817   4.121   2.279 -2.8344  0.5256 -0.1462
 3149SOL    HW221084   2.755   3.997   2.231 -1.4903 -1.4118  1.3246
 3150SOL     OW21085   2.912   2.652   8.480 -0.4938 -0.2069 -0.5239
 3150SOL    HW121086   2.915   2.737   8.525  0.6576  0.4543 -1.8717
 3150SOL    HW221087   2.988   2.660   8.423 -0.4567  1.7948 -0.1892
 3151SOL     OW21088   3.005   2.111   1.109 -0.0118  0.0000 -0.4444
 3151SOL    HW121089   2.932   2.126   1.169  0.5283 -2.0181  0.7156
 3151SOL    HW221090   3.057   2.187   1.137 -0.1617  0.2152 -0.7443
 3152SOL     OW21091   3.177   4.205   4.792  0.1837 -0.1898  0.3416
 3152SOL    HW121092   3.147   4.129   4.841 -0.9040  0.0938  0.1274
 3152SOL    HW221093   3.134   4.193   4.707 -0.7665 -0.7887  0.9091
 3153SOL     OW21094   2.933   1.510   7.215  0.9070  0.1868 -0.3155
 3153SOL    HW121095   2.902   1.456   7.287  0.9176 -0.2760 -0.6529
 3153SOL    HW221096   2.846   1.532   7.181 -0.9053 -2.0816  2.9051
 3154SOL     OW21097   3.723   3.862   6.865  1.0067  0.4726  0.0112
 3154SOL    HW121098   3.732   3.845   6.772 -0.0381  0.6717 -0.1314
 3154SOL    HW221099   3.700   3.773   6.892 -0.9062  0.9729  0.0562
 3155SOL     OW21100   1.751   0.435   6.748 -0.1339  0.2230  0.2826
 3155SOL    HW121101   1.821   0.498   6.759  0.7041 -1.0357  2.0753
 3155SOL    HW221102   1.707   0.434   6.833  1.5631 -1.9144  1.1341
 3156SOL     OW21103   4.477   4.148   5.642  0.1324 -0.2102  0.1043
 3156SOL    HW121104   4.458   4.194   5.560  2.5325 -0.8598 -0.8200
 3156SOL    HW221105   4.454   4.215   5.707  2.7338  1.9766 -1.2442
 3157SOL     OW21106   3.883   0.529   4.663 -0.5247  0.0914  0.1121
 3157SOL    HW121107   3.925   0.451   4.698 -0.7064  0.0074  0.1418
 3157SOL    HW221108   3.927   0.539   4.579 -1.6991 -0.1984 -0.5260
 3158SOL     OW21109   2.696   2.887   5.062 -0.0035  0.4561 -0.0811
 3158SOL    HW121110   2.728   2.887   4.972  2.3463 -1.9335  0.7686
 3158SOL    HW221111   2.757   2.946   5.107  1.7776 -0.7267 -0.9942
 3159SOL     OW21112   3.916   1.532  15.872  0.7254  0.2339  0.0101
 3159SOL    HW121113   3.926   1.478  15.793 -3.3966  0.3261 -0.5294
 3159SOL    HW221114   3.836   1.581  15.858 -0.5198 -1.9209 -0.4366
 3160SOL     OW21115   2.100   1.652   2.906  0.3903 -0.2264 -0.3058
 3160SOL    HW121116   2.116   1.669   2.813  0.5132  0.5212 -0.1440
 3160SOL    HW221117   2.010   1.619   2.901  1.0656 -2.0077 -0.7466
 3161SOL     OW21118   1.766   0.128   9.270 -0.1988  0.5186  0.0417
 3161SOL    HW121119   1.817   0.050   9.295  1.6048  1.3527 -1.0292
 3161SOL    HW221120   1.682   0.131   9.315  1.2734  0.8767  2.7615
 3162SOL     OW21121   4.496   1.902   6.156 -0.4169  0.1288  0.7244
 3162SOL    HW121122   4.526   1.955   6.082 -0.5784  0.5737  0.9776
 3162SOL    HW221123   4.402   1.897   6.139 -0.8182  0.1446  2.9150
 3163SOL     OW21124   3.921   1.524  16.442 -0.5237  0.1975 -0.2237
 3163SOL    HW121125   3.884   1.439  16.416  0.4117 -0.1278 -0.4713
 3163SOL    HW221126   3.992   1.489  16.495 -1.9799 -0.3825  1.3720
 3164SOL     OW21127   3.375   0.492  13.638  0.2522  0.3988  0.2499
 3164SOL    HW121128   3.305   0.552  13.613  0.1747  1.6335  3.5146
 3164SOL    HW221129   3.420   0.479  13.554 -2.0421  0.0028 -0.9301
 3165SOL     OW21130   1.759   4.632   8.315 -0.6914 -0.2599 -0.0922
 3165SOL    HW121131   1.712   4.571   8.258 -0.9497  1.0413 -1.2516
 3165SOL    HW221132   1.687   4.659   8.372  0.5932 -0.4323  1.5978
 3166SOL     OW21133   3.170   0.942  11.202 -0.1078  0.8241  0.8260
 3166SOL    HW121134   3.176   0.912  11.292  0.9496  1.5132  0.9800
 3166SOL    HW221135   3.074   0.944  11.197 -0.2171 -3.0943  1.1713
 3167SOL     OW21136   2.380   3.192   2.210 -0.3911 -0.5874 -0.4198
 3167SOL    HW121137   2.290   3.214   2.234  0.3235  0.0975  1.6134
 3167SOL    HW221138   2.369   3.230   2.123  0.8323  0.4352 -0.1286
 3168SOL     OW21139   3.288   2.348   6.779  0.0161 -0.5863 -0.2080
 3168SOL    HW121140   3.340   2.283   6.733  0.0385 -0.3946 -0.4508
 3168SOL    HW221141   3.212   2.363   6.723 -1.0267 -3.0267  0.5426
 3169SOL     OW21142   4.235   1.882   4.126 -0.1138  0.3325 -0.0108
 3169SOL    HW121143   4.162   1.942   4.116 -0.1465  0.2914 -0.0193
 3169SOL    HW221144   4.214   1.832   4.205 -1.6919 -0.2178 -0.7811
 3170SOL     OW21145   3.226   3.850   8.871 -0.1761  0.7875 -0.2976
 3170SOL    HW121146   3.258   3.901   8.945  2.9183  0.4930 -1.4493
 3170SOL    HW221147   3.216   3.770   8.922  0.5554  0.3220 -0.8850
 3171SOL     OW21148   3.986   3.738  13.133  0.3778  0.0596  0.1513
 3171SOL    HW121149   3.954   3.828  13.138 -1.5648 -0.5712 -0.6741
 3171SOL    HW221150   3.943   3.706  13.054  1.5876 -0.1278 -0.4187
 3172SOL     OW21151   0.161   1.040   8.662  0.5139 -0.2076  0.0874
 3172SOL    HW121152   0.183   1.127   8.696 -0.4719 -0.2476  0.8409
 3172SOL    HW221153   0.106   1.051   8.584 -1.6970  0.0808  1.6837
 3173SOL     OW21154   0.419   0.403   1.901 -0.4536 -0.2563 -0.5822
 3173SOL    HW121155   0.335   0.442   1.924  0.9664  1.2601  2.0350
 3173SOL    HW221156   0.467   0.410   1.984  0.8515  1.7906 -1.5025
 3174SOL     OW21157   3.878   0.749  10.821  0.5217  0.0072 -1.0657
 3174SOL    HW121158   3.808   0.706  10.870  1.2590  0.3142  0.2432
 3174SOL    HW221159   3.958   0.743  10.872  1.0530  0.8399 -1.7887
 3175SOL     OW21160   1.369   1.345   9.786  0.1774 -0.7657 -0.0826
 3175SOL    HW121161   1.377   1.265   9.838  1.3910  0.0493  0.9640
 3175SOL    HW221162   1.345   1.412   9.850 -1.2571 -2.8225  1.5102
 3176SOL     OW21163   4.326   4.502   5.467  0.0988  0.1848  0.1391
 3176SOL    HW121164   4.241   4.490   5.425  0.0072 -1.0522  0.6913
 3176SOL    HW221165   4.360   4.576   5.416  2.2493 -0.2628  0.9291
 3177SOL     OW21166   0.377   1.635  14.277 -0.1055  0.1206 -0.0686
 3177SOL    HW121167   0.357   1.618  14.185  0.9034  1.1711 -0.4896
 3177SOL    HW221168   0.391   1.730  14.272 -0.0279  0.0903 -0.3938
 3178SOL     OW21169   3.696   1.668  12.178 -0.0435 -0.4046 -0.2700
 3178SOL    HW121170   3.655   1.730  12.238 -0.7990 -1.3441  0.1825
 3178SOL    HW221171   3.674   1.706  12.093 -1.1059  1.1680  0.6841
 3179SOL     OW21172   2.406   4.182   8.513  0.1240 -0.1476 -0.2600
 3179SOL    HW121173   2.482   4.188   8.571  1.6157 -3.3440 -1.8433
 3179SOL    HW221174   2.428   4.098   8.474  0.5936 -0.7650  1.3138
 3180SOL     OW21175   3.425   3.711   0.478  0.3087  1.0948  0.2597
 3180SOL    HW121176   3.392   3.716   0.567 -2.2622  1.8337 -0.7364
 3180SOL    HW221177   3.365   3.652   0.433 -0.5029  0.0571  2.7544
 3181SOL     OW21178   2.218   0.885   2.196  0.6308 -0.3731 -0.0528
 3181SOL    HW121179   2.263   0.843   2.269  1.1820 -0.7032 -0.5793
 3181SOL    HW221180   2.232   0.976   2.224 -0.3601 -0.9632  2.3462
 3182SOL     OW21181   2.178   1.529   8.710  0.2528 -0.9181  0.5312
 3182SOL    HW121182   2.175   1.481   8.627 -0.4982  0.0133  0.0258
 3182SOL    HW221183   2.176   1.456   8.772 -1.0908 -1.6490 -0.3741
 3183SOL     OW21184   2.943   2.470   4.168 -0.5498 -0.5640  0.0928
 3183SOL    HW121185   2.985   2.438   4.248 -1.3813  0.5190  0.9539
 3183SOL    HW221186   2.970   2.561   4.173  0.4850 -0.9485  1.5252
 3184SOL     OW21187   0.661   1.318   8.100  0.4354  0.3662  0.3581
 3184SOL    HW121188   0.647   1.315   8.005 -0.6919  0.2341  0.5276
 3184SOL    HW221189   0.642   1.406   8.132 -1.6859  0.2328 -0.4781
 3185SOL     OW21190   4.627   1.804   3.638 -0.7550 -0.2129  0.3166
 3185SOL    HW121191   4.655   1.880   3.689 -1.2687  0.7080 -0.7625
 3185SOL    HW221192   4.652   1.733   3.697  1.0142 -0.0197 -0.2099
 3186SOL     OW21193   4.538   3.120  11.566  0.4485  0.2404 -0.5777
 3186SOL    HW121194   4.491   3.068  11.631 -0.1675 -0.8253 -1.8784
 3186SOL    HW221195   4.516   3.076  11.485 -0.9431  2.2086 -1.2844
 3187SOL     OW21196   0.252   3.694   2.660  0.6092  0.2507 -0.1118
 3187SOL    HW121197   0.306   3.739   2.595  2.2243  0.3480  1.2829
 3187SOL    HW221198   0.303   3.716   2.738 -0.3053  0.3524  0.4600
 3188SOL     OW21199   3.048   4.103   4.585 -0.3823 -0.8629  0.5303
 3188SOL    HW121200   3.019   4.023   4.541  1.0150 -0.4374 -1.1943
 3188SOL    HW221201   3.085   4.042   4.649  2.7256  0.9983  0.5263
 3189SOL     OW21202   1.544   1.165   6.098 -0.0354  0.0876 -0.0098
 3189SOL    HW121203   1.465   1.150   6.151 -0.0569  1.2008  0.2612
 3189SOL    HW221204   1.558   1.072   6.078  0.2337  0.3030 -0.8111
 3190SOL     OW21205   4.483   0.855   0.397 -0.5380 -0.4168  0.6760
 3190SOL    HW121206   4.477   0.785   0.332 -0.3642  0.9374 -0.7879
 3190SOL    HW221207   4.483   0.934   0.343 -3.1993  1.3450  3.2132
 3191SOL     OW21208   3.492   3.405   9.790 -0.0821 -0.0784 -0.0051
 3191SOL    HW121209   3.402   3.438   9.784 -0.6705 -1.4703  1.5648
 3191SOL    HW221210   3.472   3.324   9.835  0.6767  0.4903  1.3337
 3192SOL     OW21211   2.955   3.676  13.308  0.1588  0.1948 -0.4531
 3192SOL    HW121212   3.000   3.760  13.305  1.1193 -0.2459  1.3703
 3192SOL    HW221213   3.037   3.626  13.308  0.6505  1.0053 -0.9207
 3193SOL     OW21214   0.235   2.604   2.384  0.4578 -0.3323 -0.6498
 3193SOL    HW121215   0.173   2.670   2.414  1.0292 -1.0409  2.0832
 3193SOL    HW221216   0.227   2.600   2.289 -1.6037 -2.8849 -0.3495
 3194SOL     OW21217   3.235   3.101  16.806 -0.1375 -0.0943  0.0100
 3194SOL    HW121218   3.296   3.096  16.732 -0.4017 -1.3043 -0.1337
 3194SOL    HW221219   3.224   3.195  16.821  2.0956  0.1725 -0.0954
 3195SOL     OW21220   4.020   0.056   9.953  0.1006  0.7220 -0.3456
 3195SOL    HW121221   4.055   0.129  10.003  0.0179  2.2379 -2.4888
 3195SOL    HW221222   4.099   0.004   9.938 -0.1583 -0.1397  1.2698
 3196SOL     OW21223   2.596   3.101   3.551  0.1237  0.1298  0.3889
 3196SOL    HW121224   2.625   3.085   3.641  2.5987 -0.0480 -0.4228
 3196SOL    HW221225   2.677   3.075   3.507  0.0972 -2.3594  1.7974
 3197SOL     OW21226   2.598   3.474   3.956  0.7571 -0.1053  0.0518
 3197SOL    HW121227   2.572   3.410   4.023 -1.6835  0.7653 -0.0591
 3197SOL    HW221228   2.676   3.510   3.999  1.8649 -2.2882 -0.1306
 3198SOL     OW21229   2.391   0.351   7.574  0.2575 -0.0384 -0.2629
 3198SOL    HW121230   2.340   0.380   7.649  0.4939 -2.4975  0.8634
 3198SOL    HW221231   2.345   0.370   7.492 -0.4513 -0.4607  0.0376
 3199SOL     OW21232   2.742   3.377   7.086 -0.9345  0.2935 -0.5449
 3199SOL    HW121233   2.677   3.313   7.059 -0.2903 -0.9439  0.7981
 3199SOL    HW221234   2.753   3.437   7.012  0.2623  0.6638 -0.0653
 3200SOL     OW21235   1.374   0.855   7.380  0.1898  0.0233  0.2171
 3200SOL    HW121236   1.403   0.896   7.462  0.3379 -1.6203  0.9828
 3200SOL    HW221237   1.388   0.763   7.400 -1.4560 -0.4776 -0.9195
 3201SOL     OW21238   2.864   1.646   3.393 -0.4786  0.2266 -0.3012
 3201SOL    HW121239   2.846   1.701   3.317 -1.0945  0.3472 -0.0766
 3201SOL    HW221240   2.953   1.680   3.406 -1.0954  1.4138  0.9339
 3202SOL     OW21241   2.875   1.475   5.924 -0.2559  0.4201 -0.4300
 3202SOL    HW121242   2.807   1.473   5.992 -1.9899  0.4223 -2.1551
 3202SOL    HW221243   2.871   1.383   5.897  1.5371  0.4976 -0.9735
 3203SOL     OW21244   4.349   1.258  16.082  0.1029  0.0957  0.2694
 3203SOL    HW121245   4.329   1.198  16.010 -2.0877  0.2637  0.7300
 3203SOL    HW221246   4.267   1.304  16.102  0.6619  1.4987 -0.6519
 3204SOL     OW21247   0.676   1.827   5.596  0.5595  0.2267  0.0396
 3204SOL    HW121248   0.719   1.911   5.612 -0.8191  1.1083 -0.9611
 3204SOL    HW221249   0.748   1.766   5.582 -1.2475 -1.6335 -1.1372
 3205SOL     OW21250   3.605   0.939   8.256 -0.0365 -0.1877  0.2832
 3205SOL    HW121251   3.539   0.996   8.216  0.2689 -0.4278 -0.5666
 3205SOL    HW221252   3.581   0.857   8.213 -0.6496  0.6316 -0.9288
 3206SOL     OW21253   1.064   4.222   1.875 -0.0890 -0.3032  0.2192
 3206SOL    HW121254   1.021   4.282   1.936  0.3793  0.6278 -0.3740
 3206SOL    HW221255   1.150   4.243   1.910 -1.1328  1.8310  1.4777
 3207SOL     OW21256   2.215   4.150   4.019 -0.1766  0.0684 -0.5747
 3207SOL    HW121257   2.188   4.109   4.101  1.2878 -0.0626 -0.1564
 3207SOL    HW221258   2.145   4.118   3.962  0.3031 -3.2213  0.6634
 3208SOL     OW21259   3.852   1.574   7.217 -0.2297  0.4422  0.5241
 3208SOL    HW121260   3.906   1.618   7.283 -2.8874  0.4227  2.6608
 3208SOL    HW221261   3.784   1.637   7.193 -0.9525 -1.2408 -1.8492
 3209SOL     OW21262   4.630   0.379   0.346 -0.7110  0.3752 -0.1014
 3209SOL    HW121263   4.571   0.308   0.321 -1.1406  1.2217 -1.4747
 3209SOL    HW221264   4.652   0.354   0.436  1.9227 -1.6050 -1.2953
 3210SOL     OW21265   2.486   4.169   8.801  0.0395  0.3518 -0.4062
 3210SOL    HW121266   2.460   4.078   8.812 -0.6745  0.2437 -2.9726
 3210SOL    HW221267   2.545   4.175   8.877  0.6726 -0.8538 -0.8040
 3211SOL     OW21268   0.904   1.459   3.162  0.5788  0.9231 -0.4195
 3211SOL    HW121269   0.922   1.396   3.232 -0.0623  2.1256  0.8038
 3211SOL    HW221270   0.981   1.515   3.168  0.1034  1.2215  2.6921
 3212SOL     OW21271   1.014   2.580  16.123 -0.0383 -0.1154 -0.3662
 3212SOL    HW121272   0.933   2.624  16.149  0.1455 -0.7012  1.2253
 3212SOL    HW221273   1.032   2.616  16.036  0.7653 -2.1525 -1.0310
 3213SOL     OW21274   1.257   4.292   5.627 -0.4241  0.0044  0.1211
 3213SOL    HW121275   1.314   4.366   5.605  0.3585 -0.1422  1.6674
 3213SOL    HW221276   1.179   4.331   5.587 -0.7219 -0.3781  0.3370
 3214SOL     OW21277   3.097   0.947   5.791  0.7771 -0.2543  0.2775
 3214SOL    HW121278   3.041   0.947   5.868 -1.2758  0.2824 -1.2004
 3214SOL    HW221279   3.061   0.876   5.737  0.5796  0.6478 -0.7827
 3215SOL     OW21280   0.593   0.279   5.572 -0.2881  0.1089  0.4115
 3215SOL    HW121281   0.581   0.328   5.654  1.3508  1.7578 -0.3415
 3215SOL    HW221282   0.681   0.308   5.550 -0.8786 -0.2381 -2.3661
 3216SOL     OW21283   2.468   0.025   8.937 -0.5500  0.1409  0.5519
 3216SOL    HW121284   2.475   4.721   9.023  2.5206 -0.8508 -0.1901
 3216SOL    HW221285   2.400   4.707   8.904  1.0061 -1.7390  0.6561
 3217SOL     OW21286   0.740   3.030  11.720  0.4310 -0.5305 -0.0863
 3217SOL    HW121287   0.787   2.963  11.671 -0.4291 -1.2515  0.0774
 3217SOL    HW221288   0.718   2.980  11.799 -2.3855 -2.0256 -1.8130
 3218SOL     OW21289   2.268   1.212   9.135 -0.9521 -0.3082 -0.0638
 3218SOL    HW121290   2.228   1.239   9.217  0.2572  0.3748  0.3126
 3218SOL    HW221291   2.315   1.135   9.166 -1.5876 -1.7061 -2.5614
 3219SOL     OW21292   2.043   0.352  13.622  0.3307  0.4139  0.2764
 3219SOL    HW121293   2.102   0.398  13.563 -0.2456  0.8522  0.0521
 3219SOL    HW221294   2.098   0.311  13.690 -0.3449 -0.1661  0.4670
 3220SOL     OW21295   2.384   0.815   9.672 -0.2681 -0.2919 -0.6178
 3220SOL    HW121296   2.446   0.743   9.682 -2.0128 -2.0478 -2.3126
 3220SOL    HW221297   2.330   0.791   9.597 -1.9335  1.4807  0.0001
 3221SOL     OW21298   4.202   1.782   2.211 -0.5664  0.1751 -0.3380
 3221SOL    HW121299   4.282   1.736   2.185 -1.2687 -2.0790  1.5876
 3221SOL    HW221300   4.226   1.875   2.203  1.2685 -0.2400  0.2311
 3222SOL     OW21301   4.306   0.738   6.317  0.0727 -0.2974 -0.2448
 3222SOL    HW121302   4.399   0.758   6.310 -0.1834  1.8349  2.2196
 3222SOL    HW221303   4.263   0.756   6.234  1.3906  0.5196 -0.7439
 3223SOL     OW21304   4.185   2.507   2.044 -0.2096  0.2711  0.1972
 3223SOL    HW121305   4.231   2.500   1.960 -1.1109  1.2438 -0.3859
 3223SOL    HW221306   4.114   2.565   2.016 -0.7360 -1.9695 -3.1964
 3224SOL     OW21307   1.865   4.416   5.022 -0.5956  0.5786  0.2940
 3224SOL    HW121308   1.940   4.475   5.021 -0.8945  0.9428 -0.3925
 3224SOL    HW221309   1.836   4.420   5.113  1.0536  2.2770  0.7380
 3225SOL     OW21310   3.247   4.698   8.257  0.0349  0.0367  0.6978
 3225SOL    HW121311   3.178   4.632   8.249  0.4624 -0.3598  0.2871
 3225SOL    HW221312   3.190   0.034   8.247  1.1102  0.8713  0.8705
 3226SOL     OW21313   0.080   0.965  11.258 -0.8559  0.0812 -0.2175
 3226SOL    HW121314   0.096   1.043  11.311  0.3923  0.6204 -1.3715
 3226SOL    HW221315   0.147   0.983  11.192 -0.3076  0.0504  0.3280
 3227SOL     OW21316   1.462   3.859   4.997 -0.1835  0.3800  0.3391
 3227SOL    HW121317   1.469   3.765   4.981 -2.1697  0.1361  0.9916
 3227SOL    HW221318   1.369   3.878   4.986 -0.1605 -0.4608 -1.2815
 3228SOL     OW21319   2.161   1.640  12.296 -0.0351  0.0612 -0.2785
 3228SOL    HW121320   2.198   1.560  12.334 -0.4197  1.0103  2.0843
 3228SOL    HW221321   2.112   1.666  12.373 -0.2468 -0.5834 -0.1937
 3229SOL     OW21322   3.983   3.996   4.481 -0.0580 -0.1816 -0.5451
 3229SOL    HW121323   4.023   4.032   4.560 -1.4450  0.0895  0.0261
 3229SOL    HW221324   3.995   4.071   4.423 -0.3055  1.4012  1.4451
 3230SOL     OW21325   2.660   2.318  14.733 -0.5629 -0.2092  0.5651
 3230SOL    HW121326   2.713   2.363  14.799 -0.6271  0.8851 -0.1336
 3230SOL    HW221327   2.640   2.235  14.776  0.2304 -0.5245  0.3266
 3231SOL     OW21328   3.796   1.178  15.462 -0.3714  0.4569 -0.1955
 3231SOL    HW121329   3.705   1.207  15.466 -0.7378 -1.1060  3.0703
 3231SOL    HW221330   3.766   1.093  15.429 -0.2644  0.6693 -0.8387
 3232SOL     OW21331   1.212   2.843   7.695 -0.0255 -0.0900  0.6038
 3232SOL    HW121332   1.151   2.817   7.626  1.8378 -0.2061 -1.0140
 3232SOL    HW221333   1.161   2.802   7.765 -0.7891  1.0466  0.6948
 3233SOL     OW21334   0.800   0.291   0.133  0.7516  0.6384  0.1330
 3233SOL    HW121335   0.705   0.280   0.133  0.8844 -0.5861  3.7220
 3233SOL    HW221336   0.822   0.205   0.170 -1.9219 -0.2144 -0.2363
 3234SOL     OW21337   3.219   4.503   9.599 -0.0739 -0.2469 -0.5350
 3234SOL    HW121338   3.221   4.495   9.695  0.8642  1.1257 -0.4368
 3234SOL    HW221339   3.305   4.469   9.576  0.2539  0.4746 -0.3873
 3235SOL     OW21340   2.997   3.739   7.924  0.1381  0.7470 -0.4914
 3235SOL    HW121341   3.009   3.807   7.858 -2.2477  1.3485 -0.3096
 3235SOL    HW221342   2.905   3.744   7.950 -0.0025 -0.9184 -0.6380
 3236SOL     OW21343   2.825   1.710   6.572 -0.1274  0.0146 -0.0328
 3236SOL    HW121344   2.871   1.731   6.491  1.5685 -1.7190  0.4714
 3236SOL    HW221345   2.762   1.782   6.574 -1.4045 -1.0888 -0.4932
 3237SOL     OW21346   4.666   0.622   6.928 -0.2108 -0.3820 -0.1380
 3237SOL    HW121347   4.613   0.658   6.998  0.0331 -0.6286  0.1755
 3237SOL    HW221348   4.603   0.564   6.886 -0.0035 -0.2263 -0.6618
 3238SOL     OW21349   3.677   3.067   4.573  0.4303 -0.9446 -0.3222
 3238SOL    HW121350   3.595   3.022   4.589 -0.4208  0.7508  0.0453
 3238SOL    HW221351   3.681   3.137   4.638 -0.9715  0.8025 -2.1170
 3239SOL     OW21352   2.370   1.350  14.064  0.1065 -0.4130  0.5583
 3239SOL    HW121353   2.299   1.369  14.125 -0.1145 -1.8629  0.7609
 3239SOL    HW221354   2.351   1.411  13.993  0.2451 -2.6596 -1.4058
 3240SOL     OW21355   2.492   3.849   3.167  0.7541  0.0660  0.5084
 3240SOL    HW121356   2.548   3.818   3.096  0.1834 -1.2925  0.6417
 3240SOL    HW221357   2.403   3.826   3.142  1.4100  0.1538 -1.8886
 3241SOL     OW21358   2.191   4.416   3.997  0.0552 -0.5831 -0.0159
 3241SOL    HW121359   2.270   4.453   3.959  0.4296  0.3028  1.6282
 3241SOL    HW221360   2.214   4.324   3.982 -2.4977 -1.4533  1.3778
 3242SOL     OW21361   3.857   0.943   7.039  0.4467  0.1683 -0.3772
 3242SOL    HW121362   3.863   1.006   6.967  1.4978 -1.5505 -1.7737
 3242SOL    HW221363   3.788   0.881   7.015  2.2232 -1.2901 -1.6789
 3243SOL     OW21364   1.111   3.980   0.262  1.0205  0.2790  0.3205
 3243SOL    HW121365   1.146   4.051   0.208 -1.0320  1.2553  0.2567
 3243SOL    HW221366   1.129   3.901   0.211  0.5273  2.3234 -3.0506
 3244SOL     OW21367   2.634   3.212   5.109  0.1427 -0.1266  0.9011
 3244SOL    HW121368   2.696   3.150   5.146  0.8862  0.4472  0.6346
 3244SOL    HW221369   2.633   3.276   5.180  1.5178  0.0830  0.7417
 3245SOL     OW21370   4.739   3.147   1.781 -0.4511 -0.0626 -0.0774
 3245SOL    HW121371   0.005   3.239   1.755  0.5189 -0.4993 -1.3302
 3245SOL    HW221372   4.736   3.155   1.877  1.1984 -0.7957  0.0424
 3246SOL     OW21373   2.170   2.951   2.252 -0.2531  0.2677 -0.2936
 3246SOL    HW121374   2.143   2.939   2.161  0.0264 -0.2399 -0.3104
 3246SOL    HW221375   2.138   3.040   2.264  0.1034 -0.0824  3.2640
 3247SOL     OW21376   2.483   4.410   9.514  0.0051 -0.2163  0.2782
 3247SOL    HW121377   2.401   4.421   9.466 -0.9666  0.3900  2.0660
 3247SOL    HW221378   2.498   4.503   9.530 -0.4340  0.2340 -1.9681
 3248SOL     OW21379   0.964   3.276   6.441  0.4311  0.2524  0.0789
 3248SOL    HW121380   0.978   3.370   6.430 -2.4893  0.5880 -0.5371
 3248SOL    HW221381   1.011   3.253   6.522  0.1890 -0.2477  0.0755
 3249SOL     OW21382   2.616   3.286   4.159  0.0912  0.4760 -0.3670
 3249SOL    HW121383   2.588   3.261   4.247  2.1435 -1.2232 -0.2098
 3249SOL    HW221384   2.711   3.291   4.158  0.3287 -4.6393 -0.0528
 3250SOL     OW21385   0.063   1.115   0.862  0.1548  0.2364 -0.6586
 3250SOL    HW121386   0.158   1.113   0.847  0.6291  0.1889  2.3990
 3250SOL    HW221387   0.049   1.021   0.855 -0.1628  0.3477 -1.4767
 3251SOL     OW21388   4.699   2.973   1.136 -0.2247  0.4489 -0.0842
 3251SOL    HW121389   0.037   2.924   1.108 -3.0790 -2.6751 -2.4692
 3251SOL    HW221390   4.621   2.918   1.127 -0.8272  1.7361 -2.7605
 3252SOL     OW21391   4.156   2.094  16.777  0.3669 -0.3038 -0.2235
 3252SOL    HW121392   4.136   2.105  16.684 -0.0745  1.6141  0.1108
 3252SOL    HW221393   4.209   2.169  16.802  2.5573 -1.8250 -0.2918
 3253SOL     OW21394   3.854   0.386   9.409 -0.2085 -0.2470 -0.4481
 3253SOL    HW121395   3.808   0.303   9.415  0.7712 -1.0366 -3.9732
 3253SOL    HW221396   3.856   0.413   9.317  0.8269  0.7288 -0.1499
 3254SOL     OW21397   3.921   2.053   4.316 -0.4213  0.0035 -0.3688
 3254SOL    HW121398   3.954   2.046   4.226  0.2690 -0.7928 -0.0459
 3254SOL    HW221399   3.918   2.148   4.324 -0.0068 -0.0370  0.1750
 3255SOL     OW21400   1.476   1.310  13.607 -0.0001  0.3088 -0.2565
 3255SOL    HW121401   1.415   1.287  13.678  1.4066  0.8095  1.1005
 3255SOL    HW221402   1.560   1.311  13.652 -0.0513  0.3495 -0.1604
 3256SOL     OW21403   3.711   1.706   5.364 -0.1315  0.4574 -0.0778
 3256SOL    HW121404   3.658   1.643   5.315  0.2198 -1.5701  2.1164
 3256SOL    HW221405   3.666   1.790   5.359 -1.3079 -0.3287 -2.4497
 3257SOL     OW21406   3.025   3.787  13.626 -0.0558 -0.3019 -0.8286
 3257SOL    HW121407   3.017   3.877  13.656  2.0908  0.0445 -1.2742
 3257SOL    HW221408   3.050   3.795  13.534  1.5650  0.1070 -0.3432
 3258SOL     OW21409   3.354   3.497   2.374  0.2993  0.1835  0.2587
 3258SOL    HW121410   3.395   3.489   2.287 -2.3408  0.4923 -1.0157
 3258SOL    HW221411   3.360   3.591   2.388 -1.4656  0.2934  0.3296
 3259SOL     OW21412   1.077   0.765   2.971 -0.1348 -0.6277  0.0545
 3259SOL    HW121413   0.982   0.757   2.961 -0.1830 -0.8923  0.7246
 3259SOL    HW221414   1.083   0.824   3.046 -0.5965 -2.4911  1.5750
 3260SOL     OW21415   0.896   0.299   4.120  0.3916  0.0955 -0.1339
 3260SOL    HW121416   0.941   0.236   4.063 -1.1231 -1.3892  0.3263
 3260SOL    HW221417   0.902   0.268   4.210 -0.4061 -1.3317 -0.5657
 3261SOL     OW21418   0.332   3.901   6.187  0.5613  0.1733  0.3225
 3261SOL    HW121419   0.347   3.818   6.141 -2.3881  0.6717 -1.5472
 3261SOL    HW221420   0.236   3.903   6.194  0.6299  0.2207  1.3747
 3262SOL     OW21421   0.789   4.613   7.415 -0.1492  0.9326  0.1343
 3262SOL    HW121422   0.829   4.529   7.435  1.1325  0.6557 -3.5248
 3262SOL    HW221423   0.727   4.638   7.484  1.4341  2.7290  0.9042
 3263SOL     OW21424   0.214   1.405   7.140  0.2157  0.1399  0.6586
 3263SOL    HW121425   0.237   1.482   7.087 -1.8730  0.8010  0.7160
 3263SOL    HW221426   0.278   1.339   7.115 -0.5746 -1.2616  2.3737
 3264SOL     OW21427   3.448   3.523  13.445  0.4608  0.0095 -0.2419
 3264SOL    HW121428   3.395   3.460  13.494 -0.2195 -0.0661 -1.0727
 3264SOL    HW221429   3.538   3.498  13.463 -0.0718 -1.5547  0.3011
 3265SOL     OW21430   4.449   3.848   8.513 -0.0179  0.2286 -0.5708
 3265SOL    HW121431   4.470   3.833   8.421  0.5052 -1.5381 -0.1716
 3265SOL    HW221432   4.359   3.818   8.518  0.1741 -0.1477  0.6696
 3266SOL     OW21433   4.572   1.939   7.110 -0.3664 -0.6721  0.0115
 3266SOL    HW121434   4.664   1.961   7.098 -0.6032  0.5287  0.4092
 3266SOL    HW221435   4.541   1.925   7.021 -1.1974 -0.6130  0.2909
 3267SOL     OW21436   3.575   3.722   3.884 -0.0250  0.3337 -0.4689
 3267SOL    HW121437   3.550   3.806   3.922 -1.8586  0.1365 -1.2636
 3267SOL    HW221438   3.520   3.669   3.942  0.9346  1.3961  1.4236
 3268SOL     OW21439   4.283   1.771  12.166 -0.2211  0.3861 -0.0635
 3268SOL    HW121440   4.353   1.717  12.129  3.1020  2.4629  3.1920
 3268SOL    HW221441   4.326   1.855  12.152  1.3174 -0.4811 -0.5409
 3269SOL     OW21442   3.446   2.113  11.957  0.1732 -0.9263  0.4826
 3269SOL    HW121443   3.431   2.072  12.043 -3.3111  0.8876  0.7591
 3269SOL    HW221444   3.495   2.049  11.906  0.3113  0.2680 -0.8681
 3270SOL     OW21445   4.674   0.083   9.532 -0.3487  0.8560 -0.0675
 3270SOL    HW121446   4.643   0.052   9.617  0.3238 -0.0238 -0.1289
 3270SOL    HW221447   0.029   0.086   9.545 -0.3894  0.5049  0.3160
 3271SOL     OW21448   0.170   0.780   8.474 -0.7312 -0.1012  0.0594
 3271SOL    HW121449   0.176   0.843   8.546 -1.1304 -1.4023  1.2384
 3271SOL    HW221450   0.252   0.795   8.428  0.0286 -0.4525  1.2915
 3272SOL     OW21451   0.404   1.124   2.625  0.2232 -0.3319  0.0551
 3272SOL    HW121452   0.449   1.163   2.551  1.0557  0.3901  0.9309
 3272SOL    HW221453   0.372   1.208   2.659 -0.8750 -1.2092  1.1842
 3273SOL     OW21454   0.562   4.705   0.610  0.3833 -0.4036 -0.5145
 3273SOL    HW121455   0.633   0.012   0.566 -0.2450 -0.4038 -1.5493
 3273SOL    HW221456   0.607   4.688   0.692 -0.7395  1.2851  0.4512
 3274SOL     OW21457   0.060   3.843   9.516  0.0465  0.1808  0.9106
 3274SOL    HW121458   0.049   3.777   9.584 -1.8454 -0.5601 -0.1419
 3274SOL    HW221459   0.151   3.868   9.537  1.3617 -2.0606 -2.2076
 3275SOL     OW21460   1.073   0.905   3.226  0.2565  0.8287  0.2225
 3275SOL    HW121461   0.994   0.928   3.274  0.1893 -1.9312  1.4499
 3275SOL    HW221462   1.134   0.891   3.299 -0.9709  1.0506  1.2813
 3276SOL     OW21463   4.096   0.116   5.842 -0.2595 -0.5603 -0.2018
 3276SOL    HW121464   4.009   0.122   5.882 -1.2854 -0.8997 -2.3816
 3276SOL    HW221465   4.102   0.022   5.859 -1.3244 -0.3684  1.2535
 3277SOL     OW21466   3.799   3.658   0.926  0.2383 -0.1763  0.2407
 3277SOL    HW121467   3.859   3.717   0.973 -1.0714 -0.6813  2.5744
 3277SOL    HW221468   3.844   3.671   0.843 -0.1248 -2.1834 -0.2751
 3278SOL     OW21469   3.270   2.738   5.575  0.1093 -0.1117 -0.6135
 3278SOL    HW121470   3.246   2.649   5.547  0.1659 -0.0651 -0.8097
 3278SOL    HW221471   3.277   2.720   5.669  1.8884  0.4587 -0.6442
 3279SOL     OW21472   4.505   0.196  16.182 -0.0759 -0.4691  0.6343
 3279SOL    HW121473   4.530   0.289  16.178 -0.8669 -0.3587 -1.9502
 3279SOL    HW221474   4.411   0.193  16.197 -0.2415  0.0448 -0.2559
 3280SOL     OW21475   3.664   1.317   4.261  0.6008  0.0574 -0.6504
 3280SOL    HW121476   3.650   1.223   4.272 -0.5372  0.4402  1.2564
 3280SOL    HW221477   3.575   1.350   4.279  1.0093 -0.5165  2.4787
 3281SOL     OW21478   3.672   0.427  11.430 -0.1519 -0.0667  0.0008
 3281SOL    HW121479   3.739   0.392  11.371  0.1800  1.6643 -0.6235
 3281SOL    HW221480   3.609   0.452  11.363 -0.9908 -0.0722  0.7861
 3282SOL     OW21481   0.329   1.305  13.636 -0.4303  0.0507  0.3313
 3282SOL    HW121482   0.330   1.231  13.697 -1.7193 -1.4020 -1.4061
 3282SOL    HW221483   0.238   1.288  13.614 -0.2481 -2.4132  1.5259
 3283SOL     OW21484   2.304   3.802   5.800  0.3862 -0.1064 -0.1479
 3283SOL    HW121485   2.223   3.853   5.807 -1.4269 -3.2428  1.4503
 3283SOL    HW221486   2.275   3.714   5.822 -0.5169  0.0452 -0.7250
 3284SOL     OW21487   1.163   3.106   1.158  0.3704  0.0939  0.4813
 3284SOL    HW121488   1.094   3.169   1.137 -1.1038 -2.4915 -2.4077
 3284SOL    HW221489   1.208   3.095   1.074  2.4518  0.7788  1.5024
 3285SOL     OW21490   4.417   2.230   8.847  0.1834 -0.3316 -0.0437
 3285SOL    HW121491   4.431   2.289   8.773  0.8644  0.9827  1.1234
 3285SOL    HW221492   4.321   2.227   8.844  0.2546 -0.8879 -1.6466
 3286SOL     OW21493   1.883   1.477  14.987 -0.0259 -0.6527 -0.4463
 3286SOL    HW121494   1.824   1.436  14.924 -1.2902 -0.6567  0.7591
 3286SOL    HW221495   1.824   1.532  15.038  1.0257  0.1037 -0.0526
 3287SOL     OW21496   4.558   1.486   5.921 -0.4222  0.7958  0.1492
 3287SOL    HW121497   4.468   1.471   5.952 -0.6588 -1.5964 -1.6939
 3287SOL    HW221498   4.583   1.562   5.973 -0.0782  1.9442 -1.6816
 3288SOL     OW21499   1.425   0.698   1.215  0.2177  0.1118 -0.8948
 3288SOL    HW121500   1.427   0.784   1.257  0.4655 -0.5071  0.3465
 3288SOL    HW221501   1.378   0.716   1.134 -1.6311  2.0503  0.6308
 3289SOL     OW21502   0.722   1.893   2.435  0.2151 -0.3999 -0.5132
 3289SOL    HW121503   0.755   1.817   2.387 -0.1510 -0.9527  0.0986
 3289SOL    HW221504   0.802   1.933   2.470  0.6919 -1.0780 -0.8235
 3290SOL     OW21505   0.591   2.842   2.670 -0.1114  0.0602  0.0456
 3290SOL    HW121506   0.575   2.749   2.689  1.0437 -0.2075 -0.2795
 3290SOL    HW221507   0.658   2.866   2.734 -2.8312  2.3225  2.0648
 3291SOL     OW21508   0.414   3.477   7.284 -0.2935 -0.0686  0.1252
 3291SOL    HW121509   0.437   3.516   7.369 -0.2695  0.2032 -0.0048
 3291SOL    HW221510   0.498   3.467   7.239  2.2705 -0.5948  5.0171
 3292SOL     OW21511   0.063   0.798  12.977 -0.0769 -0.0983 -0.1542
 3292SOL    HW121512   0.034   0.832  12.893 -0.9849 -0.1458  0.1316
 3292SOL    HW221513   0.156   0.822  12.979  0.2044 -1.2847  1.7087
 3293SOL     OW21514   0.811   0.461   0.667 -0.2661  0.5707 -0.2471
 3293SOL    HW121515   0.835   0.375   0.699 -2.0882 -0.0138 -0.4318
 3293SOL    HW221516   0.718   0.447   0.648  0.5912 -3.2481 -1.6262
 3294SOL     OW21517   1.749   3.248   7.718 -0.0490 -0.2306 -0.0956
 3294SOL    HW121518   1.772   3.229   7.627  2.3287  0.7199  0.3081
 3294SOL    HW221519   1.787   3.336   7.715  1.9118 -1.0651  0.3517
 3295SOL     OW21520   2.684   2.588   6.034  0.3453  0.2088  0.1728
 3295SOL    HW121521   2.722   2.630   5.957 -0.7047 -0.6457 -0.7920
 3295SOL    HW221522   2.592   2.611   6.021  0.2682  0.0703  0.4646
 3296SOL     OW21523   1.738   0.370   1.715  0.3024  0.1855  0.0538
 3296SOL    HW121524   1.662   0.331   1.674  0.2077  0.7139 -0.2731
 3296SOL    HW221525   1.701   0.456   1.734  0.4753  0.1313  0.6412
 3297SOL     OW21526   2.066   3.367   6.732  0.0916 -0.5478  0.4443
 3297SOL    HW121527   2.123   3.436   6.699  1.0562 -1.3245  0.5271
 3297SOL    HW221528   2.123   3.292   6.717 -0.4607 -0.1623 -3.4344
 3298SOL     OW21529   1.679   4.544   6.090  0.6514  0.1505  0.1076
 3298SOL    HW121530   1.667   4.460   6.136 -1.2654  0.5225  0.2790
 3298SOL    HW221531   1.706   4.595   6.167  1.9279  0.0596 -0.2697
 3299SOL     OW21532   1.130   1.284   6.371 -0.4467 -0.0909 -0.0354
 3299SOL    HW121533   1.073   1.212   6.398 -0.2838 -0.6272 -1.1306
 3299SOL    HW221534   1.211   1.234   6.361 -0.9787 -1.4579  2.6322
 3300SOL     OW21535   3.204   2.268   5.859  0.7614  0.3042  0.3720
 3300SOL    HW121536   3.132   2.330   5.851  1.5108  1.0206 -0.9539
 3300SOL    HW221537   3.152   2.193   5.888  0.3761  0.9870  1.4494
 3301SOL     OW21538   3.200   3.745   9.590 -0.6448 -0.0206  0.1646
 3301SOL    HW121539   3.139   3.692   9.641  0.0933 -0.0293  1.0369
 3301SOL    HW221540   3.153   3.763   9.509 -1.0151 -0.4003  0.2907
 3302SOL     OW21541   1.609   1.538   2.667  1.4000  0.2266  0.4102
 3302SOL    HW121542   1.613   1.501   2.579  3.1160  2.0167 -0.2770
 3302SOL    HW221543   1.621   1.459   2.720  0.0650  0.4844  1.0950
 3303SOL     OW21544   3.355   1.435   8.897  0.2948  0.0256  0.3211
 3303SOL    HW121545   3.422   1.468   8.957 -0.7560  1.1392  0.8677
 3303SOL    HW221546   3.302   1.514   8.890  2.3634  1.1462 -2.6777
 3304SOL     OW21547   4.448   1.882   6.832 -0.0673  0.1444 -0.5504
 3304SOL    HW121548   4.516   1.816   6.818  1.2394  0.9995  1.8100
 3304SOL    HW221549   4.373   1.830   6.860  0.5511 -1.0400 -1.0765
 3305SOL     OW21550   2.680   0.085  13.529 -0.0453 -0.3203  0.6066
 3305SOL    HW121551   2.758   0.140  13.532 -0.3500 -0.0264  2.6323
 3305SOL    HW221552   2.677   0.065  13.435  2.4087 -0.5030  0.5639
 3306SOL     OW21553   0.936   4.559   2.583 -0.1111  1.0801 -0.3646
 3306SOL    HW121554   0.895   4.473   2.592  0.5848  0.6421 -1.3732
 3306SOL    HW221555   1.019   4.527   2.548 -1.1192 -2.0346  0.1188
 3307SOL     OW21556   3.058   2.155   5.575  0.5545  0.0324 -0.2333
 3307SOL    HW121557   3.050   2.063   5.599 -1.8969  0.1418 -0.6742
 3307SOL    HW221558   2.999   2.188   5.642  0.3040 -1.2084  0.1550
 3308SOL     OW21559   1.704   3.096   1.643 -0.4787  0.3589 -0.1070
 3308SOL    HW121560   1.644   3.022   1.645  0.5761 -0.4925 -0.1270
 3308SOL    HW221561   1.654   3.158   1.695 -1.4131 -0.9759  0.5710
 3309SOL     OW21562   4.158   3.779  11.133  0.0016  0.1780 -0.3868
 3309SOL    HW121563   4.254   3.781  11.135 -0.0212  0.5777  0.0812
 3309SOL    HW221564   4.145   3.689  11.103 -2.2431 -0.4540  2.5579
 3310SOL     OW21565   3.986   0.371   5.629 -0.0203 -0.0576 -0.0994
 3310SOL    HW121566   3.905   0.422   5.640 -2.0989 -2.9882 -1.5933
 3310SOL    HW221567   4.045   0.406   5.695 -0.3885 -0.9256  0.6949
 3311SOL     OW21568   1.364   3.825  16.197 -0.1269  0.3103 -1.0291
 3311SOL    HW121569   1.442   3.840  16.250 -0.8252  1.8619 -0.4371
 3311SOL    HW221570   1.332   3.738  16.220 -2.6661  1.3367 -0.6684
 3312SOL     OW21571   1.716   2.727   6.558  0.2718  0.5372 -0.7590
 3312SOL    HW121572   1.765   2.806   6.538 -0.7173  1.9823  2.4603
 3312SOL    HW221573   1.788   2.664   6.563 -0.9755 -0.8537  0.1198
 3313SOL     OW21574   2.979   1.212   7.206  0.5269 -1.0391 -0.8071
 3313SOL    HW121575   3.012   1.130   7.240  2.3147  0.0703  0.1474
 3313SOL    HW221576   3.030   1.266   7.266 -0.8717 -1.5738  0.8535
 3314SOL     OW21577   2.326   2.665   8.580  1.0495 -0.1842 -0.3790
 3314SOL    HW121578   2.350   2.677   8.672 -3.4761  1.4521  0.6131
 3314SOL    HW221579   2.232   2.683   8.588  1.1372 -0.5250  1.4698
 3315SOL     OW21580   2.811   0.092   4.296  0.1067  0.3266 -0.4069
 3315SOL    HW121581   2.902   0.120   4.304  1.0196 -2.3830 -1.3998
 3315SOL    HW221582   2.764   0.143   4.362 -2.9920 -3.0368 -0.0579
 3316SOL     OW21583   0.063   1.903   8.033  0.2203  0.3634  0.3110
 3316SOL    HW121584   4.710   1.901   8.008  0.6529  0.9652 -1.3805
 3316SOL    HW221585   0.109   1.857   7.963 -1.1343  1.5082 -1.3450
 3317SOL     OW21586   2.081   4.273   2.073 -0.8024 -0.2301  0.6297
 3317SOL    HW121587   2.170   4.249   2.101  0.1768  0.6039 -1.7184
 3317SOL    HW221588   2.069   4.237   1.985  0.5721  0.3519  0.1910
 3318SOL     OW21589   3.196   0.928   4.934  0.5322 -0.2846  0.3839
 3318SOL    HW121590   3.127   0.869   4.965  0.5211 -0.1552  0.6047
 3318SOL    HW221591   3.199   0.913   4.839 -0.0957  0.6787  0.2194
 3319SOL     OW21592   1.809   0.006   3.446 -0.4732 -0.4111 -0.0922
 3319SOL    HW121593   1.820   0.005   3.351  2.0043  2.6359  0.1828
 3319SOL    HW221594   1.822   0.101   3.450 -1.0414 -0.3032 -0.6985
 3320SOL     OW21595   2.785   3.951  16.683 -0.3690  0.1427  0.5121
 3320SOL    HW121596   2.716   3.892  16.714  0.1848 -1.2203 -0.8725
 3320SOL    HW221597   2.835   3.982  16.758  1.4321 -1.1410 -0.1642
 3321SOL     OW21598   1.175   1.104   9.661  0.0721  0.2436  0.8925
 3321SOL    HW121599   1.218   1.189   9.650  0.1320 -0.0665 -1.1987
 3321SOL    HW221600   1.146   1.105   9.753 -3.7746  0.8790 -0.3066
 3322SOL     OW21601   1.533   1.353   0.646  0.2781  0.5344 -0.3455
 3322SOL    HW121602   1.617   1.334   0.604  1.1073  0.7655  1.2153
 3322SOL    HW221603   1.537   1.289   0.718  3.0353  0.1125 -0.8685
 3323SOL     OW21604   1.825   3.843   6.750 -0.4661  0.0649  0.0876
 3323SOL    HW121605   1.888   3.906   6.714 -1.8177  3.0531  2.8748
 3323SOL    HW221606   1.749   3.899   6.765  0.3504  0.9692  0.8605
 3324SOL     OW21607   2.875   2.657  13.614 -0.3559  0.4231  0.2532
 3324SOL    HW121608   2.866   2.572  13.571 -0.2015  0.9133 -0.7540
 3324SOL    HW221609   2.959   2.646  13.658 -0.3117  1.6581  0.4682
 3325SOL     OW21610   1.410   4.103   7.381  0.1204 -0.4134 -0.1306
 3325SOL    HW121611   1.481   4.099   7.445 -0.2177  3.4676  0.4728
 3325SOL    HW221612   1.340   4.070   7.436  0.3127  1.8422  1.4866
 3326SOL     OW21613   0.591   1.365   4.538  0.3245  0.4610  0.6310
 3326SOL    HW121614   0.544   1.362   4.621 -1.0395 -0.5022 -0.1834
 3326SOL    HW221615   0.584   1.278   4.499  1.0607  1.0731 -0.8821
 3327SOL     OW21616   2.926   3.705  15.402 -0.3632  0.2601  0.5637
 3327SOL    HW121617   2.966   3.726  15.318 -0.8092 -2.8098 -0.3983
 3327SOL    HW221618   2.864   3.778  15.407  0.9666  1.6466 -3.2918
 3328SOL     OW21619   0.011   1.207  10.223 -0.0055 -0.0927 -0.0061
 3328SOL    HW121620   4.675   1.244  10.179 -0.5079  1.5628  2.2441
 3328SOL    HW221621   0.021   1.270  10.294  0.0891 -0.9907  0.7732
 3329SOL     OW21622   4.124   3.296   6.635 -0.2114  0.6243 -0.3567
 3329SOL    HW121623   4.046   3.333   6.675 -0.2165 -0.8241  0.9748
 3329SOL    HW221624   4.084   3.230   6.577 -2.6964  0.5796  1.4200
 3330SOL     OW21625   3.727   3.215   4.259  0.4274 -0.0856 -0.3557
 3330SOL    HW121626   3.643   3.259   4.263  0.2303 -0.4347 -0.6741
 3330SOL    HW221627   3.770   3.239   4.341 -0.4639  2.0074 -0.4916
 3331SOL     OW21628   1.410   3.695   7.606  0.2763 -0.2641 -0.5796
 3331SOL    HW121629   1.316   3.680   7.597  0.4232 -0.8116 -1.1168
 3331SOL    HW221630   1.417   3.728   7.696 -0.7519 -0.8535 -0.2808
 3332SOL     OW21631   2.883   2.598   7.732  0.1080  0.1046 -0.0473
 3332SOL    HW121632   2.798   2.590   7.687 -0.3257 -1.9088  1.1014
 3332SOL    HW221633   2.933   2.566   7.657 -0.6228 -0.3173 -0.3599
 3333SOL     OW21634   0.924   1.919   3.136 -0.0493 -0.7461  0.2559
 3333SOL    HW121635   0.940   1.911   3.230  2.6238  2.7407  0.0636
 3333SOL    HW221636   0.863   1.847   3.121  0.4018 -0.5133 -2.6923
 3334SOL     OW21637   3.648   0.579   3.767 -0.3004 -0.1611 -0.1129
 3334SOL    HW121638   3.623   0.491   3.738  1.9000 -0.2737 -1.7007
 3334SOL    HW221639   3.718   0.601   3.705  0.6212 -1.4346  0.4805
 3335SOL     OW21640   0.613   0.341   6.561 -0.2119  0.1817  0.1688
 3335SOL    HW121641   0.590   0.431   6.581 -0.6574 -0.2437  1.5631
 3335SOL    HW221642   0.568   0.319   6.479 -0.4251 -0.0578  0.3526
 3336SOL     OW21643   2.113   3.583   3.504 -0.1991 -0.1483 -0.2603
 3336SOL    HW121644   2.122   3.582   3.409 -1.5207 -0.7090 -0.3742
 3336SOL    HW221645   2.184   3.641   3.533 -0.3111  0.5453 -1.3764
 3337SOL     OW21646   3.429   1.288   1.765  0.6305 -0.1024 -0.2888
 3337SOL    HW121647   3.339   1.260   1.749 -0.0076  1.7353  0.1245
 3337SOL    HW221648   3.419   1.324   1.853  1.4466 -1.2023  0.2604
 3338SOL     OW21649   4.321   2.194   7.023 -0.7798  0.0172  0.0236
 3338SOL    HW121650   4.267   2.120   6.997 -1.1448  0.2511  0.1206
 3338SOL    HW221651   4.377   2.169   7.097  0.2776  0.5478 -0.6007
 3339SOL     OW21652   2.414   0.215   1.724  0.1461  0.3139 -0.0104
 3339SOL    HW121653   2.452   0.303   1.720  1.6281 -0.4069 -1.5572
 3339SOL    HW221654   2.334   0.243   1.769  1.1213  0.3534  1.6862
 3340SOL     OW21655   1.533   0.979   7.591  0.0702  0.2970  0.1501
 3340SOL    HW121656   1.458   0.984   7.651 -0.1639  1.8785 -0.2797
 3340SOL    HW221657   1.568   1.068   7.596  1.0561 -0.0717 -0.1624
 3341SOL     OW21658   0.043   1.051  13.920 -0.4203  0.0145  0.4822
 3341SOL    HW121659   0.049   0.963  13.955 -2.6208 -0.6884 -0.8963
 3341SOL    HW221660   4.705   1.077  13.969 -0.2685  1.3834  0.0160
 3342SOL     OW21661   1.976   1.492  12.507  0.5282  0.1033 -0.4075
 3342SOL    HW121662   1.991   1.448  12.591  0.5826 -0.4535 -0.7083
 3342SOL    HW221663   2.049   1.464  12.453  1.4942 -0.0565  0.9980
 3343SOL     OW21664   2.075   3.635  17.028 -0.2569 -0.6216  0.1084
 3343SOL    HW121665   2.140   3.705  17.023 -0.8051 -0.0644  0.7667
 3343SOL    HW221666   2.020   3.669  16.958 -0.1067 -1.9404 -0.6415
 3344SOL     OW21667   4.182   0.015  14.652  0.1514 -0.6513 -0.1248
 3344SOL    HW121668   4.144   0.093  14.693 -1.3300 -1.0572 -0.7264
 3344SOL    HW221669   4.135   4.689  14.704 -0.2690  1.1566  1.7921
 3345SOL     OW21670   2.313   0.314   3.208  0.4657 -0.3828  0.5771
 3345SOL    HW121671   2.316   0.227   3.168 -3.5607 -0.0708 -0.4868
 3345SOL    HW221672   2.404   0.326   3.234  0.0757  1.2585  1.1695
 3346SOL     OW21673   1.944   4.005  16.341 -0.8336  0.1446  0.0326
 3346SOL    HW121674   1.924   3.927  16.288 -0.6205  0.2661 -0.2218
 3346SOL    HW221675   1.999   4.056  16.282  1.4394  0.4908  2.4590
 3347SOL     OW21676   3.151   0.989   6.449  0.2923  0.0018  0.1556
 3347SOL    HW121677   3.180   1.040   6.373  2.0521 -0.8189  0.2774
 3347SOL    HW221678   3.237   0.970   6.487  0.8142 -0.7013 -1.3585
 3348SOL     OW21679   4.274   0.737   2.206  0.2176 -0.1824  0.5152
 3348SOL    HW121680   4.344   0.702   2.151  0.1482  0.0469  0.2811
 3348SOL    HW221681   4.238   0.796   2.140  1.1897  0.2370  0.3594
 3349SOL     OW21682   1.050   4.228   7.387 -0.0465  0.1414 -0.4309
 3349SOL    HW121683   1.122   4.216   7.324 -0.4651 -0.2521 -0.8293
 3349SOL    HW221684   0.983   4.249   7.323  0.0533  4.8899  1.0491
 3350SOL     OW21685   1.293   0.205   1.483  0.1664  0.0086  0.1692
 3350SOL    HW121686   1.264   0.266   1.415 -0.5872  0.1031  0.5792
 3350SOL    HW221687   1.212   0.206   1.533  0.1226 -2.4014  0.1369
 3351SOL     OW21688   0.330   3.948  14.469  0.3286  0.8389 -0.4306
 3351SOL    HW121689   0.358   3.878  14.528 -2.1498  1.1409  1.0956
 3351SOL    HW221690   0.267   3.995  14.524  1.2950  0.5456  0.9415
 3352SOL     OW21691   0.047   3.655   7.288 -0.5030  0.4817 -0.0766
 3352SOL    HW121692   0.137   3.687   7.285 -1.2909  2.8062  1.0620
 3352SOL    HW221693   0.053   3.577   7.233 -0.0800 -0.3885  1.2036
 3353SOL     OW21694   3.250   0.621   2.060  0.2312 -0.0207 -0.3565
 3353SOL    HW121695   3.228   0.564   1.986 -1.6084  1.3813 -0.8534
 3353SOL    HW221696   3.314   0.678   2.016 -0.0024 -1.5486 -2.6846
 3354SOL     OW21697   2.848   4.156   3.823 -0.2832 -0.2675  0.1000
 3354SOL    HW121698   2.846   4.219   3.895 -0.8560  0.4962 -0.5748
 3354SOL    HW221699   2.757   4.168   3.793  0.7352  2.5847 -1.8830
 3355SOL     OW21700   4.274   1.790   5.359  0.6758  0.2668 -0.0617
 3355SOL    HW121701   4.182   1.802   5.384  0.9809  0.8307  0.8177
 3355SOL    HW221702   4.316   1.818   5.441 -0.4305  1.3552  0.1311
 3356SOL     OW21703   2.708   2.649   6.672 -0.0856  0.1055  0.5658
 3356SOL    HW121704   2.693   2.554   6.665  2.1856 -0.0870 -1.5833
 3356SOL    HW221705   2.774   2.667   6.606  0.1326 -0.3638  0.6562
 3357SOL     OW21706   0.701   1.597   6.794  0.1628 -0.3700 -0.3558
 3357SOL    HW121707   0.791   1.629   6.784 -0.4424  1.0146 -1.3601
 3357SOL    HW221708   0.674   1.621   6.705  1.3635  1.7285 -0.1534
 3358SOL     OW21709   4.584   3.531   4.447  0.7498 -0.0521 -0.4359
 3358SOL    HW121710   4.625   3.489   4.523 -0.2607  1.0141  0.6910
 3358SOL    HW221711   4.647   3.498   4.383 -0.6333 -3.3479 -0.0971
 3359SOL     OW21712   3.392   4.472   8.750 -0.2724 -0.2862 -0.3497
 3359SOL    HW121713   3.298   4.459   8.764 -0.0004 -2.5133 -0.5317
 3359SOL    HW221714   3.399   4.562   8.781 -1.2552 -0.1858 -0.4075
 3360SOL     OW21715   3.289   4.566   2.845  0.0665 -0.5873 -0.0778
 3360SOL    HW121716   3.356   4.541   2.909  0.7457 -0.7806 -0.8784
 3360SOL    HW221717   3.322   4.535   2.761 -2.0706 -0.9080 -0.8014
 3361SOL     OW21718   1.639   2.013   7.806 -0.3944  0.1408 -0.4091
 3361SOL    HW121719   1.695   1.952   7.853 -0.7215 -0.0220 -0.2289
 3361SOL    HW221720   1.601   2.055   7.883  1.4104 -1.0539  1.1125
 3362SOL     OW21721   3.752   1.230   5.278 -0.2061 -0.4173  0.0637
 3362SOL    HW121722   3.787   1.318   5.262 -1.8787  0.7766  3.0559
 3362SOL    HW221723   3.806   1.185   5.212  0.1066 -0.9787  0.7128
 3363SOL     OW21724   4.382   2.748   5.829  0.2433 -0.7282 -0.0484
 3363SOL    HW121725   4.369   2.843   5.826  0.3592 -0.7582 -1.2235
 3363SOL    HW221726   4.438   2.746   5.752  0.0315 -1.3823 -0.1915
 3364SOL     OW21727   3.591   2.131   3.061 -0.3030 -0.2981 -0.2031
 3364SOL    HW121728   3.649   2.107   3.134  1.4100  1.0333 -1.1386
 3364SOL    HW221729   3.630   2.080   2.991 -0.4205 -2.2672  1.1442
 3365SOL     OW21730   3.959   0.920  14.309  0.5757 -0.4985  0.0960
 3365SOL    HW121731   3.919   0.907  14.223 -1.1399  0.7882  0.7093
 3365SOL    HW221732   3.894   0.877  14.365 -0.5925 -0.0123 -0.8813
 3366SOL     OW21733   4.074   0.634   4.152 -0.0695 -0.1847 -0.8983
 3366SOL    HW121734   4.162   0.654   4.186 -0.2386 -1.1959  0.1257
 3366SOL    HW221735   4.079   0.679   4.068 -1.2126  0.3991 -0.6436
 3367SOL     OW21736   3.932   0.046   6.116  0.0540  0.4998 -0.4955
 3367SOL    HW121737   4.001   0.112   6.129  0.9678 -0.8310  1.3399
 3367SOL    HW221738   3.955   4.723   6.184 -2.7030  2.6208  2.3485
 3368SOL     OW21739   4.594   3.015   3.579 -0.0330  0.2545  0.1570
 3368SOL    HW121740   4.675   2.985   3.537 -0.1095  0.2770 -0.0072
 3368SOL    HW221741   4.625   3.100   3.609  1.4404 -0.3059  0.2226
 3369SOL     OW21742   3.826   0.297   7.982  0.8579 -0.2973 -0.0993
 3369SOL    HW121743   3.766   0.263   8.048  0.8089  0.9986  0.5238
 3369SOL    HW221744   3.882   0.219   7.974 -1.7132 -1.8457 -3.1420
 3370SOL     OW21745   2.071   0.881   6.489 -0.1761  0.3036  0.6238
 3370SOL    HW121746   2.002   0.946   6.497 -0.0512  0.7186 -1.6091
 3370SOL    HW221747   2.145   0.936   6.463  0.1523 -0.3115  0.2484
 3371SOL     OW21748   3.620   1.838  10.938  0.4847  0.1332  0.2778
 3371SOL    HW121749   3.613   1.808  10.848 -0.4799  1.8587 -0.2056
 3371SOL    HW221750   3.645   1.760  10.988 -0.0202 -0.7100 -0.7940
 3372SOL     OW21751   2.773   2.241   4.171  0.4610 -0.1260  0.5648
 3372SOL    HW121752   2.818   2.249   4.255  0.5153  1.4608  0.3982
 3372SOL    HW221753   2.812   2.313   4.121  1.5790  1.3784  3.5723
 3373SOL     OW21754   3.293   3.041   7.142  0.2085 -0.8913  0.3430
 3373SOL    HW121755   3.233   2.993   7.085  0.8878 -0.5473 -0.6700
 3373SOL    HW221756   3.307   3.109   7.075  2.1023  0.8280  2.5047
 3374SOL     OW21757   4.641   2.709   2.794 -0.8386  0.1766 -0.5060
 3374SOL    HW121758   4.668   2.730   2.883  0.1521  4.4860 -1.8120
 3374SOL    HW221759   4.683   2.777   2.742 -0.2037 -0.5517 -0.9315
 3375SOL     OW21760   3.184   2.245  17.333 -0.1473  0.0051 -0.3698
 3375SOL    HW121761   3.132   2.222  17.256 -0.3179 -1.0767  0.0767
 3375SOL    HW221762   3.209   2.156  17.356 -0.4393 -0.2283 -0.9622
 3376SOL     OW21763   0.085   4.261   5.446 -0.8117 -0.7153 -0.0797
 3376SOL    HW121764   0.158   4.322   5.436 -2.0428  0.9279  0.7145
 3376SOL    HW221765   0.032   4.307   5.512 -1.5763 -1.3009 -0.2830
 3377SOL     OW21766   2.454   4.622   4.209 -0.3907 -0.1803 -0.1323
 3377SOL    HW121767   2.519   4.585   4.268  1.0339  0.7201 -1.1476
 3377SOL    HW221768   2.473   4.580   4.126  2.5399  1.9698 -0.5553
 3378SOL     OW21769   1.694   3.680  14.268  0.5572 -0.4662 -0.7481
 3378SOL    HW121770   1.655   3.709  14.186 -2.1245 -0.1755  0.6403
 3378SOL    HW221771   1.697   3.585  14.257  1.7329 -0.3602 -1.3534
 3379SOL     OW21772   0.070   0.214   7.596 -0.0586 -0.4499 -0.0221
 3379SOL    HW121773   0.113   0.212   7.511  2.4339  1.3980  1.1917
 3379SOL    HW221774   0.088   0.307   7.611 -1.3457 -0.2299  0.1447
 3380SOL     OW21775   1.412   2.049  13.529 -0.2509  0.3353  0.3017
 3380SOL    HW121776   1.420   1.986  13.458  1.0782  1.1769 -0.2945
 3380SOL    HW221777   1.465   1.991  13.585 -1.6555 -0.6701  0.5907
 3381SOL     OW21778   2.333   4.124   7.097  0.1473 -0.1259 -0.4877
 3381SOL    HW121779   2.404   4.180   7.064  0.1340 -0.1028 -0.4773
 3381SOL    HW221780   2.330   4.065   7.022  1.5767  0.3161 -0.9097
 3382SOL     OW21781   3.301   2.233  12.306 -0.1087  0.7128  0.0731
 3382SOL    HW121782   3.320   2.148  12.267  1.7786 -0.0320  2.6519
 3382SOL    HW221783   3.374   2.287  12.277  1.1413 -1.0059  0.0279
 3383SOL     OW21784   0.204   1.831   2.469  0.5313 -0.0634  0.0331
 3383SOL    HW121785   0.292   1.818   2.506  0.4032  0.3516  0.4781
 3383SOL    HW221786   0.208   1.857   2.377 -0.3053 -2.0990 -0.5914
 3384SOL     OW21787   1.886   2.821   2.121 -0.1651 -0.0818  0.0426
 3384SOL    HW121788   1.933   2.903   2.104  0.9387 -1.0558 -1.5828
 3384SOL    HW221789   1.859   2.790   2.035 -0.9652 -3.5358  1.5434
 3385SOL     OW21790   1.454   3.240   7.502  0.1438 -0.2180  0.3161
 3385SOL    HW121791   1.497   3.322   7.526 -1.3450  0.8091 -0.5488
 3385SOL    HW221792   1.394   3.227   7.575  0.7078  0.6210  0.9236
 3386SOL     OW21793   4.140   1.415   5.776 -0.5675 -0.0945 -0.1627
 3386SOL    HW121794   4.191   1.338   5.800 -3.7274 -2.4700 -1.0373
 3386SOL    HW221795   4.052   1.382   5.790  0.5385 -3.4108 -1.2251
 3387SOL     OW21796   0.770   1.688   7.992  0.0284  0.0754 -0.4606
 3387SOL    HW121797   0.799   1.778   7.980 -0.0801  0.1080 -0.4726
 3387SOL    HW221798   0.723   1.672   7.910 -1.1386 -0.6331  0.3527
 3388SOL     OW21799   0.150   2.650   8.601  0.4523  0.2480  0.4949
 3388SOL    HW121800   0.205   2.662   8.679 -0.9905 -1.3245  1.7595
 3388SOL    HW221801   0.154   2.554   8.603 -0.5723  0.2051  0.1470
 3389SOL     OW21802   0.108   3.784   3.958  0.2403  0.1520  0.0978
 3389SOL    HW121803   0.101   3.838   3.879 -1.1270 -1.9762 -1.2267
 3389SOL    HW221804   0.013   3.781   3.963  0.1435  0.9465 -1.3469
 3390SOL     OW21805   1.827   2.745   7.029 -0.4562  0.1718  0.0984
 3390SOL    HW121806   1.829   2.650   7.026  1.7613  0.1369  2.9127
 3390SOL    HW221807   1.738   2.753   7.066  0.1316  0.8507  1.3882
 3391SOL     OW21808   3.947   3.023   5.932  0.5087 -0.2000  0.6156
 3391SOL    HW121809   3.992   3.107   5.921  1.6555 -0.7942  0.8147
 3391SOL    HW221810   3.970   3.017   6.025 -0.3041  1.0815  0.9133
 3392SOL     OW21811   3.824   1.457   8.926  0.5786  1.0296  0.2348
 3392SOL    HW121812   3.855   1.423   9.010  0.9761  0.0933 -0.2835
 3392SOL    HW221813   3.843   1.550   8.935 -0.2725  1.1515  0.7919
 3393SOL     OW21814   0.656   3.945   3.503  0.0771 -0.0810  0.2409
 3393SOL    HW121815   0.684   3.903   3.585  0.5788 -0.4110 -0.0990
 3393SOL    HW221816   0.620   4.029   3.530  1.3927  0.8991 -1.1034
 3394SOL     OW21817   0.254   0.532   7.816  0.6778  0.5417 -0.0488
 3394SOL    HW121818   0.220   0.518   7.728  1.3663 -0.1838 -0.1883
 3394SOL    HW221819   0.171   0.545   7.863 -0.3054 -0.4663 -1.4878
 3395SOL     OW21820   1.488   2.473   5.385 -0.8130  0.3171 -0.1582
 3395SOL    HW121821   1.519   2.483   5.475  2.2632 -1.9565 -0.9742
 3395SOL    HW221822   1.525   2.558   5.360 -2.0033  0.6823 -0.6634
 3396SOL     OW21823   0.626   2.102   1.834  0.0844 -0.0638 -1.0073
 3396SOL    HW121824   0.559   2.100   1.766 -1.0470 -0.7253  0.1101
 3396SOL    HW221825   0.606   2.170   1.899  0.3969  0.2707 -1.2682
 3397SOL     OW21826   4.410   4.451   7.894 -0.2897  0.1173 -0.1352
 3397SOL    HW121827   4.443   4.530   7.851  0.3459  0.9562  1.9307
 3397SOL    HW221828   4.492   4.402   7.883 -1.0362 -0.7449 -1.7939
 3398SOL     OW21829   2.032   1.226   5.609  0.1990 -0.0461 -0.1486
 3398SOL    HW121830   1.975   1.155   5.579  0.7701 -0.5180 -0.1124
 3398SOL    HW221831   1.980   1.298   5.572 -0.1130 -0.3370 -0.2776
 3399SOL     OW21832   1.408   2.183  17.613 -0.1083  0.0986 -0.1767
 3399SOL    HW121833   1.322   2.182  17.655  0.5149 -1.8697  1.0698
 3399SOL    HW221834   1.467   2.223  17.677  0.5084  0.4908 -0.9959
 3400SOL     OW21835   1.069   2.592   3.300 -0.6207  0.2659  0.4173
 3400SOL    HW121836   1.087   2.502   3.330  0.5353  0.4096  0.1210
 3400SOL    HW221837   0.976   2.589   3.278 -0.6775  1.0527  0.5509
 3401SOL     OW21838   3.515   0.737  11.705  0.0789 -0.2737 -0.5698
 3401SOL    HW121839   3.462   0.815  11.717 -0.6650 -0.7048 -1.0245
 3401SOL    HW221840   3.530   0.743  11.610  0.4283 -2.2019 -0.6386
 3402SOL     OW21841   1.686   4.497   5.829  0.2844 -0.0878  0.2002
 3402SOL    HW121842   1.673   4.532   5.918 -0.9657 -0.5209  0.1988
 3402SOL    HW221843   1.737   4.422   5.860  0.4686  0.1545  0.4734
 3403SOL     OW21844   0.892   0.284  14.324  0.2618 -0.4597  0.2129
 3403SOL    HW121845   0.914   0.332  14.245 -0.1748 -1.4602 -0.5129
 3403SOL    HW221846   0.887   0.360  14.381 -4.0266  1.0011 -2.1589
 3404SOL     OW21847   3.349   0.386   3.039  0.0528  0.3532  0.6515
 3404SOL    HW121848   3.378   0.452   3.102  4.2245 -1.1966  0.3984
 3404SOL    HW221849   3.363   0.441   2.962  1.5443  0.4847  1.0108
 3405SOL     OW21850   2.992   2.792   7.509 -0.0577 -0.0632  0.0984
 3405SOL    HW121851   2.998   2.727   7.439  1.9081  1.1103 -0.7934
 3405SOL    HW221852   2.949   2.864   7.463 -0.9993  0.2223  1.4272
 3406SOL     OW21853   1.181   3.436  11.410  0.0467  0.1471 -0.2785
 3406SOL    HW121854   1.109   3.397  11.461 -1.6955  1.6751 -1.5671
 3406SOL    HW221855   1.242   3.478  11.471  1.0104  0.7342 -1.6625
 3407SOL     OW21856   2.733   1.196  16.061  0.3146 -0.6314 -0.0365
 3407SOL    HW121857   2.829   1.196  16.062  0.3259 -0.1095 -0.8487
 3407SOL    HW221858   2.710   1.149  15.980  1.8398  1.3371 -1.6066
 3408SOL     OW21859   4.566   0.480  16.224  0.3554  0.1573 -0.7613
 3408SOL    HW121860   4.510   0.555  16.201 -0.1844  0.3401  1.1863
 3408SOL    HW221861   4.637   0.497  16.162  1.0921  0.7853  0.2624
 3409SOL     OW21862   4.382   2.152   0.916 -0.5506  0.0296 -0.0961
 3409SOL    HW121863   4.473   2.126   0.931 -0.6419  0.0965  0.5568
 3409SOL    HW221864   4.353   2.063   0.933  0.2386 -0.6213 -2.0746
 3410SOL     OW21865   4.375   2.909  11.733 -0.5782  0.5892 -0.1931
 3410SOL    HW121866   4.323   2.871  11.662  0.1240  2.3691 -1.6648
 3410SOL    HW221867   4.304   2.915  11.796 -0.2669  1.6833  0.0492
 3411SOL     OW21868   4.404   2.334  16.250  0.0815 -0.2692  0.1150
 3411SOL    HW121869   4.450   2.342  16.167  0.9477 -2.8704  0.3399
 3411SOL    HW221870   4.409   2.423  16.286  0.0599 -0.5965  0.9177
 3412SOL     OW21871   1.045   0.638   6.182 -0.2562  0.2752  0.7232
 3412SOL    HW121872   0.973   0.578   6.166 -0.6732  0.2933  2.5665
 3412SOL    HW221873   1.070   0.661   6.092 -0.3340 -5.3921 -0.7979
 3413SOL     OW21874   3.163   0.777   3.645 -0.0168 -0.0385  0.1466
 3413SOL    HW121875   3.120   0.812   3.568  2.8550 -0.9765 -1.9135
 3413SOL    HW221876   3.143   0.843   3.712  0.5499  2.5531 -2.2397
 3414SOL     OW21877   0.664   4.585  12.200 -0.5276  0.0547 -0.3006
 3414SOL    HW121878   0.710   4.590  12.116  1.2418 -2.2521  0.5443
 3414SOL    HW221879   0.654   4.680  12.207  0.6839  0.0624  1.2923
 3415SOL     OW21880   2.542   3.826   5.924 -0.0975  0.0394 -0.0491
 3415SOL    HW121881   2.565   3.909   5.883  0.0416 -0.2989 -0.6536
 3415SOL    HW221882   2.460   3.813   5.876 -0.5829  1.7197  0.3203
 3416SOL     OW21883   3.713   2.825   7.504 -0.1127  0.3675  0.4453
 3416SOL    HW121884   3.618   2.826   7.517 -0.4183  0.3922 -1.6799
 3416SOL    HW221885   3.729   2.744   7.455  0.2790  0.1010  1.0201
 3417SOL     OW21886   0.002   1.242   5.082  0.0541  0.4324  0.2626
 3417SOL    HW121887   0.073   1.197   5.129  1.6442  0.3194 -2.2613
 3417SOL    HW221888   4.666   1.189   5.107  1.5925 -1.8875  0.0895
 3418SOL     OW21889   1.672   4.524   8.707  0.3857  0.2011  0.2965
 3418SOL    HW121890   1.726   4.462   8.660  1.3811  0.4771  1.0784
 3418SOL    HW221891   1.729   4.601   8.709 -1.0472  1.2860 -0.6220
 3419SOL     OW21892   2.577   0.478  17.277  0.4236 -0.0131 -0.4952
 3419SOL    HW121893   2.535   0.478  17.191 -1.1301  0.6109  0.2729
 3419SOL    HW221894   2.540   0.550  17.326 -0.2786 -1.4187  1.0344
 3420SOL     OW21895   3.966   2.600   4.038  0.1030 -0.5887  0.2303
 3420SOL    HW121896   3.976   2.593   4.133  0.2897 -0.0231  0.2491
 3420SOL    HW221897   3.891   2.542   4.022  1.1773 -1.9194  0.0337
 3421SOL     OW21898   3.078   0.892  12.050  0.0460 -0.4807  0.8693
 3421SOL    HW121899   3.020   0.865  12.122  1.3325 -4.5237  0.4130
 3421SOL    HW221900   3.038   0.849  11.974  1.6092 -1.2024  0.4552
 3422SOL     OW21901   2.212   1.438  17.401  0.5044 -0.1803  0.0969
 3422SOL    HW121902   2.240   1.518  17.356 -0.3108  0.8773  1.4948
 3422SOL    HW221903   2.125   1.465  17.431  0.0162 -1.0151 -0.5637
 3423SOL     OW21904   1.174   1.300   8.108  0.2480  0.2735  0.0279
 3423SOL    HW121905   1.122   1.376   8.080  1.2317  0.6030 -0.8757
 3423SOL    HW221906   1.249   1.299   8.049 -1.1568 -2.9075 -1.6998
 3424SOL     OW21907   0.464   0.924  10.455 -0.4049  0.1333 -0.0929
 3424SOL    HW121908   0.387   0.955  10.407 -0.8386 -0.2295  0.3553
 3424SOL    HW221909   0.502   0.876  10.382 -0.9973 -1.0444  0.3695
 3425SOL     OW21910   4.521   1.087  15.346  0.6737 -0.7490  0.6678
 3425SOL    HW121911   4.471   1.134  15.279 -1.2190 -0.9303  1.9524
 3425SOL    HW221912   4.464   1.010  15.346 -1.3411  0.7412  1.2805
 3426SOL     OW21913   1.376   2.112   5.997  0.6359  0.4317  0.2635
 3426SOL    HW121914   1.367   2.071   6.082 -1.7954 -1.1084 -0.7425
 3426SOL    HW221915   1.284   2.132   5.978  1.1513  0.5280 -2.2375
 3427SOL     OW21916   1.764   2.822  10.163  0.3870  0.5291  0.5139
 3427SOL    HW121917   1.778   2.732  10.132 -2.5936  0.2300  0.0379
 3427SOL    HW221918   1.683   2.821  10.214  0.5859  1.9265  0.8431
 3428SOL     OW21919   0.644   3.860  11.283 -0.0333  0.0051 -0.0305
 3428SOL    HW121920   0.590   3.869  11.204 -0.8335  0.0640  0.5167
 3428SOL    HW221921   0.595   3.794  11.332 -1.4471 -0.0693 -1.5339
 3429SOL     OW21922   4.584   2.387   7.908  0.4520 -0.0995  0.1423
 3429SOL    HW121923   4.511   2.390   7.845  1.7682  2.3384 -1.2586
 3429SOL    HW221924   4.535   2.426   7.980  0.3105 -1.5603  0.8377
 3430SOL     OW21925   4.132   0.755  13.172 -0.2675  0.2600 -0.0742
 3430SOL    HW121926   4.168   0.794  13.252 -1.1028  1.1436 -0.1360
 3430SOL    HW221927   4.093   0.838  13.144  0.5402 -0.1221 -2.3383
 3431SOL     OW21928   4.600   3.774   7.113  0.0592  0.3855 -0.2936
 3431SOL    HW121929   4.676   3.718   7.126  0.8373  1.4175 -0.3150
 3431SOL    HW221930   4.526   3.730   7.156 -0.8950 -0.0462 -2.4008
 3432SOL     OW21931   0.664   0.774   4.264  0.0644 -0.5061  0.5487
 3432SOL    HW121932   0.584   0.746   4.310 -0.2894 -0.0099  0.2290
 3432SOL    HW221933   0.734   0.746   4.323 -1.3662 -0.1007  2.4623
 3433SOL     OW21934   1.555   4.205   5.295 -0.0089  0.0710 -0.7555
 3433SOL    HW121935   1.489   4.209   5.226 -1.0471  2.3080  0.3490
 3433SOL    HW221936   1.560   4.115   5.325  0.2518  1.0737  2.3105
 3434SOL     OW21937   1.450   4.529   1.556  0.4288  0.0831  0.2965
 3434SOL    HW121938   1.418   4.578   1.480  3.2335 -1.1098 -1.6539
 3434SOL    HW221939   1.372   4.495   1.600 -1.8980  1.2872 -2.9362
 3435SOL     OW21940   3.865   1.032   8.222 -0.1931  0.3904 -0.7176
 3435SOL    HW121941   3.838   1.122   8.239 -0.2070  0.4235 -0.9156
 3435SOL    HW221942   3.781   0.987   8.233  1.4646 -2.4048  0.8604
 3436SOL     OW21943   0.088   0.806   6.509 -0.4342 -0.0448 -0.1776
 3436SOL    HW121944   0.118   0.740   6.447 -0.7679 -0.2380 -0.1285
 3436SOL    HW221945   0.161   0.804   6.570 -0.8996 -0.7137  0.3504
 3437SOL     OW21946   0.537   3.868   2.705  0.2458  0.1784 -0.0307
 3437SOL    HW121947   0.533   3.953   2.661  0.4997  0.3701  0.3157
 3437SOL    HW221948   0.496   3.890   2.789 -0.9175  0.4377 -0.6664
 3438SOL     OW21949   1.216   0.802   1.048 -0.1577  0.1754 -0.4722
 3438SOL    HW121950   1.159   0.875   1.071 -0.0607  0.2371 -0.4298
 3438SOL    HW221951   1.163   0.728   1.080 -1.3445  0.7534 -1.0830
 3439SOL     OW21952   4.180   3.191   6.946  0.0942  0.4167  0.0065
 3439SOL    HW121953   4.159   3.284   6.951  0.3490  0.4349  0.7788
 3439SOL    HW221954   4.095   3.152   6.970  1.3664 -0.9248  2.3776
 3440SOL     OW21955   4.726   1.618   3.830  0.3788  0.0880  0.2366
 3440SOL    HW121956   0.034   1.548   3.873  0.6467 -0.8669 -1.6064
 3440SOL    HW221957   0.043   1.694   3.842  0.3069  0.0787  0.6206
 3441SOL     OW21958   3.544   0.593   0.933  0.1604 -0.0102 -0.2022
 3441SOL    HW121959   3.581   0.653   0.868 -1.0331  1.5979  0.5892
 3441SOL    HW221960   3.621   0.538   0.949 -2.9361 -4.1481  0.1668
 3442SOL     OW21961   3.984   2.244  16.581 -0.8311 -0.1941  0.0631
 3442SOL    HW121962   3.916   2.267  16.518  0.4880 -0.0006 -1.2888
 3442SOL    HW221963   4.002   2.153  16.555  0.1920 -0.3022  1.1674
 3443SOL     OW21964   3.977   4.674   2.564  0.0634 -0.6853  0.5999
 3443SOL    HW121965   4.064   4.656   2.598  0.3467 -1.0192 -0.3242
 3443SOL    HW221966   3.942   4.585   2.571  1.8319 -1.4371 -0.4517
 3444SOL     OW21967   0.147   0.258   7.260 -0.2351 -0.0543  0.2346
 3444SOL    HW121968   0.205   0.190   7.293  1.2936  1.8735  1.5170
 3444SOL    HW221969   0.200   0.315   7.205 -1.4518 -0.5460 -1.4353
 3445SOL     OW21970   1.624   3.098  15.306  0.1733  0.0281  0.3795
 3445SOL    HW121971   1.589   3.009  15.294  0.3252  0.1924 -1.2726
 3445SOL    HW221972   1.546   3.153  15.300  0.5947  0.4540 -1.3072
 3446SOL     OW21973   1.332   1.095  14.543 -0.3818 -0.0765  0.0582
 3446SOL    HW121974   1.308   1.065  14.455 -0.1068  0.4144 -0.1890
 3446SOL    HW221975   1.428   1.098  14.539 -0.5557 -0.2939 -4.7486
 3447SOL     OW21976   1.959   1.094   9.479 -0.3472 -0.5524  0.2931
 3447SOL    HW121977   1.995   1.045   9.554  0.6343  1.1825  0.9501
 3447SOL    HW221978   2.024   1.157   9.448  0.0022 -0.2618  1.6395
 3448SOL     OW21979   2.613   2.414  15.385  0.1874 -0.4395 -0.1642
 3448SOL    HW121980   2.615   2.384  15.476  1.2247  0.6899  0.1841
 3448SOL    HW221981   2.632   2.507  15.398 -2.3750  0.3558 -2.2165
 3449SOL     OW21982   2.084   1.794  14.943  0.1121 -0.4113 -0.2785
 3449SOL    HW121983   1.990   1.784  14.931 -0.0803 -0.1969  1.1350
 3449SOL    HW221984   2.117   1.728  14.881 -0.7024 -2.2549  1.2596
 3450SOL     OW21985   3.668   0.734  15.958  0.1211 -0.3345  0.1776
 3450SOL    HW121986   3.594   0.763  15.905  0.0829  0.5049  0.6856
 3450SOL    HW221987   3.738   0.722  15.895 -0.4953  0.0177 -0.5746
 3451SOL     OW21988   2.182   3.874  14.156 -0.5748  0.1091 -0.6118
 3451SOL    HW121989   2.161   3.874  14.063 -0.2705  0.1866 -0.6778
 3451SOL    HW221990   2.204   3.965  14.176  0.5279  0.1135 -1.9036
 3452SOL     OW21991   3.140   0.787  16.085 -0.4126 -0.6528 -0.0446
 3452SOL    HW121992   3.211   0.815  16.028  0.6478 -2.7874  0.2025
 3452SOL    HW221993   3.068   0.848  16.070  0.8208  1.0017  0.7883
 3453SOL     OW21994   2.427   4.116   4.749 -0.1929 -0.2297  0.3004
 3453SOL    HW121995   2.481   4.073   4.683 -2.4573 -0.0964 -1.6267
 3453SOL    HW221996   2.411   4.201   4.710 -2.4033 -1.9114 -2.4715
 3454SOL     OW21997   0.054   0.132   0.820 -0.1623  0.0441  0.7298
 3454SOL    HW121998   0.147   0.137   0.842 -0.1931 -1.6875  1.2311
 3454SOL    HW221999   0.010   0.140   0.904 -2.6730 -0.0112 -0.5965
 3455SOL     OW22000   2.844   4.703   2.969  0.3649  0.0708  0.1649
 3455SOL    HW122001   2.861   4.733   2.880 -0.8981  3.0782  0.9513
 3455SOL    HW222002   2.929   4.665   2.993  0.2552 -0.7785 -0.7634
 3456SOL     OW22003   3.284   1.060   3.519  0.8120 -0.2236 -0.4371
 3456SOL    HW122004   3.248   1.148   3.524 -1.2449 -0.9839 -1.8705
 3456SOL    HW222005   3.283   1.036   3.611 -0.3187 -0.5314 -0.5244
 3457SOL     OW22006   3.493   0.906   5.625 -0.5401 -0.2483 -0.1463
 3457SOL    HW122007   3.514   0.818   5.592  0.6747  0.0630 -0.2002
 3457SOL    HW222008   3.487   0.962   5.547 -0.6681  0.7902  0.6125
 3458SOL     OW22009   1.952   0.770   8.575  0.3895 -0.1633  0.1422
 3458SOL    HW122010   1.968   0.700   8.638  1.0172 -1.9435 -2.0224
 3458SOL    HW222011   1.866   0.741   8.545  0.0365 -2.2138  3.1614
 3459SOL     OW22012   2.297   1.939   5.612 -0.4340 -0.2179 -0.3453
 3459SOL    HW122013   2.244   1.984   5.679  0.2720 -1.1103  0.8258
 3459SOL    HW222014   2.221   1.898   5.570 -1.0439  0.1492  0.3852
 3460SOL     OW22015   2.704   1.906   2.522 -0.1959  0.4111 -0.6009
 3460SOL    HW122016   2.756   1.953   2.457  0.4812  1.5802  0.8115
 3460SOL    HW222017   2.735   1.947   2.602 -3.1485 -0.8103  1.1769
 3461SOL     OW22018   2.740   2.382  13.925  0.1493 -0.2677  0.5798
 3461SOL    HW122019   2.646   2.397  13.935 -0.0426 -0.6992 -0.6184
 3461SOL    HW222020   2.737   2.366  13.831 -2.4609  2.9731  0.1388
 3462SOL     OW22021   3.263   0.076   2.775 -0.9612 -0.2335 -0.6798
 3462SOL    HW122022   3.340   0.097   2.722  0.2143  1.2574  1.6016
 3462SOL    HW222023   3.286   4.730   2.810 -0.8390  0.4439  0.9240
 3463SOL     OW22024   0.530   0.753   7.532  0.9030  0.1805  0.0601
 3463SOL    HW122025   0.602   0.813   7.509  1.1404  0.2828  1.0818
 3463SOL    HW222026   0.578   0.694   7.590 -0.3660  0.7296  1.6650
 3464SOL     OW22027   0.893   2.278   2.021 -0.4524  0.7011 -0.6076
 3464SOL    HW122028   0.798   2.289   2.030 -0.0875  1.0623  2.6444
 3464SOL    HW222029   0.916   2.371   2.027 -1.8304  0.8400  2.6233
 3465SOL     OW22030   0.464   2.575   2.491 -1.0036 -0.2168 -0.0416
 3465SOL    HW122031   0.503   2.616   2.413  0.9251  0.2163  1.1565
 3465SOL    HW222032   0.375   2.605   2.472 -1.3775 -0.1003  1.8990
 3466SOL     OW22033   4.101   2.467  16.737  0.2667 -0.2517  0.3438
 3466SOL    HW122034   4.092   2.375  16.710  1.9071 -0.9075  2.0449
 3466SOL    HW222035   4.118   2.509  16.653  0.1317  0.9304  0.9106
 3467SOL     OW22036   2.549   0.157   7.167 -0.0307 -0.4343 -0.0399
 3467SOL    HW122037   2.570   0.078   7.117  0.2906 -1.1502  1.2052
 3467SOL    HW222038   2.630   0.194   7.202  0.1304 -0.7046 -0.1274
 3468SOL     OW22039   2.626   0.007   6.455 -0.6148  0.1298 -0.0114
 3468SOL    HW122040   2.586   0.018   6.369  0.5410  1.8239 -0.3242
 3468SOL    HW222041   2.656   0.092   6.488  1.0325 -0.4240 -0.0818
 3469SOL     OW22042   1.064   0.286   9.352  0.5012  0.1545 -0.0184
 3469SOL    HW122043   1.138   0.324   9.398  0.0642 -0.0987  0.8794
 3469SOL    HW222044   1.104   0.283   9.265 -2.1618 -0.1613 -1.2415
 3470SOL     OW22045   2.844   3.424   2.076 -0.3628 -0.1211 -0.0909
 3470SOL    HW122046   2.802   3.364   2.015 -0.3552 -0.2797  0.0616
 3470SOL    HW222047   2.780   3.420   2.147 -0.3196 -2.3364 -0.1981
 3471SOL     OW22048   0.697   2.370   3.925 -0.0665 -0.1157  0.3071
 3471SOL    HW122049   0.662   2.456   3.899 -1.3658 -1.3760 -2.1081
 3471SOL    HW222050   0.791   2.386   3.920 -0.3671  1.5447 -0.1024
 3472SOL     OW22051   0.501   0.964   8.548 -0.1870 -0.1512  0.0429
 3472SOL    HW122052   0.504   1.016   8.628 -1.4633  2.0653 -1.3401
 3472SOL    HW222053   0.504   1.037   8.486 -3.4113 -0.9967 -1.0872
 3473SOL     OW22054   2.379   0.932  15.096 -0.2250  0.1556  0.1495
 3473SOL    HW122055   2.398   1.023  15.119  5.1949 -0.6118 -1.3301
 3473SOL    HW222056   2.317   0.902  15.163  2.0203 -0.2615  2.0442
 3474SOL     OW22057   4.679   1.218   5.830  0.2862 -0.1879 -0.5130
 3474SOL    HW122058   4.663   1.148   5.892  1.1258  0.2479  0.1943
 3474SOL    HW222059   4.603   1.275   5.838  0.3248 -0.3106  0.6299
 3475SOL     OW22060   4.652   0.744   3.175 -0.1828 -0.3308  0.0346
 3475SOL    HW122061   4.678   0.718   3.264  1.6013 -0.6461 -0.5678
 3475SOL    HW222062   4.645   0.839   3.188 -0.2195 -0.1106 -1.6900
 3476SOL     OW22063   2.309   2.075   6.231 -0.1653 -0.2347  0.1041
 3476SOL    HW122064   2.282   2.122   6.310 -2.4186 -0.0871 -0.7748
 3476SOL    HW222065   2.351   2.000   6.273  0.1883  0.1128  0.3775
 3477SOL     OW22066   1.787   1.126   0.070  0.3415  0.0928  0.8439
 3477SOL    HW122067   1.709   1.125   0.016  2.9220 -1.3988 -2.8463
 3477SOL    HW222068   1.758   1.118   0.161 -1.6877  0.2633  0.1979
 3478SOL     OW22069   1.986   3.561   5.649  0.1738 -0.1866 -0.0407
 3478SOL    HW122070   1.990   3.466   5.660  0.9064 -0.3871 -1.9348
 3478SOL    HW222071   1.894   3.583   5.661 -0.0890 -0.9001 -0.7535
 3479SOL     OW22072   1.472   3.635  14.637  0.0001  0.2805  0.0229
 3479SOL    HW122073   1.513   3.597  14.560 -0.6704 -4.5638  2.0826
 3479SOL    HW222074   1.545   3.695  14.655 -1.1104  1.6114  0.1169
 3480SOL     OW22075   3.225   2.543   2.642 -0.4440  0.4340  0.1604
 3480SOL    HW122076   3.206   2.528   2.550  0.5495 -1.0512  0.2014
 3480SOL    HW222077   3.214   2.637   2.655  1.6411  1.0034 -2.2689
 3481SOL     OW22078   2.163   3.153   0.911 -0.7152  0.1836 -0.6839
 3481SOL    HW122079   2.133   3.062   0.909  1.0416 -0.4433  1.2599
 3481SOL    HW222080   2.215   3.153   0.831  1.3922  1.6526  0.6742
 3482SOL     OW22081   0.395   3.947   7.754  0.3396  0.3170  0.2428
 3482SOL    HW122082   0.454   3.890   7.802  1.9637 -0.2464 -2.3953
 3482SOL    HW222083   0.325   3.888   7.723  0.9744 -0.5216  0.4260
 3483SOL     OW22084   3.445   3.747  10.455  0.5406 -0.0162 -0.0313
 3483SOL    HW122085   3.354   3.752  10.484  1.1505  2.0645  1.5685
 3483SOL    HW222086   3.421   3.723  10.366  1.1800  1.4318 -0.5966
 3484SOL     OW22087   3.407   4.218   1.638  0.4192  0.1194  0.1894
 3484SOL    HW122088   3.338   4.153   1.627 -0.9249  1.2033  2.1040
 3484SOL    HW222089   3.486   4.169   1.616  1.1196  2.6567 -2.9007
 3485SOL     OW22090   2.875   3.460  10.715  0.4585 -0.0717 -0.0188
 3485SOL    HW122091   2.817   3.524  10.755  1.3280  1.5467 -1.3050
 3485SOL    HW222092   2.890   3.509  10.634 -0.4086  0.1476 -0.0451
 3486SOL     OW22093   3.781   1.831   3.499 -0.5176 -0.0976  0.6781
 3486SOL    HW122094   3.845   1.760   3.489  2.5293  2.5842  1.5577
 3486SOL    HW222095   3.722   1.811   3.426 -1.9096  0.6431  1.6115
 3487SOL     OW22096   4.595   1.559  10.191  0.4773  0.1112  0.4949
 3487SOL    HW122097   4.689   1.573  10.199  0.7803 -0.6168 -1.9138
 3487SOL    HW222098   4.570   1.605  10.111  1.3241 -0.0837  0.1136
 3488SOL     OW22099   2.985   4.243   2.729 -0.1905  1.0816  0.0691
 3488SOL    HW122100   3.023   4.317   2.683 -0.1238  1.4835  0.7571
 3488SOL    HW222101   2.920   4.287   2.784  0.4820  1.2118  0.7642
 3489SOL     OW22102   1.655   1.456  17.307 -1.0299 -0.0997 -0.4272
 3489SOL    HW122103   1.616   1.420  17.227 -1.6922  0.9481 -0.5711
 3489SOL    HW222104   1.699   1.375  17.336 -0.4710  1.2617  2.5398
 3490SOL     OW22105   0.594   2.517   5.209  0.1067 -0.1230 -0.0287
 3490SOL    HW122106   0.664   2.573   5.174  0.3377  0.5126  1.4524
 3490SOL    HW222107   0.601   2.447   5.145 -1.4751 -0.6094  0.3486
 3491SOL     OW22108   4.725   2.453   6.972  0.1320 -0.3693  0.6493
 3491SOL    HW122109   4.727   2.462   7.068 -0.2959 -2.4867  0.8505
 3491SOL    HW222110   4.632   2.445   6.952 -0.4058 -0.1352  2.9659
 3492SOL     OW22111   3.019   0.978   5.450 -0.4648  0.1905  0.0140
 3492SOL    HW122112   3.032   0.889   5.418  0.3491  0.0010  0.8811
 3492SOL    HW222113   2.930   0.973   5.486 -0.5169  2.3591  0.2115
 3493SOL     OW22114   3.338   1.820   8.434 -0.4583 -0.0221  0.5705
 3493SOL    HW122115   3.268   1.758   8.415 -0.5048  0.4529 -0.7487
 3493SOL    HW222116   3.278   1.891   8.455 -1.6191  0.1884 -3.5426
 3494SOL     OW22117   3.556   2.573   9.089  0.4799 -0.3247  0.4768
 3494SOL    HW122118   3.612   2.499   9.062 -1.3968 -2.0690  1.4102
 3494SOL    HW222119   3.619   2.645   9.086  0.4368 -0.2383  1.7375
 3495SOL     OW22120   4.070   0.586   8.756 -0.5916 -0.3400 -0.4021
 3495SOL    HW122121   4.011   0.530   8.706 -2.6641  0.5212  1.0591
 3495SOL    HW222122   4.139   0.586   8.689 -0.9419 -0.4618 -0.7581
 3496SOL     OW22123   0.489   3.332   8.612  0.0674  0.1150 -0.2106
 3496SOL    HW122124   0.447   3.416   8.628  0.6191  0.2940  0.3128
 3496SOL    HW222125   0.412   3.279   8.590 -0.3873  1.1743 -1.1665
 3497SOL     OW22126   1.843   0.077   4.631 -0.2403  0.2553  0.1129
 3497SOL    HW122127   1.822   0.053   4.721  6.4266 -0.6301  1.4680
 3497SOL    HW222128   1.783   0.151   4.617 -0.2992 -0.2949 -2.6152
 3498SOL     OW22129   4.420   2.818   5.555 -0.1314  0.2514  0.1023
 3498SOL    HW122130   4.396   2.910   5.540 -0.7980 -0.0479 -0.6948
 3498SOL    HW222131   4.336   2.783   5.524 -0.8296  0.4679  1.6960
 3499SOL     OW22132   1.222   0.574   4.600  0.3617  0.1005 -0.0452
 3499SOL    HW122133   1.228   0.665   4.572 -1.5701  0.5132  0.8769
 3499SOL    HW222134   1.186   0.535   4.520 -1.3808  0.5069  0.5432
 3500SOL     OW22135   4.117   0.984  14.548  0.3929 -0.3940  0.1929
 3500SOL    HW122136   4.090   1.075  14.560  1.6194 -0.0818  0.6050
 3500SOL    HW222137   4.073   0.962  14.466 -1.0153 -1.7885  1.3366
 3501SOL     OW22138   0.648   1.356   6.836 -0.9291 -0.3867  0.1966
 3501SOL    HW122139   0.659   1.446   6.806 -0.4986 -1.0719 -1.7169
 3501SOL    HW222140   0.715   1.361   6.903  2.3062 -0.3166 -3.0350
 3502SOL     OW22141   4.378   2.651  12.229  0.5613 -0.4390 -0.1014
 3502SOL    HW122142   4.387   2.562  12.195  0.7306  0.0856 -1.4181
 3502SOL    HW222143   4.335   2.679  12.148 -0.7836 -2.8719 -0.2459
 3503SOL     OW22144   4.266   0.903   5.342 -0.6743  0.1080  0.7748
 3503SOL    HW122145   4.272   0.818   5.299 -0.5492 -0.3679  1.7260
 3503SOL    HW222146   4.270   0.976   5.281 -0.5245 -0.5205  0.0431
 3504SOL     OW22147   4.233   4.123   5.139  0.0045 -0.3839 -0.1082
 3504SOL    HW122148   4.196   4.039   5.165  1.2514 -0.6052  0.9044
 3504SOL    HW222149   4.325   4.100   5.126  0.2537  1.0076 -0.9089
 3505SOL     OW22150   1.939   4.579   8.499  0.6820 -0.0131 -0.3108
 3505SOL    HW122151   1.975   4.667   8.497 -0.9783  0.7015  0.9855
 3505SOL    HW222152   1.876   4.585   8.427 -0.9148 -1.9094  0.8980
 3506SOL     OW22153   1.451   4.294   3.252  0.1568  0.3063 -0.1746
 3506SOL    HW122154   1.443   4.272   3.345  0.7758  0.7841 -0.0073
 3506SOL    HW222155   1.410   4.380   3.258  0.1589  0.2558  0.5650
 3507SOL     OW22156   4.697   1.015   3.214 -0.1065 -0.2278 -0.0789
 3507SOL    HW122157   4.717   1.105   3.187 -0.0482 -0.1971  0.0712
 3507SOL    HW222158   4.617   1.044   3.258 -1.0310 -0.9122 -1.2818
 3508SOL     OW22159   0.294   4.599  12.472  0.2377  0.4158 -0.2878
 3508SOL    HW122160   0.389   4.586  12.468  0.3859  0.7012  2.4568
 3508SOL    HW222161   0.291   4.523  12.531 -0.5946  1.1857  0.6483
 3509SOL     OW22162   0.961   1.489   7.807 -0.5955 -0.6673  0.0232
 3509SOL    HW122163   0.887   1.549   7.814  0.3357  0.2389  2.0307
 3509SOL    HW222164   0.928   1.421   7.749 -1.0658  0.0710 -0.5829
 3510SOL     OW22165   1.481   0.211   5.805 -0.0399 -0.2441 -0.3047
 3510SOL    HW122166   1.547   0.232   5.871  0.3769 -1.6382 -0.2612
 3510SOL    HW222167   1.542   0.220   5.732  2.7875 -1.1308  1.9284
 3511SOL     OW22168   1.350   1.069   5.084  0.9234 -0.0383  0.3383
 3511SOL    HW122169   1.334   1.077   4.990  0.6002  0.6178  0.4443
 3511SOL    HW222170   1.292   1.133   5.126  1.1478 -0.2835  1.0211
 3512SOL     OW22171   4.142   0.946   1.355 -0.2832 -0.1143  0.3478
 3512SOL    HW122172   4.232   0.946   1.322 -0.4346  0.0759 -0.0638
 3512SOL    HW222173   4.133   1.022   1.413 -1.7100 -0.1879  0.2187
 3513SOL     OW22174   1.723   0.508   7.415  0.4815  0.0470  0.0680
 3513SOL    HW122175   1.735   0.587   7.468  0.7590  0.0511 -0.0029
 3513SOL    HW222176   1.739   0.434   7.475  0.4732 -1.2808 -1.5765
 3514SOL     OW22177   1.421   2.554   3.269  0.6206  0.0383 -0.8413
 3514SOL    HW122178   1.466   2.562   3.185  1.4035 -0.0680 -0.4315
 3514SOL    HW222179   1.456   2.624   3.323 -0.2389  0.1675 -0.4606
 3515SOL     OW22180   1.955   3.147   2.621 -0.5657 -0.5676 -0.0636
 3515SOL    HW122181   2.047   3.126   2.635 -0.8241 -2.0928 -0.6385
 3515SOL    HW222182   1.964   3.211   2.550  1.5509 -0.9379 -0.1371
 3516SOL     OW22183   4.599   2.933   3.900 -0.0020  0.0092  0.3240
 3516SOL    HW122184   4.649   2.963   3.825 -1.3767 -1.1481 -1.0723
 3516SOL    HW222185   4.664   2.875   3.939 -0.1003 -1.7415 -2.1539
 3517SOL     OW22186   1.062   1.920   6.769 -0.2422 -0.2771  0.2796
 3517SOL    HW122187   1.041   1.844   6.715  1.2764  0.2491 -1.0528
 3517SOL    HW222188   1.024   1.995   6.722  1.5744 -1.4729 -3.0878
 3518SOL     OW22189   0.429   3.224   0.414  0.0218 -0.2145  0.0909
 3518SOL    HW122190   0.371   3.272   0.354  0.4905  1.7954  1.2520
 3518SOL    HW222191   0.372   3.204   0.488  0.2525 -2.0360 -0.2254
 3519SOL     OW22192   4.646   0.414  12.065 -0.1342  0.2410 -0.5819
 3519SOL    HW122193   4.705   0.338  12.061 -2.2402 -1.3470 -1.5805
 3519SOL    HW222194   4.558   0.380  12.079 -0.7766  1.9742 -0.4738
 3520SOL     OW22195   1.798   3.817   3.203  0.4273 -0.2147  0.2384
 3520SOL    HW122196   1.839   3.832   3.117  3.4993  1.5460  2.0001
 3520SOL    HW222197   1.840   3.886   3.255 -0.2270 -0.0924  0.5969
 3521SOL     OW22198   3.705   4.465   6.585 -0.8648  0.5425  0.2197
 3521SOL    HW122199   3.786   4.506   6.614 -0.6235 -0.0186  0.3357
 3521SOL    HW222200   3.682   4.415   6.663 -1.3892 -0.9814 -0.8977
 3522SOL     OW22201   4.202   0.800   3.546  0.4564 -0.1199 -0.2863
 3522SOL    HW122202   4.152   0.732   3.592  1.1605 -0.3026  0.2104
 3522SOL    HW222203   4.281   0.795   3.600  0.4127 -2.8623 -0.4884
 3523SOL     OW22204   4.293   1.792   4.934 -0.0431 -0.1752  0.1286
 3523SOL    HW122205   4.379   1.821   4.904  1.8063 -1.8202  3.7987
 3523SOL    HW222206   4.301   1.698   4.951 -0.2779 -0.2824 -0.3495
 3524SOL     OW22207   2.227   3.561   7.530  0.3539 -0.6279  0.1403
 3524SOL    HW122208   2.145   3.538   7.486  0.0458 -0.6821  0.7417
 3524SOL    HW222209   2.286   3.514   7.472 -0.4956 -0.5037 -0.8154
 3525SOL     OW22210   0.957   4.301  16.487 -0.1129  0.2310 -0.2519
 3525SOL    HW122211   1.048   4.326  16.469  0.6090 -2.3441 -0.2825
 3525SOL    HW222212   0.963   4.282  16.581 -1.9349  0.8940 -0.0177
 3526SOL     OW22213   3.186   0.169   6.376 -0.4676  0.4704  0.1175
 3526SOL    HW122214   3.097   0.203   6.366 -0.0460  0.7633 -2.5032
 3526SOL    HW222215   3.168   0.075   6.384  1.1415  0.1066 -0.6612
 3527SOL     OW22216   2.743   3.016   3.102 -0.5083 -0.2439  0.2626
 3527SOL    HW122217   2.814   2.957   3.076 -1.1458 -0.6498 -0.5547
 3527SOL    HW222218   2.734   3.068   3.022  1.7372 -1.2462 -0.6303
 3528SOL     OW22219   3.661   1.540  13.396  0.9002  0.1167 -0.0239
 3528SOL    HW122220   3.623   1.566  13.311 -1.0512  1.3479  1.2225
 3528SOL    HW222221   3.625   1.454  13.415 -1.3061  0.8337 -0.9036
 3529SOL     OW22222   0.928   3.588   1.148  0.0214 -0.2359 -0.5267
 3529SOL    HW122223   0.871   3.519   1.182  1.3268 -0.4335  1.2510
 3529SOL    HW222224   1.011   3.546   1.170  0.0143 -0.5995 -1.1856
 3530SOL     OW22225   3.439   3.954  16.012  0.1676  0.6639 -0.0896
 3530SOL    HW122226   3.453   3.862  15.988 -0.1175  0.2301  1.3672
 3530SOL    HW222227   3.445   3.991  15.924 -0.1260 -2.7267 -1.5571
 3531SOL     OW22228   2.909   4.622   8.647 -0.0524  0.5832 -0.1567
 3531SOL    HW122229   2.945   4.710   8.654  1.0538  0.0040  1.2473
 3531SOL    HW222230   2.822   4.646   8.613 -0.7803 -2.1924 -0.2771
 3532SOL     OW22231   0.243   1.060   8.134  0.3294  0.7599  0.3521
 3532SOL    HW122232   0.199   0.976   8.123 -0.4674  1.1818  0.2792
 3532SOL    HW222233   0.189   1.098   8.204  0.4895  3.7151 -1.1139
 3533SOL     OW22234   3.302   3.801   3.713  0.2994  0.2324 -0.4488
 3533SOL    HW122235   3.235   3.859   3.680  1.0115  0.8487 -0.8115
 3533SOL    HW222236   3.378   3.859   3.704 -0.4586  0.9186 -2.1924
 3534SOL     OW22237   2.568   1.290   4.472 -0.5754  0.3657 -0.8188
 3534SOL    HW122238   2.616   1.322   4.548 -2.3273 -0.8452  0.8114
 3534SOL    HW222239   2.520   1.369   4.448 -0.0275  1.4907  1.7621
 3535SOL     OW22240   4.265   1.148   2.385  0.1482  0.1057  0.0672
 3535SOL    HW122241   4.267   1.070   2.440 -2.8530  0.9405  1.3236
 3535SOL    HW222242   4.176   1.172   2.408  0.1674  1.2021 -1.0006
 3536SOL     OW22243   2.168   2.181  16.394  0.4541  0.2780  0.0183
 3536SOL    HW122244   2.172   2.265  16.439 -0.1089  0.6522 -0.6167
 3536SOL    HW222245   2.219   2.203  16.316  0.6770  2.7364  0.8535
 3537SOL     OW22246   4.087   1.245   4.955 -0.5244 -0.0477  0.0526
 3537SOL    HW122247   4.157   1.200   5.002 -0.3606  0.1409 -0.0064
 3537SOL    HW222248   4.128   1.324   4.919 -2.2074  0.8775  0.1856
 3538SOL     OW22249   2.662   2.744   3.403  0.2923  0.0416 -0.3078
 3538SOL    HW122250   2.748   2.776   3.430  0.9142 -0.6412 -1.4534
 3538SOL    HW222251   2.687   2.656   3.375  1.0907  0.6158 -1.3874
 3539SOL     OW22252   2.210   1.157   3.874  0.2383  0.4642 -0.5392
 3539SOL    HW122253   2.263   1.228   3.911 -1.5403  1.5333 -0.0573
 3539SOL    HW222254   2.157   1.145   3.953  0.2410 -0.4146 -0.6690
 3540SOL     OW22255   0.250   0.818   0.078 -0.5160 -0.0785 -0.5428
 3540SOL    HW122256   0.198   0.873   0.020 -1.3962 -0.4927 -0.1510
 3540SOL    HW222257   0.323   0.879   0.085 -0.9905  0.4079  0.3241
 3541SOL     OW22258   2.973   3.550   2.737 -0.2477  0.1451  0.2518
 3541SOL    HW122259   2.946   3.628   2.688 -0.6753  1.7354  2.9610
 3541SOL    HW222260   2.905   3.536   2.803  0.1115  0.9155  0.7967
 3542SOL     OW22261   4.646   0.655   2.912 -0.5228 -0.0540  0.0541
 3542SOL    HW122262   4.654   0.721   2.981  0.0091  0.9332 -0.9504
 3542SOL    HW222263   4.576   0.698   2.863 -0.4739  0.7750  0.7001
 3543SOL     OW22264   1.185   2.127   5.235  0.2397 -0.6182  0.0534
 3543SOL    HW122265   1.196   2.220   5.254  2.0109 -0.4008 -1.9874
 3543SOL    HW222266   1.271   2.111   5.197  0.5800 -1.8957  1.3522
 3544SOL     OW22267   4.424   2.537   8.122  0.0698  0.0541  0.3093
 3544SOL    HW122268   4.423   2.508   8.214 -0.1682  0.2484  0.3680
 3544SOL    HW222269   4.333   2.526   8.097 -0.1236 -1.5763  1.6578
 3545SOL     OW22270   3.246   1.638  13.474  0.2997 -0.1457 -0.0626
 3545SOL    HW122271   3.320   1.649  13.534 -2.4274  0.3873  3.2686
 3545SOL    HW222272   3.266   1.707  13.410  1.5958  1.3469  1.9280
 3546SOL     OW22273   3.992   2.909   4.336  0.2369  0.2779 -0.0319
 3546SOL    HW122274   4.031   2.842   4.392  1.0807  1.3893  0.7049
 3546SOL    HW222275   4.068   2.950   4.296 -0.4213  1.1713 -0.3536
 3547SOL     OW22276   3.175   0.164  12.572 -0.1919  0.0842  0.7767
 3547SOL    HW122277   3.168   0.234  12.507 -2.5917 -0.7681  0.1316
 3547SOL    HW222278   3.254   0.125  12.535 -1.3634 -1.7761  0.2262
 3548SOL     OW22279   0.548   0.268   6.319  0.1453  0.2075  0.6128
 3548SOL    HW122280   0.556   0.353   6.276 -2.3222 -0.4800 -1.1832
 3548SOL    HW222281   0.492   0.225   6.254  1.8091 -1.8201  0.4928
 3549SOL     OW22282   2.159   1.628   5.074 -0.3598 -0.1062 -0.0129
 3549SOL    HW122283   2.245   1.626   5.116 -0.0947  0.1071 -0.5411
 3549SOL    HW222284   2.108   1.679   5.136  0.4141  0.9334 -0.2340
 3550SOL     OW22285   1.579   4.713   6.900  0.2140 -0.2591  0.3780
 3550SOL    HW122286   1.628   4.671   6.971  0.2327 -1.9905 -0.6490
 3550SOL    HW222287   1.510   0.014   6.952 -2.2110 -2.0909 -1.3806
 3551SOL     OW22288   2.920   3.664  16.634  0.7536  0.4723 -0.0991
 3551SOL    HW122289   2.836   3.700  16.662  0.1362 -1.4108  0.5382
 3551SOL    HW222290   2.990   3.714  16.674  1.8519 -0.5740 -0.6891
 3552SOL     OW22291   0.955   4.139   2.893  0.0150 -0.2342  0.0464
 3552SOL    HW122292   0.925   4.209   2.835 -1.1013  1.5236  2.7099
 3552SOL    HW222293   0.870   4.125   2.936 -1.1344 -2.7283 -3.0510
 3553SOL     OW22294   1.583   1.536   4.068  0.1511 -0.4185 -0.4434
 3553SOL    HW122295   1.551   1.500   3.985 -1.5752 -0.1564  0.1191
 3553SOL    HW222296   1.536   1.619   4.072  3.6302  1.4469  2.0536
 3554SOL     OW22297   2.339   0.636   5.134  0.3836  0.5044  0.1053
 3554SOL    HW122298   2.319   0.554   5.088 -1.9807  1.1523 -0.0319
 3554SOL    HW222299   2.371   0.672   5.051  1.0857 -1.0752 -0.3186
 3555SOL     OW22300   2.805   3.078   3.408 -0.4881 -0.2312 -0.1576
 3555SOL    HW122301   2.865   3.004   3.402  0.8329  0.8335 -0.1881
 3555SOL    HW222302   2.777   3.085   3.316 -0.7800  2.0616  0.1107
 3556SOL     OW22303   0.363   3.051   6.712  0.1346 -0.4271  0.3294
 3556SOL    HW122304   0.341   2.971   6.664 -0.5500 -0.4931  0.7374
 3556SOL    HW222305   0.358   3.109   6.637  0.7007  1.0444  1.4351
 3557SOL     OW22306   0.647   1.246  16.532  0.4239  0.5289 -0.1426
 3557SOL    HW122307   0.621   1.336  16.511 -0.7596 -0.2392 -1.9290
 3557SOL    HW222308   0.702   1.219  16.458 -0.0530  1.2832 -0.7662
 3558SOL     OW22309   4.168   1.944   6.997 -0.0262  0.5086  0.6418
 3558SOL    HW122310   4.159   1.884   7.071  0.3623  1.6026  1.5728
 3558SOL    HW222311   4.159   1.877   6.928  1.7174  1.9520 -0.9983
 3559SOL     OW22312   3.789   1.217  10.771 -0.4595 -0.3847 -0.6137
 3559SOL    HW122313   3.783   1.311  10.752 -0.6113  0.2885  2.6873
 3559SOL    HW222314   3.851   1.181  10.708  1.2395 -2.1375  2.0671
 3560SOL     OW22315   3.469   1.822   4.794 -0.1818  0.4626 -0.5831
 3560SOL    HW122316   3.434   1.893   4.847 -2.4577 -0.6253 -0.6711
 3560SOL    HW222317   3.540   1.870   4.750  0.2689  1.5407  1.3491
 3561SOL     OW22318   1.551   2.266   7.108 -0.2442 -0.0431  0.3830
 3561SOL    HW122319   1.480   2.278   7.172 -0.7225 -3.3050  0.4638
 3561SOL    HW222320   1.599   2.189   7.138  1.4564  1.0823  0.5548
 3562SOL     OW22321   4.507   4.247  12.929 -0.0299 -0.3397  0.0578
 3562SOL    HW122322   4.462   4.173  12.888 -1.2091 -0.3650  1.4135
 3562SOL    HW222323   4.443   4.318  12.924 -0.4957 -1.0879 -4.1701
 3563SOL     OW22324   3.447   0.453   8.553 -0.1043  0.4178  0.3517
 3563SOL    HW122325   3.383   0.511   8.511 -0.9550  0.1436  1.2806
 3563SOL    HW222326   3.405   0.369   8.534 -0.9121  0.3622  2.4080
 3564SOL     OW22327   1.165   1.005  11.958 -0.0301  0.1373 -0.6125
 3564SOL    HW122328   1.239   1.059  11.930 -0.8459  1.1583 -0.8030
 3564SOL    HW222329   1.148   0.948  11.884  2.6340 -0.5775 -0.6777
 3565SOL     OW22330   2.109   2.477   2.819  0.2970  0.2668  0.1136
 3565SOL    HW122331   2.025   2.476   2.774 -0.9548  1.2199  2.4691
 3565SOL    HW222332   2.153   2.537   2.759 -0.7460  1.3110  0.4048
 3566SOL     OW22333   3.938   2.984   9.687  0.3641 -0.3612 -0.1348
 3566SOL    HW122334   3.861   2.950   9.734  0.9920 -0.1227  1.0689
 3566SOL    HW222335   3.984   3.044   9.745 -1.3992  2.3690 -1.5655
 3567SOL     OW22336   4.356   2.837   6.774  0.0752  1.2803 -0.1903
 3567SOL    HW122337   4.290   2.861   6.709  0.3982 -0.9337 -1.3170
 3567SOL    HW222338   4.354   2.741   6.769 -0.6977  1.3150 -0.5355
 3568SOL     OW22339   1.275   1.528  12.623 -0.2979  0.3953 -0.2060
 3568SOL    HW122340   1.235   1.543  12.709 -0.1878 -1.0717  0.1026
 3568SOL    HW222341   1.356   1.491  12.658 -1.0243 -1.0200 -0.0102
 3569SOL     OW22342   4.545   2.712   6.946  0.1402 -0.5460  0.3268
 3569SOL    HW122343   4.500   2.628   6.951 -0.8887  0.0035  0.2965
 3569SOL    HW222344   4.481   2.763   6.896  1.3623  0.4454 -0.2364
 3570SOL     OW22345   0.249   0.137   3.638  0.3797  0.0265  0.2985
 3570SOL    HW122346   0.162   0.099   3.633 -0.1462  1.0192  1.7265
 3570SOL    HW222347   0.245   0.177   3.725 -0.7539  0.3832  0.0877
 3571SOL     OW22348   0.321   3.610   4.944  0.2366  0.2833 -0.1067
 3571SOL    HW122349   0.415   3.601   4.954 -0.1843 -2.9437  1.1109
 3571SOL    HW222350   0.296   3.518   4.950  0.9429  0.2146  1.9082
 3572SOL     OW22351   0.143   2.098   7.680 -0.3034 -0.1279 -0.1885
 3572SOL    HW122352   0.048   2.087   7.669 -0.2494 -1.1749  0.3953
 3572SOL    HW222353   0.136   2.169   7.744 -1.3927 -3.5947  3.5443
 3573SOL     OW22354   0.117   0.232   5.634  0.5222 -0.6711  0.0146
 3573SOL    HW122355   0.202   0.245   5.676  0.1473 -0.0120  0.5655
 3573SOL    HW222356   0.057   0.237   5.708 -0.6797 -2.9855 -0.7958
 3574SOL     OW22357   1.159   0.786   1.604 -0.3928  0.1038 -0.9131
 3574SOL    HW122358   1.120   0.855   1.658  1.5672  2.0812 -2.0396
 3574SOL    HW222359   1.184   0.834   1.525  1.2165  0.7254 -0.0210
 3575SOL     OW22360   3.483   3.493   5.108  0.1664 -0.0998 -0.1118
 3575SOL    HW122361   3.476   3.575   5.157  0.1364  0.6439 -1.3711
 3575SOL    HW222362   3.539   3.518   5.035  2.9427 -0.9650  1.7126
 3576SOL     OW22363   2.800   1.176   0.428  0.2409  0.1440  0.0848
 3576SOL    HW122364   2.773   1.085   0.418 -0.8471  0.3131  1.3560
 3576SOL    HW222365   2.766   1.213   0.347  2.2579  1.2836 -0.2343
 3577SOL     OW22366   3.861   0.709  16.642  0.2313  0.4490 -0.4012
 3577SOL    HW122367   3.771   0.684  16.662  0.7445 -0.7997  0.3189
 3577SOL    HW222368   3.839   0.798  16.613 -0.6369  0.2056 -0.4809
 3578SOL     OW22369   3.737   4.566  15.200 -0.1636  0.4176 -0.3233
 3578SOL    HW122370   3.643   4.572  15.180 -1.1357 -1.4291  3.7434
 3578SOL    HW222371   3.754   4.482  15.158 -1.1439  0.3676 -0.6109
 3579SOL     OW22372   3.770   0.459   4.078 -0.5403  0.0082  0.4121
 3579SOL    HW122373   3.812   0.544   4.092 -0.7754 -0.2075  2.4483
 3579SOL    HW222374   3.758   0.465   3.983 -0.7225  1.4462  0.5226
 3580SOL     OW22375   0.783   1.892   6.435  0.3971  0.1447  0.4585
 3580SOL    HW122376   0.723   1.936   6.495  0.4186 -0.5511  0.9842
 3580SOL    HW222377   0.734   1.892   6.352  4.5973  0.7518 -1.9946
 3581SOL     OW22378   3.756   1.310  13.173 -0.0435  0.1589 -0.0752
 3581SOL    HW122379   3.722   1.363  13.101  0.5608  0.5529 -0.0666
 3581SOL    HW222380   3.678   1.298  13.228  0.4011  0.9631  0.7299
 3582SOL     OW22381   2.354   2.161   6.987  0.3462  0.2947  0.3960
 3582SOL    HW122382   2.263   2.145   6.962 -0.3799  2.3487  1.6787
 3582SOL    HW222383   2.352   2.257   6.993 -1.2085  0.3040 -0.2101
 3583SOL     OW22384   1.060   1.088   7.921  0.4512  0.2607  0.4369
 3583SOL    HW122385   0.977   1.042   7.905  0.5151  0.2242  0.2028
 3583SOL    HW222386   1.044   1.146   7.995  0.2466  0.7976 -0.0252
 3584SOL     OW22387   1.281   3.077   3.186 -0.0590  0.0356 -0.6641
 3584SOL    HW122388   1.272   2.985   3.209  0.4160  0.0346 -0.4736
 3584SOL    HW222389   1.377   3.073   3.187  0.0304  2.1370 -1.3081
 3585SOL     OW22390   0.088   0.705  11.358 -0.4315  0.2529 -0.5838
 3585SOL    HW122391   0.183   0.703  11.370 -0.2023  0.9765 -2.3324
 3585SOL    HW222392   0.076   0.797  11.334  0.0032  0.8383  1.3906
 3586SOL     OW22393   0.597   4.583   6.219  0.1752 -0.0813 -0.5163
 3586SOL    HW122394   0.658   4.657   6.225  0.6464 -0.4681 -0.5034
 3586SOL    HW222395   0.516   4.624   6.248  1.2322  0.4133  1.7671
 3587SOL     OW22396   3.598   2.049   7.821  0.2832 -0.2898 -0.2612
 3587SOL    HW122397   3.641   2.096   7.892  1.3881 -0.2221 -0.9765
 3587SOL    HW222398   3.617   1.959   7.850  1.0425  0.3156  1.1011
 3588SOL     OW22399   0.592   1.300   3.546 -0.2987 -0.2901  0.1832
 3588SOL    HW122400   0.679   1.263   3.562 -0.1922  0.8452  2.2600
 3588SOL    HW222401   0.613   1.393   3.537 -1.4386  0.0643  1.2772
 3589SOL     OW22402   1.935   0.773   5.609  0.0401 -0.6775 -0.0043
 3589SOL    HW122403   1.946   0.863   5.578  0.6520 -0.9440 -0.5709
 3589SOL    HW222404   1.869   0.785   5.677 -2.2934  0.1960 -2.4070
 3590SOL     OW22405   1.629   2.882  13.378 -0.4720  0.5333 -0.0897
 3590SOL    HW122406   1.708   2.921  13.414 -0.2177  1.8267 -2.0623
 3590SOL    HW222407   1.595   2.841  13.457 -0.6738  0.7622 -0.0591
 3591SOL     OW22408   2.092   3.971   6.094 -1.0366 -0.2084  0.1138
 3591SOL    HW122409   2.035   3.896   6.113  1.2928 -2.1470 -0.5973
 3591SOL    HW222410   2.095   3.976   5.998 -0.9773  0.0329  0.1285
 3592SOL     OW22411   2.823   3.826   1.499  0.0987 -0.2829 -0.4520
 3592SOL    HW122412   2.889   3.805   1.566  2.0010 -1.5050 -2.7128
 3592SOL    HW222413   2.886   3.836   1.428  0.8342 -0.3503  0.1921
 3593SOL     OW22414   2.606   1.910  16.125  0.9505  0.2382 -0.0739
 3593SOL    HW122415   2.514   1.893  16.144  1.6647 -4.1852 -0.4909
 3593SOL    HW222416   2.608   2.002  16.153  0.7859  0.9923 -2.5611
 3594SOL     OW22417   1.852   2.374   6.771  0.5780 -0.4085 -0.1504
 3594SOL    HW122418   1.871   2.376   6.864  1.7735  0.8273 -0.4256
 3594SOL    HW222419   1.781   2.438   6.762 -0.4420 -0.7523  5.4418
 3595SOL     OW22420   4.169   4.659   7.896 -0.0136 -0.7994 -0.0241
 3595SOL    HW122421   4.262   4.667   7.875  0.1062 -1.4255  0.2471
 3595SOL    HW222422   4.145   4.622   7.811  0.9073 -0.3745 -0.4675
 3596SOL     OW22423   3.695   3.178  16.507  0.0040  0.3761 -0.2031
 3596SOL    HW122424   3.612   3.193  16.462 -1.4670 -0.3524  2.2751
 3596SOL    HW222425   3.679   3.255  16.563 -0.4106 -0.0877  0.3166
 3597SOL     OW22426   3.064   4.282  13.828  0.2001 -0.1101 -0.2958
 3597SOL    HW122427   3.048   4.366  13.784  0.5801 -0.0641 -0.3465
 3597SOL    HW222428   3.147   4.300  13.871 -0.6701  0.7440  1.0398
 3598SOL     OW22429   2.390   4.682   6.602  0.0892 -0.1776 -0.0263
 3598SOL    HW122430   2.322   4.708   6.539  1.5553  0.4447 -1.3568
 3598SOL    HW222431   2.469   4.683   6.547 -0.1698 -1.8460 -0.4224
 3599SOL     OW22432   0.768   3.309   6.676 -0.0527 -0.3536 -0.3571
 3599SOL    HW122433   0.839   3.284   6.618  0.6174  1.6449 -0.3871
 3599SOL    HW222434   0.699   3.327   6.612 -0.1933 -1.6168 -0.5614
 3600SOL     OW22435   3.282   4.324   7.713 -0.0390 -0.4182  0.1700
 3600SOL    HW122436   3.228   4.339   7.791  1.5748 -0.3426  1.2653
 3600SOL    HW222437   3.357   4.275   7.745  0.3477  1.7699  2.5857
 3601SOL     OW22438   1.791   0.152   6.768 -0.0797  0.8156  0.1943
 3601SOL    HW122439   1.715   0.115   6.813  0.3078  1.7251  1.6148
 3601SOL    HW222440   1.776   0.246   6.773  0.0874  0.9674 -2.4073
 3602SOL     OW22441   0.684   0.751   8.528 -0.3825 -0.6353  0.1309
 3602SOL    HW122442   0.627   0.827   8.523 -0.6668 -0.8418  0.2348
 3602SOL    HW222443   0.660   0.738   8.620  0.9159 -3.5548  0.0679
 3603SOL     OW22444   2.247   2.577   6.101  0.0659 -0.3165 -0.5758
 3603SOL    HW122445   2.306   2.598   6.174 -1.2772 -0.5722  0.5675
 3603SOL    HW222446   2.172   2.625   6.135  0.2319  0.5014 -1.3590
 3604SOL     OW22447   4.350   2.397   2.463  0.3293  0.2904  0.6821
 3604SOL    HW122448   4.278   2.417   2.402  2.4756 -1.6218 -2.4851
 3604SOL    HW222449   4.413   2.370   2.396 -0.2056 -0.0481  0.3116
 3605SOL     OW22450   1.264   0.703   6.987  0.3152  0.0492  0.7968
 3605SOL    HW122451   1.259   0.789   7.029 -1.5749  0.2404  0.1852
 3605SOL    HW222452   1.236   0.643   7.056  0.9806  0.7960  1.7235
 3606SOL     OW22453   0.106   1.464   3.150 -0.1934 -0.4851 -0.3232
 3606SOL    HW122454   0.160   1.538   3.178  1.5694 -0.7018 -3.0709
 3606SOL    HW222455   0.117   1.403   3.222  1.0242 -1.6723 -1.5286
 3607SOL     OW22456   3.063   0.587  11.519  0.6493  0.2638 -0.5662
 3607SOL    HW122457   3.074   0.591  11.614 -1.5419  2.0480 -0.3804
 3607SOL    HW222458   3.072   0.496  11.493 -1.3699  0.0311 -0.4618
 3608SOL     OW22459   1.243   4.358  14.774 -0.1276 -0.1655 -0.3509
 3608SOL    HW122460   1.331   4.320  14.775  0.0638  0.2779 -0.6140
 3608SOL    HW222461   1.269   4.438  14.729 -0.9364 -0.5225 -1.4761
 3609SOL     OW22462   4.715   3.427  16.426  0.2279 -0.2174  0.5653
 3609SOL    HW122463   4.689   3.432  16.334  0.3953  1.2332  0.5852
 3609SOL    HW222464   4.681   3.341  16.448 -1.8021  0.2089 -0.8496
 3610SOL     OW22465   0.245   0.005  15.677 -0.4809 -0.1825  0.1329
 3610SOL    HW122466   0.339   4.732  15.661 -0.0880 -0.3528  2.6419
 3610SOL    HW222467   0.253   0.026  15.770 -0.8698 -1.7522  0.5324
 3611SOL     OW22468   0.417   4.001   2.923  0.0523 -0.3773 -0.5879
 3611SOL    HW122469   0.395   4.030   3.012  0.8894 -0.5820 -0.3079
 3611SOL    HW222470   0.336   4.027   2.879  0.2883  1.1298 -0.1437
 3612SOL     OW22471   3.801   4.012   7.784  0.1407 -0.3399  0.7089
 3612SOL    HW122472   3.724   4.061   7.813 -1.3210 -1.1423 -1.8875
 3612SOL    HW222473   3.873   4.069   7.812  0.0843  0.3396 -0.5227
 3613SOL     OW22474   3.775   2.609  11.363 -0.4100 -0.7393 -1.2885
 3613SOL    HW122475   3.780   2.701  11.339 -3.4384  0.0031  0.8866
 3613SOL    HW222476   3.697   2.587  11.312  0.4998 -0.4728 -2.7854
 3614SOL     OW22477   4.070   4.543   2.973 -0.5084  0.5672 -0.2030
 3614SOL    HW122478   4.147   4.490   2.954 -0.0560  1.9535 -2.1222
 3614SOL    HW222479   4.074   4.623   2.921  1.7047  0.4061 -0.2824
 3615SOL     OW22480   1.011   3.958   7.386  0.6373  0.3490  0.1695
 3615SOL    HW122481   1.092   3.910   7.369  0.1788  0.0616 -1.2295
 3615SOL    HW222482   1.043   4.048   7.386  1.8224 -0.0741  0.2139
 3616SOL     OW22483   4.287   3.272  15.746 -0.1706 -0.4495 -0.3182
 3616SOL    HW122484   4.347   3.321  15.688  0.9396 -0.5026  0.7919
 3616SOL    HW222485   4.291   3.189  15.698 -1.8430  0.9051 -2.7832
 3617SOL     OW22486   3.671   1.655   3.710  0.1906  0.3594  0.0299
 3617SOL    HW122487   3.709   1.707   3.639 -0.8448  0.0178 -0.7677
 3617SOL    HW222488   3.713   1.690   3.789  0.4244 -0.9011  0.4543
 3618SOL     OW22489   1.530   3.160   4.931  0.0921  0.3779 -0.4170
 3618SOL    HW122490   1.553   3.220   5.002  4.7050 -1.1240 -0.6632
 3618SOL    HW222491   1.531   3.222   4.858 -1.5521 -1.1437 -1.7495
 3619SOL     OW22492   4.403   4.483   1.035 -0.5788 -0.2182  0.3579
 3619SOL    HW122493   4.349   4.435   0.972 -0.3313 -1.2907  0.9711
 3619SOL    HW222494   4.348   4.477   1.113  1.7220 -0.8744  1.8937
 3620SOL     OW22495   1.554   4.262   2.084 -0.4041  0.0376  0.1914
 3620SOL    HW122496   1.560   4.179   2.037 -0.2567  1.5212 -2.4084
 3620SOL    HW222497   1.648   4.278   2.087 -1.0724  4.0154 -0.2283
 3621SOL     OW22498   2.762   0.954  15.593 -0.0884  0.3382  0.1391
 3621SOL    HW122499   2.712   1.018  15.643  0.3930  1.2450 -0.5527
 3621SOL    HW222500   2.854   0.977  15.600 -0.0972  0.4487 -0.1191
 3622SOL     OW22501   3.802   0.852  14.070 -0.4611  0.1884  0.3653
 3622SOL    HW122502   3.776   0.761  14.056 -0.8766  0.3905 -0.1603
 3622SOL    HW222503   3.723   0.905  14.063 -2.0553 -2.3323 -0.6771
 3623SOL     OW22504   1.777   1.425   5.281  0.2610 -0.2952  0.1552
 3623SOL    HW122505   1.812   1.453   5.197 -0.2771 -0.7313 -0.2046
 3623SOL    HW222506   1.705   1.488   5.284 -1.2949 -2.0804 -0.1216
 3624SOL     OW22507   3.601   2.786   8.271 -0.1424 -0.1182 -0.0825
 3624SOL    HW122508   3.588   2.733   8.350  0.3056 -2.2415 -1.4184
 3624SOL    HW222509   3.520   2.832   8.253 -2.2474 -3.4304  0.9734
 3625SOL     OW22510   0.632   3.240  16.510 -0.7452  0.5727  0.3282
 3625SOL    HW122511   0.623   3.145  16.504  2.1158  0.2317  1.6226
 3625SOL    HW222512   0.709   3.244  16.565 -0.1524 -2.1329 -0.3376
 3626SOL     OW22513   2.072   1.938   9.137  0.3544 -0.3134  0.0081
 3626SOL    HW122514   2.154   1.900   9.167  0.3278  0.3682  0.9496
 3626SOL    HW222515   2.036   1.979   9.216  1.5353  2.5832 -0.9508
 3627SOL     OW22516   3.446   2.558   4.542 -0.2001  0.1139 -0.3505
 3627SOL    HW122517   3.412   2.606   4.618 -0.9664  0.0881 -0.6753
 3627SOL    HW222518   3.384   2.560   4.469 -0.8176  0.5796  0.1925
 3628SOL     OW22519   4.026   2.636  16.287 -0.2300  0.5463  0.3779
 3628SOL    HW122520   3.992   2.626  16.375 -0.8910  1.5033  0.2377
 3628SOL    HW222521   4.067   2.552  16.271 -3.3036 -1.1696  1.5139
 3629SOL     OW22522   0.006   4.475   3.080 -0.0249 -0.1945 -0.0555
 3629SOL    HW122523   0.100   4.489   3.070 -0.2841 -0.0499 -2.3776
 3629SOL    HW222524   4.730   4.543   3.145  3.5447 -0.4999  1.1790
 3630SOL     OW22525   4.614   1.427   7.788  0.1404 -0.1102 -0.1764
 3630SOL    HW122526   4.613   1.367   7.713 -1.7407 -0.9816  0.5478
 3630SOL    HW222527   4.706   1.454   7.788 -0.6688  2.6736  0.4692
 3631SOL     OW22528   4.126   2.381  16.304 -0.0166 -0.1743 -0.1110
 3631SOL    HW122529   4.100   2.301  16.351 -0.5687 -0.3298 -0.6716
 3631SOL    HW222530   4.221   2.368  16.295  0.1336  1.5414 -1.0371
 3632SOL     OW22531   4.543   0.997  15.620 -0.4739  0.6375  0.3577
 3632SOL    HW122532   4.474   0.974  15.557  0.0659  1.9375 -0.7309
 3632SOL    HW222533   4.587   1.070  15.575  0.5889 -0.2516 -0.0526
 3633SOL     OW22534   3.604   3.766   3.597 -0.1941 -0.0881 -0.3487
 3633SOL    HW122535   3.576   3.734   3.683 -0.4385  0.1061 -0.3563
 3633SOL    HW222536   3.700   3.761   3.602 -0.1511  1.9744  0.7385
 3634SOL     OW22537   2.795   0.022  10.681 -0.2953 -0.5600 -0.3887
 3634SOL    HW122538   2.776   0.090  10.617 -1.8310 -0.8720 -0.2528
 3634SOL    HW222539   2.816   4.683  10.631 -0.2671  0.4344 -1.9448
 3635SOL     OW22540   0.157   4.191   7.637 -0.4729  0.3967 -0.2317
 3635SOL    HW122541   0.246   4.162   7.614 -0.3133  0.5212  0.2245
 3635SOL    HW222542   0.105   4.116   7.608 -0.3580 -0.3793  1.5753
 3636SOL     OW22543   1.746   2.203   3.641 -0.6253 -0.1832 -0.1153
 3636SOL    HW122544   1.717   2.288   3.608  1.7240  0.3495 -0.8214
 3636SOL    HW222545   1.798   2.228   3.718 -1.4087 -0.7911  0.6045
 3637SOL     OW22546   4.571   3.019   0.279 -0.3018 -0.5875  0.3989
 3637SOL    HW122547   4.585   2.953   0.210 -0.4675  0.8568 -1.0203
 3637SOL    HW222548   4.520   3.087   0.234  0.0764 -1.7417 -1.7891
 3638SOL     OW22549   2.067   1.161   4.743  0.2743  0.0530  0.6897
 3638SOL    HW122550   2.108   1.232   4.694  1.5712 -0.5525  0.9007
 3638SOL    HW222551   1.980   1.199   4.752  0.0492 -0.1408 -0.6552
 3639SOL     OW22552   2.308   3.734   2.791 -0.1309 -0.0481 -0.7122
 3639SOL    HW122553   2.389   3.747   2.741 -0.7043  0.3928 -1.5302
 3639SOL    HW222554   2.280   3.656   2.744  0.3006 -0.6252 -0.0090
 3640SOL     OW22555   2.355   1.342   8.255  0.4219  0.0851  0.2256
 3640SOL    HW122556   2.341   1.412   8.190  0.9591  1.7033  1.8671
 3640SOL    HW222557   2.446   1.322   8.236 -0.1577 -1.2908 -1.0543
 3641SOL     OW22558   1.520   1.340   1.899  0.5319  0.0646 -0.1506
 3641SOL    HW122559   1.595   1.284   1.879  0.0994 -0.5451 -0.0603
 3641SOL    HW222560   1.481   1.345   1.811 -0.8100 -2.3065  0.3046
 3642SOL     OW22561   3.907   1.322   9.181 -0.0752  0.4386  0.8184
 3642SOL    HW122562   4.002   1.316   9.187  0.0274 -0.0082 -1.2969
 3642SOL    HW222563   3.887   1.231   9.157  0.6084  0.8749 -1.4153
 3643SOL     OW22564   0.920   0.554   1.405 -0.0052 -0.6451  0.2987
 3643SOL    HW122565   0.880   0.482   1.452 -1.2312  0.5736  1.1198
 3643SOL    HW222566   0.951   0.601   1.483  0.3684 -1.9562  0.9338
 3644SOL     OW22567   3.302   2.490   3.689  0.3512  0.2202 -0.1329
 3644SOL    HW122568   3.227   2.442   3.653  0.1290 -1.2394  2.3058
 3644SOL    HW222569   3.356   2.498   3.610  0.1673  1.2443 -0.1633
 3645SOL     OW22570   1.008   3.580   6.512 -0.0797  0.1835 -0.3031
 3645SOL    HW122571   1.055   3.579   6.429 -2.0489  0.3601 -1.4257
 3645SOL    HW222572   1.083   3.578   6.571 -0.4636 -1.8061  0.1244
 3646SOL     OW22573   0.980   2.274  15.430  0.1078 -0.7054  0.9645
 3646SOL    HW122574   0.939   2.188  15.423 -0.0558 -0.5059 -0.5361
 3646SOL    HW222575   1.073   2.259  15.414  0.1946 -1.4724  2.2163
 3647SOL     OW22576   2.493   0.189   3.655  0.0040  0.1971  0.0705
 3647SOL    HW122577   2.561   0.156   3.597 -0.7825 -3.2687  1.1325
 3647SOL    HW222578   2.433   0.116   3.666 -0.3789  0.3033 -1.3254
 3648SOL     OW22579   4.058   3.565   2.584 -0.2591  0.1608 -0.6671
 3648SOL    HW122580   4.145   3.599   2.606 -0.2058  0.4732 -1.3728
 3648SOL    HW222581   4.071   3.495   2.520  1.0991  1.1851 -1.5104
 3649SOL     OW22582   4.129   1.220   1.989 -0.9050  0.5183  0.2651
 3649SOL    HW122583   4.037   1.201   1.970 -0.5011 -0.7265 -0.4472
 3649SOL    HW222584   4.115   1.295   2.047  3.4038  2.2871 -0.9976
 3650SOL     OW22585   1.104   1.221   9.085 -0.1259 -0.2974  0.3476
 3650SOL    HW122586   1.128   1.308   9.052  0.4369 -1.0006 -1.0716
 3650SOL    HW222587   1.162   1.213   9.161  1.7869  2.5876 -0.7969
 3651SOL     OW22588   2.284   2.774  11.602 -0.7805  0.5803  0.5931
 3651SOL    HW122589   2.357   2.836  11.606 -1.8306  1.7632  1.5896
 3651SOL    HW222590   2.332   2.695  11.576 -3.5248 -0.2517 -1.8259
 3652SOL     OW22591   2.213   2.006   4.393  0.0989  0.2729  0.5277
 3652SOL    HW122592   2.281   2.048   4.340 -0.9892  2.3835  0.7921
 3652SOL    HW222593   2.237   2.029   4.482  0.7229 -0.3163  0.5092
 3653SOL     OW22594   1.661   4.431   3.116  0.3503 -0.4550 -0.0475
 3653SOL    HW122595   1.588   4.393   3.165 -0.2718  0.4078 -0.3005
 3653SOL    HW222596   1.705   4.350   3.089  0.6494 -0.3799  0.2080
 3654SOL     OW22597   3.968   3.505   2.199 -0.2839 -0.1074  0.4830
 3654SOL    HW122598   3.947   3.508   2.106  0.4199 -2.1821  0.2621
 3654SOL    HW222599   3.881   3.509   2.240 -0.8347  1.9186 -0.8952
 3655SOL     OW22600   4.357   1.594  13.302 -0.5088  0.0125 -0.3398
 3655SOL    HW122601   4.369   1.651  13.226  0.0981  1.2564  0.6947
 3655SOL    HW222602   4.267   1.600  13.334  0.2020  0.8816  1.4527
 3656SOL     OW22603   0.100   3.766   1.979  0.7104  0.3684  0.6849
 3656SOL    HW122604   0.162   3.739   1.910  0.4045  1.3373  0.0395
 3656SOL    HW222605   0.099   3.691   2.038  0.7995 -1.6419 -1.8319
 3657SOL     OW22606   4.220   3.561   2.281  0.5134  0.2729 -0.3062
 3657SOL    HW122607   4.177   3.643   2.304  2.0057  1.8057 -2.9551
 3657SOL    HW222608   4.152   3.530   2.220  1.8156 -0.5757 -1.3458
 3658SOL     OW22609   0.033   0.238  12.328  0.0904 -0.0562 -0.2520
 3658SOL    HW122610   0.071   0.287  12.256 -2.1083  1.3092 -0.4821
 3658SOL    HW222611   0.012   0.305  12.393  1.9008  2.1311 -1.9160
 3659SOL     OW22612   2.757   1.178   3.405 -0.1921 -0.0735  0.0569
 3659SOL    HW122613   2.748   1.273   3.394  0.8602  0.1015  0.6944
 3659SOL    HW222614   2.685   1.150   3.348  0.2494 -0.3679 -0.3594
 3660SOL     OW22615   1.826   2.209   8.203 -0.3064  0.0395 -0.7175
 3660SOL    HW122616   1.884   2.256   8.143 -0.2165  0.1400 -0.5518
 3660SOL    HW222617   1.743   2.242   8.169 -0.6180 -0.0720 -0.0810
 3661SOL     OW22618   3.477   0.401  17.705  0.1657  0.1103  0.0314
 3661SOL    HW122619   3.458   0.342   0.021 -1.8581  0.7229  0.0108
 3661SOL    HW222620   3.458   0.338  17.636  1.2280 -0.5147  0.3015
 3662SOL     OW22621   2.871   2.306   4.846  0.1155  0.4430 -0.1868
 3662SOL    HW122622   2.794   2.344   4.805  1.6698  2.8102 -0.9162
 3662SOL    HW222623   2.850   2.213   4.858 -0.4541  0.4476 -1.1008
 3663SOL     OW22624   1.944   2.817  11.149 -0.5272  0.9202 -0.2363
 3663SOL    HW122625   1.999   2.822  11.227 -2.1036 -0.4778  0.9552
 3663SOL    HW222626   1.884   2.890  11.167 -1.5217 -0.0822  0.5061
 3664SOL     OW22627   1.380   3.613  13.031 -1.0089 -0.4430  0.0081
 3664SOL    HW122628   1.311   3.548  13.041 -1.0368 -0.6560 -1.5689
 3664SOL    HW222629   1.393   3.617  12.936 -2.5315  1.1306 -0.1552
 3665SOL     OW22630   2.406   1.421   7.570 -0.5009 -0.0346  0.3404
 3665SOL    HW122631   2.491   1.379   7.563 -0.4332  0.5052 -2.2775
 3665SOL    HW222632   2.434   1.508   7.596 -0.4816 -0.0194  0.2682
 3666SOL     OW22633   1.867   4.476   1.950 -0.0834  0.6692 -0.0567
 3666SOL    HW122634   1.833   4.527   1.876  2.8767  1.7400 -0.6939
 3666SOL    HW222635   1.810   4.506   2.021 -0.6356  1.2404 -0.7415
 3667SOL     OW22636   2.206   3.274   6.434 -0.2053  0.5049  0.4565
 3667SOL    HW122637   2.293   3.264   6.472  0.4864 -1.5800 -1.6641
 3667SOL    HW222638   2.217   3.352   6.378 -1.1447  0.2224 -0.1262
 3668SOL     OW22639   4.620   0.275   4.688  0.4610  0.4385 -0.3295
 3668SOL    HW122640   4.586   0.241   4.770 -1.8680 -0.9229 -1.8631
 3668SOL    HW222641   4.650   0.363   4.709 -0.7503  0.1030  2.7344
 3669SOL     OW22642   3.893   4.472   4.099  0.5451 -0.2887  0.2415
 3669SOL    HW122643   3.931   4.446   4.183 -2.2086  2.3536  2.3173
 3669SOL    HW222644   3.916   4.565   4.093 -1.6182  0.3501  2.0839
 3670SOL     OW22645   0.720   1.487  13.026  0.1696  0.2696  0.0813
 3670SOL    HW122646   0.814   1.476  13.040 -0.4038 -2.6566  1.6174
 3670SOL    HW222647   0.707   1.522  12.938 -0.5981 -2.5597 -0.9304
 3671SOL     OW22648   0.234   0.957   2.934 -0.5725  0.7533 -0.5873
 3671SOL    HW122649   0.178   1.000   2.869 -1.7042  1.2026  0.6927
 3671SOL    HW222650   0.208   0.865   2.924  2.2739 -0.1023 -0.3288
 3672SOL     OW22651   1.670   4.376  10.353  0.2269  0.5055  0.3256
 3672SOL    HW122652   1.588   4.338  10.384 -0.1990  1.3409  0.2331
 3672SOL    HW222653   1.652   4.357  10.261 -0.2755  1.3813  0.2472
 3673SOL     OW22654   2.576   4.707  14.622 -0.3623  0.3681 -0.5357
 3673SOL    HW122655   2.496   0.020  14.630 -0.7919 -0.1638 -1.2198
 3673SOL    HW222656   2.568   4.662  14.706  0.6177 -0.8762 -1.1185
 3674SOL     OW22657   3.772   3.427  14.015 -0.0300 -0.2132 -0.0538
 3674SOL    HW122658   3.779   3.336  13.985  3.6684 -0.3314  1.1456
 3674SOL    HW222659   3.736   3.477  13.942  2.1072  2.1740  0.5504
 3675SOL     OW22660   4.310   0.323   8.322  0.3070 -0.0981 -0.6161
 3675SOL    HW122661   4.371   0.254   8.295  0.2629  1.1349 -3.9009
 3675SOL    HW222662   4.266   0.322   8.237 -0.9070  1.8872  0.0065
 3676SOL     OW22663   3.912   1.087   0.046  0.6228 -0.6972  0.3649
 3676SOL    HW122664   3.886   1.050  17.719  2.5375  1.4025 -1.1185
 3676SOL    HW222665   3.985   1.146   0.027  0.5721 -0.7432  0.0327
 3677SOL     OW22666   3.971   1.287   8.754  0.1011  0.1083  0.0383
 3677SOL    HW122667   3.914   1.219   8.718 -0.4992 -0.0628  1.2920
 3677SOL    HW222668   3.906   1.345   8.794  0.6212  0.1792  0.7930
 3678SOL     OW22669   4.379   3.890   4.588 -0.3593  0.0849 -0.1565
 3678SOL    HW122670   4.466   3.923   4.609  0.7131 -3.8932  1.6312
 3678SOL    HW222671   4.319   3.958   4.620  1.4135  0.2880  2.7082
 3679SOL     OW22672   1.047   1.654  15.213 -0.0393 -0.7128  0.1151
 3679SOL    HW122673   1.085   1.693  15.134  0.0655 -0.5787  0.2310
 3679SOL    HW222674   1.115   1.593  15.244 -0.2275 -0.6252  0.6940
 3680SOL     OW22675   1.862   1.355   4.762 -0.9643 -0.1624 -0.0358
 3680SOL    HW122676   1.918   1.428   4.787 -2.0914  0.8364 -0.4253
 3680SOL    HW222677   1.819   1.401   4.690  0.2137 -1.7402 -1.7123
 3681SOL     OW22678   0.550   1.309  10.737  0.1745 -0.4183  0.7041
 3681SOL    HW122679   0.524   1.218  10.752 -2.7097  0.5075  1.2959
 3681SOL    HW222680   0.611   1.289  10.665 -0.2456  1.2252 -0.1209
 3682SOL     OW22681   3.589   4.246   4.258 -0.0533  0.0755  0.1842
 3682SOL    HW122682   3.566   4.177   4.321 -0.8400 -0.9170 -1.1995
 3682SOL    HW222683   3.642   4.301   4.315  1.8259 -0.3816 -1.1408
 3683SOL     OW22684   4.299   4.576  12.570  0.1349  0.0445 -0.4858
 3683SOL    HW122685   4.235   4.526  12.622 -1.7473 -0.1098 -2.9603
 3683SOL    HW222686   4.355   4.511  12.528 -3.2599 -3.4096  0.3156
 3684SOL     OW22687   3.662   0.685   7.223 -0.1842  0.5563 -0.5317
 3684SOL    HW122688   3.755   0.709   7.222  0.2304 -0.8945  2.2863
 3684SOL    HW222689   3.620   0.733   7.152 -1.2931  0.6716  0.2133
 3685SOL     OW22690   1.847   2.648  16.665  0.1033 -0.3376  0.3034
 3685SOL    HW122691   1.942   2.654  16.659  0.1161  0.8469  1.7742
 3685SOL    HW222692   1.821   2.627  16.575 -0.1594 -2.2266  0.8404
 3686SOL     OW22693   2.048   2.577   3.214 -0.0356 -0.4091  0.3871
 3686SOL    HW122694   1.981   2.599   3.279 -0.3662  2.1208 -0.8138
 3686SOL    HW222695   2.097   2.659   3.228 -1.4381  0.8456 -2.0469
 3687SOL     OW22696   0.864   4.726   6.787  0.1500 -0.0707 -0.1147
 3687SOL    HW122697   0.811   4.663   6.837 -0.7831  0.2006 -0.7480
 3687SOL    HW222698   0.798   0.055   6.779 -0.5552 -0.7621 -0.3638
 3688SOL     OW22699   0.196   2.233   6.090 -0.4515 -0.0136 -0.1543
 3688SOL    HW122700   0.131   2.203   6.154 -1.4572  2.9478  0.2198
 3688SOL    HW222701   0.137   2.261   6.020  0.2602  2.2238  0.1196
 3689SOL     OW22702   3.214   2.069   6.595  0.2163  0.2324  0.5540
 3689SOL    HW122703   3.302   2.086   6.559  0.7505 -0.4063  1.5602
 3689SOL    HW222704   3.164   2.074   6.514  1.2774  0.8263 -0.0741
 3690SOL     OW22705   3.622   0.475   5.152 -0.1185  0.4168  0.2917
 3690SOL    HW122706   3.617   0.385   5.184  1.9123  0.1813 -0.0326
 3690SOL    HW222707   3.604   0.531   5.228  0.4114  0.5829  0.2961
 3691SOL     OW22708   2.521   0.669  13.227 -0.5548  0.2285  0.1568
 3691SOL    HW122709   2.529   0.762  13.206 -0.8064  0.3488  0.6008
 3691SOL    HW222710   2.435   0.672  13.269  0.6610 -0.9489  2.6983
 3692SOL     OW22711   4.350   2.377   4.527 -0.5475  0.6110  0.0333
 3692SOL    HW122712   4.263   2.341   4.546 -1.1346  2.0138  0.0045
 3692SOL    HW222713   4.412   2.305   4.516  0.6530  1.8697 -1.4468
 3693SOL     OW22714   2.551   1.350   9.116  0.0344  0.1620  0.0346
 3693SOL    HW122715   2.484   1.368   9.050  0.3359 -2.4239 -0.9471
 3693SOL    HW222716   2.511   1.288   9.176  1.2190 -1.6572 -1.0859
 3694SOL     OW22717   0.485   3.721   7.444 -0.6417 -0.5972  0.5076
 3694SOL    HW122718   0.512   3.697   7.533  1.7142  2.0383  0.5005
 3694SOL    HW222719   0.566   3.709   7.395 -0.9415  0.7285 -0.2961
 3695SOL     OW22720   1.982   1.407  16.949 -0.6221  0.5718 -0.1902
 3695SOL    HW122721   2.054   1.395  17.012  0.6001 -1.1777 -1.9240
 3695SOL    HW222722   1.987   1.327  16.897 -2.9455  0.0482  0.3927
 3696SOL     OW22723   2.342   4.222   5.827  0.3270  0.2799  0.3113
 3696SOL    HW122724   2.320   4.296   5.770 -2.7321  0.0339  1.2037
 3696SOL    HW222725   2.361   4.155   5.762  0.4307 -0.5108  1.1648
 3697SOL     OW22726   0.653   2.881   2.393  0.0073 -0.5317 -0.1640
 3697SOL    HW122727   0.611   2.876   2.479  1.0904  1.5937  0.4897
 3697SOL    HW222728   0.717   2.951   2.408 -0.7358  0.1020  0.0464
 3698SOL     OW22729   4.405   2.744   4.152 -0.6233 -0.5766 -0.1698
 3698SOL    HW122730   4.402   2.840   4.145 -1.4143 -0.7457 -2.1216
 3698SOL    HW222731   4.372   2.726   4.064 -0.6705  1.2362 -0.5369
 3699SOL     OW22732   0.032   2.849   8.464  0.1186  0.9069 -0.0655
 3699SOL    HW122733   0.070   2.836   8.377  1.0743  0.8472  0.3664
 3699SOL    HW222734   0.069   2.778   8.516  0.8651  1.0767 -0.3725
 3700SOL     OW22735   4.406   4.113   8.566 -0.1675  0.3591  0.7252
 3700SOL    HW122736   4.437   4.030   8.528  0.9966  0.2022  1.9946
 3700SOL    HW222737   4.429   4.099   8.658  1.2899  0.8812  0.4425
 3701SOL     OW22738   2.281   0.581  11.097 -0.5765  0.2939 -0.0176
 3701SOL    HW122739   2.372   0.586  11.069 -0.2824 -0.5413  0.7815
 3701SOL    HW222740   2.247   0.507  11.046  1.3372  0.1318 -1.0566
 3702SOL     OW22741   2.409   3.901   6.721  0.0505 -0.2556 -0.1084
 3702SOL    HW122742   2.445   3.900   6.632  0.7243  0.8007  0.1408
 3702SOL    HW222743   2.493   3.919   6.764  0.0245  1.9362 -0.9854
 3703SOL     OW22744   3.620   0.230   5.241  0.3359  0.2029  0.5276
 3703SOL    HW122745   3.634   0.167   5.171 -2.8628  0.6725 -0.5363
 3703SOL    HW222746   3.528   0.214   5.261  0.3790 -1.0800 -0.3071
 3704SOL     OW22747   0.029   3.573   6.059  0.1082 -0.6197 -0.2128
 3704SOL    HW122748   0.038   3.585   5.964  0.0387  0.2313 -0.1151
 3704SOL    HW222749   4.718   3.492   6.064 -0.0349 -0.5760 -0.9320
 3705SOL     OW22750   4.483   1.634   6.500 -0.2268 -0.6375 -0.0017
 3705SOL    HW122751   4.433   1.716   6.504  0.2244 -0.3664  0.0357
 3705SOL    HW222752   4.450   1.601   6.417 -1.6740 -1.3031  0.8477
 3706SOL     OW22753   0.890   2.480   3.560  0.6458 -0.6161  0.2248
 3706SOL    HW122754   0.944   2.431   3.499  0.5926  0.1412 -0.4290
 3706SOL    HW222755   0.830   2.418   3.602 -0.3483  0.3268  0.1961
 3707SOL     OW22756   1.807   2.264   2.041  0.0336 -0.0826  0.6311
 3707SOL    HW122757   1.857   2.315   2.105  0.7456  0.8040 -0.6316
 3707SOL    HW222758   1.834   2.175   2.065  1.6511  0.9146  2.5226
 3708SOL     OW22759   4.501   3.706   8.830 -0.2556 -0.3520 -0.6759
 3708SOL    HW122760   4.551   3.632   8.795  0.8442  0.2440 -0.3816
 3708SOL    HW222761   4.575   3.756   8.863 -0.9407 -0.5281  1.1086
 3709SOL     OW22762   2.941   0.528   9.148  0.1940  0.0796 -0.0324
 3709SOL    HW122763   2.974   0.612   9.116  1.3878 -0.9602 -1.5648
 3709SOL    HW222764   2.866   0.565   9.195  0.3210 -1.5080  1.3968
 3710SOL     OW22765   1.158   2.063   7.494  0.3975 -0.9486  0.0429
 3710SOL    HW122766   1.067   2.045   7.519  0.0560 -0.5211 -0.8765
 3710SOL    HW222767   1.167   2.016   7.411  0.9291 -0.3021 -0.2582
 3711SOL     OW22768   1.997   4.520   8.781  0.0241  0.0899  0.2934
 3711SOL    HW122769   2.086   4.545   8.804  0.5644 -1.5432 -0.0632
 3711SOL    HW222770   1.999   4.541   8.688 -0.2219  1.7368  0.6418
 3712SOL     OW22771   4.253   1.041  17.532 -0.3952  0.4874 -0.2980
 3712SOL    HW122772   4.183   0.997  17.580  0.6052 -1.4568 -0.6407
 3712SOL    HW222773   4.239   1.134  17.550 -0.6321  0.0279  1.8689
 3713SOL     OW22774   0.416   1.793   1.777 -0.7832  0.4026  0.4213
 3713SOL    HW122775   0.386   1.769   1.865  0.5465 -0.0276  0.7651
 3713SOL    HW222776   0.378   1.723   1.724  0.7987  0.8662 -1.3285
 3714SOL     OW22777   2.764   4.551   1.591  0.6638  0.1316  0.1775
 3714SOL    HW122778   2.690   4.611   1.593 -1.3529 -2.2900 -1.7574
 3714SOL    HW222779   2.729   4.475   1.638 -2.5597  1.6712  0.2637
 3715SOL     OW22780   1.830   3.463   4.433 -0.2662  0.1627  0.2112
 3715SOL    HW122781   1.812   3.413   4.353 -0.5895  1.1979 -0.3636
 3715SOL    HW222782   1.900   3.521   4.404  0.6520 -1.4988 -0.9037
 3716SOL     OW22783   2.963   2.258  11.659  0.6022  0.1285  0.2781
 3716SOL    HW122784   2.981   2.279  11.751  1.8849  0.5817 -0.0620
 3716SOL    HW222785   2.988   2.167  11.649 -0.1350 -0.0693  0.2758
 3717SOL     OW22786   2.987   4.156  13.324 -0.1886 -0.3156  0.5519
 3717SOL    HW122787   2.949   4.183  13.407 -2.2525  1.0649 -0.8187
 3717SOL    HW222788   2.934   4.214  13.269  0.8933  0.5412  0.4137
 3718SOL     OW22789   4.306   2.137  13.536  0.2976  1.0263 -0.5043
 3718SOL    HW122790   4.276   2.164  13.623 -0.7565  1.9391 -1.1621
 3718SOL    HW222791   4.280   2.045  13.531  0.1201  1.1000 -0.8943
 3719SOL     OW22792   1.865   0.078   0.455  0.0417  0.2227  0.0504
 3719SOL    HW122793   1.939   0.024   0.479 -2.0007 -2.1152  1.1089
 3719SOL    HW222794   1.863   0.149   0.520 -0.4836  0.9335 -0.7304
 3720SOL     OW22795   2.717   1.062  13.023 -0.1725  0.0231 -0.3499
 3720SOL    HW122796   2.670   1.134  13.064  0.4772  0.7249 -0.8199
 3720SOL    HW222797   2.809   1.084  13.038  0.9231 -3.5755 -1.7809
 3721SOL     OW22798   0.003   4.217   2.537 -0.2746 -0.6145  0.0621
 3721SOL    HW122799   0.078   4.193   2.483 -0.9460  2.8107 -2.3812
 3721SOL    HW222800   4.692   4.268   2.474 -1.1140 -0.8180  0.5797
 3722SOL     OW22801   1.696   3.744   1.995 -0.0781  0.4774  0.2195
 3722SOL    HW122802   1.618   3.694   1.973  0.5259 -0.1725 -0.4395
 3722SOL    HW222803   1.736   3.677   2.049 -0.1623  1.6440  1.7240
 3723SOL     OW22804   3.215   3.764  10.596 -0.3916  0.6168  0.3707
 3723SOL    HW122805   3.153   3.800  10.532 -3.7641 -1.8532  2.2306
 3723SOL    HW222806   3.184   3.797  10.681  0.7469 -1.1640  1.4626
 3724SOL     OW22807   1.061   2.990   6.994 -0.5521  0.0468  0.0393
 3724SOL    HW122808   1.118   2.993   7.071 -1.8156 -0.2155  0.9879
 3724SOL    HW222809   0.973   2.979   7.030 -0.5243  1.1160  0.4277
 3725SOL     OW22810   1.568   4.043   7.173  0.8241  0.0527  1.1142
 3725SOL    HW122811   1.500   4.052   7.240  1.4034  4.2593  1.1269
 3725SOL    HW222812   1.558   4.126   7.128 -1.7552 -1.0577 -0.3962
 3726SOL     OW22813   0.047   2.732   4.088  0.8615  0.5404 -0.2721
 3726SOL    HW122814   0.019   2.683   4.165 -1.7326  0.7611 -1.0612
 3726SOL    HW222815   0.130   2.770   4.115  0.0409  0.6845  2.0192
 3727SOL     OW22816   0.491   0.837  12.232  0.3473  0.1706 -0.2561
 3727SOL    HW122817   0.567   0.823  12.289 -0.0657  1.7349  0.6955
 3727SOL    HW222818   0.526   0.781  12.163  2.3518  1.2724 -0.1307
 3728SOL     OW22819   0.580   3.259  15.587 -0.3408 -0.0523  0.1813
 3728SOL    HW122820   0.490   3.270  15.617 -0.1212 -1.2731  1.2748
 3728SOL    HW222821   0.615   3.315  15.657 -1.7358  0.2592  0.6180
 3729SOL     OW22822   0.173   1.179  17.444 -0.4056  0.0874  0.5601
 3729SOL    HW122823   0.265   1.202  17.432 -0.3252 -0.9301 -0.8126
 3729SOL    HW222824   0.161   1.128  17.364  1.0177 -0.1075  0.4761
 3730SOL     OW22825   3.481   2.431   9.296  0.4852 -0.1971 -0.1313
 3730SOL    HW122826   3.477   2.341   9.265 -4.7489  0.2259 -0.6313
 3730SOL    HW222827   3.479   2.486   9.217 -1.9456 -1.1623 -0.7409
 3731SOL     OW22828   0.232   0.298  17.547 -0.6720  0.1385 -0.2804
 3731SOL    HW122829   0.317   0.308  17.589 -0.7441 -3.6646  0.7789
 3731SOL    HW222830   0.248   0.207  17.521 -0.3537 -0.6911  2.8028
 3732SOL     OW22831   1.260   1.955  17.697 -0.4183  0.4474 -0.0692
 3732SOL    HW122832   1.227   1.881  17.747 -1.2681  2.0013  1.7038
 3732SOL    HW222833   1.188   2.012  17.725  0.7747  2.6125 -1.3454
 3733SOL     OW22834   0.516   3.726   9.200  0.4025  0.2654  0.2445
 3733SOL    HW122835   0.549   3.663   9.136  0.3302 -1.3934  1.8150
 3733SOL    HW222836   0.432   3.681   9.214  2.6273 -3.7613  0.6071
 3734SOL     OW22837   3.024   0.405  17.394 -0.1708 -0.3307 -0.1969
 3734SOL    HW122838   3.018   0.488  17.347 -0.6618 -0.2087  0.0778
 3734SOL    HW222839   3.072   0.423  17.475  1.6249 -1.1876 -1.0631
 3735SOL     OW22840   1.575   1.247   5.415 -0.1835  0.1917 -0.4748
 3735SOL    HW122841   1.553   1.193   5.338 -0.5490 -0.0734 -0.1819
 3735SOL    HW222842   1.643   1.299   5.372 -0.5679 -0.3486 -1.7319
 3736SOL     OW22843   4.522   0.202   5.365  0.3404 -0.4702 -0.6256
 3736SOL    HW122844   4.494   0.129   5.419 -2.1889 -0.4258 -1.8831
 3736SOL    HW222845   4.470   0.273   5.403  2.0364  1.2607 -1.5019
 3737SOL     OW22846   1.526   2.328   3.359  0.0271 -0.0332 -0.6542
 3737SOL    HW122847   1.603   2.373   3.394 -0.3752  2.0185 -2.3861
 3737SOL    HW222848   1.468   2.404   3.364 -0.0959 -0.1462 -0.3438
 3738SOL     OW22849   4.445   4.417   6.860  0.1731  0.7751  0.0505
 3738SOL    HW122850   4.518   4.414   6.922 -0.9425 -2.0298  1.2229
 3738SOL    HW222851   4.392   4.341   6.884  1.1421  0.1756  0.2511
 3739SOL     OW22852   3.859   2.935   3.135 -0.3280 -0.6159  0.7849
 3739SOL    HW122853   3.846   2.852   3.181  1.4588 -0.4304  1.6096
 3739SOL    HW222854   3.795   2.990   3.179 -0.2098  0.4405 -0.3614
 3740SOL     OW22855   2.436   2.735   6.719  0.0165 -0.3929 -0.5060
 3740SOL    HW122856   2.466   2.826   6.719 -0.0765 -0.3783  2.5718
 3740SOL    HW222857   2.521   2.691   6.722 -0.5476 -1.3240  1.5373
 3741SOL     OW22858   2.035   0.568  11.250 -0.1344 -0.2073 -0.7642
 3741SOL    HW122859   2.112   0.565  11.193  0.0411 -0.8731 -0.4906
 3741SOL    HW222860   2.000   0.653  11.223 -1.0581  0.0583  1.2516
 3742SOL     OW22861   0.573   3.560   5.014  0.0950 -0.1918 -0.5393
 3742SOL    HW122862   0.665   3.583   5.026  0.1813  0.1122 -1.7480
 3742SOL    HW222863   0.567   3.478   5.063  2.4579  0.3793  0.7131
 3743SOL     OW22864   1.786   4.420  14.411 -0.4046 -0.1365  0.4279
 3743SOL    HW122865   1.831   4.499  14.381 -0.9265  0.2995  0.8032
 3743SOL    HW222866   1.861   4.362  14.427 -1.6628 -1.5217  1.3958
 3744SOL     OW22867   0.647   3.467  11.928  0.2809 -0.7524  0.0983
 3744SOL    HW122868   0.703   3.435  11.857  2.2795  1.6241  0.5744
 3744SOL    HW222869   0.574   3.405  11.927 -1.0639  0.8098  2.1218
 3745SOL     OW22870   2.100   2.744   6.260  0.0884 -0.1158 -0.0611
 3745SOL    HW122871   2.084   2.823   6.311  1.5001 -0.2081  0.5113
 3745SOL    HW222872   2.050   2.679   6.309  0.2120 -1.1080 -1.2343
 3746SOL     OW22873   0.310   3.420   6.647  0.1373 -0.2423  0.2706
 3746SOL    HW122874   0.389   3.369   6.629 -0.4482 -0.5663 -1.4373
 3746SOL    HW222875   0.281   3.454   6.562 -0.8999  2.0656  1.5583
 3747SOL     OW22876   2.099   2.360   0.918 -0.0935  0.0494  0.0904
 3747SOL    HW122877   2.099   2.266   0.935 -3.0299  0.3426  1.7907
 3747SOL    HW222878   2.184   2.370   0.874 -0.7554  0.7504 -1.0414
 3748SOL     OW22879   0.530   2.624  10.809  0.1643  0.0993  0.3627
 3748SOL    HW122880   0.614   2.582  10.825  0.8228  0.1869 -2.7932
 3748SOL    HW222881   0.563   2.713  10.799  0.9225 -0.2495 -0.2098
 3749SOL     OW22882   3.827   3.177   7.000  0.5534  0.4329 -0.4789
 3749SOL    HW122883   3.880   3.175   7.080  0.4808  2.7997 -0.3495
 3749SOL    HW222884   3.864   3.103   6.952 -1.1367  0.7711 -2.2802
 3750SOL     OW22885   3.849   0.604   2.160  0.2213 -0.0724  0.0246
 3750SOL    HW122886   3.910   0.610   2.232 -0.0362  2.4445  0.0236
 3750SOL    HW222887   3.891   0.668   2.102  0.1355  0.1651  0.2282
 3751SOL     OW22888   1.111   2.321   7.156 -0.0086 -0.4069 -0.4408
 3751SOL    HW122889   1.154   2.296   7.074 -0.1039 -0.6384 -0.4201
 3751SOL    HW222890   1.185   2.312   7.216 -1.1498  1.0952  1.1920
 3752SOL     OW22891   0.210   2.866  17.695 -0.0548 -0.1823 -0.0761
 3752SOL    HW122892   0.296   2.904  17.714  0.5000 -1.0652 -0.7724
 3752SOL    HW222893   0.166   2.881   0.021  1.3592  1.9517  0.2888
 3753SOL     OW22894   1.947   3.926  10.595  0.1525  0.7492 -0.6284
 3753SOL    HW122895   1.984   3.877  10.522 -0.6580 -2.5061  1.1439
 3753SOL    HW222896   1.961   4.019  10.576  3.6571  0.3754  0.1350
 3754SOL     OW22897   0.339   3.977   7.316 -0.5907 -0.4986 -0.5254
 3754SOL    HW122898   0.420   3.992   7.363 -1.1356  2.1261 -0.4494
 3754SOL    HW222899   0.332   3.882   7.309  0.3670 -0.4797 -1.6586
 3755SOL     OW22900   1.959   1.848   6.209  0.3380  0.6997  0.1867
 3755SOL    HW122901   1.937   1.912   6.276 -4.0995  0.4295 -1.0176
 3755SOL    HW222902   2.007   1.784   6.262  0.4179 -0.3094 -1.1018
 3756SOL     OW22903   2.967   3.685   6.752  0.3217  0.0457  0.0127
 3756SOL    HW122904   3.018   3.736   6.815  1.2160 -0.2729 -0.4464
 3756SOL    HW222905   2.949   3.760   6.695  1.5211  0.6024  0.3636
 3757SOL     OW22906   2.586   1.131   9.513 -0.5612  0.2818  0.4668
 3757SOL    HW122907   2.673   1.124   9.553  0.0358  0.3559 -0.8106
 3757SOL    HW222908   2.524   1.153   9.583  2.7188 -0.5024  3.6286
 3758SOL     OW22909   0.480   0.638  10.355  0.8191 -0.7401  0.1394
 3758SOL    HW122910   0.484   0.599  10.442 -3.8444  1.5694  1.3547
 3758SOL    HW222911   0.461   0.556  10.309  1.6887 -0.8479 -0.0223
 3759SOL     OW22912   1.134   1.636   3.758  0.3344 -0.3159 -0.3052
 3759SOL    HW122913   1.148   1.656   3.850 -0.2726  0.4578 -0.3772
 3759SOL    HW222914   1.227   1.640   3.733  0.7843  0.4015  1.4667
 3760SOL     OW22915   4.132   4.044   3.810  0.5156  1.3017  0.0709
 3760SOL    HW122916   4.211   4.037   3.863  0.6667 -0.5352 -0.3890
 3760SOL    HW222917   4.174   4.044   3.724  0.2005  0.1878 -0.0835
 3761SOL     OW22918   4.355   4.540   8.290 -0.1247 -0.3451  0.7538
 3761SOL    HW122919   4.276   4.533   8.237 -1.5868 -0.4941  2.9660
 3761SOL    HW222920   4.346   4.454   8.329  0.8668 -0.9416 -0.3208
 3762SOL     OW22921   4.594   4.718   2.928  0.6676 -0.1087 -0.3735
 3762SOL    HW122922   4.586   0.059   2.877 -1.1393 -0.2496 -0.3226
 3762SOL    HW222923   4.689   4.721   2.940  0.7848 -3.0067 -0.5522
 3763SOL     OW22924   4.022   4.551   3.243 -0.5354 -0.1787 -0.3988
 3763SOL    HW122925   4.015   4.550   3.147  0.8642 -1.9776 -0.4890
 3763SOL    HW222926   4.082   4.623   3.263 -0.9315 -0.5535  2.1045
 3764SOL     OW22927   0.278   2.552  10.300 -0.6872  0.1364  0.5267
 3764SOL    HW122928   0.276   2.472  10.354 -3.3933  0.7801  1.3552
 3764SOL    HW222929   0.208   2.594  10.349 -1.3425 -1.1255  0.6726
 3765SOL     OW22930   1.963   2.421   8.064  0.4102 -0.0385 -0.2182
 3765SOL    HW122931   2.056   2.399   8.062 -0.2985 -3.0840  0.5882
 3765SOL    HW222932   1.961   2.479   7.988 -3.1356  0.7094  0.4269
 3766SOL     OW22933   3.732   2.778   9.009 -0.2681  1.0328 -0.1290
 3766SOL    HW122934   3.735   2.870   9.038  3.1020  0.8122  0.1886
 3766SOL    HW222935   3.680   2.781   8.929 -1.9369 -0.2546  0.8920
 3767SOL     OW22936   1.279   1.181   3.855  0.5391 -0.5655 -0.1618
 3767SOL    HW122937   1.202   1.230   3.826  1.4533  0.6775 -0.5001
 3767SOL    HW222938   1.348   1.247   3.843  0.5664 -0.7260 -0.9098
 3768SOL     OW22939   2.952   0.725   2.305 -0.3960  0.2920  0.3250
 3768SOL    HW122940   3.014   0.797   2.314 -1.8738  1.8263 -1.7146
 3768SOL    HW222941   2.869   0.758   2.340 -0.1072  1.2968  0.0381
 3769SOL     OW22942   0.390   1.565  13.300 -0.0949  0.3665  0.1722
 3769SOL    HW122943   0.412   1.478  13.267  1.9820  1.6616 -1.9355
 3769SOL    HW222944   0.297   1.562  13.321 -0.2471  2.1631 -0.1642
 3770SOL     OW22945   1.812   0.752  14.242 -0.1076  0.1440 -0.4239
 3770SOL    HW122946   1.744   0.787  14.299 -2.0239 -1.8094 -1.5113
 3770SOL    HW222947   1.766   0.689  14.186  0.2612  1.5426 -2.3267
 3771SOL     OW22948   1.506   4.012   0.495  0.3847 -0.2147  0.1874
 3771SOL    HW122949   1.529   4.094   0.537  0.7197  0.1949 -0.8117
 3771SOL    HW222950   1.595   3.979   0.485  0.9394  1.0005  1.2169
 3772SOL     OW22951   1.801   4.146   3.758 -0.1863  0.0553 -0.0584
 3772SOL    HW122952   1.733   4.204   3.793  0.9316  1.4575 -0.1874
 3772SOL    HW222953   1.806   4.179   3.668  0.8040 -3.1640 -1.1961
 3773SOL     OW22954   1.624   3.617   3.095  0.1329  0.3423 -0.3004
 3773SOL    HW122955   1.604   3.668   3.017  0.0830  0.7979  0.0133
 3773SOL    HW222956   1.645   3.679   3.164 -4.0010  0.1958  1.0624
 3774SOL     OW22957   3.176   1.200   4.005 -0.6910  0.3356  0.1694
 3774SOL    HW122958   3.101   1.142   3.994 -1.0461  0.9445 -0.6011
 3774SOL    HW222959   3.138   1.284   3.980 -0.7903 -0.0526 -0.9816
 3775SOL     OW22960   1.810   0.458   8.961 -0.1789  0.1871  0.4642
 3775SOL    HW122961   1.852   0.449   9.046  2.2120  1.5086 -0.5864
 3775SOL    HW222962   1.762   0.539   8.979  2.1574  1.7365 -0.2982
 3776SOL     OW22963   4.203   1.139   8.479 -0.6308 -0.0207 -0.2723
 3776SOL    HW122964   4.162   1.224   8.496 -0.9374 -0.7273  2.5265
 3776SOL    HW222965   4.129   1.082   8.497 -2.9741  1.8384 -4.0622
 3777SOL     OW22966   3.859   2.527   6.372  0.0499  0.3094  0.4391
 3777SOL    HW122967   3.915   2.551   6.299 -3.1807  0.4886 -1.9981
 3777SOL    HW222968   3.775   2.567   6.348 -1.2167 -2.8583 -0.4087
 3778SOL     OW22969   1.432   0.420  11.614 -0.3944  0.2330 -0.2922
 3778SOL    HW122970   1.416   0.509  11.583 -1.5422 -0.3082 -1.2752
 3778SOL    HW222971   1.348   0.394  11.652 -1.0782  0.6181 -1.5245
 3779SOL     OW22972   1.143   0.862   0.741  0.6039 -0.0405  0.0528
 3779SOL    HW122973   1.114   0.932   0.682 -0.8205  0.4497  1.3561
 3779SOL    HW222974   1.061   0.815   0.755  0.3560 -0.1660 -1.7421
 3780SOL     OW22975   1.325   4.277   1.630  0.0018  0.7797  0.2196
 3780SOL    HW122976   1.380   4.201   1.610 -0.8072  0.0217  0.8625
 3780SOL    HW222977   1.320   4.288   1.725 -0.0974 -0.7102  0.3903
 3781SOL     OW22978   2.720   2.754  17.157  0.0770  0.1351 -0.2668
 3781SOL    HW122979   2.642   2.725  17.204  0.4699 -0.4791  0.0021
 3781SOL    HW222980   2.765   2.674  17.130 -0.4082 -0.1726 -0.1533
 3782SOL     OW22981   4.125   1.728   4.309  0.1306 -0.1791  0.1626
 3782SOL    HW122982   4.032   1.720   4.331  0.3674  1.7451  1.9492
 3782SOL    HW222983   4.168   1.646   4.331 -0.7969 -0.5653  0.5292
 3783SOL     OW22984   3.085   2.477  17.413  0.2815  0.2722  0.0602
 3783SOL    HW122985   3.003   2.439  17.381  0.6327 -0.2660 -0.2029
 3783SOL    HW222986   3.142   2.402  17.397 -0.1898 -0.0536 -0.1033
 3784SOL     OW22987   1.992   4.582   3.891  0.1091  0.4600 -0.1574
 3784SOL    HW122988   2.058   4.529   3.937  1.0289  1.7485  0.0214
 3784SOL    HW222989   2.017   4.565   3.801  1.4198 -2.1336  0.6889
 3785SOL     OW22990   4.679   2.595   5.839  0.4984  0.1573 -0.9538
 3785SOL    HW122991   0.025   2.618   5.804 -0.2718  0.5928 -2.5499
 3785SOL    HW222992   4.659   2.658   5.909 -1.7254 -2.5902  0.9057
 3786SOL     OW22993   1.646   1.691   2.347 -0.6067 -0.5589  0.4295
 3786SOL    HW122994   1.617   1.638   2.273 -1.5901 -1.9885  1.8491
 3786SOL    HW222995   1.571   1.688   2.407 -2.0663  2.4708 -1.2431
 3787SOL     OW22996   0.602   1.766  10.860 -0.7259  0.2300  0.2049
 3787SOL    HW122997   0.513   1.750  10.891 -1.2647  0.4749 -1.2126
 3787SOL    HW222998   0.610   1.852  10.900  0.5254 -0.6446  1.8288
 3788SOL     OW22999   3.636   0.082   6.147  0.1135 -0.2416 -0.3317
 3788SOL    HW123000   3.634   0.054   6.238 -1.0127  0.4841 -0.1263
 3788SOL    HW223001   3.728   0.079   6.123 -0.2509  1.2094 -1.9211
 3789SOL     OW23002   2.344   3.225   1.840  0.4917  0.0659  0.0348
 3789SOL    HW123003   2.395   3.219   1.759 -0.8559 -2.8536 -0.5936
 3789SOL    HW223004   2.309   3.135   1.842 -0.0754  0.2897  0.1874
 3790SOL     OW23005   4.585   2.895   6.632  0.0415 -0.1479 -0.1409
 3790SOL    HW123006   4.511   2.891   6.693 -1.0027 -1.1040 -1.4596
 3790SOL    HW223007   4.550   2.966   6.579 -0.7994 -1.2163 -1.0033
 3791SOL     OW23008   0.057   0.553   5.991 -0.0614 -0.0900 -0.0943
 3791SOL    HW123009   0.108   0.483   6.031 -0.5455  0.4899  1.5382
 3791SOL    HW223010   4.710   0.512   6.000  0.0928  0.2998  3.0884
 3792SOL     OW23011   4.646   1.668   6.150  0.0182 -0.0232 -0.0177
 3792SOL    HW123012   4.579   1.722   6.192  0.6940 -0.1250  1.1858
 3792SOL    HW223013   4.723   1.705   6.194 -0.5470 -0.9696  1.7742
 3793SOL     OW23014   0.562   1.342   2.903  0.0108  0.1671  0.2458
 3793SOL    HW123015   0.549   1.355   2.997  3.3995 -3.5854  1.2219
 3793SOL    HW223016   0.485   1.294   2.870  0.6435  0.0558 -1.0586
 3794SOL     OW23017   1.245   0.834   3.415 -0.6930 -0.5599  0.5938
 3794SOL    HW123018   1.193   0.759   3.445 -3.9485  0.6337 -2.0937
 3794SOL    HW223019   1.288   0.853   3.499  2.4703 -1.0418 -0.8995
 3795SOL     OW23020   1.158   2.243  17.723  0.6528 -1.2701  0.8770
 3795SOL    HW123021   1.072   2.225   0.003 -1.5475  1.6550 -2.8790
 3795SOL    HW223022   1.194   2.316   0.016 -1.3902  1.3017 -1.4254
 3796SOL     OW23023   4.050   3.233   9.199 -0.4572 -0.3796  0.1673
 3796SOL    HW123024   4.030   3.193   9.283 -1.5791 -1.4207 -0.5972
 3796SOL    HW223025   4.131   3.190   9.172 -0.3237  0.8281 -1.4036
 3797SOL     OW23026   2.414   3.089  14.184  0.3119 -0.6605 -0.3224
 3797SOL    HW123027   2.412   3.013  14.242 -0.5601 -2.3259 -2.5404
 3797SOL    HW223028   2.483   3.059  14.125  0.6934 -2.6365  1.1347
 3798SOL     OW23029   4.394   0.534  12.678 -0.8511  0.2332 -0.6617
 3798SOL    HW123030   4.462   0.569  12.735 -0.7616 -1.6200  0.3835
 3798SOL    HW223031   4.430   0.464  12.624 -1.1196 -0.2140 -0.2598
 3799SOL     OW23032   2.200   3.620  14.767 -0.7600 -0.2267 -0.0653
 3799SOL    HW123033   2.234   3.539  14.729  2.3525  0.4113  1.3504
 3799SOL    HW223034   2.192   3.673  14.688  1.3010 -1.2692 -0.9784
 3800SOL     OW23035   3.804   3.166  15.790  0.2970  0.1788 -0.3446
 3800SOL    HW123036   3.855   3.133  15.717 -0.9914 -2.4476 -0.0454
 3800SOL    HW223037   3.830   3.258  15.792  1.6564 -0.2659  3.7724
 3801SOL     OW23038   4.022   2.930   8.110 -0.1135  0.5889 -0.2901
 3801SOL    HW123039   3.984   2.850   8.073 -0.6783  1.6629 -2.0040
 3801SOL    HW223040   3.940   2.973   8.132 -0.0214  0.3553  0.5103
 3802SOL     OW23041   3.568   1.183   3.538 -0.4158  0.2924  0.1397
 3802SOL    HW123042   3.611   1.103   3.507  0.7971  1.7418 -1.9075
 3802SOL    HW223043   3.478   1.159   3.559 -0.5849  2.0305  1.3609
 3803SOL     OW23044   1.748   0.585   7.819  0.7733  0.2214  0.2244
 3803SOL    HW123045   1.791   0.650   7.764  0.3295 -1.0382 -1.6253
 3803SOL    HW223046   1.818   0.519   7.815  1.3922  0.9634 -1.4230
 3804SOL     OW23047   2.759   1.260  16.475  0.2161 -0.6936  0.7012
 3804SOL    HW123048   2.779   1.184  16.420  0.1429 -0.8451  0.8852
 3804SOL    HW223049   2.848   1.279  16.503  0.6846  0.7935 -1.7885
 3805SOL     OW23050   1.453   3.944   9.312  0.1116  0.2130 -0.4997
 3805SOL    HW123051   1.431   3.879   9.244  0.0037 -1.4025  1.0830
 3805SOL    HW223052   1.374   3.938   9.365 -0.2056  0.8951 -0.8923
 3806SOL     OW23053   2.120   4.595   3.297  0.4751  0.1462 -0.6217
 3806SOL    HW123054   2.116   4.517   3.242  0.0643 -0.5095  0.3295
 3806SOL    HW223055   2.044   4.649   3.275  0.2815 -0.1166 -0.6045
 3807SOL     OW23056   2.089   1.313   5.318 -0.0088  0.3173 -0.3260
 3807SOL    HW123057   2.010   1.287   5.271 -0.9844  1.1762  0.8454
 3807SOL    HW223058   2.099   1.237   5.376  1.8271  0.0430 -1.0167
 3808SOL     OW23059   4.127   1.706  14.249 -0.3731  0.3319 -0.0861
 3808SOL    HW123060   4.095   1.621  14.279  1.4092 -0.7628 -1.2638
 3808SOL    HW223061   4.100   1.763  14.321 -0.8806  0.9665 -0.7772
 3809SOL     OW23062   2.468   0.479   1.781  0.2184  0.4379  0.6754
 3809SOL    HW123063   2.421   0.559   1.759 -0.5214 -0.2129 -0.1134
 3809SOL    HW223064   2.561   0.503   1.771  0.1630  1.6264  2.8706
 3810SOL     OW23065   2.976   4.327  16.924 -0.3482  0.1973 -0.0231
 3810SOL    HW123066   2.892   4.351  16.883 -0.8144 -0.7187  0.4096
 3810SOL    HW223067   2.966   4.233  16.939 -0.0320  0.2567  0.5326
 3811SOL     OW23068   2.952   0.206   9.665 -0.3337  0.4938  0.0937
 3811SOL    HW123069   2.946   0.294   9.627 -0.4953  0.2397 -0.4681
 3811SOL    HW223070   2.977   0.151   9.591  1.8852  2.6934 -0.8119
 3812SOL     OW23071   3.439   1.049  16.343  0.4206  0.2386 -0.3576
 3812SOL    HW123072   3.426   0.975  16.285 -0.4687 -0.8326  1.1980
 3812SOL    HW223073   3.381   1.026  16.415 -0.6131  0.1038 -1.2485
 3813SOL     OW23074   4.446   2.747   3.577 -0.5884  0.2726 -0.4121
 3813SOL    HW123075   4.375   2.760   3.514 -1.1675 -1.5997 -0.1417
 3813SOL    HW223076   4.454   2.833   3.618 -1.0384  0.1114  0.0232
 3814SOL     OW23077   2.336   0.707   6.889  0.0704  0.1571 -0.2637
 3814SOL    HW123078   2.344   0.618   6.923 -2.1466 -0.1799 -0.6024
 3814SOL    HW223079   2.250   0.707   6.847 -0.8345  0.4572  1.6025
 3815SOL     OW23080   1.618   0.911   6.032  0.0162  0.0703  0.4967
 3815SOL    HW123081   1.612   0.836   5.972  0.3952  0.5554 -0.1403
 3815SOL    HW223082   1.703   0.887   6.070  0.1353  0.0339  0.2094
 3816SOL     OW23083   1.596   3.836  13.343 -0.1960  0.8460  0.5471
 3816SOL    HW123084   1.692   3.833  13.340 -0.1223  1.5218  2.1515
 3816SOL    HW223085   1.571   3.746  13.361 -0.0671  0.1224 -2.9831
 3817SOL     OW23086   0.602   1.060   3.441  0.1497 -0.2937  0.5776
 3817SOL    HW123087   0.509   1.039   3.427  0.4631 -2.4598  1.7240
 3817SOL    HW223088   0.586   1.143   3.487  2.0819  0.5991 -0.3695
 3818SOL     OW23089   3.651   3.082  10.494 -0.0920  0.1572  0.3670
 3818SOL    HW123090   3.674   3.039  10.577  2.1671 -1.5703 -1.1466
 3818SOL    HW223091   3.690   3.165  10.521 -2.6107  0.7701  2.0866
 3819SOL     OW23092   1.828   1.254  13.328 -0.9025 -0.0737  0.0624
 3819SOL    HW123093   1.866   1.266  13.241 -1.0097  1.9441  0.2886
 3819SOL    HW223094   1.896   1.198  13.365 -0.5949 -0.0003 -0.3829
 3820SOL     OW23095   3.937   3.403  12.279 -0.0407  0.2007 -0.3953
 3820SOL    HW123096   4.025   3.401  12.317 -0.2364 -3.6434 -0.0823
 3820SOL    HW223097   3.886   3.359  12.348 -0.1360  1.0895  0.0973
 3821SOL     OW23098   1.082   3.527   1.807  0.4011  0.6983 -0.0772
 3821SOL    HW123099   0.987   3.517   1.810  0.4850  0.1351  0.9005
 3821SOL    HW223100   1.119   3.439   1.806 -0.2116  0.4549 -1.2247
 3822SOL     OW23101   2.146   4.194  13.068  0.4999 -0.8710  0.0374
 3822SOL    HW123102   2.082   4.265  13.061  0.1156 -1.2228 -0.0521
 3822SOL    HW223103   2.124   4.144  13.146  0.8826  1.0758  1.3927
 3823SOL     OW23104   2.876   2.801   9.985 -0.0449 -0.3156  0.0677
 3823SOL    HW123105   2.802   2.861   9.997  1.4430  2.1139 -2.8454
 3823SOL    HW223106   2.838   2.733   9.929 -0.9517 -1.0503  1.5761
 3824SOL     OW23107   2.397   4.244   1.779 -0.3523  0.0904  0.1720
 3824SOL    HW123108   2.391   4.156   1.741  1.4675 -0.4672  1.2198
 3824SOL    HW223109   2.339   4.286   1.716 -0.4811  1.2120  1.0332
 3825SOL     OW23110   0.827   3.075   8.009 -0.2893 -0.4732 -0.5824
 3825SOL    HW123111   0.897   3.138   7.992  0.5072 -1.0645  0.5155
 3825SOL    HW223112   0.835   3.019   7.931  0.0027  0.3490 -1.1369
 3826SOL     OW23113   2.518   4.528  15.738  0.4144 -0.1172  0.1852
 3826SOL    HW123114   2.570   4.562  15.666 -1.2105  1.8116 -0.0787
 3826SOL    HW223115   2.555   4.441  15.752  1.9395  0.5803  0.4722
 3827SOL     OW23116   1.232   4.134   4.530  0.2400 -0.2863  0.4217
 3827SOL    HW123117   1.157   4.146   4.472  0.9970 -0.1782 -0.5277
 3827SOL    HW223118   1.222   4.046   4.564  1.4864 -0.2069  1.0181
 3828SOL     OW23119   2.736   4.410   8.224  0.6777 -0.8152 -0.4070
 3828SOL    HW123120   2.784   4.421   8.306  0.5757  3.2081 -0.9040
 3828SOL    HW223121   2.688   4.493   8.227  0.1104 -1.1826  0.8061
 3829SOL     OW23122   3.875   0.784  15.552  0.0810  0.3796 -0.4532
 3829SOL    HW123123   3.944   0.850  15.552  0.9185 -0.5150 -2.8432
 3829SOL    HW223124   3.861   0.782  15.647 -1.9168  0.0046 -0.7461
 3830SOL     OW23125   3.876   0.024   8.408  0.3575  0.5088  0.3842
 3830SOL    HW123126   3.923   4.687   8.439 -0.6648  1.0540  3.2413
 3830SOL    HW223127   3.948   0.086   8.419  0.7853  0.1555 -0.3764
 3831SOL     OW23128   3.020   2.004   3.875 -0.3819 -0.0609  0.2310
 3831SOL    HW123129   3.001   1.911   3.888 -0.9369 -0.2577 -1.9729
 3831SOL    HW223130   3.086   2.019   3.942  0.6607 -0.6562 -0.6678
 3832SOL     OW23131   2.386   2.617   4.914  0.3679 -0.4592  0.6496
 3832SOL    HW123132   2.375   2.522   4.916  1.5128 -0.6027 -0.0824
 3832SOL    HW223133   2.434   2.616   4.832 -1.3522  0.6821 -0.3621
 3833SOL     OW23134   1.600   4.135   5.586  0.7175  0.0046  0.5130
 3833SOL    HW123135   1.555   4.189   5.522  0.4080 -0.3011  0.4753
 3833SOL    HW223136   1.543   4.152   5.660  0.9275 -0.9657  0.9040
 3834SOL     OW23137   1.547   2.871   4.511  0.1913  0.2960 -0.4450
 3834SOL    HW123138   1.630   2.838   4.477 -0.4213 -0.6977 -0.9855
 3834SOL    HW223139   1.541   2.821   4.593  0.0128  0.2797 -0.4675
 3835SOL     OW23140   3.875   3.561  11.618 -0.3192  0.2331  0.3311
 3835SOL    HW123141   3.877   3.656  11.627  1.0484  0.5819 -3.6502
 3835SOL    HW223142   3.951   3.550  11.561  0.1759  0.2003  0.9979
 3836SOL     OW23143   0.966   0.536   4.691 -0.2317 -0.6019  0.1537
 3836SOL    HW123144   0.969   0.610   4.751  0.2048  1.0943 -1.9252
 3836SOL    HW223145   1.054   0.545   4.653 -0.1770 -0.0989  0.4056
 3837SOL     OW23146   1.743   0.601   3.545 -0.1489  0.4708 -0.5302
 3837SOL    HW123147   1.674   0.664   3.523  0.0963  0.2826 -1.8334
 3837SOL    HW223148   1.719   0.574   3.634 -0.7489  0.0189 -0.8313
 3838SOL     OW23149   0.527   4.021  13.331 -1.4440 -0.0656  0.5315
 3838SOL    HW123150   0.545   3.938  13.375  0.1208  1.9443  3.6308
 3838SOL    HW223151   0.589   4.004  13.259 -2.9744 -0.7757 -0.6187
 3839SOL     OW23152   0.495   2.439   0.912  0.0424  0.0904  0.2739
 3839SOL    HW123153   0.454   2.443   0.998 -1.2400  0.1338 -0.3318
 3839SOL    HW223154   0.548   2.360   0.918 -0.2241 -0.2262 -1.5420
 3840SOL     OW23155   1.225   1.148  16.271 -0.3988 -0.3180 -0.0383
 3840SOL    HW123156   1.312   1.113  16.292 -0.0258  0.5245 -0.1724
 3840SOL    HW223157   1.159   1.083  16.297  0.9788 -0.6868  2.5475
 3841SOL     OW23158   3.424   2.932  15.076  0.1772  0.1923  0.0933
 3841SOL    HW123159   3.341   2.932  15.029 -0.2398  1.2105  0.8257
 3841SOL    HW223160   3.393   2.900  15.160 -0.6516  1.4339  0.2666
 3842SOL     OW23161   0.914   2.444  12.690  0.7338 -0.2446 -0.0132
 3842SOL    HW123162   0.921   2.438  12.785  2.0144  1.3092 -0.0067
 3842SOL    HW223163   0.827   2.405  12.682  0.6191  0.2533 -1.2277
 3843SOL     OW23164   3.364   4.400   3.222  0.4057  0.3236 -0.1834
 3843SOL    HW123165   3.426   4.459   3.180  1.5348 -0.4935  0.3267
 3843SOL    HW223166   3.401   4.312   3.212 -3.1082 -1.1374 -0.5364
 3844SOL     OW23167   2.527   0.803   7.816 -0.3653  0.0259 -0.3278
 3844SOL    HW123168   2.563   0.862   7.750  0.5552  2.9955  2.7976
 3844SOL    HW223169   2.500   0.730   7.761 -1.5642  0.9423 -0.9639
 3845SOL     OW23170   3.568   2.696   6.986 -0.2132 -0.5923  0.4186
 3845SOL    HW123171   3.535   2.691   6.896  1.1744  2.2758 -0.2575
 3845SOL    HW223172   3.553   2.789   6.998  0.2200 -0.3701 -0.7726
 3846SOL     OW23173   2.247   3.044   8.590 -0.0967  0.3474  0.3477
 3846SOL    HW123174   2.198   2.986   8.532 -1.7266  0.5055  1.5695
 3846SOL    HW223175   2.336   3.020   8.564 -0.1839 -1.4649  1.7748
 3847SOL     OW23176   4.590   1.656  15.158 -0.4966 -0.6867  0.1342
 3847SOL    HW123177   4.655   1.607  15.209 -3.1581 -2.4293  1.8941
 3847SOL    HW223178   4.601   1.744  15.194  1.5233 -0.7547 -0.3336
 3848SOL     OW23179   2.959   1.894  16.714 -0.2620  0.2143  0.2754
 3848SOL    HW123180   2.969   1.802  16.737 -1.6100  0.1449  0.6031
 3848SOL    HW223181   2.864   1.911  16.710 -0.5338 -1.1130  0.8475
 3849SOL     OW23182   0.175   3.240   0.848 -0.2775  0.1555  0.1517
 3849SOL    HW123183   0.158   3.146   0.860 -2.4818  0.3572 -1.5048
 3849SOL    HW223184   0.260   3.239   0.894 -1.3622 -1.4544  2.1034
 3850SOL     OW23185   2.481   0.473  11.443  0.5694 -0.2159  0.3648
 3850SOL    HW123186   2.533   0.533  11.389 -1.6871 -0.0477 -1.6356
 3850SOL    HW223187   2.420   0.432  11.381  1.7178 -0.8844 -0.3209
 3851SOL     OW23188   4.388   1.064   6.154 -0.5494 -0.2417  0.2082
 3851SOL    HW123189   4.452   1.119   6.198 -0.0190 -1.4246  0.9145
 3851SOL    HW223190   4.439   0.983   6.150  1.5024  1.0761  0.0435
 3852SOL     OW23191   4.412   3.688   7.289  0.5310 -0.0333 -0.0518
 3852SOL    HW123192   4.443   3.607   7.329  1.2743 -1.2938 -3.1832
 3852SOL    HW223193   4.347   3.718   7.353  0.7148 -2.9283  1.5285
 3853SOL     OW23194   1.848   1.079   1.843 -0.0653 -0.2856  0.1149
 3853SOL    HW123195   1.934   1.087   1.803 -0.2885  1.8169  0.0256
 3853SOL    HW223196   1.865   1.024   1.919 -0.0621  2.7932  2.3422
 3854SOL     OW23197   1.738   2.701   2.894 -0.1362  0.7668  0.2266
 3854SOL    HW123198   1.801   2.707   2.823 -1.2878  1.7214 -0.7019
 3854SOL    HW223199   1.688   2.623   2.870  1.0850  0.3940 -1.0677
 3855SOL     OW23200   3.046   2.380   8.372  0.1631  0.7259  0.2496
 3855SOL    HW123201   2.994   2.346   8.445 -0.4327 -0.8525 -0.9061
 3855SOL    HW223202   2.973   2.419   8.325  0.7729  0.7399 -0.6967
 3856SOL     OW23203   4.592   0.016   2.003 -0.6713  0.3318 -1.0333
 3856SOL    HW123204   4.596   4.669   1.963 -1.2568  0.5894 -1.6439
 3856SOL    HW223205   4.674   0.054   1.971 -0.5529  0.4092 -0.6321
 3857SOL     OW23206   0.285   0.197   6.790  0.0124  0.2935  0.3634
 3857SOL    HW123207   0.237   0.118   6.814  2.1988 -1.4417 -0.9419
 3857SOL    HW223208   0.249   0.223   6.705 -1.2870 -0.2673  0.7535
 3858SOL     OW23209   1.752   2.344   1.768  0.8324 -0.5211  0.7714
 3858SOL    HW123210   1.715   2.270   1.720  0.7827  0.4973 -0.7400
 3858SOL    HW223211   1.772   2.307   1.854  1.4213  1.1101  1.3349
 3859SOL     OW23212   3.933   2.586   4.319 -0.1862 -0.4855  0.6664
 3859SOL    HW123213   3.984   2.637   4.382  1.5957 -1.9028  0.4037
 3859SOL    HW223214   3.848   2.627   4.330 -0.2290 -0.7597  1.3592
 3860SOL     OW23215   1.735   2.466   7.046 -0.2141 -0.4788  0.0292
 3860SOL    HW123216   1.693   2.494   6.964  2.4280  2.7771 -0.2176
 3860SOL    HW223217   1.664   2.416   7.087  0.6475 -2.6287 -1.0976
 3861SOL     OW23218   2.727   3.663   7.139  0.7487 -0.3039  0.3507
 3861SOL    HW123219   2.632   3.677   7.143  0.6510 -1.0333  0.6794
 3861SOL    HW223220   2.735   3.568   7.150 -2.3891 -0.4975  0.9418
 3862SOL     OW23221   1.841   2.030  13.446  0.2886  0.8184  0.3297
 3862SOL    HW123222   1.773   1.988  13.499 -1.0866 -0.0204 -2.0949
 3862SOL    HW223223   1.794   2.017  13.364  1.3368 -1.2590  0.0498
 3863SOL     OW23224   3.078   1.752   7.227  0.2220  0.8471 -0.0108
 3863SOL    HW123225   3.173   1.742   7.232 -0.0931 -1.7987  0.7529
 3863SOL    HW223226   3.056   1.659   7.222 -0.7908  1.1100 -0.4391
 3864SOL     OW23227   2.003   3.874   7.484  0.0060 -0.5504 -0.5254
 3864SOL    HW123228   1.923   3.854   7.435  0.7756 -3.0021 -0.7543
 3864SOL    HW223229   2.018   3.967   7.464  0.2113 -0.4443  0.1128
 3865SOL     OW23230   0.873   2.289   8.098  0.7514 -0.1588 -0.2861
 3865SOL    HW123231   0.957   2.243   8.109  0.9475  0.8150  2.3034
 3865SOL    HW223232   0.872   2.349   8.173  0.4796  0.6662 -0.9539
 3866SOL     OW23233   2.868   2.114   8.147  0.2655  0.2740  0.1592
 3866SOL    HW123234   2.856   2.208   8.160 -0.1506  0.3202 -0.5618
 3866SOL    HW223235   2.964   2.111   8.141  0.2612 -2.1782  1.6040
 3867SOL     OW23236   4.508   1.746   4.165 -0.1254  0.1935  0.4582
 3867SOL    HW123237   4.485   1.731   4.257  0.1796 -0.3070  0.4535
 3867SOL    HW223238   4.426   1.786   4.137  0.1370 -0.5962 -1.4484
 3868SOL     OW23239   4.227   2.736   3.402 -0.2128  0.4260 -0.7769
 3868SOL    HW123240   4.159   2.716   3.466 -0.8600  1.2065 -1.2279
 3868SOL    HW223241   4.211   2.829   3.390 -0.7591  0.4388  0.1102
 3869SOL     OW23242   3.573   0.737   7.489 -0.4327  0.2052  0.2999
 3869SOL    HW123243   3.520   0.664   7.522 -0.7322  0.8600  1.2659
 3869SOL    HW223244   3.600   0.708   7.401  0.9402  0.7910  0.5384
 3870SOL     OW23245   3.825   0.866   1.823  0.0370 -0.3859 -0.0524
 3870SOL    HW123246   3.849   0.816   1.901 -0.4993  0.1202  0.4411
 3870SOL    HW223247   3.734   0.841   1.808  0.3626 -0.8510 -1.2921
 3871SOL     OW23248   3.407   2.685   7.351 -0.7640 -0.0867 -0.6116
 3871SOL    HW123249   3.413   2.777   7.324  0.8019 -0.2998 -1.0098
 3871SOL    HW223250   3.369   2.644   7.273  0.7378 -0.0666 -1.3686
 3872SOL     OW23251   2.863   0.550  11.903 -0.5320  0.1549 -0.1029
 3872SOL    HW123252   2.834   0.463  11.874 -0.4640  0.8341 -2.2004
 3872SOL    HW223253   2.946   0.550  11.855 -0.1099  0.6151  0.6366
 3873SOL     OW23254   0.370   4.346   2.831 -0.3132  0.1396 -0.0063
 3873SOL    HW123255   0.355   4.397   2.910  1.2161  0.1262  0.3039
 3873SOL    HW223256   0.276   4.333   2.816 -0.3123  1.9741 -1.5272
 3874SOL     OW23257   0.803   4.102   3.752  0.7125  0.1571  0.4800
 3874SOL    HW123258   0.844   4.159   3.688 -0.5744 -0.4997 -0.9320
 3874SOL    HW223259   0.870   4.035   3.741 -0.6491 -0.6735 -2.8482
 3875SOL     OW23260   3.854   1.238   9.467  0.0875 -0.4620 -0.0754
 3875SOL    HW123261   3.854   1.154   9.422  0.2819 -0.1779 -0.6043
 3875SOL    HW223262   3.834   1.311   9.409  0.0341  0.5819  1.2417
 3876SOL     OW23263   3.308   1.141   4.640 -0.1156 -0.8300 -0.3930
 3876SOL    HW123264   3.326   1.192   4.720 -2.0161 -2.6388  1.1854
 3876SOL    HW223265   3.389   1.172   4.599  0.3593 -0.9718  0.4152
 3877SOL     OW23266   3.981   1.929   6.683 -0.6983 -0.1479 -0.0478
 3877SOL    HW123267   3.993   2.002   6.744 -1.8148  0.8818 -1.0691
 3877SOL    HW223268   3.888   1.908   6.685 -1.1195  1.8921  1.9909
 3878SOL     OW23269   4.102   2.116   6.443  0.3863  0.0433 -0.3723
 3878SOL    HW123270   4.024   2.098   6.390  2.3729 -1.7260 -2.7292
 3878SOL    HW223271   4.099   2.050   6.513 -0.5487  0.9264  0.4167
 3879SOL     OW23272   1.235   0.956  10.078 -0.2928  0.6576  0.3895
 3879SOL    HW123273   1.217   0.897  10.005 -1.8422  0.2386  1.1097
 3879SOL    HW223274   1.160   0.938  10.134  0.9903 -1.0986  1.5036
 3880SOL     OW23275   0.937   0.059   2.416  0.4769  0.0246  0.4935
 3880SOL    HW123276   0.944   4.730   2.482 -1.2757 -0.1069  0.5471
 3880SOL    HW223277   0.913   0.130   2.476  1.7215  0.4280  0.5030
 3881SOL     OW23278   1.533   1.766   5.038 -0.4673  0.3384  0.0374
 3881SOL    HW123279   1.509   1.858   5.048  3.3728  1.3061  0.5018
 3881SOL    HW223280   1.566   1.765   4.948  0.6282 -1.6942  0.4534
 3882SOL     OW23281   3.779   0.343  11.195  0.4932  0.6711  0.0121
 3882SOL    HW123282   3.805   0.268  11.141 -0.5543  0.1309  0.2537
 3882SOL    HW223283   3.686   0.336  11.177  0.3475  0.9381  0.6592
 3883SOL     OW23284   1.223   4.671   8.105 -0.1905 -0.2122  0.0528
 3883SOL    HW123285   1.170   4.647   8.181 -0.1194  1.0273  0.4907
 3883SOL    HW223286   1.174   0.002   8.063  0.4428  0.9194  1.2402
 3884SOL     OW23287   2.295   4.688   8.482 -0.5001  0.6025  0.7558
 3884SOL    HW123288   2.327   4.615   8.534 -3.4828  0.8669  2.9965
 3884SOL    HW223289   2.373   4.697   8.427 -0.2219 -1.3103  0.8696
 3885SOL     OW23290   4.588   2.838  11.921 -0.0929  0.3080 -0.4100
 3885SOL    HW123291   4.548   2.849  11.835  1.5453 -2.9783 -1.6188
 3885SOL    HW223292   4.662   2.898  11.922 -1.2879  1.7512  0.3326
 3886SOL     OW23293   2.463   1.934   8.129 -0.2819 -0.3202  0.1950
 3886SOL    HW123294   2.379   1.891   8.109  0.0893  0.0309 -2.0895
 3886SOL    HW223295   2.449   1.957   8.221 -1.3228 -1.7773  0.4125
 3887SOL     OW23296   4.080   0.520   6.066 -0.0318  0.1899  0.5033
 3887SOL    HW123297   4.001   0.469   6.047  2.0244 -2.2609 -1.4994
 3887SOL    HW223298   4.143   0.471   6.013  1.6021  2.4770  0.3252
 3888SOL     OW23299   1.238   4.205   0.187 -0.2218  0.0183 -0.1354
 3888SOL    HW123300   1.234   4.246   0.274 -1.4263 -0.3405 -0.0270
 3888SOL    HW223301   1.331   4.183   0.179  0.0760  1.4642 -0.7044
 3889SOL     OW23302   0.975   2.385   8.905  0.2830 -0.4420  0.4002
 3889SOL    HW123303   0.919   2.441   8.960 -0.2853 -0.6076 -0.0062
 3889SOL    HW223304   1.044   2.450   8.889 -0.7761  0.7079  0.4830
 3890SOL     OW23305   2.972   1.161  10.450 -0.6395 -0.4672  0.1309
 3890SOL    HW123306   2.999   1.123  10.534 -1.1620 -1.3975 -0.1201
 3890SOL    HW223307   2.900   1.105  10.420 -0.9935  1.3837 -2.4086
 3891SOL     OW23308   3.530   1.102   5.399 -0.1670 -0.2929  0.1367
 3891SOL    HW123309   3.608   1.147   5.368 -0.2677  2.2384  3.5573
 3891SOL    HW223310   3.524   1.039   5.327 -0.5920  0.4261 -0.4590
 3892SOL     OW23311   3.414   4.368   9.478 -0.2513 -0.0018  0.2983
 3892SOL    HW123312   3.491   4.317   9.506 -1.6004 -1.2075  1.8044
 3892SOL    HW223313   3.373   4.295   9.431  1.0837 -0.5228 -0.0608
 3893SOL     OW23314   0.176   1.107   5.264  0.1501 -0.8603 -0.5806
 3893SOL    HW123315   0.193   1.183   5.320 -2.9640 -1.4295  1.1448
 3893SOL    HW223316   0.169   1.033   5.324  2.1260  0.3404  1.1133
 3894SOL     OW23317   3.438   3.378   2.953 -0.2914 -0.0317  0.0898
 3894SOL    HW123318   3.388   3.458   2.970 -0.2682 -0.0388  0.1964
 3894SOL    HW223319   3.528   3.409   2.961 -0.4212  0.1674  0.8333
 3895SOL     OW23320   2.111   4.542   5.059 -0.2340 -0.0666  0.2634
 3895SOL    HW123321   2.124   4.451   5.086 -0.2601 -0.0557  0.3120
 3895SOL    HW223322   2.069   4.582   5.136 -1.5222 -0.7534 -0.0759
 3896SOL     OW23323   3.311   0.503   4.512  0.3722  0.4954  0.1719
 3896SOL    HW123324   3.380   0.445   4.481  0.2898  0.7453 -0.4872
 3896SOL    HW223325   3.348   0.585   4.477  1.9397  0.3735  1.5796
 3897SOL     OW23326   3.416   0.576   3.235 -0.2549 -0.8643  0.3566
 3897SOL    HW123327   3.403   0.659   3.189  1.2978 -1.1405 -0.6112
 3897SOL    HW223328   3.476   0.598   3.307 -0.4933  1.2099 -0.0861
 3898SOL     OW23329   0.086   0.234   8.330 -0.0695 -0.3918  0.4116
 3898SOL    HW123330   0.110   0.166   8.267  1.9162  0.0746  0.6522
 3898SOL    HW223331   0.159   0.295   8.320 -1.0695  0.9317  1.1882
 3899SOL     OW23332   1.849   4.468   4.256 -0.1793 -0.2054 -0.2295
 3899SOL    HW123333   1.824   4.423   4.337 -0.1442 -0.7349 -0.5136
 3899SOL    HW223334   1.944   4.455   4.260 -0.1799  0.4172  2.1238
 3900SOL     OW23335   0.961   4.422  16.898 -0.2923 -0.2349 -0.9553
 3900SOL    HW123336   0.883   4.369  16.917  0.5426 -0.3790  2.1261
 3900SOL    HW223337   1.003   4.362  16.837  2.1921  2.6285 -2.0818
 3901SOL     OW23338   3.980   4.390   3.476 -0.1621 -0.5771 -0.0374
 3901SOL    HW123339   4.023   4.456   3.422 -0.0785 -0.5116  0.1069
 3901SOL    HW223340   4.064   4.361   3.512  0.1345  0.4635  0.1202
 3902SOL     OW23341   2.923   1.033   9.447 -0.0774  0.5389 -0.2994
 3902SOL    HW123342   3.003   1.055   9.399  1.2914 -0.9508  1.2957
 3902SOL    HW223343   2.898   1.115   9.490  2.0142  1.5169 -0.9492
 3903SOL     OW23344   4.492   1.430   6.860  0.4149  0.4200 -0.0511
 3903SOL    HW123345   4.401   1.434   6.890  0.3626  2.3562 -0.4881
 3903SOL    HW223346   4.500   1.335   6.869  1.0536  0.3014 -1.8528
 3904SOL     OW23347   2.370   0.977   1.371 -0.1038  0.2691  0.4122
 3904SOL    HW123348   2.325   0.954   1.452  0.3574 -4.3397 -0.6055
 3904SOL    HW223349   2.417   0.898   1.344  0.3753  0.5525  0.4207
 3905SOL     OW23350   0.894   3.932   6.493 -0.2053 -0.1732  0.2829
 3905SOL    HW123351   0.880   4.021   6.464  1.0787 -0.2373 -0.5774
 3905SOL    HW223352   0.826   3.896   6.437  1.2895 -0.5764 -1.2666
 3906SOL     OW23353   0.685   4.341   1.901 -0.4295 -0.4288 -0.6863
 3906SOL    HW123354   0.708   4.355   1.809  1.6242 -1.0412 -0.2647
 3906SOL    HW223355   0.730   4.258   1.915  0.0755  0.3645  2.5139
 3907SOL     OW23356   0.721   1.269   0.990 -0.6096  0.1199 -0.0734
 3907SOL    HW123357   0.664   1.228   1.055  1.0394 -1.3261  0.4617
 3907SOL    HW223358   0.806   1.262   1.032 -0.4838  0.2287 -0.3090
 3908SOL     OW23359   0.601   0.700   2.847 -0.4379 -0.6615 -0.0497
 3908SOL    HW123360   0.537   0.631   2.830  0.2725 -1.4691  0.5042
 3908SOL    HW223361   0.552   0.780   2.831 -2.1821 -1.9083 -0.9949
 3909SOL     OW23362   2.790   0.914  12.235  0.5776 -0.0888  0.1360
 3909SOL    HW123363   2.766   0.860  12.160 -1.3856  4.4349 -2.4853
 3909SOL    HW223364   2.714   0.907  12.292  0.1386  1.9614 -0.1874
 3910SOL     OW23365   1.390   2.962   7.911 -1.0272 -0.6908  0.4086
 3910SOL    HW123366   1.333   2.930   7.841 -2.2502  1.1837  0.5366
 3910SOL    HW223367   1.319   3.003   7.961 -0.3745  0.8072  0.1132
 3911SOL     OW23368   2.527   0.030   1.882 -0.2999 -0.0112  0.0906
 3911SOL    HW123369   2.472   0.086   1.829 -2.6813  0.3700  2.9796
 3911SOL    HW223370   2.518   4.686   1.836  1.3150  0.4503 -1.0858
 3912SOL     OW23371   3.371   0.250   8.303  0.1558 -0.5991 -0.0774
 3912SOL    HW123372   3.454   0.265   8.258  0.3313  1.2737  0.8757
 3912SOL    HW223373   3.314   0.296   8.240  0.3423  0.5891  0.6177
 3913SOL     OW23374   0.356   2.914   7.831  0.3505 -0.6833  0.3871
 3913SOL    HW123375   0.396   2.985   7.780 -0.4110  0.6987  1.6888
 3913SOL    HW223376   0.266   2.936   7.806  0.6076 -1.2709 -0.9921
 3914SOL     OW23377   0.937   0.627  13.532  0.1887  0.0093 -0.2959
 3914SOL    HW123378   0.996   0.583  13.471  2.1141  2.8181 -0.4398
 3914SOL    HW223379   0.909   0.700  13.478  0.3411  2.1208  2.4726
 3915SOL     OW23380   3.464   3.817   9.618  1.0107 -0.2165  0.0530
 3915SOL    HW123381   3.383   3.765   9.615  0.0166  1.3884 -1.0914
 3915SOL    HW223382   3.440   3.906   9.642 -0.2247 -0.2341 -1.0947
 3916SOL     OW23383   4.560   4.105  12.129 -0.2913  0.0572  0.2145
 3916SOL    HW123384   4.647   4.104  12.088 -0.3934 -0.3242  0.0117
 3916SOL    HW223385   4.508   4.092  12.050  1.2093 -0.0032 -0.7555
 3917SOL     OW23386   0.731   4.351   7.550  0.6334  0.4310  0.1574
 3917SOL    HW123387   0.662   4.346   7.484  0.7881 -0.8102  0.0855
 3917SOL    HW223388   0.703   4.433   7.591 -3.9361 -1.0915  0.0577
 3918SOL     OW23389   1.213   2.750   8.376 -0.0690 -0.5002  0.3365
 3918SOL    HW123390   1.294   2.799   8.360  0.9655 -2.7543 -1.3316
 3918SOL    HW223391   1.194   2.728   8.286 -0.9270 -0.2624  0.4622
 3919SOL     OW23392   4.108   2.127   2.366 -0.7724  0.3333 -0.0184
 3919SOL    HW123393   4.125   2.218   2.342  0.1947  0.7956  2.5004
 3919SOL    HW223394   4.015   2.121   2.386 -0.8639 -1.0543 -0.8426
 3920SOL     OW23395   1.503   4.187   0.177  0.2578 -0.4075 -0.3852
 3920SOL    HW123396   1.494   4.136   0.096 -0.3611  0.1888 -0.6884
 3920SOL    HW223397   1.582   4.149   0.214  0.2806 -1.4812 -1.5125
 3921SOL     OW23398   0.864   4.521   6.143  0.3517 -0.3974 -0.9641
 3921SOL    HW123399   0.893   4.606   6.176  0.5308 -0.3239 -1.3159
 3921SOL    HW223400   0.776   4.513   6.181 -0.5829  1.0740 -2.7990
 3922SOL     OW23401   0.006   3.151   3.029 -0.0787  0.2797 -0.3951
 3922SOL    HW123402   4.663   3.197   3.040 -0.2592 -0.1393 -0.0078
 3922SOL    HW223403   0.021   3.154   2.934  0.3545  0.1158 -0.3326
 3923SOL     OW23404   2.648   4.055  12.835 -0.7905 -0.5113  0.3564
 3923SOL    HW123405   2.657   4.022  12.925  0.8904  1.0553  0.7707
 3923SOL    HW223406   2.577   4.118  12.842 -0.4890 -0.4190  2.6875
 3924SOL     OW23407   1.539   3.040  10.207  0.0608 -0.4759 -0.3336
 3924SOL    HW123408   1.567   3.047  10.116  0.8161  0.9536  0.0146
 3924SOL    HW223409   1.524   2.945  10.208  3.9202 -1.1388 -3.1215
 3925SOL     OW23410   0.726   2.865   3.793 -0.0454  0.0346 -0.3211
 3925SOL    HW123411   0.694   2.867   3.703 -1.2122 -0.0829  0.0883
 3925SOL    HW223412   0.644   2.894   3.834  0.1791  1.3717 -0.8025
 3926SOL     OW23413   0.211   3.256   7.703 -0.3525 -0.3529  0.1101
 3926SOL    HW123414   0.180   3.273   7.614  0.0625  2.3916  0.4855
 3926SOL    HW223415   0.134   3.272   7.758  1.0252  0.9817  1.6362
 3927SOL     OW23416   4.001   2.206   1.777  0.0986  0.0137  0.3078
 3927SOL    HW123417   3.926   2.213   1.837 -0.9049 -2.1658 -0.6509
 3927SOL    HW223418   3.967   2.133   1.725  0.0405  0.0120  0.3472
 3928SOL     OW23419   3.712   3.223   7.624 -0.6578  0.4123  0.2929
 3928SOL    HW123420   3.681   3.291   7.683  1.2597 -0.6801  2.5428
 3928SOL    HW223421   3.645   3.156   7.639 -0.4521  0.0650 -0.3352
 3929SOL     OW23422   4.510   2.840   7.466 -0.4295  0.0504  0.3515
 3929SOL    HW123423   4.527   2.855   7.373 -3.9113  1.9551  0.0217
 3929SOL    HW223424   4.585   2.783   7.484  0.8025  1.4997 -0.1350
 3930SOL     OW23425   0.203   0.757   4.829  0.2557 -0.0149  0.2288
 3930SOL    HW123426   0.178   0.799   4.911 -1.4091  0.7069 -0.6574
 3930SOL    HW223427   0.173   0.821   4.764 -0.0759 -0.9789 -0.5604
 3931SOL     OW23428   0.062   1.054   2.741 -0.5981  0.4827 -0.9821
 3931SOL    HW123429   0.094   1.110   2.670 -0.7304  0.5822 -0.9639
 3931SOL    HW223430   0.022   1.117   2.801 -1.0018  1.3884 -2.1857
 3932SOL     OW23431   3.155   0.133   7.938 -0.5779  0.2982  0.0209
 3932SOL    HW123432   3.175   0.195   8.008 -0.2232 -0.8666  0.9540
 3932SOL    HW223433   3.229   0.072   7.947 -2.2859 -1.4586  2.0920
 3933SOL     OW23434   1.650   3.029  11.513 -0.3974  0.0277  0.0478
 3933SOL    HW123435   1.739   2.994  11.506  0.2514  1.3759  1.5341
 3933SOL    HW223436   1.663   3.121  11.491 -0.1696  0.2435  1.0907
 3934SOL     OW23437   4.605   1.319   3.719  0.0894  0.5161  0.1060
 3934SOL    HW123438   4.684   1.270   3.741  0.5690  0.8910 -0.8050
 3934SOL    HW223439   4.634   1.396   3.669 -0.7145  0.7861  0.0535
 3935SOL     OW23440   4.049   2.307   9.282 -0.4252 -0.5698  0.0114
 3935SOL    HW123441   3.970   2.275   9.325 -0.3940 -0.3188  0.2507
 3935SOL    HW223442   4.016   2.392   9.253  2.5217  1.3564  2.3888
 3936SOL     OW23443   1.456   0.232   0.649  0.0956 -0.0724  0.4056
 3936SOL    HW123444   1.377   0.284   0.633  0.2448  0.4076  1.2318
 3936SOL    HW223445   1.493   0.264   0.732  1.1024 -2.1150  0.7395
 3937SOL     OW23446   2.760   3.249   7.521 -0.4388  0.3318 -0.2103
 3937SOL    HW123447   2.721   3.165   7.499  0.0396 -0.1424  0.7512
 3937SOL    HW223448   2.843   3.239   7.474  1.4355  0.3793  3.0684
 3938SOL     OW23449   2.248   3.912   4.548 -0.1635  0.4062  0.1538
 3938SOL    HW123450   2.273   3.871   4.631 -1.9677  0.1547  0.5767
 3938SOL    HW223451   2.164   3.944   4.580 -0.2254 -1.2133  1.5757
 3939SOL     OW23452   4.739   2.853   3.036  0.5891 -0.2636  0.6212
 3939SOL    HW123453   0.010   2.948   3.027  0.7154 -0.3380 -0.0611
 3939SOL    HW223454   4.712   2.852   3.127  2.1668 -1.1524  1.0783
 3940SOL     OW23455   3.072   0.337  11.418 -0.0745  0.1696  0.6629
 3940SOL    HW123456   2.994   0.310  11.466 -0.2898  0.8346  0.6828
 3940SOL    HW223457   3.122   0.256  11.430 -0.1094  0.2004  1.0134
 3941SOL     OW23458   0.327   0.363   2.287 -0.3323 -0.0466 -0.3032
 3941SOL    HW123459   0.281   0.415   2.354  2.2786  1.0207  0.6526
 3941SOL    HW223460   0.394   0.423   2.254  1.2695 -1.1224  1.0607
 3942SOL     OW23461   4.337   4.711   9.226 -0.1305 -0.0174  0.5563
 3942SOL    HW123462   4.388   0.050   9.241 -0.8460  0.8575 -1.6455
 3942SOL    HW223463   4.250   0.007   9.211  0.3097  0.4649 -0.8696
 3943SOL     OW23464   3.245   0.620   8.947 -0.4836 -0.6368 -0.0307
 3943SOL    HW123465   3.187   0.663   9.010 -0.5425  1.9424 -1.8651
 3943SOL    HW223466   3.197   0.648   8.869 -1.3585  0.5072  0.9063
 3944SOL     OW23467   3.252   2.239  12.574  0.5535  0.2493 -0.1498
 3944SOL    HW123468   3.319   2.185  12.616  1.6401  1.7699  0.0945
 3944SOL    HW223469   3.242   2.206  12.485 -0.4857 -0.4212  0.2168
 3945SOL     OW23470   3.077   3.908  13.381 -0.0949 -0.2562  0.2554
 3945SOL    HW123471   3.151   3.948  13.335  1.0487 -1.0758  1.3819
 3945SOL    HW223472   3.005   3.968  13.362  1.4469  1.7006  0.5597
 3946SOL     OW23473   0.637   0.224   3.623  0.1998  0.2493  0.5990
 3946SOL    HW123474   0.676   0.291   3.567 -0.4871 -0.3308 -0.5844
 3946SOL    HW223475   0.558   0.270   3.651 -1.0885 -0.8298 -1.2765
 3947SOL     OW23476   3.995   2.177   8.041 -0.2566  0.2338  0.2365
 3947SOL    HW123477   3.913   2.196   7.995 -1.2347 -1.5411  1.2343
 3947SOL    HW223478   3.962   2.146   8.125 -1.9147 -0.8825 -0.8370
 3948SOL     OW23479   1.240   1.779   3.988  0.0445 -0.0715 -0.0317
 3948SOL    HW123480   1.330   1.806   3.975  0.1315 -0.0320  0.6602
 3948SOL    HW223481   1.192   1.862   3.987  0.4777  0.1954  1.3491
 3949SOL     OW23482   1.985   1.754   3.692 -0.5634  0.1196  0.3432
 3949SOL    HW123483   1.981   1.762   3.597  1.4618  1.6728  0.3704
 3949SOL    HW223484   2.077   1.758   3.719 -0.4229 -0.5048 -0.0510
 3950SOL     OW23485   3.499   2.672  11.520  0.0688  0.3165 -0.1633
 3950SOL    HW123486   3.588   2.687  11.489  0.0070  0.4291 -0.2845
 3950SOL    HW223487   3.489   2.584  11.484  2.6727  0.7004 -1.8480
 3951SOL     OW23488   1.918   1.440   6.675  0.2565  0.0948 -0.4401
 3951SOL    HW123489   1.899   1.512   6.735  4.2780  1.9589 -1.3801
 3951SOL    HW223490   2.010   1.456   6.656  0.6238 -0.9244  0.4636
 3952SOL     OW23491   0.780   3.895   9.557  0.7794  0.2926  0.5544
 3952SOL    HW123492   0.831   3.814   9.548 -1.0253 -0.8367  0.6145
 3952SOL    HW223493   0.697   3.859   9.588  0.0316 -0.5423 -2.4052
 3953SOL     OW23494   0.231   4.445  16.970  0.5484  0.0595 -0.2556
 3953SOL    HW123495   0.213   4.536  16.944 -1.2121 -0.2187 -0.0532
 3953SOL    HW223496   0.179   4.433  17.049 -0.3413 -0.4902 -0.9179
 3954SOL     OW23497   2.750   2.669   9.789  0.4803  0.0360  0.3495
 3954SOL    HW123498   2.726   2.622   9.709 -1.6436 -0.8198  1.5053
 3954SOL    HW223499   2.662   2.655   9.824  0.0534 -2.3471 -1.6634
 3955SOL     OW23500   2.080   3.072   2.006  0.2475  0.2998  0.0236
 3955SOL    HW123501   2.108   3.020   1.931 -0.1169  0.1605 -0.0135
 3955SOL    HW223502   2.076   3.157   1.963 -0.0696  1.5367  2.4798
 3956SOL     OW23503   2.722   2.574   4.870  0.0802  0.3546 -0.0845
 3956SOL    HW123504   2.644   2.553   4.818  0.2490  1.8983 -0.9739
 3956SOL    HW223505   2.765   2.635   4.810 -3.3738  2.1304 -0.7666
 3957SOL     OW23506   1.349   4.497   3.960  0.0027  0.2813 -0.5307
 3957SOL    HW123507   1.259   4.466   3.968 -0.0749  0.6039 -0.1555
 3957SOL    HW223508   1.399   4.449   4.026 -1.6391  0.5463  0.8849
 3958SOL     OW23509   2.176   4.500  10.080 -0.3255 -0.0373  0.1632
 3958SOL    HW123510   2.252   4.453  10.114 -0.6164 -1.5194 -1.2276
 3958SOL    HW223511   2.171   4.447  10.000  0.0009  2.9843 -1.8725
 3959SOL     OW23512   1.401   1.187  10.020 -0.0243 -0.5798  0.0827
 3959SOL    HW123513   1.348   1.114  10.052 -1.9587  1.1073  0.7636
 3959SOL    HW223514   1.335   1.256  10.021 -2.0947 -2.5546 -1.7118
 3960SOL     OW23515   0.367   1.591  14.008  0.1492 -0.4767 -0.8700
 3960SOL    HW123516   0.377   1.496  14.015  0.3058 -0.3987 -0.0121
 3960SOL    HW223517   0.351   1.604  13.915 -4.0072 -0.3776 -0.1203
 3961SOL     OW23518   2.076   3.978   5.807 -0.7396 -0.4265  0.1819
 3961SOL    HW123519   1.985   3.973   5.778 -0.4172 -3.4241 -0.3535
 3961SOL    HW223520   2.111   4.003   5.721 -1.1685  0.9232  0.3912
 3962SOL     OW23521   3.812   2.104   4.901  0.1927  0.0587  0.2239
 3962SOL    HW123522   3.747   2.044   4.864 -0.3431  0.0623  1.1570
 3962SOL    HW223523   3.897   2.089   4.859  1.0615  1.1335  1.5843
 3963SOL     OW23524   2.098   2.134   9.470  0.2322  0.0858 -0.1038
 3963SOL    HW123525   2.092   2.161   9.562  0.0321 -0.4802  0.0484
 3963SOL    HW223526   2.183   2.167   9.441  0.0438  2.5255  2.1599
 3964SOL     OW23527   2.333   2.015  13.317  0.0241  0.1065  0.0637
 3964SOL    HW123528   2.425   2.007  13.343 -0.1535  1.0412  0.9694
 3964SOL    HW223529   2.344   1.999  13.223 -1.2417 -1.6439  0.2100
 3965SOL     OW23530   1.880   2.796   5.155 -0.7410  0.1567 -0.3892
 3965SOL    HW123531   1.890   2.751   5.239 -0.0355  0.7936 -0.1284
 3965SOL    HW223532   1.950   2.751   5.107  0.9941  1.5929  0.7878
 3966SOL     OW23533   0.184   0.711   8.995  0.3254  0.2403  0.2738
 3966SOL    HW123534   0.213   0.622   8.979  2.0853  0.4783  2.1270
 3966SOL    HW223535   0.089   0.705   8.990  0.5801 -1.2197 -2.6015
 3967SOL     OW23536   1.761   2.037  13.193  0.2049  0.0586 -0.3758
 3967SOL    HW123537   1.751   1.967  13.129  1.2728 -0.5967  0.1811
 3967SOL    HW223538   1.767   2.111  13.133  0.3538 -0.7849 -1.3909
 3968SOL     OW23539   4.286   1.494   6.018  0.3655  0.2959  0.3041
 3968SOL    HW123540   4.218   1.494   5.951  2.4900 -1.5910 -1.8570
 3968SOL    HW223541   4.252   1.429   6.080  0.1237  0.1663  0.0349
 3969SOL     OW23542   1.387   2.440   0.965 -0.4585  0.1384  0.1834
 3969SOL    HW123543   1.376   2.529   0.932 -1.7562  0.0890  0.4792
 3969SOL    HW223544   1.441   2.406   0.894  0.0946  1.7836 -0.1814
 3970SOL     OW23545   1.756   2.557   1.964  0.3603 -0.4162 -0.5371
 3970SOL    HW123546   1.674   2.565   2.011 -0.1400  2.2426 -1.9012
 3970SOL    HW223547   1.729   2.496   1.895  0.9064 -2.6828  1.2396
 3971SOL     OW23548   4.495   0.302   8.822  0.1698  0.2108  0.5780
 3971SOL    HW123549   4.555   0.356   8.770  1.5371  1.2159  3.2359
 3971SOL    HW223550   4.527   0.338   8.905 -1.4922  0.8113  0.9587
 3972SOL     OW23551   1.504   0.488   9.160 -0.8779 -0.2321  0.4002
 3972SOL    HW123552   1.470   0.443   9.083 -2.1233  2.9249 -0.9010
 3972SOL    HW223553   1.548   0.567   9.128 -0.7744 -0.0031  1.1096
 3973SOL     OW23554   2.425   1.544   4.451  0.1997 -0.6544 -0.6093
 3973SOL    HW123555   2.474   1.626   4.438  0.8459 -1.2520 -2.0116
 3973SOL    HW223556   2.369   1.534   4.374  0.7919 -0.6399 -1.0383
 3974SOL     OW23557   0.578   4.068   6.601  0.3088  0.2671 -0.1453
 3974SOL    HW123558   0.535   4.008   6.662  1.8182  0.1849  0.8225
 3974SOL    HW223559   0.530   4.049   6.520 -4.7322  0.1708  2.9069
 3975SOL     OW23560   1.262   3.503  16.592  0.1758 -0.3648 -0.2290
 3975SOL    HW123561   1.188   3.445  16.574 -0.0285 -0.2635  0.2806
 3975SOL    HW223562   1.317   3.484  16.516  0.8381 -1.6567  0.5771
 3976SOL     OW23563   1.328   3.279   7.228 -0.5227  0.2865 -0.0485
 3976SOL    HW123564   1.355   3.274   7.320 -0.0903  4.0623  0.0432
 3976SOL    HW223565   1.399   3.330   7.190  0.0109  0.2474  0.8900
 3977SOL     OW23566   4.618   1.597   5.686 -0.1800  0.2477  0.6631
 3977SOL    HW123567   4.599   1.545   5.763  2.5205 -1.4541  0.1800
 3977SOL    HW223568   4.553   1.666   5.698 -0.9082 -0.5775  1.4231
 3978SOL     OW23569   3.451   0.487  12.598  0.0611  0.0055 -0.0110
 3978SOL    HW123570   3.355   0.484  12.594  0.0432  1.3328 -0.3311
 3978SOL    HW223571   3.463   0.410  12.653 -0.8528 -0.3572 -0.3139
 3979SOL     OW23572   2.621   3.878   6.196  0.3949 -0.2687 -0.2923
 3979SOL    HW123573   2.567   3.831   6.132  1.8146 -0.1923 -1.5615
 3979SOL    HW223574   2.640   3.955   6.142 -0.5024  1.3040  1.6319
 3980SOL     OW23575   3.749   2.077  12.061 -0.0593  0.1179  0.5278
 3980SOL    HW123576   3.670   2.107  12.016  0.6759  0.1779 -0.7430
 3980SOL    HW223577   3.768   2.137  12.132 -1.3066 -1.3394  2.1025
 3981SOL     OW23578   1.972   2.307   7.342 -0.6565  0.1332 -0.1775
 3981SOL    HW123579   1.993   2.251   7.417 -1.8245 -1.3329 -0.9363
 3981SOL    HW223580   1.896   2.353   7.376 -2.2649 -1.5093 -1.5361
 3982SOL     OW23581   3.445   2.688   0.992  0.5433  0.6873 -0.4911
 3982SOL    HW123582   3.400   2.770   0.971  0.1598  0.4416 -0.6309
 3982SOL    HW223583   3.403   2.624   0.935 -1.8307  0.7856  1.1699
 3983SOL     OW23584   4.640   3.394   2.662  0.1678 -0.1660  0.5432
 3983SOL    HW123585   4.641   3.445   2.743  1.9371  0.5549  0.0884
 3983SOL    HW223586   4.694   3.318   2.685  2.2073  0.8585 -0.8998
 3984SOL     OW23587   0.376   2.659   8.176  0.8429  0.2092 -0.2178
 3984SOL    HW123588   0.351   2.743   8.139  1.1303  0.7608  0.8462
 3984SOL    HW223589   0.296   2.608   8.160  0.7650  0.7170 -1.4420
 3985SOL     OW23590   1.068   2.547  16.625  0.0735 -0.2147  0.7394
 3985SOL    HW123591   1.088   2.622  16.680 -1.0429  0.8221 -0.2659
 3985SOL    HW223592   0.977   2.530  16.650  0.4253 -2.9020  0.2525
 3986SOL     OW23593   0.751   3.092   3.509 -0.3341  0.3655 -0.0160
 3986SOL    HW123594   0.788   3.122   3.592  2.2743 -0.0406 -1.0390
 3986SOL    HW223595   0.759   3.159   3.441  1.6922 -0.8492 -0.9522
 3987SOL     OW23596   0.758   3.502   4.795  0.6004  0.1854 -0.0034
 3987SOL    HW123597   0.731   3.560   4.724 -0.7679  0.0418  0.4043
 3987SOL    HW223598   0.681   3.504   4.851  0.4558 -3.0997 -0.1070
 3988SOL     OW23599   3.051   2.352   2.780 -0.5176 -0.5748 -0.0925
 3988SOL    HW123600   3.094   2.428   2.742 -3.1693  0.4628 -1.0351
 3988SOL    HW223601   3.081   2.279   2.726 -0.0564  0.5350 -1.3227
 3989SOL     OW23602   4.164   1.870  16.935  0.1622  0.2139 -0.1382
 3989SOL    HW123603   4.112   1.884  17.015  0.6297  0.3261  0.1433
 3989SOL    HW223604   4.148   1.955  16.893  0.2982  1.3006  1.9809
 3990SOL     OW23605   4.694   3.736   2.622 -0.2026  0.4021  0.1355
 3990SOL    HW123606   0.013   3.781   2.561 -0.3930 -0.0171 -0.3551
 3990SOL    HW223607   4.635   3.695   2.559 -0.2144  1.3789 -0.4960
 3991SOL     OW23608   0.381   4.085   8.150 -0.3207 -0.4088  0.0770
 3991SOL    HW123609   0.475   4.071   8.142 -0.5208 -1.0338 -1.1178
 3991SOL    HW223610   0.351   3.998   8.125  0.6180 -0.4465 -0.8940
 3992SOL     OW23611   3.007   0.925   6.700  0.3363 -0.1323 -0.1426
 3992SOL    HW123612   3.035   0.850   6.647  0.0492 -0.2840 -0.0788
 3992SOL    HW223613   3.006   0.994   6.634  1.6413 -0.9138 -0.9915
 3993SOL     OW23614   2.090   2.653  15.752  0.0692  0.1835  0.2560
 3993SOL    HW123615   2.099   2.695  15.666 -2.2111  1.4969  0.6465
 3993SOL    HW223616   2.103   2.735  15.800 -2.6637  0.1277  1.1161
 3994SOL     OW23617   2.042   0.269  11.494 -0.3878  0.6889 -0.6475
 3994SOL    HW123618   2.077   0.358  11.502  0.5944 -0.1276  4.0555
 3994SOL    HW223619   2.123   0.227  11.521 -1.0869 -1.3457 -1.6676
 3995SOL     OW23620   1.954   2.480  14.899 -0.2552  0.2371 -0.1768
 3995SOL    HW123621   1.929   2.562  14.856 -0.7375 -0.8463 -1.9832
 3995SOL    HW223622   1.881   2.426  14.870 -0.9829  1.7058 -1.0594
 3996SOL     OW23623   4.229   2.823   8.477  0.4738  0.0052 -0.3501
 3996SOL    HW123624   4.312   2.864   8.452 -0.1956  1.5750 -0.0086
 3996SOL    HW223625   4.168   2.873   8.423  0.4895 -2.7083 -2.8640
 3997SOL     OW23626   1.604   1.814   5.675  0.3306  0.0947 -0.3284
 3997SOL    HW123627   1.572   1.895   5.714 -0.9089  0.0157 -1.1825
 3997SOL    HW223628   1.622   1.755   5.748 -2.1515 -0.5220 -0.2101
 3998SOL     OW23629   1.074   4.408  15.913  0.0674  0.5181  0.2702
 3998SOL    HW123630   1.076   4.344  15.842  0.2165  1.0412 -0.1946
 3998SOL    HW223631   1.152   4.385  15.964  1.2537  0.9194 -1.3713
 3999SOL     OW23632   1.252   2.385   5.305 -0.2507 -0.0001 -0.1613
 3999SOL    HW123633   1.219   2.447   5.369  1.4512 -0.1380  0.8452
 3999SOL    HW223634   1.345   2.404   5.317 -0.7392  1.6144  0.9566
 4000SOL     OW23635   3.662   2.022   5.933 -0.0849  0.1880 -0.3967
 4000SOL    HW123636   3.588   2.080   5.951  0.5787  1.3607 -1.4423
 4000SOL    HW223637   3.628   1.933   5.946 -0.8922  0.8026  1.7038
 4001SOL     OW23638   3.428   4.160   2.986  0.1590 -0.3867 -0.0591
 4001SOL    HW123639   3.450   4.137   3.077 -0.7547  0.2216  0.3146
 4001SOL    HW223640   3.487   4.108   2.932 -2.6521 -0.5278 -2.9748
 4002SOL     OW23641   3.610   4.210  17.394 -0.3387  0.5421  0.2271
 4002SOL    HW123642   3.676   4.211  17.324  0.9132 -0.4850  1.3853
 4002SOL    HW223643   3.555   4.283  17.367 -0.7142  0.3654  0.5253
 4003SOL     OW23644   2.083   4.200  10.292 -0.2488  0.0973 -0.1813
 4003SOL    HW123645   2.145   4.251  10.240 -0.9684 -0.4337 -1.5594
 4003SOL    HW223646   2.101   4.108  10.270  1.9884  0.1156  1.5605
 4004SOL     OW23647   0.530   1.158   6.697  0.2308  0.1311 -0.1008
 4004SOL    HW123648   0.587   1.162   6.621 -1.7582  1.3761 -1.5086
 4004SOL    HW223649   0.550   1.241   6.740 -1.2608  0.0742  0.7130
 4005SOL     OW23650   3.651   2.878   3.333 -0.3831 -0.1810  0.5448
 4005SOL    HW123651   3.591   2.946   3.363 -1.6188 -0.9607 -0.1626
 4005SOL    HW223652   3.597   2.832   3.269  0.0051  0.0762  0.0337
 4006SOL     OW23653   0.189   4.625   1.265 -0.2565 -0.0704 -0.2183
 4006SOL    HW123654   0.124   4.693   1.284 -0.6226 -0.4164 -0.2273
 4006SOL    HW223655   0.199   4.598   1.356 -2.6939 -1.4431 -0.3287
 4007SOL     OW23656   2.813   0.285  17.257  0.1685 -0.3176  0.3402
 4007SOL    HW123657   2.878   0.312  17.322  0.9570  0.2893 -0.6951
 4007SOL    HW223658   2.761   0.361  17.232 -0.3329 -0.6313  0.4307
 4008SOL     OW23659   2.009   1.330   7.979  0.0562  0.4662  0.6156
 4008SOL    HW123660   2.039   1.421   7.982  3.6295 -0.7100  0.2766
 4008SOL    HW223661   1.980   1.329   7.888  2.9344 -0.0132 -0.3080
 4009SOL     OW23662   2.204   1.950   6.554 -0.0202  0.8191 -0.1306
 4009SOL    HW123663   2.245   1.896   6.621  1.0582  0.3007 -1.1986
 4009SOL    HW223664   2.275   2.013   6.545  2.9851 -2.7191 -1.2030
 4010SOL     OW23665   3.667   4.342   6.825 -0.2624 -0.3400  0.1199
 4010SOL    HW123666   3.709   4.264   6.860 -1.9856 -1.4723 -0.2990
 4010SOL    HW223667   3.684   4.403   6.896  1.9589 -1.4786  0.5525
 4011SOL     OW23668   2.715   2.052  15.834 -0.3589 -0.3360 -0.1182
 4011SOL    HW123669   2.733   1.958  15.827  1.2945 -0.1149  1.0947
 4011SOL    HW223670   2.625   2.051  15.801  0.1095  1.3507 -1.3937
 4012SOL     OW23671   2.907   3.127   7.036  0.6540  0.1819 -0.1439
 4012SOL    HW123672   2.879   3.206   7.081 -1.7502 -0.7610  0.0388
 4012SOL    HW223673   2.852   3.131   6.958  1.7633 -0.4770 -0.9650
 4013SOL     OW23674   1.229   0.813   4.493  0.5417  0.1660 -0.2115
 4013SOL    HW123675   1.292   0.883   4.475 -1.7887  1.7943 -1.9580
 4013SOL    HW223676   1.202   0.797   4.402 -0.0747 -0.0671  0.0137
 4014SOL     OW23677   2.243   2.456   8.092 -0.7265  0.0410  0.0278
 4014SOL    HW123678   2.329   2.496   8.084 -0.2646 -0.7757  0.9228
 4014SOL    HW223679   2.218   2.470   8.183 -1.3430 -3.4745  0.3933
 4015SOL     OW23680   0.525   3.785   7.946  0.7957  0.2082 -0.7653
 4015SOL    HW123681   0.539   3.702   7.900 -0.0695 -1.1633  1.4570
 4015SOL    HW223682   0.615   3.799   7.975  1.0117 -3.3260  0.2517
 4016SOL     OW23683   0.834   4.126  14.583  0.4667  0.2841 -0.1359
 4016SOL    HW123684   0.751   4.153  14.622  0.7506  2.7676 -1.2762
 4016SOL    HW223685   0.901   4.177  14.629 -0.9497  0.5834  1.5829
 4017SOL     OW23686   0.761   2.297  14.253  0.1493 -0.0564 -0.4343
 4017SOL    HW123687   0.786   2.334  14.338  2.9329 -0.6329 -1.0006
 4017SOL    HW223688   0.735   2.210  14.284 -0.1151  0.4431  0.7745
 4018SOL     OW23689   0.911   3.811   2.790  0.0318 -0.2083 -0.2985
 4018SOL    HW123690   0.872   3.875   2.850  2.0845  0.8430 -0.0842
 4018SOL    HW223691   0.883   3.738   2.844 -1.2072 -0.0121 -0.6617
 4019SOL     OW23692   4.040   4.464   3.784  0.6970  0.1279  0.0735
 4019SOL    HW123693   3.975   4.442   3.851  1.8058  0.7414  1.3462
 4019SOL    HW223694   3.988   4.457   3.703 -1.3266 -1.6771  1.5194
 4020SOL     OW23695   2.653   2.554   9.569 -0.2844 -0.2918 -0.6499
 4020SOL    HW123696   2.674   2.555   9.476 -0.0561  0.2246 -0.5916
 4020SOL    HW223697   2.585   2.486   9.566  0.0527 -0.5502 -2.2270
 4021SOL     OW23698   0.470   3.044  11.864 -0.1000 -0.1653 -0.4677
 4021SOL    HW123699   0.468   3.052  11.959 -3.4772 -0.6378 -0.5009
 4021SOL    HW223700   0.406   2.974  11.855  1.0855 -1.3469  0.4402
 4022SOL     OW23701   2.519   0.720   0.110  0.2869  0.1218  1.2156
 4022SOL    HW123702   2.440   0.762   0.143  0.8323  1.6291  0.6330
 4022SOL    HW223703   2.568   0.795   0.075 -0.0972 -0.6437 -0.9719
 4023SOL     OW23704   3.198   2.479  10.834 -0.8021 -0.0905 -0.1204
 4023SOL    HW123705   3.231   2.554  10.882 -0.7431 -0.5408  0.5488
 4023SOL    HW223706   3.225   2.419  10.903  2.9939  1.4916 -0.2492
 4024SOL     OW23707   1.011   1.793  14.535  0.0954  0.3161  0.7157
 4024SOL    HW123708   1.045   1.878  14.510  0.4379 -0.1022 -0.2310
 4024SOL    HW223709   1.081   1.754  14.483 -0.5512 -0.0631  0.1265
 4025SOL     OW23710   0.746   4.179   8.386  0.4390 -0.0620  0.6221
 4025SOL    HW123711   0.794   4.165   8.467 -2.0826 -1.7085  1.8585
 4025SOL    HW223712   0.724   4.272   8.387 -2.9259 -0.8048 -1.7527
 4026SOL     OW23713   3.979   4.544   7.607  0.5606  0.2035 -0.7702
 4026SOL    HW123714   4.060   4.498   7.626 -0.4520 -1.0823  0.4200
 4026SOL    HW223715   3.928   4.469   7.577  0.3035 -0.0375  0.2869
 4027SOL     OW23716   2.175   1.357   8.454  0.5465 -0.0063 -0.1259
 4027SOL    HW123717   2.209   1.276   8.491  0.6233  0.6031  1.1529
 4027SOL    HW223718   2.238   1.365   8.382 -0.8910 -0.4337 -1.4422
 4028SOL     OW23719   1.319   2.793   6.264 -0.3373  0.2260 -0.3933
 4028SOL    HW123720   1.363   2.714   6.296 -1.8673 -0.3673  0.2461
 4028SOL    HW223721   1.370   2.797   6.183 -0.6370  0.7120 -0.5557
 4029SOL     OW23722   1.861   3.980  15.605 -0.2808 -0.3846  0.6506
 4029SOL    HW123723   1.771   3.946  15.610 -0.2187 -0.6792 -0.1581
 4029SOL    HW223724   1.895   3.914  15.545 -1.9474 -1.8680  1.3216
 4030SOL     OW23725   2.832   4.503  14.352 -0.1141 -0.7328 -0.3767
 4030SOL    HW123726   2.771   4.469  14.286 -1.0954 -1.1678  0.7630
 4030SOL    HW223727   2.904   4.511  14.289 -0.7536  0.3504 -0.9693
 4031SOL     OW23728   0.538   0.420  10.527  0.1941 -0.3965  0.3952
 4031SOL    HW123729   0.559   0.489  10.590 -2.6925  0.4479  0.4352
 4031SOL    HW223730   0.447   0.403  10.552 -0.1630  1.0390  0.0414
 4032SOL     OW23731   2.561   0.419   5.761  0.1063  0.1430  0.0896
 4032SOL    HW123732   2.574   0.356   5.689  1.2753  0.8888 -0.3629
 4032SOL    HW223733   2.485   0.466   5.727  0.0964  1.1856  1.5900
 4033SOL     OW23734   0.462   0.736   3.502  0.1817  0.0747 -0.4238
 4033SOL    HW123735   0.472   0.755   3.596  0.0919  0.1639 -0.4317
 4033SOL    HW223736   0.434   0.823   3.475  0.6896 -0.4424 -2.6299
 4034SOL     OW23737   0.076   1.297  16.015  0.0702  0.4989  0.4263
 4034SOL    HW123738   0.042   1.299  16.105  1.1622  0.1884  0.8509
 4034SOL    HW223739   4.735   1.315  15.968 -0.9600 -2.1056  1.2026
 4035SOL     OW23740   3.841   1.465   5.202  0.1224  0.0257  0.1964
 4035SOL    HW123741   3.757   1.509   5.192 -0.6442 -1.4852 -0.0886
 4035SOL    HW223742   3.889   1.507   5.130  2.8890 -1.7072  1.0016
 4036SOL     OW23743   0.989   1.904   2.107 -0.6485  0.2512  0.2382
 4036SOL    HW123744   1.006   1.987   2.150  0.8416  1.0661 -1.8979
 4036SOL    HW223745   0.971   1.935   2.018 -1.8288  0.5182  0.5715
 4037SOL     OW23746   1.433   0.928  11.471 -0.0432  0.0423  0.2177
 4037SOL    HW123747   1.390   0.969  11.396  2.2257 -0.0010 -1.1030
 4037SOL    HW223748   1.488   0.995  11.511 -0.2566 -0.9990  2.2627
 4038SOL     OW23749   1.890   2.612   8.314  0.1194  0.1241 -0.2076
 4038SOL    HW123750   1.881   2.635   8.221 -0.5985 -2.5550 -0.7921
 4038SOL    HW223751   1.806   2.568   8.328  0.3703 -1.3177 -3.1650
 4039SOL     OW23752   1.005   0.838  14.324 -0.0356  0.0370  0.5490
 4039SOL    HW123753   1.028   0.745  14.326  1.1668  0.3568  1.2467
 4039SOL    HW223754   0.913   0.830  14.299  0.3371 -0.2317 -0.7418
 4040SOL     OW23755   3.046   1.351   4.309 -0.1627 -0.2245  0.2069
 4040SOL    HW123756   3.101   1.273   4.305  1.2893  0.7396  1.2182
 4040SOL    HW223757   2.960   1.309   4.313  1.8685 -4.7448 -3.4701
 4041SOL     OW23758   0.862   1.124   8.152 -0.2438  0.3901 -0.7484
 4041SOL    HW123759   0.797   1.194   8.154 -0.8567 -0.2495  1.4151
 4041SOL    HW223760   0.828   1.065   8.084 -0.9390 -1.7270  1.4371
 4042SOL     OW23761   4.070   1.486  17.705 -0.0355 -0.0596 -0.5905
 4042SOL    HW123762   4.116   1.485  17.621  1.7623 -2.0594  0.4179
 4042SOL    HW223763   4.012   1.560  17.687 -2.1896 -2.0125 -1.5798
 4043SOL     OW23764   2.113   4.201  11.802 -0.6208 -0.1545  0.6120
 4043SOL    HW123765   2.025   4.230  11.778  0.3257  1.1011 -1.3311
 4043SOL    HW223766   2.164   4.281  11.793 -0.4589 -0.3817 -0.6127
 4044SOL     OW23767   1.860   2.236   4.543 -0.3375  0.0560  0.0610
 4044SOL    HW123768   1.923   2.302   4.517  0.4048 -1.6203 -2.3507
 4044SOL    HW223769   1.802   2.241   4.467  0.7463 -1.6458 -0.8800
 4045SOL     OW23770   1.339   4.091   8.002  0.1622 -0.2406 -0.2908
 4045SOL    HW123771   1.257   4.118   7.961 -0.0843  2.4755  2.0246
 4045SOL    HW223772   1.395   4.168   8.007 -0.1786  0.0350 -0.7082
 4046SOL     OW23773   1.584   0.487   4.798 -0.1817 -0.5899 -0.4741
 4046SOL    HW123774   1.559   0.568   4.755 -1.3829  0.2639  1.8027
 4046SOL    HW223775   1.505   0.433   4.791 -1.7049  1.6175 -0.1333
 4047SOL     OW23776   0.928   0.105   7.675  0.0001 -0.0032  0.3335
 4047SOL    HW123777   0.973   0.118   7.592 -1.2659 -1.7522 -0.6260
 4047SOL    HW223778   0.875   0.184   7.685  1.1609  0.8773 -0.5003
 4048SOL     OW23779   1.395   4.528  14.644  0.0822  0.5272  0.3287
 4048SOL    HW123780   1.480   4.485  14.632  0.4692  1.0001  1.4022
 4048SOL    HW223781   1.412   4.604  14.700  0.4251  1.2635 -0.7568
 4049SOL     OW23782   2.563   2.965  14.013  0.4464  0.4629 -0.4513
 4049SOL    HW123783   2.561   2.930  13.924  3.2544  1.4518 -0.9121
 4049SOL    HW223784   2.586   2.880  14.051  2.5222  0.6523 -1.2850
 4050SOL     OW23785   3.357   2.801   4.759 -0.1740  0.4255 -0.0450
 4050SOL    HW123786   3.451   2.800   4.741 -0.2616 -2.9697 -0.2586
 4050SOL    HW223787   3.318   2.852   4.688 -0.5159 -0.3168 -0.3894
 4051SOL     OW23788   3.228   2.904  15.862  0.4380 -0.0949 -0.3462
 4051SOL    HW123789   3.153   2.887  15.805 -0.9085 -2.0238  2.0400
 4051SOL    HW223790   3.187   2.976  15.909  1.7451  0.8429 -0.6392
 4052SOL     OW23791   0.157   3.238   8.208  0.2477 -0.1753  0.1453
 4052SOL    HW123792   0.203   3.228   8.124  0.7367  1.3124  0.2287
 4052SOL    HW223793   0.145   3.333   8.215  1.4652  0.0170 -0.2906
 4053SOL     OW23794   1.061   0.597   5.422 -0.0367 -0.0695  0.0029
 4053SOL    HW123795   1.066   0.672   5.362 -1.0390 -0.1937 -0.2377
 4053SOL    HW223796   1.147   0.555   5.413 -0.6350 -1.0934 -0.9534
 4054SOL     OW23797   0.850   0.704   4.440 -0.1805 -0.4033  0.0942
 4054SOL    HW123798   0.897   0.623   4.424  0.3032  0.3754 -2.5214
 4054SOL    HW223799   0.808   0.707   4.526  0.1040 -0.9892  0.2486
 4055SOL     OW23800   3.484   4.433   2.976 -0.2562  0.5738  0.2098
 4055SOL    HW123801   3.580   4.440   2.981 -0.1661  0.8203 -1.8103
 4055SOL    HW223802   3.471   4.338   2.969  0.6234  0.6909 -3.1435
 4056SOL     OW23803   2.356   0.278  15.015 -0.1621 -0.0317 -0.2180
 4056SOL    HW123804   2.298   0.296  15.089 -0.3362  2.7588 -1.0293
 4056SOL    HW223805   2.300   0.293  14.939  0.7244 -3.2735 -1.4946
 4057SOL     OW23806   4.670   2.743   9.296  0.0663 -0.0990  0.0846
 4057SOL    HW123807   4.628   2.689   9.229  0.5017  1.0467 -1.1246
 4057SOL    HW223808   0.004   2.687   9.321 -2.0109 -3.0166 -0.2644
 4058SOL     OW23809   3.124   2.195   4.388 -0.2985 -0.3000 -0.3163
 4058SOL    HW123810   3.059   2.141   4.433 -0.5255 -0.3730 -0.7298
 4058SOL    HW223811   3.201   2.141   4.404 -0.4417  0.2807  2.3587
 4059SOL     OW23812   2.965   3.935   6.566  0.1110 -0.3903 -0.2241
 4059SOL    HW123813   2.900   3.963   6.500  1.0437 -1.5881 -1.6446
 4059SOL    HW223814   2.995   4.022   6.592  0.5529 -0.1639 -1.5049
 4060SOL     OW23815   4.388   1.174  15.128  0.1464  0.4582  0.1317
 4060SOL    HW123816   4.355   1.186  15.039  0.0668 -1.3086 -0.0824
 4060SOL    HW223817   4.465   1.229  15.117  0.7654 -1.0085 -2.8759
 4061SOL     OW23818   0.375   2.545  11.150 -0.0881  0.8355  0.8333
 4061SOL    HW123819   0.288   2.581  11.171 -0.3342 -0.5182  2.1210
 4061SOL    HW223820   0.412   2.633  11.155  2.2871  0.0110 -2.4652
 4062SOL     OW23821   1.892   0.071  11.366 -0.3051  0.5898 -0.3911
 4062SOL    HW123822   1.833   0.138  11.331 -2.9178 -2.6785 -2.2058
 4062SOL    HW223823   1.937   0.128  11.428 -0.8054  0.8329 -0.2531
 4063SOL     OW23824   3.922   1.971   3.810 -0.4316  0.4895 -0.1055
 4063SOL    HW123825   3.844   1.995   3.761 -0.9435 -0.7150  0.1099
 4063SOL    HW223826   3.995   2.016   3.768 -1.1058  1.5260 -0.1510
 4064SOL     OW23827   0.111   2.661  12.681  0.4539  0.0488 -0.3358
 4064SOL    HW123828   0.173   2.588  12.674 -0.1405 -0.5344  0.4790
 4064SOL    HW223829   0.076   2.654  12.770  2.0006 -2.2076  0.1255
 4065SOL     OW23830   3.505   2.944   2.568 -0.3866  0.4461  0.2855
 4065SOL    HW123831   3.546   3.015   2.618 -0.6316  0.0811  1.0020
 4065SOL    HW223832   3.511   2.969   2.476  4.1392 -0.5268  0.3090
 4066SOL     OW23833   1.846   2.102   2.619  0.3134 -0.7477 -0.4494
 4066SOL    HW123834   1.809   2.030   2.568  0.5863 -1.4312  0.3174
 4066SOL    HW223835   1.804   2.082   2.702  0.6214  1.8317  0.3173
 4067SOL     OW23836   3.832   4.644   2.161 -0.3164  0.6493  0.1554
 4067SOL    HW123837   3.808   4.704   2.232  0.6940 -0.3854  1.3754
 4067SOL    HW223838   3.753   4.591   2.159 -1.2795  2.1359 -0.9733
 4068SOL     OW23839   0.064   3.201   1.232 -0.1742 -0.1880  0.2790
 4068SOL    HW123840   0.032   3.121   1.190 -0.7132 -0.3209  0.9490
 4068SOL    HW223841   0.114   3.154   1.298 -1.3453 -0.2562  1.0993
 4069SOL     OW23842   4.083   0.803   4.582  0.4676  0.4997  0.6773
 4069SOL    HW123843   4.049   0.787   4.671 -1.6014  0.1055 -0.1698
 4069SOL    HW223844   4.167   0.846   4.595  0.5831  1.2400 -2.6624
 4070SOL     OW23845   0.741   2.236   3.593  0.0105 -0.1219  0.0441
 4070SOL    HW123846   0.781   2.158   3.630 -0.0286 -0.1606  0.0062
 4070SOL    HW223847   0.759   2.211   3.502  0.0266 -2.8085  0.8120
 4071SOL     OW23848   1.060   3.451  15.519  0.1030 -0.4297  0.5925
 4071SOL    HW123849   1.037   3.538  15.550  2.8390  0.7098 -0.5739
 4071SOL    HW223850   1.073   3.472  15.427 -2.0197  0.7015  0.5694
 4072SOL     OW23851   1.802   3.447  16.672 -0.1951 -0.8332  0.3411
 4072SOL    HW123852   1.734   3.436  16.605  1.5356 -0.3266 -1.5070
 4072SOL    HW223853   1.868   3.473  16.608 -1.5396  0.9795 -0.3086
 4073SOL     OW23854   0.740   4.093   4.013  0.2154  0.0173  0.1424
 4073SOL    HW123855   0.659   4.140   4.033 -0.8715 -1.9515  0.3152
 4073SOL    HW223856   0.744   4.085   3.918 -0.1710  1.0849  0.0339
 4074SOL     OW23857   0.330   3.252   7.979 -0.6968  0.3463  0.4337
 4074SOL    HW123858   0.398   3.185   7.972 -2.0972 -0.7373 -2.8800
 4074SOL    HW223859   0.301   3.263   7.889 -0.4869  2.5489  0.6372
 4075SOL     OW23860   1.575   1.099  17.383 -0.0140 -1.1450  0.6403
 4075SOL    HW123861   1.665   1.130  17.380  0.4966 -2.2133  3.9247
 4075SOL    HW223862   1.544   1.138  17.302 -1.0652 -1.8138  0.7205
 4076SOL     OW23863   1.109   0.272   2.096 -0.2862 -0.0214 -0.5873
 4076SOL    HW123864   1.102   0.350   2.151  2.6853  1.3836 -2.2041
 4076SOL    HW223865   1.164   0.214   2.147 -0.5498 -0.8247 -1.2126
 4077SOL     OW23866   1.326   1.571   5.080 -0.4165  0.1680  0.3247
 4077SOL    HW123867   1.383   1.638   5.041  0.4133 -1.1116 -0.6491
 4077SOL    HW223868   1.276   1.615   5.149  2.7792  0.4101  2.4868
 4078SOL     OW23869   3.604   0.378   2.033  0.5159  0.4373  0.4011
 4078SOL    HW123870   3.577   0.296   1.993  0.1259  0.0584  1.4557
 4078SOL    HW223871   3.694   0.355   2.055 -0.0562  0.0131  2.2556
 4079SOL     OW23872   1.832   4.421  17.403  0.3710  0.1997 -0.5371
 4079SOL    HW123873   1.793   4.386  17.323 -0.7015 -0.7903  0.4194
 4079SOL    HW223874   1.787   4.368  17.468 -2.5169  1.2402 -1.7110
 4080SOL     OW23875   0.537   2.255   2.266  0.3676 -0.3298 -0.7729
 4080SOL    HW123876   0.572   2.216   2.346 -1.3110  0.2540  0.2393
 4080SOL    HW223877   0.508   2.182   2.212  0.4533 -0.1936 -1.0040
 4081SOL     OW23878   2.007   2.601  17.305 -0.1852 -0.6451 -0.4387
 4081SOL    HW123879   2.000   2.687  17.264 -1.7680  1.2791  3.8429
 4081SOL    HW223880   2.078   2.610  17.369  0.4733 -0.9178 -1.1325
 4082SOL     OW23881   2.228   1.399  12.451 -0.0820 -0.0161 -0.0156
 4082SOL    HW123882   2.318   1.398  12.419 -0.3947 -0.6518 -0.8681
 4082SOL    HW223883   2.239   1.311  12.489  2.5306 -0.2856 -1.3956
 4083SOL     OW23884   1.543   0.201   1.555 -0.4419  0.3117 -0.5282
 4083SOL    HW123885   1.503   0.142   1.619  0.2349  0.2358 -0.1783
 4083SOL    HW223886   1.462   0.210   1.505 -0.2488 -1.3907 -1.1536
 4084SOL     OW23887   1.821   0.441   4.530  0.2237  0.1950 -0.0809
 4084SOL    HW123888   1.727   0.431   4.545 -0.0025  0.0836 -1.5272
 4084SOL    HW223889   1.854   0.432   4.619  0.0255 -0.5342 -0.0764
 4085SOL     OW23890   1.701   3.404  14.177  0.0817  0.1522  0.1150
 4085SOL    HW123891   1.734   3.409  14.088 -1.2493  0.2814 -0.3820
 4085SOL    HW223892   1.659   3.318  14.185 -1.8581  1.1553  0.9659
 4086SOL     OW23893   0.941   1.101   2.920 -0.1726  0.0288  0.1699
 4086SOL    HW123894   0.954   1.142   2.834 -0.0327 -2.1705 -0.8888
 4086SOL    HW223895   1.031   1.098   2.952  0.2300  1.9631 -0.7991
 4087SOL     OW23896   3.230   0.822  11.436  0.2744  0.1276 -0.0240
 4087SOL    HW123897   3.195   0.869  11.511  0.4973 -0.8013  0.6575
 4087SOL    HW223898   3.190   0.735  11.442 -1.3383  0.8106 -0.8216
 4088SOL     OW23899   2.521   2.166  16.007 -0.3099  0.4504  0.4873
 4088SOL    HW123900   2.536   2.255  16.038 -0.7768  1.0617 -1.0291
 4088SOL    HW223901   2.604   2.141  15.967  0.6151 -1.6023  3.7748
 4089SOL     OW23902   2.250   2.452   7.058  0.2864 -0.2229  0.1301
 4089SOL    HW123903   2.171   2.409   7.026  0.3795 -1.0982  1.0918
 4089SOL    HW223904   2.235   2.464   7.152 -0.0394 -1.7980  0.2804
 4090SOL     OW23905   0.519   1.798   2.256  0.6319 -0.2543 -0.7040
 4090SOL    HW123906   0.515   1.707   2.288 -0.8450 -0.8823 -2.7211
 4090SOL    HW223907   0.611   1.814   2.277  0.6906 -0.0996 -1.0841
 4091SOL     OW23908   2.952   0.048   6.739  0.4100  0.3178 -0.3740
 4091SOL    HW123909   2.921   0.093   6.818 -2.8196  0.5655 -1.7486
 4091SOL    HW223910   3.010   4.716   6.763  1.1209  0.9182 -0.3154
 4092SOL     OW23911   2.637   0.376   8.638  0.0574 -0.7514  0.7322
 4092SOL    HW123912   2.696   0.306   8.664  1.3595 -0.1512 -0.5779
 4092SOL    HW223913   2.566   0.360   8.700 -0.8185  0.1076 -0.0446
 4093SOL     OW23914   1.551   1.955   3.158  0.1385  0.0654  0.0362
 4093SOL    HW123915   1.501   1.979   3.080  0.3303  2.7878  0.7675
 4093SOL    HW223916   1.634   2.003   3.152 -0.1870  0.3639 -2.2373
 4094SOL     OW23917   1.640   4.400  12.222  0.5487  0.2268  0.3140
 4094SOL    HW123918   1.545   4.413  12.219  0.3373 -1.2912  0.2139
 4094SOL    HW223919   1.635   4.316  12.176  1.7143  0.2140  0.2148
 4095SOL     OW23920   0.797   1.094   8.719 -0.0394  0.5770 -0.1365
 4095SOL    HW123921   0.826   1.035   8.649  2.4890 -0.0289  1.3906
 4095SOL    HW223922   0.852   1.070   8.794 -1.1665 -1.4148  0.0629
 4096SOL     OW23923   4.367   1.743  17.260  0.0351 -0.0717 -0.0806
 4096SOL    HW123924   4.306   1.670  17.267  0.3867 -0.4146 -0.5586
 4096SOL    HW223925   4.317   1.817  17.294  1.3161 -1.0763  3.9203
 4097SOL     OW23926   1.843   1.805   0.536  0.0656 -0.2259 -0.5638
 4097SOL    HW123927   1.850   1.799   0.631  1.9017  0.3472 -0.6535
 4097SOL    HW223928   1.786   1.882   0.533  0.4765  0.1253  0.7167
 4098SOL     OW23929   4.520   2.358   4.829 -0.1586  0.7118 -0.3437
 4098SOL    HW123930   4.570   2.353   4.910 -2.4535  0.8668  1.0686
 4098SOL    HW223931   4.433   2.345   4.867 -0.3483  0.2492 -0.9360
 4099SOL     OW23932   3.623   3.122   2.745  0.1388 -0.5310  0.0831
 4099SOL    HW123933   3.709   3.129   2.785 -1.3431  2.4433  2.6739
 4099SOL    HW223934   3.631   3.186   2.674 -2.5239  0.1326  0.3661
 4100SOL     OW23935   4.629   0.642  12.783  0.2230 -0.2445 -0.1110
 4100SOL    HW123936   4.663   0.668  12.869  0.3616 -0.6933 -0.0282
 4100SOL    HW223937   4.698   0.672  12.723  0.7322 -0.5183  0.3400
 4101SOL     OW23938   1.697   4.585   7.507 -0.5119  1.1061 -0.0035
 4101SOL    HW123939   1.712   4.494   7.531 -0.4215  0.6768 -1.7125
 4101SOL    HW223940   1.602   4.586   7.510 -0.4630 -0.4263  2.1969
 4102SOL     OW23941   4.063   2.224   6.140  0.5743  0.4755  0.5363
 4102SOL    HW123942   4.022   2.173   6.071 -1.5008  4.2585 -1.0533
 4102SOL    HW223943   4.132   2.263   6.086 -1.3955 -0.9901 -3.0257
 4103SOL     OW23944   3.058   2.322   3.603 -0.1172 -0.4206  0.4264
 4103SOL    HW123945   2.970   2.304   3.569 -0.5184  0.8282  0.8080
 4103SOL    HW223946   3.113   2.310   3.526 -3.7820 -0.6603 -2.1650
 4104SOL     OW23947   2.632   2.048  13.408  0.2977  0.4092  0.0997
 4104SOL    HW123948   2.717   2.058  13.451  0.7889  2.5688 -1.3953
 4104SOL    HW223949   2.621   1.954  13.423 -1.5973  1.0848  2.9810
 4105SOL     OW23950   0.880   1.362   6.972  0.3889 -0.0594  0.0453
 4105SOL    HW123951   0.917   1.437   7.018  2.4381 -0.4173 -1.0405
 4105SOL    HW223952   0.947   1.347   6.906  0.4077  1.1316 -0.2178
 4106SOL     OW23953   4.406   1.333   7.322 -0.0179  0.0338  0.0120
 4106SOL    HW123954   4.337   1.348   7.257  0.0211  3.3816  0.7366
 4106SOL    HW223955   4.435   1.422   7.343 -1.1348  0.1506  1.0102
 4107SOL     OW23956   4.131   4.609   5.899  0.5608 -0.5710  0.1634
 4107SOL    HW123957   4.182   4.537   5.861  1.5628 -0.7153  1.7619
 4107SOL    HW223958   4.174   4.608   5.985  2.2427  1.9749 -0.6380
 4108SOL     OW23959   3.753   2.440   6.055  0.0702  0.3799  0.3918
 4108SOL    HW123960   3.848   2.439   6.069  0.2194 -1.4596 -0.7480
 4108SOL    HW223961   3.750   2.452   5.960  2.8244 -2.3696 -0.0555
 4109SOL     OW23962   0.768   1.065   2.482  0.2856  0.1771 -0.5461
 4109SOL    HW123963   0.833   1.027   2.541 -0.4456  3.6501  2.4524
 4109SOL    HW223964   0.816   1.139   2.444  1.7458 -1.2443 -1.4896
 4110SOL     OW23965   0.989   3.883  12.236  0.2884 -0.2882  0.1964
 4110SOL    HW123966   0.938   3.840  12.168  0.6417  1.3298 -1.0863
 4110SOL    HW223967   0.945   3.967  12.249 -2.2637 -1.7242  0.8872
 4111SOL     OW23968   3.651   0.345   2.422  0.7889  0.2555  0.0162
 4111SOL    HW123969   3.625   0.382   2.338 -1.3819  0.7903  0.9300
 4111SOL    HW223970   3.598   0.405   2.474 -1.8036 -1.2480 -0.8561
 4112SOL     OW23971   4.331   1.375   3.375 -0.1622  0.2884 -0.1922
 4112SOL    HW123972   4.347   1.416   3.460  0.5034  0.9715 -0.6412
 4112SOL    HW223973   4.255   1.423   3.343 -1.2269 -1.6122 -0.5243
 4113SOL     OW23974   2.096   4.328   2.848 -0.0107  0.1920  0.0380
 4113SOL    HW123975   2.063   4.257   2.793  1.0368 -0.1531 -0.1414
 4113SOL    HW223976   2.081   4.401   2.788 -1.1156  0.4191  0.5830
 4114SOL     OW23977   2.774   1.232  14.567  0.1939 -0.6375 -0.1297
 4114SOL    HW123978   2.714   1.295  14.607 -0.4221 -0.8076 -0.7889
 4114SOL    HW223979   2.763   1.167  14.637  0.1654  0.4284  0.8687
 4115SOL     OW23980   1.071   4.282   1.565 -0.5583 -0.0650 -0.3061
 4115SOL    HW123981   1.159   4.280   1.602 -0.0725 -0.8286 -1.5103
 4115SOL    HW223982   1.043   4.200   1.604  2.1462  0.0433  1.8606
 4116SOL     OW23983   0.325   2.098   8.286 -0.7640  0.3701  0.6352
 4116SOL    HW123984   0.304   2.042   8.360 -1.5049  2.1835  1.8203
 4116SOL    HW223985   0.419   2.088   8.272 -0.8996  0.6526 -0.4538
 4117SOL     OW23986   0.374   0.880   8.330  0.5261 -0.2477  0.2017
 4117SOL    HW123987   0.407   0.915   8.413 -1.0849  0.4351  0.5406
 4117SOL    HW223988   0.400   0.957   8.280 -0.4335  0.0600  0.1843
 4118SOL     OW23989   2.151   0.720  17.221  0.9592 -0.2792 -0.4252
 4118SOL    HW123990   2.171   0.813  17.227 -1.1348  0.0740  1.1297
 4118SOL    HW223991   2.187   0.703  17.134 -3.0140 -3.1310 -1.5304
 4119SOL     OW23992   4.619   2.140   2.037 -0.8757  0.2985  0.3081
 4119SOL    HW123993   4.660   2.107   2.117 -0.8382  2.0608  1.0306
 4119SOL    HW223994   4.607   2.056   1.993 -2.2784  0.9805 -0.6371
 4120SOL     OW23995   3.307   0.236   7.251 -0.3334 -0.0189  0.2519
 4120SOL    HW123996   3.383   0.278   7.291  0.6702  1.4037 -3.1356
 4120SOL    HW223997   3.332   0.144   7.262  1.4691  0.8555  3.3726
 4121SOL     OW23998   2.977   3.417  16.569  0.1290  0.9280 -0.0382
 4121SOL    HW123999   2.930   3.386  16.646  0.0504 -2.8220 -1.6326
 4121SOL    HW224000   2.959   3.510  16.584 -2.0069  0.4015  0.6479
 4122SOL     OW24001   0.809   0.045   8.010 -0.2035 -0.0403  0.3386
 4122SOL    HW124002   0.748   4.725   7.968 -1.1988  2.4557 -1.7387
 4122SOL    HW224003   0.759   0.055   8.092 -0.4442 -0.9813  0.2992
 4123SOL     OW24004   1.424   1.492   4.847 -0.1159  0.1772  0.0597
 4123SOL    HW124005   1.414   1.486   4.942  2.8340  1.2604  0.4627
 4123SOL    HW224006   1.339   1.452   4.830 -1.2505  0.3989  4.9716
 4124SOL     OW24007   1.641   1.075   2.091  0.0812 -0.5270 -0.4277
 4124SOL    HW124008   1.602   1.021   2.160 -3.3516  1.3549 -0.9019
 4124SOL    HW224009   1.731   1.042   2.094  0.2144 -0.1002  0.1969
 4125SOL     OW24010   1.579   3.009  14.410 -0.5213 -0.3159  0.6047
 4125SOL    HW124011   1.580   3.061  14.330  0.5245 -1.0100  0.1619
 4125SOL    HW224012   1.487   2.994  14.432 -0.8351 -1.9334 -1.8119
 4126SOL     OW24013   4.582   2.593  12.614 -0.0012  0.5431 -0.0561
 4126SOL    HW124014   4.677   2.600  12.600 -0.0021 -1.2933 -0.9428
 4126SOL    HW224015   4.569   2.517  12.558  0.3216  0.2062  0.3194
 4127SOL     OW24016   4.437   1.470   3.921 -0.2629 -0.3471  0.2023
 4127SOL    HW124017   4.488   1.394   3.893 -1.7728 -0.4999 -2.0805
 4127SOL    HW224018   4.508   1.535   3.919  0.7961 -1.4662  0.9050
 4128SOL     OW24019   4.353   2.601   5.081 -0.1221 -0.3330 -0.1964
 4128SOL    HW124020   4.323   2.563   5.163  0.6571 -1.1298 -0.2803
 4128SOL    HW224021   4.449   2.600   5.090  0.0276 -0.1058 -1.7614
 4129SOL     OW24022   0.363   2.645   7.777  0.4963  0.0556 -0.0573
 4129SOL    HW124023   0.349   2.737   7.800 -3.8245 -0.3123 -1.2304
 4129SOL    HW224024   0.272   2.617   7.784  0.8790 -1.5393 -1.4369
 4130SOL     OW24025   0.717   4.437   5.522  0.7421 -0.6131  0.3348
 4130SOL    HW124026   0.663   4.475   5.591  0.0442 -0.0021 -0.5334
 4130SOL    HW224027   0.794   4.433   5.579  2.0694  1.3315 -1.2814
 4131SOL     OW24028   2.456   4.433   8.378 -0.4483 -0.1324 -0.7175
 4131SOL    HW124029   2.402   4.402   8.306 -1.3451 -0.3521  0.0522
 4131SOL    HW224030   2.413   4.383   8.448  0.0695 -0.0551 -0.3416
 4132SOL     OW24031   4.650   2.207   7.421 -0.0124 -0.2673 -0.4836
 4132SOL    HW124032   4.655   2.181   7.513  1.4314  1.2772 -0.1338
 4132SOL    HW224033   4.735   2.176   7.389 -0.6094 -0.4023 -1.9374
 4133SOL     OW24034   0.928   3.290   5.074 -0.7296  0.3505 -0.0215
 4133SOL    HW124035   1.001   3.246   5.116  0.5549  1.2219 -1.3393
 4133SOL    HW224036   0.936   3.278   4.980  0.3818 -3.0006  0.4954
 4134SOL     OW24037   1.408   1.278   7.518  0.2438  0.4290  0.0919
 4134SOL    HW124038   1.345   1.231   7.573  1.0346 -1.9732 -1.0644
 4134SOL    HW224039   1.488   1.274   7.570 -0.7262  0.2873  1.5588
 4135SOL     OW24040   3.344   3.001   0.397 -0.4738 -0.2745  0.2439
 4135SOL    HW124041   3.387   2.932   0.348 -0.3256 -0.6088  0.8424
 4135SOL    HW224042   3.344   3.069   0.330  1.7933  0.2013  0.7337
 4136SOL     OW24043   4.375   4.067   8.237 -0.0383 -0.4104  0.6223
 4136SOL    HW124044   4.340   4.137   8.291  0.5072  0.3953 -0.0682
 4136SOL    HW224045   4.378   4.107   8.150  1.3016 -2.0158 -0.0891
 4137SOL     OW24046   3.454   0.444  10.918 -0.5557  0.0241  0.2936
 4137SOL    HW124047   3.455   0.350  10.936 -1.9283  0.0843  0.6699
 4137SOL    HW224048   3.544   0.451  10.886 -0.6130 -0.1702  0.0889
 4138SOL     OW24049   1.310   4.416   6.041 -0.7753 -0.2250 -0.1479
 4138SOL    HW124050   1.357   4.333   6.035 -1.7064 -0.8742  1.5390
 4138SOL    HW224051   1.370   4.468   6.095  0.1874 -0.7234 -0.7478
 4139SOL     OW24052   1.551   0.286  14.736  0.3257  0.1220 -0.4513
 4139SOL    HW124053   1.456   0.301  14.737  0.4169  0.5692  2.5147
 4139SOL    HW224054   1.582   0.308  14.824 -0.8689 -1.5841  0.3983
 4140SOL     OW24055   0.591   4.706   4.905  0.9017  0.7168  0.3323
 4140SOL    HW124056   0.583   0.034   4.838 -0.8011  0.5584  0.3950
 4140SOL    HW224057   0.591   4.628   4.850  0.3805  1.5969 -0.9056
 4141SOL     OW24058   3.460   3.681   6.633  0.3077 -0.0432  0.3524
 4141SOL    HW124059   3.373   3.711   6.606  0.1335 -1.3720 -0.5601
 4141SOL    HW224060   3.448   3.588   6.617 -1.3494  0.0297  1.0707
 4142SOL     OW24061   1.241   1.178   7.286 -0.2693 -0.1274 -0.1841
 4142SOL    HW124062   1.308   1.202   7.350 -1.4139  3.1599 -0.2134
 4142SOL    HW224063   1.166   1.219   7.329 -0.3072  0.4263 -0.7693
 4143SOL     OW24064   3.196   3.760   6.566  0.2616 -0.1840  0.3179
 4143SOL    HW124065   3.124   3.822   6.562  0.5290  0.0794 -0.3515
 4143SOL    HW224066   3.167   3.701   6.497 -0.7139 -1.9002  2.1808
 4144SOL     OW24067   2.218   4.595  13.195 -0.6127 -0.4335 -0.7402
 4144SOL    HW124068   2.149   4.544  13.238 -1.1377 -0.4744 -1.6309
 4144SOL    HW224069   2.280   4.602  13.267 -0.1004 -3.8766 -0.8497
 4145SOL     OW24070   3.619   4.095   1.506  0.2680 -0.2652  0.0120
 4145SOL    HW124071   3.711   4.121   1.516  0.6251 -1.2276 -0.7346
 4145SOL    HW224072   3.597   4.122   1.417  0.8113  0.2202  0.0288
 4146SOL     OW24073   4.645   1.052   4.829  0.6366  0.2385 -0.5669
 4146SOL    HW124074   4.652   0.999   4.909 -2.2559 -1.4462 -1.4310
 4146SOL    HW224075   4.701   1.007   4.766 -0.3346 -3.5136  1.2128
 4147SOL     OW24076   1.455   2.845   2.002  0.4795 -0.1105 -0.7356
 4147SOL    HW124077   1.390   2.914   2.013  1.9351  1.0893  0.4087
 4147SOL    HW224078   1.406   2.781   2.053  1.7706  0.7163  1.5630
 4148SOL     OW24079   0.120   4.568   3.775 -0.5743 -0.0831  0.0839
 4148SOL    HW124080   0.046   4.564   3.835  0.2605  1.1124  1.1847
 4148SOL    HW224081   0.079   4.594   3.693 -0.0754 -2.0332 -0.7953
 4149SOL     OW24082   0.687   3.065  16.826  0.0005  0.0141 -0.6757
 4149SOL    HW124083   0.594   3.081  16.814  0.1775  2.4957  1.2645
 4149SOL    HW224084   0.718   3.148  16.863 -0.3919 -0.0924 -0.1059
 4150SOL     OW24085   1.293   0.703   3.769  0.1701  0.1716  0.2094
 4150SOL    HW124086   1.263   0.783   3.811 -0.2230  1.6390 -2.8469
 4150SOL    HW224087   1.265   0.633   3.828 -0.1173  0.4057  0.3507
 4151SOL     OW24088   2.756   0.570   0.257  0.2655 -0.4111  0.6113
 4151SOL    HW124089   2.738   0.519   0.336  0.6750  0.4861  1.2874
 4151SOL    HW224090   2.682   0.628   0.243  0.7773  0.1673  0.2664
 4152SOL     OW24091   1.662   3.279  11.417 -0.1196 -0.6633 -0.4888
 4152SOL    HW124092   1.644   3.367  11.449 -0.3295 -0.6110 -0.7532
 4152SOL    HW224093   1.613   3.296  11.337  0.1853 -0.7102 -0.6868
 4153SOL     OW24094   2.622   2.426  16.072  0.0979  0.2070 -0.0470
 4153SOL    HW124095   2.673   2.502  16.101 -2.2939  1.4740  0.9323
 4153SOL    HW224096   2.624   2.454  15.981 -0.0474 -0.3583 -0.2194
 4154SOL     OW24097   3.126   0.634   4.712 -0.1943 -0.2252 -0.5358
 4154SOL    HW124098   3.197   0.592   4.663 -1.3999 -0.4161 -2.1063
 4154SOL    HW224099   3.155   0.725   4.712  0.0711 -0.3110 -0.5616
 4155SOL     OW24100   0.366   4.207   3.204  0.0888  0.3610  0.0256
 4155SOL    HW124101   0.453   4.244   3.217 -0.2584  0.3558  2.4355
 4155SOL    HW224102   0.362   4.151   3.282  0.0287 -0.5522 -0.6340
 4156SOL     OW24103   2.955   2.398   3.302  0.7486 -0.0513 -0.7007
 4156SOL    HW124104   2.986   2.403   3.212 -1.0637 -2.0619 -1.4304
 4156SOL    HW224105   3.041   2.382   3.342 -1.0063 -1.7898  2.4619
 4157SOL     OW24106   1.786   1.897   2.873  0.1755 -0.1555 -0.3405
 4157SOL    HW124107   1.717   1.964   2.872  1.1554  0.8877  1.1303
 4157SOL    HW224108   1.726   1.823   2.864  0.6570 -0.2996 -2.2863
 4158SOL     OW24109   1.257   0.400   5.344 -0.2083  0.4546 -0.0910
 4158SOL    HW124110   1.253   0.434   5.255  0.1414  0.0388 -0.2653
 4158SOL    HW224111   1.198   0.324   5.347  0.2146  0.0492 -2.4471
 4159SOL     OW24112   1.275   1.891  17.168 -0.5238  0.4136 -0.2733
 4159SOL    HW124113   1.301   1.983  17.162  1.8892 -0.2447  0.1146
 4159SOL    HW224114   1.192   1.900  17.121 -1.7680 -2.3605  1.3780
 4160SOL     OW24115   1.716   0.917  10.570 -0.1823 -0.8172  0.1061
 4160SOL    HW124116   1.671   0.997  10.598  0.0661 -0.6716  0.0902
 4160SOL    HW224117   1.806   0.937  10.595  0.2936 -0.8286 -1.5482
 4161SOL     OW24118   2.092   1.291   9.360  0.1806 -0.0278 -0.4430
 4161SOL    HW124119   2.022   1.338   9.316  0.0633 -0.1362 -0.3717
 4161SOL    HW224120   2.137   1.364   9.402  1.2052  0.2539 -2.0364
 4162SOL     OW24121   2.539   3.832   2.614 -0.2363  0.5541  0.2350
 4162SOL    HW124122   2.584   3.774   2.553  3.1812  1.2042  2.1137
 4162SOL    HW224123   2.465   3.869   2.566 -0.3343  1.3745  1.0254
 4163SOL     OW24124   1.328   1.162   2.415  0.0673 -0.0148 -0.0643
 4163SOL    HW124125   1.415   1.149   2.452 -0.0661  0.1170  0.2979
 4163SOL    HW224126   1.340   1.190   2.324  1.1455 -0.0576  0.0662
 4164SOL     OW24127   0.301   1.065   4.920  0.2441 -0.3600  0.1005
 4164SOL    HW124128   0.321   1.083   4.828  0.5874 -0.7689  0.0994
 4164SOL    HW224129   0.213   1.027   4.922 -0.3516  1.0013 -0.3346
 4165SOL     OW24130   4.672   2.299   6.518  0.7831 -0.4725 -0.2861
 4165SOL    HW124131   4.579   2.317   6.504  1.3159  0.9296 -2.1157
 4165SOL    HW224132   4.657   2.236   6.589  1.4520 -0.0818  0.1912
 4166SOL     OW24133   2.305   3.433   6.197 -0.3468 -0.6197  1.1687
 4166SOL    HW124134   2.219   3.441   6.154  0.5252 -2.5061 -0.8818
 4166SOL    HW224135   2.365   3.446   6.123 -2.1125 -0.2479 -0.2075
 4167SOL     OW24136   1.250   2.067  16.218 -0.1082 -0.3920 -0.6118
 4167SOL    HW124137   1.258   2.109  16.133  0.9598  3.1850  1.2633
 4167SOL    HW224138   1.334   2.063  16.264 -1.1457  0.8811  1.4161
 4168SOL     OW24139   1.156   0.312  15.789 -0.1903  0.5451 -0.0632
 4168SOL    HW124140   1.137   0.309  15.882 -1.2986  3.0100 -0.2181
 4168SOL    HW224141   1.224   0.379  15.784  0.6335 -0.2416  0.6273
 4169SOL     OW24142   0.033   0.031   6.178  0.2140  0.1051 -0.5150
 4169SOL    HW124143   0.054   0.001   6.089 -1.4214 -0.4299 -0.7158
 4169SOL    HW224144   4.690   4.726   6.194  0.1277  0.3088 -0.3869
 4170SOL     OW24145   4.566   1.845  13.371 -0.0783 -0.1436  0.6743
 4170SOL    HW124146   4.500   1.847  13.440 -0.6625  1.1294  0.0846
 4170SOL    HW224147   4.597   1.755  13.375 -0.3888 -0.2837 -0.0053
 4171SOL     OW24148   2.901   1.944   7.074  0.2268  0.3440  0.2879
 4171SOL    HW124149   2.937   1.879   7.135  0.2803  0.2104  0.1146
 4171SOL    HW224150   2.939   2.024   7.111  2.5316 -0.1014 -1.1070
 4172SOL     OW24151   0.047   0.099   1.740 -0.3935 -0.0241 -0.2003
 4172SOL    HW124152   0.094   0.021   1.770  0.4151  0.6102  0.1677
 4172SOL    HW224153   0.124   0.151   1.716  1.5169 -1.2813  3.2603
 4173SOL     OW24154   2.653   2.647   7.569  0.1164 -0.2493  0.5419
 4173SOL    HW124155   2.567   2.636   7.529  0.5935  1.3097 -0.9163
 4173SOL    HW224156   2.699   2.694   7.499  0.4968  0.8885  1.5648
 4174SOL     OW24157   3.949   2.897  14.425 -0.1073 -0.8111 -0.1571
 4174SOL    HW124158   4.018   2.842  14.463 -0.0246 -0.1021  0.7241
 4174SOL    HW224159   3.916   2.942  14.503  5.1536 -0.8982  2.1668
 4175SOL     OW24160   3.751   0.746  16.214 -0.4815 -0.1755 -0.3672
 4175SOL    HW124161   3.734   0.755  16.120  0.6004  1.8491 -0.3764
 4175SOL    HW224162   3.675   0.691  16.232 -0.7589 -0.0285 -1.0553
 4176SOL     OW24163   4.547   0.425   6.076  0.2565  0.2222 -0.4291
 4176SOL    HW124164   4.593   0.419   6.160  0.0338 -0.1194 -0.3294
 4176SOL    HW224165   4.477   0.362   6.091 -1.2473  2.6126  2.9151
 4177SOL     OW24166   3.924   2.899   8.677  0.0258 -0.4548  0.1572
 4177SOL    HW124167   4.006   2.944   8.695  0.8594 -1.8619 -0.0495
 4177SOL    HW224168   3.901   2.937   8.593  1.2206  0.0211  0.0436
 4178SOL     OW24169   1.674   1.206   7.666 -0.0464  0.4209  0.5558
 4178SOL    HW124170   1.643   1.158   7.743  3.0885 -0.3842  1.3496
 4178SOL    HW224171   1.769   1.218   7.677  0.1172  0.0541 -0.5133
 4179SOL     OW24172   3.064   0.253   4.620 -0.0716  0.8426 -0.1369
 4179SOL    HW124173   3.066   0.180   4.682 -1.5980  0.1160 -0.9439
 4179SOL    HW224174   3.109   0.215   4.545 -0.0118 -0.9471  0.8028
 4180SOL     OW24175   1.773   0.018   4.904 -0.1226 -0.6354 -0.3245
 4180SOL    HW124176   1.712   0.077   4.949  0.3865  1.0705 -1.9169
 4180SOL    HW224177   1.740   4.673   4.935 -1.9725 -0.1927 -1.0618
 4181SOL     OW24178   3.131   1.296   8.169  0.0015 -0.0435 -0.3914
 4181SOL    HW124179   3.187   1.352   8.116 -1.5865  2.0071  0.1061
 4181SOL    HW224180   3.128   1.350   8.248  1.8618 -0.8715  0.2610
 4182SOL     OW24181   3.350   1.089   2.441  0.0592  0.3170  0.0698
 4182SOL    HW124182   3.332   1.140   2.520  2.0481  0.2064  0.5891
 4182SOL    HW224183   3.373   1.153   2.374  3.5051 -1.5862 -0.5514
 4183SOL     OW24184   0.808   3.357   1.565 -0.7449 -0.0799  0.1328
 4183SOL    HW124185   0.847   3.441   1.540 -0.7717  0.3665  1.6364
 4183SOL    HW224186   0.717   3.375   1.588 -0.0483  2.1408  1.1618
 4184SOL     OW24187   2.687   4.142   6.117 -0.2367 -0.6382  0.2263
 4184SOL    HW124188   2.683   4.148   6.022  1.0418 -0.0871  0.2034
 4184SOL    HW224189   2.683   4.233   6.145 -0.7272 -0.8064  0.7053
 4185SOL     OW24190   2.881   1.159   2.841 -0.2998  0.2067  0.5928
 4185SOL    HW124191   2.940   1.209   2.898 -0.7753 -0.7776  1.9533
 4185SOL    HW224192   2.871   1.078   2.892  1.3901 -0.0409  0.5096
 4186SOL     OW24193   1.503   0.062   3.361  0.4488 -0.4896 -0.9803
 4186SOL    HW124194   1.541   0.132   3.307  1.7354  0.6168  1.3385
 4186SOL    HW224195   1.527   0.094   3.448 -0.6212 -1.1556 -0.4421
 4187SOL     OW24196   2.118   1.633   4.073  0.2037  0.6437  0.4074
 4187SOL    HW124197   2.030   1.633   4.109  0.4300 -1.0702  0.9688
 4187SOL    HW224198   2.101   1.561   4.012  1.1180  0.3229  0.5311
 4188SOL     OW24199   1.253   0.925   7.136 -0.9277 -0.0495  0.1155
 4188SOL    HW124200   1.207   1.009   7.144  2.3016  1.6758  0.5383
 4188SOL    HW224201   1.281   0.907   7.226  2.4012 -1.9633 -1.3267
 4189SOL     OW24202   0.837   4.303   2.701  0.0497 -0.2107 -0.1438
 4189SOL    HW124203   0.828   4.291   2.607 -2.2247 -3.0279  0.4307
 4189SOL    HW224204   0.752   4.333   2.733 -0.7750 -2.8136  0.0563
 4190SOL     OW24205   3.775   2.323   8.420 -0.0409 -0.5233 -0.3521
 4190SOL    HW124206   3.717   2.249   8.436 -0.0338 -0.3366  0.5076
 4190SOL    HW224207   3.746   2.383   8.489  1.1979  0.2994 -0.5363
 4191SOL     OW24208   2.250   0.662   7.189  0.4555  0.4991 -0.0214
 4191SOL    HW124209   2.336   0.630   7.214 -0.1272 -0.4575  0.7183
 4191SOL    HW224210   2.198   0.659   7.269  1.5330  0.6760  0.6855
 4192SOL     OW24211   4.288   3.091   5.586 -0.0520 -0.0261 -0.9228
 4192SOL    HW124212   4.290   3.061   5.677 -3.6483  1.2609 -0.4331
 4192SOL    HW224213   4.194   3.097   5.574 -0.1648  1.0766  0.4429
 4193SOL     OW24214   3.745   3.419   6.408  0.3938  0.1388  0.2950
 4193SOL    HW124215   3.772   3.327   6.412 -1.6982 -0.5900 -2.4384
 4193SOL    HW224216   3.650   3.415   6.396  0.0638  2.4961  2.0869
 4194SOL     OW24217   0.928   1.329   2.399 -1.0148  0.4026  0.1890
 4194SOL    HW124218   0.950   1.270   2.326  1.3334 -0.4999  1.6061
 4194SOL    HW224219   0.968   1.413   2.379  1.1795 -0.5097  0.6930
 4195SOL     OW24220   0.181   3.308  12.328 -0.9003  0.4679  0.0124
 4195SOL    HW124221   0.271   3.338  12.342 -0.0541 -1.4464 -1.3405
 4195SOL    HW224222   0.163   3.350  12.244  0.9358  0.0959 -0.5861
 4196SOL     OW24223   4.709   0.753   8.723  0.3624  0.2242 -1.0143
 4196SOL    HW124224   4.624   0.777   8.686  0.1740  0.0617 -0.6851
 4196SOL    HW224225   4.685   0.756   8.816 -1.5495  1.5023 -1.5545
 4197SOL     OW24226   2.583   0.588   9.676 -0.1183 -0.4554  0.9565
 4197SOL    HW124227   2.613   0.509   9.721  0.5987 -1.4331 -1.2407
 4197SOL    HW224228   2.503   0.557   9.632  0.1578 -0.8933  0.7589
 4198SOL     OW24229   2.255   0.203   0.671 -0.1311 -0.1501  0.0073
 4198SOL    HW124230   2.161   0.205   0.685 -0.3600 -1.1641 -1.3504
 4198SOL    HW224231   2.262   0.171   0.581 -1.4063  0.3789 -0.2724
 4199SOL     OW24232   3.536   4.509   1.443 -0.3252 -0.1189  0.0958
 4199SOL    HW124233   3.519   4.463   1.526  0.2604 -0.8082 -0.1679
 4199SOL    HW224234   3.458   4.489   1.392  0.0870  0.0859 -0.6082
 4200SOL     OW24235   1.591   2.752   2.508 -0.1333 -0.1513  0.0438
 4200SOL    HW124236   1.622   2.771   2.419  0.1064  0.4769  0.2572
 4200SOL    HW224237   1.596   2.839   2.548  0.6935  0.0738 -0.5451
 4201SOL     OW24238   3.655   1.267   8.902 -0.3478 -0.0972 -0.2750
 4201SOL    HW124239   3.718   1.211   8.948  0.4054  2.0752  1.2965
 4201SOL    HW224240   3.698   1.352   8.908 -0.6196 -0.1156  2.0452
 4202SOL     OW24241   4.671   0.410   3.109  0.0198  0.0882 -0.3264
 4202SOL    HW124242   0.010   0.401   3.163  1.7252  1.0023 -2.6998
 4202SOL    HW224243   4.676   0.501   3.079  0.5261  0.3333  0.4929
 4203SOL     OW24244   4.558   0.339   2.164 -0.7178  0.3326  0.5583
 4203SOL    HW124245   4.489   0.283   2.127  2.9077 -4.0676  0.4465
 4203SOL    HW224246   4.501   0.405   2.204 -1.0989  1.3867 -1.7070
 4204SOL     OW24247   4.216   0.855   0.474 -0.3597 -0.2462  0.2451
 4204SOL    HW124248   4.242   0.904   0.552  1.7325  0.2200 -0.7441
 4204SOL    HW224249   4.301   0.830   0.440 -0.1053  0.1678  0.5707
 4205SOL     OW24250   1.262   0.641   2.581 -0.0993  0.0906  0.2200
 4205SOL    HW124251   1.349   0.604   2.593 -0.8725 -1.3076  1.4300
 4205SOL    HW224252   1.243   0.636   2.487 -1.1333 -2.2699  0.5755
 4206SOL     OW24253   3.576   3.528   8.662  0.0340 -0.1094  0.3906
 4206SOL    HW124254   3.639   3.581   8.614 -1.2707 -0.1379 -1.3735
 4206SOL    HW224255   3.619   3.502   8.743  0.7706 -0.5182 -0.1402
 4207SOL     OW24256   0.903   3.629   7.392  0.1904 -0.1141 -0.4177
 4207SOL    HW124257   0.838   3.636   7.322 -0.7575 -1.3617  0.3469
 4207SOL    HW224258   0.871   3.700   7.446 -0.7111  0.4313 -1.6671
 4208SOL     OW24259   3.487   1.729   2.247  0.2745 -0.5081 -0.2368
 4208SOL    HW124260   3.579   1.705   2.238  0.1174 -1.5426  0.9134
 4208SOL    HW224261   3.462   1.710   2.157 -1.3442  3.1052 -0.5180
 4209SOL     OW24262   0.166   4.421  14.992 -0.2201  0.4783 -0.1527
 4209SOL    HW124263   0.114   4.414  15.072  1.3423 -0.5310  0.7704
 4209SOL    HW224264   0.249   4.377  15.010 -0.4942 -0.3802 -0.9940
 4210SOL     OW24265   4.231   0.427   9.821 -0.0013 -0.2108  0.0310
 4210SOL    HW124266   4.141   0.445   9.850  0.9466  2.0625  1.4944
 4210SOL    HW224267   4.217   0.386   9.735  0.3762  0.8128 -0.5125
 4211SOL     OW24268   2.256   3.596   9.358 -0.1147 -0.9025  0.1060
 4211SOL    HW124269   2.217   3.681   9.380 -0.0033 -0.4623 -1.4032
 4211SOL    HW224270   2.220   3.582   9.271 -3.4950  1.1227  1.2025
 4212SOL     OW24271   1.026   1.299   0.845  0.2200 -0.7424  0.3711
 4212SOL    HW124272   0.949   1.276   0.793  0.4680  0.3247 -0.4764
 4212SOL    HW224273   1.101   1.275   0.791  1.5011  1.3923  1.1721
 4213SOL     OW24274   1.592   2.282   8.018 -0.1162 -0.2667 -0.0333
 4213SOL    HW124275   1.503   2.293   7.984 -1.0700  0.2869  2.6358
 4213SOL    HW224276   1.628   2.366   7.992 -0.8017 -1.3116 -4.3657
 4214SOL     OW24277   1.662   2.650  17.298 -0.2309 -0.1623  0.4015
 4214SOL    HW124278   1.685   2.644  17.205 -1.1170  0.9580  0.1021
 4214SOL    HW224279   1.574   2.613  17.300  0.4336 -1.8443 -1.1816
 4215SOL     OW24280   2.864   0.117   2.507 -0.4931  0.0304 -0.1867
 4215SOL    HW124281   2.880   0.116   2.601 -0.6787  2.1481 -0.1197
 4215SOL    HW224282   2.925   0.188   2.485 -1.7566  1.7720  1.9352
 4216SOL     OW24283   1.820   3.784   4.366  0.2976 -0.1585  0.1618
 4216SOL    HW124284   1.834   3.826   4.281 -1.7056  1.9293  0.8551
 4216SOL    HW224285   1.735   3.743   4.349  0.4668 -0.6471  0.5155
 4217SOL     OW24286   0.908   1.878  16.773 -0.0991  0.5920  0.8365
 4217SOL    HW124287   0.971   1.904  16.705  0.8160 -0.1621  1.3923
 4217SOL    HW224288   0.823   1.862  16.732  0.8177  0.9534 -1.2223
 4218SOL     OW24289   3.684   2.643   2.034 -0.4791  1.0412  0.0171
 4218SOL    HW124290   3.706   2.702   1.963 -0.7156  0.8285 -0.2294
 4218SOL    HW224291   3.644   2.708   2.092 -1.5534  0.3024  0.1049
 4219SOL     OW24292   2.198   4.297   2.504  0.7616  0.4652  0.5767
 4219SOL    HW124293   2.210   4.392   2.511 -1.6840  0.7710  0.5200
 4219SOL    HW224294   2.253   4.285   2.426 -1.2942  1.4044 -1.0281
 4220SOL     OW24295   1.554   1.602   5.267  0.4094  0.1511  0.2586
 4220SOL    HW124296   1.513   1.528   5.224  0.8552  0.7183 -1.1331
 4220SOL    HW224297   1.546   1.669   5.199 -1.3052 -0.8045 -0.4830
 4221SOL     OW24298   1.405   1.331   9.522 -0.3786  0.6262 -0.0904
 4221SOL    HW124299   1.475   1.387   9.490  0.1532 -0.6558 -1.1759
 4221SOL    HW224300   1.394   1.370   9.608  1.4322  2.6212 -0.7852
 4222SOL     OW24301   0.076   1.858   0.378  0.3209 -0.3882 -0.0656
 4222SOL    HW124302   0.081   1.844   0.473  2.1245  0.5431 -0.0171
 4222SOL    HW224303   4.733   1.903   0.365 -0.0923 -0.7985  1.1188
 4223SOL     OW24304   0.779   0.092  11.413  0.6552  0.1538 -0.1327
 4223SOL    HW124305   0.788   0.172  11.362 -1.1501  0.2786 -0.2279
 4223SOL    HW224306   0.839   0.110  11.486  1.2852 -2.0240 -0.1102
 4224SOL     OW24307   1.306   3.028   8.204  0.0060  0.4818  0.4911
 4224SOL    HW124308   1.365   3.099   8.228  2.5623 -0.8548 -1.6866
 4224SOL    HW224309   1.245   3.064   8.140 -1.5425 -2.0990  0.5131
 4225SOL     OW24310   4.631   2.122   8.994  0.0503  0.3112 -0.2694
 4225SOL    HW124311   4.572   2.172   8.937 -1.1035 -0.0517  0.5930
 4225SOL    HW224312   4.624   2.187   9.064 -0.5746 -1.3231  1.1718
 4226SOL     OW24313   0.397   3.416   5.913  0.6663  0.0656 -0.0718
 4226SOL    HW124314   0.444   3.409   5.830  0.9571 -0.0311  0.1018
 4226SOL    HW224315   0.398   3.324   5.941  1.0286  0.0262 -0.2181
 4227SOL     OW24316   3.761   4.103   6.996  0.1815 -0.3867  0.1814
 4227SOL    HW124317   3.847   4.117   7.034 -0.6424 -0.5308  2.1152
 4227SOL    HW224318   3.768   4.015   6.958 -1.5479 -0.4772  0.0629
 4228SOL     OW24319   1.452   3.717   3.833 -0.0237  0.1116  0.5708
 4228SOL    HW124320   1.501   3.798   3.822  0.6383 -0.5084 -1.0789
 4228SOL    HW224321   1.514   3.650   3.803  0.1934  0.2935  0.6177
 4229SOL     OW24322   2.793   0.656   2.670 -0.5643  0.5549  0.3943
 4229SOL    HW124323   2.757   0.614   2.592 -0.1644  1.1095 -0.0878
 4229SOL    HW224324   2.799   0.748   2.647 -0.5416  0.1725 -1.1003
 4230SOL     OW24325   1.600   2.643   8.044 -0.0777 -0.1214  0.1600
 4230SOL    HW124326   1.606   2.622   8.137 -2.0816  0.4089  0.4080
 4230SOL    HW224327   1.520   2.603   8.012 -1.1609  1.2019  1.2246
 4231SOL     OW24328   0.149   4.331   6.291 -0.2522  0.3834 -0.8859
 4231SOL    HW124329   0.114   4.243   6.308  0.4695  0.2068 -0.3025
 4231SOL    HW224330   0.194   4.320   6.208  2.5606 -1.3774  0.8789
 4232SOL     OW24331   1.658   2.166   6.799  0.2926 -0.6431  0.0670
 4232SOL    HW124332   1.713   2.244   6.801 -1.5124  0.6676 -0.3535
 4232SOL    HW224333   1.627   2.163   6.889  0.2520  2.3867  0.1636
 4233SOL     OW24334   3.393   3.974   1.251 -0.2974  0.7346 -0.1769
 4233SOL    HW124335   3.450   3.928   1.189 -1.6367  0.8095 -1.4698
 4233SOL    HW224336   3.441   4.054   1.272  0.8580 -0.1329  0.4546
 4234SOL     OW24337   2.987   4.203   3.590  0.3819  0.0895  0.0365
 4234SOL    HW124338   2.964   4.296   3.596  1.9244  0.4952 -0.4312
 4234SOL    HW224339   2.955   4.169   3.674 -0.9860 -1.7275 -1.2248
 4235SOL     OW24340   4.358   3.546   8.038  0.1783 -0.3159  0.1489
 4235SOL    HW124341   4.333   3.637   8.051  2.2554  0.0910  1.3307
 4235SOL    HW224342   4.267   3.517   8.043  0.6986 -1.3004  3.5692
 4236SOL     OW24343   2.665   1.832   9.015 -0.7414 -0.1418  0.1938
 4236SOL    HW124344   2.758   1.852   9.017 -0.9382  0.8087 -0.2278
 4236SOL    HW224345   2.639   1.907   8.962  1.1003  0.2856 -0.0889
 4237SOL     OW24346   3.759   3.962   6.184  0.5156 -0.0228 -0.4906
 4237SOL    HW124347   3.726   3.887   6.233  2.1258 -2.0628 -2.5469
 4237SOL    HW224348   3.815   3.908   6.128  0.7199  0.2971 -0.5969
 4238SOL     OW24349   4.095   1.240  14.592 -0.1057  0.1966 -0.1235
 4238SOL    HW124350   4.153   1.316  14.587 -0.4300  0.6688  2.9285
 4238SOL    HW224351   4.041   1.258  14.670  1.6465  0.1044  1.1113
 4239SOL     OW24352   3.402   2.657  12.836 -0.2945  0.6098  0.1085
 4239SOL    HW124353   3.463   2.704  12.780  0.1080  0.8788  0.7763
 4239SOL    HW224354   3.451   2.575  12.832 -1.6952 -0.0909 -2.5866
 4240SOL     OW24355   4.323   1.006  14.159  0.5695 -0.3250 -0.3642
 4240SOL    HW124356   4.352   1.005  14.068  0.6204  1.0291 -0.3666
 4240SOL    HW224357   4.317   0.915  14.187 -1.0319 -0.7623 -2.1234
 4241SOL     OW24358   0.768   3.591   6.632  0.2466  0.2751 -0.1357
 4241SOL    HW124359   0.852   3.593   6.586  1.1880 -0.4077  1.5561
 4241SOL    HW224360   0.788   3.519   6.692 -0.1790  0.9741  0.8443
 4242SOL     OW24361   4.429   1.615   7.413 -0.0870  0.3313 -0.1039
 4242SOL    HW124362   4.375   1.634   7.490  1.0594  0.7129  0.6059
 4242SOL    HW224363   4.519   1.631   7.442 -0.4056 -0.9437  1.6188
 4243SOL     OW24364   1.563   0.774   5.087  0.1835 -0.2519 -0.2189
 4243SOL    HW124365   1.529   0.750   5.001  0.5894  0.5377 -0.5935
 4243SOL    HW224366   1.554   0.868   5.073  1.5874 -0.1700 -0.5870
 4244SOL     OW24367   4.354   3.509   8.465  0.1979 -0.5373 -0.3243
 4244SOL    HW124368   4.300   3.577   8.506  0.8092  0.3147 -0.9385
 4244SOL    HW224369   4.305   3.477   8.389 -1.6254  0.2955  0.4856
 4245SOL     OW24370   3.034   0.258   9.933 -0.0256 -0.3768 -0.7365
 4245SOL    HW124371   3.017   0.239   9.841  1.0119 -0.3492 -0.9269
 4245SOL    HW224372   3.129   0.256   9.932 -0.0396 -1.2437 -0.8631
 4246SOL     OW24373   2.250   1.169  11.810 -0.0604 -0.1218  0.1440
 4246SOL    HW124374   2.174   1.155  11.754 -0.5515 -2.5991  1.4006
 4246SOL    HW224375   2.209   1.226  11.874  1.1557  2.0695 -1.0175
 4247SOL     OW24376   4.208   1.065  16.893  0.2695 -0.2811  0.2845
 4247SOL    HW124377   4.194   0.997  16.828 -1.2269  0.7690 -0.5155
 4247SOL    HW224378   4.278   1.026  16.945  0.4169 -1.6073 -0.9203
 4248SOL     OW24379   3.271   2.001  17.423  0.1879 -0.7379 -0.7272
 4248SOL    HW124380   3.364   1.981  17.432  0.3254 -0.1070 -0.7537
 4248SOL    HW224381   3.241   1.978  17.511  1.9856 -0.5330 -0.0657
 4249SOL     OW24382   0.490   3.070   1.242 -0.3206 -0.7786 -0.6189
 4249SOL    HW124383   0.526   2.982   1.255  0.6515 -0.1237  1.0097
 4249SOL    HW224384   0.470   3.088   1.333  0.3029  2.6562 -1.1835
 4250SOL     OW24385   4.673   0.938   5.948  0.0031 -0.4798 -0.2904
 4250SOL    HW124386   4.598   0.888   5.916 -0.6336  0.2601  0.0438
 4250SOL    HW224387   4.737   0.928   5.876  1.9734 -0.2727  1.4254
 4251SOL     OW24388   4.094   3.773   4.010  0.3044 -0.0512 -0.0275
 4251SOL    HW124389   4.127   3.845   4.063  0.0073 -0.9188  1.3199
 4251SOL    HW224390   4.054   3.726   4.083  1.8512 -3.5133 -1.3644
 4252SOL     OW24391   3.610   0.829   6.458  0.5049  0.1980  1.0966
 4252SOL    HW124392   3.671   0.777   6.511 -1.6162 -2.9205  0.4645
 4252SOL    HW224393   3.653   0.914   6.447  1.7792 -0.5174  0.5554
 4253SOL     OW24394   3.306   4.618   5.778 -0.4031  0.0295 -0.3389
 4253SOL    HW124395   3.381   4.559   5.784 -0.1220  0.4323  0.0337
 4253SOL    HW224396   3.352   4.689   5.823  0.1106 -0.1974 -0.5154
 4254SOL     OW24397   4.106   0.065   9.160  0.8816 -0.0883 -0.0189
 4254SOL    HW124398   4.120   0.144   9.108  1.8618  0.1378  0.5721
 4254SOL    HW224399   4.014   0.041   9.152  0.7418  0.3644  0.1939
 4255SOL     OW24400   0.410   1.312  14.017  0.1581 -0.1965 -0.4006
 4255SOL    HW124401   0.442   1.249  14.082  0.6631 -0.6090 -1.0509
 4255SOL    HW224402   0.371   1.251  13.955 -0.2527 -0.1347 -0.2032
 4256SOL     OW24403   1.949   2.203   3.867 -0.4689 -0.1875 -0.1105
 4256SOL    HW124404   2.042   2.206   3.848 -1.0535  0.8050 -2.8384
 4256SOL    HW224405   1.944   2.174   3.958  0.9181  1.3207  0.4388
 4257SOL     OW24406   0.149   0.663   6.787 -0.7123 -0.3436 -0.0003
 4257SOL    HW124407   0.141   0.736   6.848  2.3368  1.8453 -2.2036
 4257SOL    HW224408   0.064   0.627   6.812 -0.4652 -0.2247  1.0222
 4258SOL     OW24409   1.999   1.103   4.078  0.0571 -0.4141  0.1440
 4258SOL    HW124410   1.981   1.119   4.170  2.0720 -0.8005  0.5924
 4258SOL    HW224411   1.988   1.009   4.066 -0.0181 -0.3335 -0.4523
 4259SOL     OW24412   1.783   4.574   1.249 -0.5259 -0.0154  0.0928
 4259SOL    HW124413   1.779   4.634   1.174 -1.5589  0.2408  0.3646
 4259SOL    HW224414   1.794   4.639   1.318  1.3661  0.4495 -0.6259
 4260SOL     OW24415   1.401   2.789  12.583  0.4898 -0.4405  0.1643
 4260SOL    HW124416   1.393   2.776  12.488  1.3045 -0.8366  0.1539
 4260SOL    HW224417   1.496   2.786  12.584  0.5041 -1.3347 -2.5966
 4261SOL     OW24418   0.889   3.669   4.510  0.0236  0.5169  0.3680
 4261SOL    HW124419   0.891   3.765   4.517  0.5020  0.2229  3.7817
 4261SOL    HW224420   0.983   3.651   4.514  0.1708  0.7901 -1.7681
 4262SOL     OW24421   2.089   4.379  11.489 -0.7017  0.3492  0.1430
 4262SOL    HW124422   2.029   4.305  11.475 -2.3041  1.1386  2.6958
 4262SOL    HW224423   2.024   4.441  11.523 -1.1865 -0.5080  0.8217
 4263SOL     OW24424   3.207   2.278   7.043  0.4832  0.6503 -0.6747
 4263SOL    HW124425   3.257   2.355   7.071  1.7897 -0.1428 -0.8049
 4263SOL    HW224426   3.243   2.266   6.955  0.0444 -1.1410 -0.5941
 4264SOL     OW24427   4.610   3.770   2.246  0.6521 -0.4589  0.2651
 4264SOL    HW124428   4.702   3.780   2.273  0.7123 -0.2482 -0.0307
 4264SOL    HW224429   4.563   3.738   2.324 -0.2954  0.2150 -0.0328
 4265SOL     OW24430   3.761   3.595   7.412  0.5513 -0.7019  0.1004
 4265SOL    HW124431   3.722   3.669   7.457 -1.2582 -1.2668 -0.5262
 4265SOL    HW224432   3.852   3.623   7.420 -0.2830  2.2448 -0.6896
 4266SOL     OW24433   4.257   0.908  16.428 -0.8064 -0.3189  0.7300
 4266SOL    HW124434   4.319   0.974  16.398 -1.5255 -0.5485 -1.2671
 4266SOL    HW224435   4.176   0.959  16.420 -0.9781 -1.0062 -1.8652
 4267SOL     OW24436   2.722   1.158   7.317  0.6837 -0.1615 -0.2132
 4267SOL    HW124437   2.811   1.191   7.310  0.8401 -0.2373  1.3467
 4267SOL    HW224438   2.720   1.069   7.282  1.3871 -0.4613  0.5065
 4268SOL     OW24439   1.904   0.384   3.192  0.2128  0.4402 -0.2472
 4268SOL    HW124440   1.812   0.404   3.205 -0.1812 -1.9798  0.4764
 4268SOL    HW224441   1.947   0.467   3.166  1.0335  0.4541  1.1677
 4269SOL     OW24442   2.382   2.585   3.192 -0.0864  0.1736 -0.3689
 4269SOL    HW124443   2.328   2.514   3.156  4.0702 -2.3896 -1.4855
 4269SOL    HW224444   2.426   2.616   3.113 -0.2165 -0.0199 -0.5181
 4270SOL     OW24445   0.968   2.014   8.571  0.0537  0.1335 -0.9865
 4270SOL    HW124446   0.941   1.943   8.512  2.5990 -0.7688 -1.0824
 4270SOL    HW224447   0.993   1.964   8.649  0.2806  2.2380  0.2819
 4271SOL     OW24448   4.573   1.954   2.645  0.3213  0.1344 -0.7387
 4271SOL    HW124449   4.483   1.967   2.614  0.2716 -0.3536 -0.7941
 4271SOL    HW224450   4.612   2.041   2.637  0.0328  0.0976 -2.3539
 4272SOL     OW24451   0.265   3.861   5.167  0.2107  0.3111  0.2998
 4272SOL    HW124452   0.180   3.833   5.200 -0.0487  2.5445  1.5657
 4272SOL    HW224453   0.321   3.790   5.197  0.5961 -0.6560 -2.7016
 4273SOL     OW24454   2.996   2.047  12.567 -0.1943 -0.5639  0.3691
 4273SOL    HW124455   2.965   2.133  12.594 -2.5954 -0.9596 -1.1007
 4273SOL    HW224456   2.970   2.036  12.475  1.6443 -2.7305  0.1011
 4274SOL     OW24457   3.191   0.013   9.850 -0.1155 -0.2595  0.1378
 4274SOL    HW124458   3.271   4.701   9.856 -0.1500 -0.4563 -1.2048
 4274SOL    HW224459   3.173   0.022   9.756  1.2415 -2.3869 -0.3174
 4275SOL     OW24460   2.819   1.698   1.401  0.0681  0.4892 -0.2835
 4275SOL    HW124461   2.823   1.668   1.311  0.6212  0.9051 -0.4000
 4275SOL    HW224462   2.756   1.641   1.445 -0.1963 -0.5951 -2.0737
 4276SOL     OW24463   2.378   2.030   8.366 -0.5522  0.2193  0.5056
 4276SOL    HW124464   2.305   2.086   8.342  0.3726  0.7337 -1.1281
 4276SOL    HW224465   2.439   2.072   8.427 -0.2048 -1.7762  1.5243
 4277SOL     OW24466   1.512   3.915   2.743 -0.2489 -0.4096 -0.0323
 4277SOL    HW124467   1.564   3.837   2.723 -3.0304 -1.5982 -2.4909
 4277SOL    HW224468   1.554   3.953   2.821 -0.0864 -0.1305 -0.2578
 4278SOL     OW24469   1.026   4.199  14.765  0.1078  0.3880 -0.0740
 4278SOL    HW124470   0.967   4.246  14.825 -1.5398  1.1110 -2.2474
 4278SOL    HW224471   1.096   4.264  14.764  1.0636 -0.6398  1.7040
 4279SOL     OW24472   1.429   0.048   4.747 -0.0936  0.3250 -0.1537
 4279SOL    HW124473   1.411   4.702   4.784 -2.8805  0.4874 -1.1512
 4279SOL    HW224474   1.363   0.109   4.778  0.5416  0.0727  1.6716
 4280SOL     OW24475   2.639   1.771   1.974 -0.4031 -0.4411 -0.5038
 4280SOL    HW124476   2.604   1.742   1.890 -0.7772  2.2619 -1.2814
 4280SOL    HW224477   2.700   1.840   1.947  1.7595 -2.0578  0.2093
 4281SOL     OW24478   3.125   2.175  10.283 -0.1131  0.4045  0.5531
 4281SOL    HW124479   3.155   2.262  10.308  0.8774  0.3694 -0.5030
 4281SOL    HW224480   3.176   2.123  10.346  0.7201 -0.6383 -0.9657
 4282SOL     OW24481   2.203   1.881   4.680 -0.4053 -0.3117  0.2551
 4282SOL    HW124482   2.231   1.881   4.771  2.6807  0.7688 -0.6820
 4282SOL    HW224483   2.150   1.961   4.680  0.8829  0.5550 -1.2513
 4283SOL     OW24484   3.901   0.813   3.029  0.3402 -0.0952 -0.3552
 4283SOL    HW124485   3.828   0.771   2.983  0.2638  1.7577 -1.9119
 4283SOL    HW224486   3.936   0.731   3.065  1.1735  1.3563  2.1652
 4284SOL     OW24487   0.684   0.706  10.169  0.1912 -0.2949 -0.1267
 4284SOL    HW124488   0.699   0.624  10.121  2.1335  1.0326 -1.8061
 4284SOL    HW224489   0.647   0.678  10.253  0.7806 -0.6228  0.0242
 4285SOL     OW24490   1.930   3.568   8.872  0.2690 -0.9042 -0.2027
 4285SOL    HW124491   1.895   3.481   8.894  1.2776 -1.2814 -0.0860
 4285SOL    HW224492   2.024   3.547   8.869  0.1310 -1.3722 -1.0744
 4286SOL     OW24493   3.092   0.865  14.225 -0.5054 -0.9388 -0.3855
 4286SOL    HW124494   3.099   0.770  14.214  2.5819 -0.6176 -0.9765
 4286SOL    HW224495   3.017   0.889  14.170 -0.2581 -1.2104 -0.8367
 4287SOL     OW24496   1.455   1.609   8.356  0.1861 -0.0615  0.2819
 4287SOL    HW124497   1.375   1.651   8.325  0.2160 -1.7313 -2.0630
 4287SOL    HW224498   1.446   1.590   8.450 -0.7602 -2.9149 -0.3835
 4288SOL     OW24499   2.832   3.642  15.105 -0.0239  0.1607 -0.4470
 4288SOL    HW124500   2.764   3.621  15.168  0.4304 -0.2410 -0.0911
 4288SOL    HW224501   2.790   3.606  15.027  0.1557 -2.0876  0.5044
 4289SOL     OW24502   2.103   2.543   5.640  0.4001 -0.4404  0.0198
 4289SOL    HW124503   2.187   2.586   5.627  0.2028  0.0676  0.4009
 4289SOL    HW224504   2.121   2.480   5.710  1.1645 -0.2900 -0.0509
 4290SOL     OW24505   0.050   1.305   2.946  0.6163  0.1669  0.5177
 4290SOL    HW124506   4.694   1.293   2.944  0.8314 -1.5612  0.4557
 4290SOL    HW224507   0.058   1.369   3.016 -1.6874  0.3940  0.6004
 4291SOL     OW24508   0.736   1.676   1.717  0.0140 -0.7754 -0.0073
 4291SOL    HW124509   0.746   1.696   1.810  0.8822 -3.0433  0.3864
 4291SOL    HW224510   0.725   1.768   1.697  0.8868 -0.6391  0.1382
 4292SOL     OW24511   1.671   4.441   8.985 -0.4595  0.0545 -0.0993
 4292SOL    HW124512   1.596   4.406   9.033  1.1511 -1.4896  1.2300
 4292SOL    HW224513   1.620   4.472   8.909  1.6701 -2.0957 -2.3910
 4293SOL     OW24514   3.365   4.134   8.877  0.1590 -0.4127  0.0433
 4293SOL    HW124515   3.320   4.170   8.954  1.4319 -0.6643  0.9095
 4293SOL    HW224516   3.434   4.200   8.868 -0.3949  0.3531  1.4728
 4294SOL     OW24517   0.951   0.246   4.405  0.5212  0.1478 -0.1384
 4294SOL    HW124518   0.955   0.161   4.448 -3.2832  0.1877  0.2932
 4294SOL    HW224519   0.891   0.286   4.468  1.8479 -0.2754  1.3972
 4295SOL     OW24520   3.905   3.483   9.122 -0.0035  0.2912  0.0086
 4295SOL    HW124521   3.944   3.404   9.159 -0.5346  1.0330  2.1642
 4295SOL    HW224522   3.960   3.555   9.155  0.4682 -0.5798  1.1195
 4296SOL     OW24523   4.496   0.018   8.933  0.7471  0.1133  0.1262
 4296SOL    HW124524   4.406   4.734   8.956  1.8018 -1.5821  2.5414
 4296SOL    HW224525   4.493   0.113   8.921 -3.2637  0.0426  0.6414
 4297SOL     OW24526   3.970   1.630   0.995  0.3925 -0.5656 -0.5628
 4297SOL    HW124527   4.024   1.577   0.937 -0.0091  0.8672 -2.2610
 4297SOL    HW224528   3.902   1.666   0.937 -2.1536 -3.6816  0.5128
 4298SOL     OW24529   3.643   0.434  10.304 -0.6008  0.3788  0.0411
 4298SOL    HW124530   3.610   0.523  10.315  0.2387  0.8500 -1.2012
 4298SOL    HW224531   3.735   0.430  10.332 -0.9376  1.3564  1.2638
 4299SOL     OW24532   0.074   4.669   5.905  0.2650  0.3377  0.6730
 4299SOL    HW124533   0.132   4.677   5.830 -1.6326  0.4163 -0.8034
 4299SOL    HW224534   0.039   4.580   5.894  0.1359  0.5632 -0.7335
 4300SOL     OW24535   3.531   4.168   6.471 -0.2318 -0.1459  0.7840
 4300SOL    HW124536   3.465   4.118   6.518  0.6146 -0.8091  1.2819
 4300SOL    HW224537   3.557   4.234   6.535 -1.4303  0.8486  0.2389
 4301SOL     OW24538   3.140   1.257   7.830  0.0001  0.0624 -0.0427
 4301SOL    HW124539   3.090   1.337   7.847  1.5089  1.0776 -0.4061
 4301SOL    HW224540   3.072   1.190   7.830 -0.1473  0.2002  1.6535
 4302SOL     OW24541   2.312   1.513   8.069  0.6169 -0.0086 -0.1966
 4302SOL    HW124542   2.311   1.492   7.976 -0.4831  0.2207 -0.2340
 4302SOL    HW224543   2.393   1.564   8.075 -0.2987  1.1751  2.4144
 4303SOL     OW24544   2.926   4.310   7.390  0.2110 -0.1510 -0.0332
 4303SOL    HW124545   3.001   4.289   7.446 -0.0601  2.0346  1.1469
 4303SOL    HW224546   2.879   4.367   7.450 -0.3220 -1.4823  0.7933
 4304SOL     OW24547   0.513   3.117   7.732 -0.3205 -0.0575 -0.4363
 4304SOL    HW124548   0.504   3.204   7.770  0.8645 -0.6679  1.2424
 4304SOL    HW224549   0.588   3.125   7.674 -0.7233 -2.6677 -1.3232
 4305SOL     OW24550   4.102   0.591   3.694 -0.2560  0.2791 -0.4975
 4305SOL    HW124551   4.138   0.520   3.642 -0.5495  0.0171 -0.3456
 4305SOL    HW224552   4.034   0.532   3.729  2.2503 -2.8764 -0.9847
 4306SOL     OW24553   0.234   2.385   1.773 -0.3343 -0.2846 -0.0457
 4306SOL    HW124554   0.279   2.371   1.689  1.9889 -0.3022  1.2059
 4306SOL    HW224555   0.253   2.478   1.790 -0.5847 -0.7237  2.6171
 4307SOL     OW24556   3.508   2.174  12.638 -0.0777 -0.7874  0.4328
 4307SOL    HW124557   3.481   2.086  12.663  1.3720 -1.5607 -0.6985
 4307SOL    HW224558   3.537   2.167  12.547 -2.3575 -3.3850 -0.0876
 4308SOL     OW24559   3.107   1.726   3.439  0.5099  0.6391  0.1530
 4308SOL    HW124560   3.194   1.690   3.426 -0.9635 -1.8680 -2.6505
 4308SOL    HW224561   3.124   1.806   3.489  1.2412 -0.3075  1.3985
 4309SOL     OW24562   4.069   3.208   2.096  0.2522 -0.0547  0.0745
 4309SOL    HW124563   4.006   3.233   2.164 -2.2100 -1.8416 -1.5815
 4309SOL    HW224564   4.117   3.288   2.074  1.3117 -0.5553  0.5802
 4310SOL     OW24565   0.900   0.590   3.972  0.4411  0.1591  0.0600
 4310SOL    HW124566   0.908   0.505   4.016 -0.7365  0.0132  0.0023
 4310SOL    HW224567   0.937   0.562   3.888 -0.3428  1.6735 -0.7800
 4311SOL     OW24568   1.702   1.205   9.494 -0.2357 -0.1071 -0.1344
 4311SOL    HW124569   1.718   1.289   9.535 -3.3599  0.7853 -0.7559
 4311SOL    HW224570   1.796   1.189   9.478 -0.0846  1.1452 -0.4491
 4312SOL     OW24571   0.612   2.528   5.940 -0.1600  0.4280  0.2768
 4312SOL    HW124572   0.636   2.558   5.853 -0.9291  0.1204 -0.0394
 4312SOL    HW224573   0.549   2.460   5.917  2.2890 -2.1076  1.0397
 4313SOL     OW24574   0.899   3.988   4.255  0.6361  0.4534  0.1110
 4313SOL    HW124575   0.849   4.023   4.181  3.1382  0.3775 -1.5975
 4313SOL    HW224576   0.943   3.911   4.218  1.4275  0.9824 -0.0473
 4314SOL     OW24577   3.861   4.427   6.258 -0.7285  0.1560  0.6926
 4314SOL    HW124578   3.810   4.346   6.262 -0.7124  0.1604  0.9703
 4314SOL    HW224579   3.795   4.489   6.290  2.0380  1.4215  3.9954
 4315SOL     OW24580   3.271   4.473   9.857 -0.4505 -0.0642  0.2165
 4315SOL    HW124581   3.231   4.457   9.943 -0.8401  1.3754  0.3130
 4315SOL    HW224582   3.364   4.457   9.872 -0.2659 -0.6019 -1.5294
 4316SOL     OW24583   0.619   0.493  16.274  0.2825  0.0448  0.1710
 4316SOL    HW124584   0.529   0.523  16.260 -0.0945 -1.1448  0.0585
 4316SOL    HW224585   0.612   0.430  16.346 -2.0080 -0.3918 -0.4147
 4317SOL     OW24586   3.971   4.725   1.450 -0.1366 -0.2468  0.1683
 4317SOL    HW124587   3.875   4.732   1.448  0.0432  1.4456 -2.5088
 4317SOL    HW224588   3.983   0.038   1.529  0.1557 -1.1313  0.7041
 4318SOL     OW24589   1.124   2.655   9.561  0.7796 -0.1232 -0.2796
 4318SOL    HW124590   1.105   2.730   9.505 -1.2067 -0.2127  0.2599
 4318SOL    HW224591   1.190   2.611   9.508 -1.2856 -0.6670 -2.3760
 4319SOL     OW24592   4.629   2.208  11.248  0.9820  0.3461  0.5032
 4319SOL    HW124593   4.582   2.254  11.178  1.4649 -0.1181 -0.1201
 4319SOL    HW224594   4.660   2.126  11.210 -1.6822 -0.0560 -0.8399
 4320SOL     OW24595   4.127   0.101  12.236 -0.0836 -0.2998  0.0710
 4320SOL    HW124596   4.184   0.123  12.309  2.0602  0.0143 -1.7057
 4320SOL    HW224597   4.200   0.063  12.188  1.0479  0.8779  0.8574
 4321SOL     OW24598   2.693   0.925   3.972 -0.3861  0.3628 -0.0000
 4321SOL    HW124599   2.651   1.007   3.947  1.4266  1.4307  0.5128
 4321SOL    HW224600   2.635   0.878   3.912 -0.6230  1.6274 -0.7547
 4322SOL     OW24601   4.060   0.599  12.310 -0.1189  0.2464 -0.3139
 4322SOL    HW124602   4.016   0.548  12.242 -1.2391  0.6629  0.0975
 4322SOL    HW224603   4.154   0.591  12.294 -0.0684  0.7476 -0.2841
 4323SOL     OW24604   2.696   2.577   8.804 -0.1007  0.3594  0.1829
 4323SOL    HW124605   2.647   2.608   8.728 -0.8215  3.2971  1.8464
 4323SOL    HW224606   2.764   2.526   8.760 -1.7552 -0.6220 -1.2874
 4324SOL     OW24607   4.250   0.559   8.540  0.2388 -0.0003 -0.2697
 4324SOL    HW124608   4.253   0.484   8.481  1.6105  0.7326 -1.1141
 4324SOL    HW224609   4.337   0.574   8.575  0.7845  0.8633 -1.9987
 4325SOL     OW24610   2.208   3.951  17.480  0.0727 -0.3908 -0.1340
 4325SOL    HW124611   2.155   3.989  17.411  0.5962 -1.8865 -1.3572
 4325SOL    HW224612   2.166   3.865  17.488 -2.9175  0.8237 -2.9359
 4326SOL     OW24613   1.742   2.586  12.259 -0.3947 -0.1502  0.1355
 4326SOL    HW124614   1.683   2.547  12.194 -0.6339  3.1166 -1.6177
 4326SOL    HW224615   1.691   2.572  12.339 -0.9066 -2.0538 -0.5157
 4327SOL     OW24616   4.183   0.211  12.748 -0.8556  0.0281  0.0133
 4327SOL    HW124617   4.168   0.281  12.684 -0.8557 -1.8679 -2.0652
 4327SOL    HW224618   4.249   0.259  12.799 -0.8284 -0.0153  0.0188
 4328SOL     OW24619   2.303   3.750   2.050 -0.2779  0.1689  0.2255
 4328SOL    HW124620   2.391   3.715   2.059 -2.0013 -3.5600  2.4961
 4328SOL    HW224621   2.254   3.679   2.092 -0.3539  0.6419  0.9418
 4329SOL     OW24622   2.862   3.310  15.555 -0.1934 -0.0258  0.4367
 4329SOL    HW124623   2.941   3.355  15.583  0.5057  0.8780 -3.0824
 4329SOL    HW224624   2.809   3.384  15.527  2.0156  1.3745  0.0029
 4330SOL     OW24625   3.445   2.176   6.489 -0.0467  0.2954  0.6038
 4330SOL    HW124626   3.451   2.270   6.476  3.5341 -0.1577 -0.8081
 4330SOL    HW224627   3.487   2.150   6.408 -1.4928  2.0750 -0.7226
 4331SOL     OW24628   4.494   0.253   2.478  0.4350  0.1486 -0.0928
 4331SOL    HW124629   4.516   0.179   2.421 -0.4735 -0.4689  0.3652
 4331SOL    HW224630   4.572   0.256   2.534  0.2755  0.2423  0.1231
 4332SOL     OW24631   3.387   2.974  10.829  0.3176  0.3730  0.1924
 4332SOL    HW124632   3.360   2.939  10.745  2.4408  1.2866 -0.8672
 4332SOL    HW224633   3.446   3.045  10.805  1.6694 -0.6428  0.5101
 4333SOL     OW24634   2.137   0.759  15.491  0.4633 -0.2653  0.2378
 4333SOL    HW124635   2.150   0.821  15.420  0.9816 -1.9520 -1.1409
 4333SOL    HW224636   2.190   0.684  15.464  0.8674 -0.3791  1.3304
 4334SOL     OW24637   3.119   3.514   4.740  0.5106  0.4232  0.4995
 4334SOL    HW124638   3.134   3.422   4.759  0.2314 -0.1469 -2.0589
 4334SOL    HW224639   3.147   3.510   4.649  0.4740  1.0720  0.4557
 4335SOL     OW24640   1.259   1.593   1.870 -0.1586 -0.4353  0.2199
 4335SOL    HW124641   1.226   1.644   1.796  0.3616  1.2595  1.1541
 4335SOL    HW224642   1.242   1.503   1.844 -0.7216 -0.1887 -0.2583
 4336SOL     OW24643   2.439   2.641   0.184 -0.1229  0.4007  0.5562
 4336SOL    HW124644   2.360   2.613   0.139 -0.1933 -1.7259  2.0086
 4336SOL    HW224645   2.503   2.665   0.117  0.6904  0.2797  1.2973
 4337SOL     OW24646   4.564   4.333   6.483  0.4101 -0.3607  0.3498
 4337SOL    HW124647   4.617   4.331   6.562 -1.3047  2.1668  1.5731
 4337SOL    HW224648   4.493   4.282   6.523 -0.7448  1.1469  0.2525
 4338SOL     OW24649   0.344   1.618  12.691 -0.1755 -0.2902 -0.6895
 4338SOL    HW124650   0.347   1.621  12.595  0.9962 -0.0000 -0.6449
 4338SOL    HW224651   0.428   1.572  12.695  0.1776  0.6185  2.4120
 4339SOL     OW24652   3.337   4.176   5.138  0.1785  0.6104 -0.2779
 4339SOL    HW124653   3.256   4.173   5.187  0.0950  2.1111 -0.3219
 4339SOL    HW224654   3.330   4.240   5.067 -1.6757  0.1357 -0.5134
 4340SOL     OW24655   1.582   3.901   5.885  0.2271  0.3680  0.0525
 4340SOL    HW124656   1.659   3.935   5.930  1.0399 -0.0737 -0.9850
 4340SOL    HW224657   1.548   3.986   5.858  1.4367  1.1343  0.9528
 4341SOL     OW24658   3.922   0.670  12.076  0.3126  0.2793  0.2496
 4341SOL    HW124659   3.898   0.762  12.086  0.0807  0.1870  0.5636
 4341SOL    HW224660   3.940   0.673  11.982  2.0694 -2.9839  0.4786
 4342SOL     OW24661   3.118   3.579   1.407  0.0114  0.0465  0.3748
 4342SOL    HW124662   3.109   3.636   1.330  0.1993 -1.5567 -0.8407
 4342SOL    HW224663   3.178   3.635   1.455 -0.7193  1.3994 -0.2854
 4343SOL     OW24664   3.902   1.062  16.873  0.2305  0.3068 -0.4572
 4343SOL    HW124665   3.973   1.031  16.929  1.0982  1.3431 -0.9856
 4343SOL    HW224666   3.954   1.138  16.845 -0.1977  0.2668 -1.3655
 4344SOL     OW24667   3.262   1.711   8.927  0.3953 -0.2814 -0.1746
 4344SOL    HW124668   3.209   1.767   8.984  0.7074  0.7443 -0.8811
 4344SOL    HW224669   3.232   1.733   8.839  0.6317  0.0119 -0.1810
 4345SOL     OW24670   3.131   1.602  12.619  0.2762  0.4589 -0.4247
 4345SOL    HW124671   3.092   1.540  12.680  0.3136 -0.9040 -1.8033
 4345SOL    HW224672   3.100   1.686  12.653  1.7811  0.2643  1.4530
 4346SOL     OW24673   2.010   2.010   8.891  0.4837  0.7626  0.1771
 4346SOL    HW124674   2.021   2.005   8.986  2.5671  3.2657  0.0832
 4346SOL    HW224675   2.014   1.918   8.865  1.3434  1.1119 -0.9382
 4347SOL     OW24676   4.122   0.461   7.071 -0.1123  0.4079  1.0203
 4347SOL    HW124677   4.125   0.516   6.993  2.2837 -1.0423  0.0921
 4347SOL    HW224678   4.037   0.420   7.056 -0.1062  0.6946  0.2170
 4348SOL     OW24679   2.033   0.999   8.481 -0.2826 -0.1708  0.9005
 4348SOL    HW124680   2.029   0.962   8.393  1.6442  0.2995  0.6273
 4348SOL    HW224681   1.990   0.923   8.522 -1.5971  1.9398  3.4601
 4349SOL     OW24682   3.139   2.935   5.785 -0.4837 -0.0826  0.2695
 4349SOL    HW124683   3.223   2.975   5.760 -0.7215  0.1418 -0.1679
 4349SOL    HW224684   3.098   2.922   5.699  0.1600  0.2281 -0.0882
 4350SOL     OW24685   1.010   4.617   8.314  0.2250  0.3990  0.2187
 4350SOL    HW124686   0.985   4.524   8.316  0.0833  0.3758 -2.2984
 4350SOL    HW224687   0.937   4.667   8.279 -0.9207 -1.5565 -0.2093
 4351SOL     OW24688   1.159   1.863   7.292 -0.5746  0.0555  0.3741
 4351SOL    HW124689   1.246   1.880   7.257 -0.9698  0.7503 -0.2729
 4351SOL    HW224690   1.162   1.769   7.273 -0.0915  0.4735 -1.6496
 4352SOL     OW24691   0.662   0.377   9.651 -0.1208  0.3674 -0.2331
 4352SOL    HW124692   0.711   0.393   9.570  1.3247  0.8707  0.7379
 4352SOL    HW224693   0.732   0.356   9.713 -0.9289 -1.0363  0.1885
 4353SOL     OW24694   2.955   2.812  16.297 -0.0205  0.1575 -1.0178
 4353SOL    HW124695   2.935   2.829  16.205  0.7833 -2.0254 -1.5827
 4353SOL    HW224696   3.050   2.826  16.300 -0.0661  0.8180 -2.4049
 4354SOL     OW24697   0.680   3.085   5.138 -0.3771  0.4881  0.0434
 4354SOL    HW124698   0.590   3.107   5.115 -0.9244 -0.0254  1.6209
 4354SOL    HW224699   0.708   3.054   5.052  2.7535  2.5607  0.3373
 4355SOL     OW24700   1.182   3.496   6.058 -0.0812  0.1093  0.3837
 4355SOL    HW124701   1.234   3.441   6.117 -0.4731 -1.2132 -0.4967
 4355SOL    HW224702   1.256   3.550   6.028  0.6371  0.2280  2.3747
 4356SOL     OW24703   3.879   2.566   8.991 -0.3753 -0.8079  0.5183
 4356SOL    HW124704   3.828   2.647   8.992 -0.3285 -0.7700  0.0036
 4356SOL    HW224705   3.911   2.573   9.080  0.0042  0.6878  0.2573
 4357SOL     OW24706   2.739   4.494  16.398  0.3906 -0.2596 -0.2721
 4357SOL    HW124707   2.763   4.489  16.490  2.9798 -0.2711 -0.9565
 4357SOL    HW224708   2.807   4.545  16.355  1.2451  0.0204  1.4171
 4358SOL     OW24709   4.180   2.658   6.434 -0.1255  0.2924  0.1243
 4358SOL    HW124710   4.115   2.719   6.469  1.3570  1.9767 -0.0223
 4358SOL    HW224711   4.121   2.590   6.404  0.6694  0.4027 -1.6829
 4359SOL     OW24712   4.268   2.191   8.132  0.2968 -0.0893  0.0894
 4359SOL    HW124713   4.181   2.156   8.148  0.9231 -1.1103  1.2962
 4359SOL    HW224714   4.255   2.284   8.146 -2.5517 -0.3590 -0.9016
 4360SOL     OW24715   1.000   4.186   7.676  0.7941 -0.4878  0.0787
 4360SOL    HW124716   0.915   4.141   7.679  0.2376  0.5621  0.1171
 4360SOL    HW224717   0.979   4.243   7.602  0.5448 -0.8105 -0.1004
 4361SOL     OW24718   0.601   3.758   5.896  0.6479 -0.1115  0.0808
 4361SOL    HW124719   0.671   3.707   5.856  0.0357 -1.6501  0.9643
 4361SOL    HW224720   0.607   3.714   5.980  0.8938  3.2751  1.8119
 4362SOL     OW24721   3.902   3.046   7.532 -0.4648 -0.4332  0.5014
 4362SOL    HW124722   3.844   2.970   7.524  1.2589 -1.6286 -0.6108
 4362SOL    HW224723   3.837   3.094   7.584  0.2155  0.6392  0.3537
 4363SOL     OW24724   2.602   0.779   4.900 -0.1619 -0.5933  0.0338
 4363SOL    HW124725   2.664   0.817   4.962 -0.6854  0.6999 -0.2472
 4363SOL    HW224726   2.623   0.813   4.813  1.1957  0.0511  0.6226
 4364SOL     OW24727   3.345   0.193   7.662  0.2639  0.1051  0.4280
 4364SOL    HW124728   3.253   0.208   7.685  0.3492  1.0568  0.1409
 4364SOL    HW224729   3.329   0.116   7.606  0.4058  0.1838  0.2794
 4365SOL     OW24730   4.592   3.512   0.591 -0.2592  0.3705 -0.6376
 4365SOL    HW124731   4.630   3.506   0.504  1.2405 -0.0015  0.0441
 4365SOL    HW224732   4.502   3.527   0.562 -1.4111 -2.3858  1.5095
 4366SOL     OW24733   1.411   1.755   6.102 -0.2201  0.5200 -0.1252
 4366SOL    HW124734   1.349   1.778   6.033 -0.0532  1.2773 -0.0238
 4366SOL    HW224735   1.370   1.804   6.174 -2.3179 -2.0654  0.4558
 4367SOL     OW24736   3.923   3.391   5.295  0.2233 -0.2030  0.2716
 4367SOL    HW124737   3.893   3.385   5.386  1.0686 -1.2277  0.4781
 4367SOL    HW224738   4.009   3.349   5.302  0.3274  0.3210  2.2427
 4368SOL     OW24739   3.007   3.695  14.539 -0.6460  0.2881  0.1510
 4368SOL    HW124740   3.088   3.702  14.591 -0.5949 -0.6134  0.1955
 4368SOL    HW224741   2.960   3.777  14.555 -3.9304 -1.7916  1.1230
 4369SOL     OW24742   1.482   2.729   4.773  0.9000  0.7705  0.7067
 4369SOL    HW124743   1.512   2.732   4.863  1.4068  2.3238  0.4985
 4369SOL    HW224744   1.481   2.634   4.762 -0.5764  0.8706 -0.1067
 4370SOL     OW24745   3.661   0.857   4.136 -0.3984  0.0792 -0.5810
 4370SOL    HW124746   3.742   0.878   4.091 -0.2251 -0.0065 -0.3123
 4370SOL    HW224747   3.680   0.774   4.180  0.9718  1.7437  1.9728
 4371SOL     OW24748   1.847   4.655   3.192  0.1410  0.1800  0.3575
 4371SOL    HW124749   1.859   4.685   3.102  0.5754 -1.8639 -0.2572
 4371SOL    HW224750   1.785   4.583   3.181  0.3659 -0.5864  4.0194
 4372SOL     OW24751   1.637   4.058   3.006 -0.3132  0.7002 -0.0632
 4372SOL    HW124752   1.705   3.996   2.976  0.9141  1.1035  1.8925
 4372SOL    HW224753   1.705   4.101   3.058  0.5975 -0.7095 -0.0802
 4373SOL     OW24754   3.695   4.477   4.672  0.0165  0.3396 -0.0128
 4373SOL    HW124755   3.619   4.460   4.728  3.1780 -1.7600  3.6285
 4373SOL    HW224756   3.761   4.453   4.737 -1.9992 -1.0041  1.5682
 4374SOL     OW24757   3.919   2.520   2.187 -0.1019  0.0521 -0.4472
 4374SOL    HW124758   3.936   2.609   2.156 -2.6955  0.0767 -1.7961
 4374SOL    HW224759   3.852   2.500   2.122 -0.1100 -0.7085 -0.2031
 4375SOL     OW24760   2.068   4.060   3.791 -0.9789 -0.0198 -0.1392
 4375SOL    HW124761   1.994   4.117   3.769  0.3686  2.3551  1.5670
 4375SOL    HW224762   2.051   3.994   3.724  1.7703 -0.4692 -0.3746
 4376SOL     OW24763   0.660   0.514  14.844  0.5966 -0.0908 -0.3521
 4376SOL    HW124764   0.588   0.535  14.784 -0.6874 -0.8382  0.9217
 4376SOL    HW224765   0.638   0.575  14.915 -1.9346 -0.0336 -1.1788
 4377SOL     OW24766   4.346   4.522   3.450 -0.4123 -0.3081 -0.0527
 4377SOL    HW124767   4.346   4.606   3.404  0.7989 -0.0589  0.4075
 4377SOL    HW224768   4.316   4.547   3.537  2.1969 -0.9418  1.0232
 4378SOL     OW24769   3.914   3.466   6.631 -0.0175  0.0193  0.1220
 4378SOL    HW124770   3.864   3.464   6.712  0.3038 -0.3496  0.3118
 4378SOL    HW224771   3.846   3.454   6.564 -1.1189 -0.7305  1.3819
 4379SOL     OW24772   2.848   3.114  14.026  0.1846 -0.0368 -0.3777
 4379SOL    HW124773   2.759   3.096  13.997 -0.1168  0.3331  0.3100
 4379SOL    HW224774   2.875   3.181  13.964 -1.8013  0.7121 -0.4495
 4380SOL     OW24775   2.737   3.253   9.185 -0.1601  0.1578 -0.3753
 4380SOL    HW124776   2.741   3.217   9.274  0.9347  0.2663 -0.3828
 4380SOL    HW224777   2.700   3.184   9.130  1.3883 -1.0108  0.0614
 4381SOL     OW24778   2.675   0.792   2.327 -0.5688 -0.2462  0.1093
 4381SOL    HW124779   2.655   0.884   2.344 -1.0816 -0.0695 -1.4724
 4381SOL    HW224780   2.664   0.785   2.232  1.5599  2.7138 -0.3457
 4382SOL     OW24781   3.776   4.530   9.296  0.0715 -0.1281 -0.3994
 4382SOL    HW124782   3.803   4.591   9.228 -0.9373  0.1787 -0.5147
 4382SOL    HW224783   3.864   4.522   9.334 -0.8117 -0.3483  1.6064
 4383SOL     OW24784   1.678   0.197   2.434  0.1311 -0.2082  0.1209
 4383SOL    HW124785   1.612   0.173   2.499  2.3953  0.1335  2.5356
 4383SOL    HW224786   1.745   0.227   2.495 -1.5352  1.7100  1.0040
 4384SOL     OW24787   4.651   2.466  14.092 -0.5297 -0.5331  0.5043
 4384SOL    HW124788   4.702   2.519  14.031 -0.1355 -1.7912 -0.2583
 4384SOL    HW224789   4.720   2.413  14.132 -1.9760 -2.3971  0.5828
 4385SOL     OW24790   3.160   1.108   9.357 -0.1150 -0.2081 -0.4450
 4385SOL    HW124791   3.236   1.152   9.395  1.0772 -2.2580 -0.4714
 4385SOL    HW224792   3.202   1.064   9.283 -1.3493  0.2637 -1.4348
 4386SOL     OW24793   0.010   1.368   8.583 -0.0175  0.3503  0.0021
 4386SOL    HW124794   4.660   1.349   8.609  0.4401 -0.0210  1.3622
 4386SOL    HW224795   4.735   1.427   8.510 -1.3670  0.9902  0.8049
 4387SOL     OW24796   0.690   1.062   3.865 -0.6299 -0.1829  0.1536
 4387SOL    HW124797   0.669   1.043   3.957 -0.6893  1.6869  0.5363
 4387SOL    HW224798   0.769   1.008   3.866  0.1509  0.9368  1.0242
 4388SOL     OW24799   3.935   3.702  12.473 -0.2224  0.1573  0.1003
 4388SOL    HW124800   3.866   3.640  12.494 -1.2040  1.6230  1.1859
 4388SOL    HW224801   3.913   3.712  12.380  0.7259  4.0675  0.2848
 4389SOL     OW24802   4.676   4.518   5.199  0.0588 -0.0951  0.2861
 4389SOL    HW124803   4.643   4.437   5.160  2.9780 -0.9463 -0.4091
 4389SOL    HW224804   0.023   4.489   5.226 -0.5665 -2.2092  0.0147
 4390SOL     OW24805   2.463   3.484   5.989 -0.3743 -0.0769 -0.1122
 4390SOL    HW124806   2.422   3.520   5.910 -0.4988 -0.9141 -0.4331
 4390SOL    HW224807   2.544   3.444   5.955 -1.1802 -0.9163 -1.0703
 4391SOL     OW24808   0.092   0.576   0.561  0.9121 -0.0758  0.6061
 4391SOL    HW124809   0.177   0.540   0.589  1.0773  0.0319  0.2490
 4391SOL    HW224810   0.113   0.620   0.479 -4.3571 -0.3043 -0.8511
 4392SOL     OW24811   3.296   2.403   2.072  0.6341 -0.3724  0.5302
 4392SOL    HW124812   3.245   2.351   2.134  0.4215  0.9380  1.4732
 4392SOL    HW224813   3.259   2.490   2.088  3.8020  0.8947  0.9114
 4393SOL     OW24814   4.207   3.731   8.483  0.0062  0.0832  0.6222
 4393SOL    HW124815   4.175   3.791   8.550  0.4356  0.9640  0.0403
 4393SOL    HW224816   4.130   3.680   8.458 -1.3330  2.1046  0.6087
 4394SOL     OW24817   0.523   3.106   2.633  0.7689 -0.4864 -0.4411
 4394SOL    HW124818   0.429   3.100   2.617  0.6328  2.7441 -0.8205
 4394SOL    HW224819   0.544   3.012   2.634  0.5386 -0.5368 -0.4947
 4395SOL     OW24820   2.422   1.732   8.800  0.0643  0.4312  0.1993
 4395SOL    HW124821   2.396   1.645   8.767 -1.3008  1.4696 -1.4615
 4395SOL    HW224822   2.513   1.706   8.813 -0.0222  1.5819  2.9132
 4396SOL     OW24823   2.008   4.613   5.281 -0.1451 -0.1223 -0.1800
 4396SOL    HW124824   1.984   4.561   5.357  0.0817 -1.6236 -1.1441
 4396SOL    HW224825   2.023   4.700   5.318 -1.8255  0.7944 -1.6947
 4397SOL     OW24826   4.125   3.378   7.326  0.5782  0.2241 -1.1064
 4397SOL    HW124827   4.115   3.345   7.416 -0.4895 -0.0596 -1.3185
 4397SOL    HW224828   4.217   3.401   7.323  0.6315  0.3354  1.6432
 4398SOL     OW24829   3.089   0.803   9.621 -0.7093 -0.3411 -0.4313
 4398SOL    HW124830   3.062   0.891   9.594  1.2804 -0.1970 -1.9413
 4398SOL    HW224831   3.003   0.763   9.611 -0.1785 -1.7512  0.6420
 4399SOL     OW24832   3.074   3.838  10.325 -0.0772 -0.1276  0.4918
 4399SOL    HW124833   3.117   3.806  10.245 -0.0012  0.8043  0.1678
 4399SOL    HW224834   3.023   3.913  10.296  1.1431  1.0116  1.3044
 4400SOL     OW24835   4.029   0.973   1.692  0.1439 -0.1138  0.2494
 4400SOL    HW124836   3.944   0.932   1.706  0.2886 -0.0828  1.1969
 4400SOL    HW224837   4.055   0.999   1.781 -2.2287  0.3324  0.8184
 4401SOL     OW24838   0.240   2.237  10.282  0.5854  0.3135  0.4847
 4401SOL    HW124839   0.252   2.276  10.368 -0.1911  0.3673  0.5708
 4401SOL    HW224840   0.322   2.248  10.234 -0.5693  0.3511 -1.4736
 4402SOL     OW24841   0.183   2.571  15.693 -0.4742  0.1579 -0.0728
 4402SOL    HW124842   0.114   2.506  15.679 -0.1978 -0.2517  0.4344
 4402SOL    HW224843   0.255   2.517  15.661  0.7080  1.9186 -0.3481
 4403SOL     OW24844   4.424   3.136   8.935 -0.0294  0.3066  0.0055
 4403SOL    HW124845   4.508   3.179   8.950 -0.7827  2.0548 -0.8032
 4403SOL    HW224846   4.437   3.110   8.843  2.0060 -3.1884  1.3026
 4404SOL     OW24847   1.825   3.601   6.456 -0.0960  0.0227  0.1917
 4404SOL    HW124848   1.887   3.613   6.528 -0.9253  2.6264  0.4753
 4404SOL    HW224849   1.859   3.515   6.431 -0.2670  0.5673 -1.9281
 4405SOL     OW24850   3.422   4.067   5.839 -0.7927 -0.8193  0.0320
 4405SOL    HW124851   3.430   4.051   5.933  1.1647 -0.6686 -0.1092
 4405SOL    HW224852   3.433   4.162   5.845 -0.2520 -0.7972 -1.3426
 4406SOL     OW24853   4.693   3.134   2.178  0.1518 -0.3223 -0.5329
 4406SOL    HW124854   4.675   3.227   2.166  0.8761 -0.1137 -0.0069
 4406SOL    HW224855   4.605   3.098   2.166 -0.0747  0.7641 -2.0356
 4407SOL     OW24856   1.295   4.483   6.364  0.4727  0.0083  0.0688
 4407SOL    HW124857   1.206   4.493   6.332  0.6348  1.2859  0.0055
 4407SOL    HW224858   1.317   4.396   6.330 -0.7071  0.4041 -1.6837
 4408SOL     OW24859   0.711   1.794  12.127 -0.1667  0.1407  0.5003
 4408SOL    HW124860   0.636   1.827  12.077  0.0251 -0.6752 -0.3341
 4408SOL    HW224861   0.756   1.876  12.148 -0.5311  0.3993  0.2697
 4409SOL     OW24862   1.193   2.678  17.707  0.3873 -0.1372  0.5575
 4409SOL    HW124863   1.234   2.759  17.738  0.4063  0.0842 -0.0403
 4409SOL    HW224864   1.116   2.703  17.656  2.9637  4.1880 -1.1879
 4410SOL     OW24865   3.682   0.412  10.822 -0.6011  0.1675 -0.7280
 4410SOL    HW124866   3.759   0.358  10.840 -1.6645 -0.8938  0.6741
 4410SOL    HW224867   3.687   0.401  10.727 -0.8250  3.1841 -1.0722
 4411SOL     OW24868   3.966   2.776   7.847 -0.0856  0.1550 -0.2294
 4411SOL    HW124869   3.934   2.711   7.911 -0.7712 -0.2901 -1.0224
 4411SOL    HW224870   3.877   2.797   7.818  0.0575  0.5453 -0.3820
 4412SOL     OW24871   2.577   2.602  10.025  0.3091 -0.6527  0.5332
 4412SOL    HW124872   2.570   2.695  10.048  0.7215 -0.1817 -1.2354
 4412SOL    HW224873   2.669   2.589  10.050  0.9452 -2.5982 -2.8719
 4413SOL     OW24874   2.765   4.511   0.640  0.2372  0.8711  0.2366
 4413SOL    HW124875   2.756   4.498   0.734 -0.1371 -0.6824 -0.0123
 4413SOL    HW224876   2.785   4.421   0.611 -2.1719  0.5680 -0.4917
 4414SOL     OW24877   2.523   0.922  10.555  0.0100 -0.3534  0.1968
 4414SOL    HW124878   2.503   0.908  10.648  1.7859 -2.1171  0.3207
 4414SOL    HW224879   2.617   0.944  10.560 -0.1791  0.8831 -1.6079
 4415SOL     OW24880   3.873   4.735   2.823 -0.1402  0.3037 -0.0420
 4415SOL    HW124881   3.910   0.014   2.736  1.0570  3.7035  1.1776
 4415SOL    HW224882   3.866   4.641   2.807 -1.6030  0.9458 -3.2142
 4416SOL     OW24883   3.556   2.888  17.596 -0.5905 -0.2264 -0.4163
 4416SOL    HW124884   3.600   2.824  17.540 -0.4821 -3.1465  2.9749
 4416SOL    HW224885   3.604   2.887  17.679  2.1726 -0.2227 -2.0136
 4417SOL     OW24886   3.626   2.821  10.092  0.2617  0.2426 -0.4453
 4417SOL    HW124887   3.658   2.832  10.182 -2.1107  1.3273  0.2745
 4417SOL    HW224888   3.534   2.846  10.098  0.1710  0.0093 -0.8976
 4418SOL     OW24889   2.775   2.647   6.943  0.4035 -0.3265  0.4742
 4418SOL    HW124890   2.749   2.666   6.853  2.0392 -0.0275  0.0594
 4418SOL    HW224891   2.735   2.562   6.960 -1.3029  0.1616 -1.1270
 4419SOL     OW24892   3.629   4.172   4.947 -0.0960 -0.1051  0.0689
 4419SOL    HW124893   3.685   4.179   5.025  0.3497 -1.6851 -0.1088
 4419SOL    HW224894   3.554   4.227   4.969 -0.4654  0.3153 -2.2783
 4420SOL     OW24895   1.713   0.242   7.169 -0.0669 -0.4842  0.5572
 4420SOL    HW124896   1.713   0.330   7.133 -1.9572 -0.9206 -0.5343
 4420SOL    HW224897   1.787   0.200   7.125 -0.5312  0.7700 -1.4437
 4421SOL     OW24898   2.114   2.209   3.488  0.1098  0.1862 -0.1788
 4421SOL    HW124899   2.093   2.262   3.411 -0.7227 -1.1914 -0.9074
 4421SOL    HW224900   2.200   2.177   3.461 -0.6334  0.0068 -2.3353
 4422SOL     OW24901   4.014   1.619  11.455  0.0645  0.0896 -0.0895
 4422SOL    HW124902   4.080   1.552  11.441  2.2373  2.0598  0.8283
 4422SOL    HW224903   3.955   1.570  11.512  2.4048 -1.2112  1.1722
 4423SOL     OW24904   3.689   0.122   9.465 -0.0264 -0.2889  0.3600
 4423SOL    HW124905   3.633   0.049   9.439 -1.5863  0.7975  0.6627
 4423SOL    HW224906   3.719   0.101   9.553  0.2228 -2.5221 -0.2724
 4424SOL     OW24907   3.793   0.954   6.060 -0.2270  0.1068 -0.1974
 4424SOL    HW124908   3.820   1.013   5.990 -2.6307 -1.1415 -2.2150
 4424SOL    HW224909   3.700   0.941   6.041 -0.1601  0.4377 -0.7778
 4425SOL     OW24910   0.768   2.961   7.771  0.4783 -0.3528 -1.0701
 4425SOL    HW124911   0.766   2.868   7.790  2.4855  0.5023  3.3707
 4425SOL    HW224912   0.675   2.969   7.793  0.8509  2.3190 -0.4224
 4426SOL     OW24913   3.304   0.015   9.119 -0.3349 -0.9781 -0.3564
 4426SOL    HW124914   3.282   0.039   9.209 -1.8497 -0.0533 -0.9762
 4426SOL    HW224915   3.248   0.074   9.070 -1.4722 -0.6723  1.3165
 4427SOL     OW24916   3.489   0.038   3.132 -0.3991  0.3206 -0.0697
 4427SOL    HW124917   3.540   4.724   3.193  0.7681  0.7009 -0.7132
 4427SOL    HW224918   3.413   0.047   3.190 -0.5032 -0.2454 -0.1129
 4428SOL     OW24919   0.434   1.581  12.431  0.3377  0.2979 -0.0155
 4428SOL    HW124920   0.471   1.496  12.407  0.5541  0.4274 -0.1435
 4428SOL    HW224921   0.423   1.612  12.341  1.0167 -1.2757 -0.6386
 4429SOL     OW24922   3.993   1.132   5.887  0.1311  0.4948  0.0623
 4429SOL    HW124923   4.074   1.176   5.911  0.3642  0.9145 -1.4590
 4429SOL    HW224924   4.020   1.099   5.801  1.3757 -1.3479  1.1684
 4430SOL     OW24925   1.524   2.116  11.269 -0.2407 -0.0898 -0.1735
 4430SOL    HW124926   1.549   2.055  11.200 -1.4230  1.6424 -2.1519
 4430SOL    HW224927   1.583   2.189  11.249 -1.0498  0.3677 -0.8987
 4431SOL     OW24928   3.026   1.525  13.579  0.2688 -0.1672 -0.0002
 4431SOL    HW124929   3.099   1.574  13.539 -0.3149  0.5906 -0.1410
 4431SOL    HW224930   2.993   1.591  13.639 -0.7612 -0.6951  0.0066
 4432SOL     OW24931   0.399   1.877   8.883 -0.0670  0.4470  0.1714
 4432SOL    HW124932   0.343   1.936   8.833 -1.2271 -0.4944  0.3807
 4432SOL    HW224933   0.481   1.888   8.834 -0.2339  1.0984  0.0412
 4433SOL     OW24934   2.624   2.688  14.026  0.5102  0.8521  0.0946
 4433SOL    HW124935   2.632   2.719  13.936 -0.9286 -0.7164 -0.5844
 4433SOL    HW224936   2.580   2.604  14.010 -3.0415  1.9942  3.7493
 4434SOL     OW24937   1.921   0.237   1.547 -0.6662 -0.0047 -1.0871
 4434SOL    HW124938   1.859   0.280   1.606  2.1433 -0.7119  2.3832
 4434SOL    HW224939   1.867   0.161   1.524 -3.0906  1.2707  0.4049
 4435SOL     OW24940   0.124   2.759   1.111  0.0867  0.1240 -0.1554
 4435SOL    HW124941   0.193   2.753   1.176  1.4844 -0.7506 -1.7156
 4435SOL    HW224942   0.141   2.680   1.059 -0.2418 -0.5116  0.7118
 4436SOL     OW24943   3.754   2.696   9.395 -0.1323 -0.4844 -0.5971
 4436SOL    HW124944   3.696   2.666   9.465 -1.6119  3.8944  0.0922
 4436SOL    HW224945   3.742   2.790   9.409 -0.8206 -0.6712  0.1063
 4437SOL     OW24946   0.442   2.585   3.186 -0.1471  0.7537 -0.2361
 4437SOL    HW124947   0.495   2.505   3.191 -1.2532 -0.0033 -0.5433
 4437SOL    HW224948   0.355   2.555   3.161  0.0032  0.2004 -0.1156
 4438SOL     OW24949   3.216   1.951   5.162 -0.8621  0.1434 -0.4091
 4438SOL    HW124950   3.159   1.875   5.167 -0.1101 -0.4002 -0.0699
 4438SOL    HW224951   3.265   1.944   5.244  1.8641  2.4766 -1.8481
 4439SOL     OW24952   3.065   0.963   7.312 -0.1463  0.2691  0.4602
 4439SOL    HW124953   3.027   0.885   7.353  1.0556 -0.4729  0.1556
 4439SOL    HW224954   3.149   0.973   7.357  0.2609  1.7338 -0.5999
 4440SOL     OW24955   1.497   4.619  10.445  0.0826  0.1358 -1.4052
 4440SOL    HW124956   1.459   4.563  10.377  1.7070  0.3991 -2.5182
 4440SOL    HW224957   1.592   4.607  10.437  0.1658 -0.5599  0.6301
 4441SOL     OW24958   1.779   0.312   3.454  0.0946  0.4274  0.0791
 4441SOL    HW124959   1.686   0.335   3.460  0.2161  0.9796 -0.1873
 4441SOL    HW224960   1.811   0.398   3.480 -2.3700  1.4207 -0.2184
 4442SOL     OW24961   1.507   1.304   2.174 -0.8753 -0.0525 -0.4402
 4442SOL    HW124962   1.481   1.356   2.099 -0.7690 -1.7394 -1.6591
 4442SOL    HW224963   1.558   1.237   2.127 -0.3502 -0.5701  0.8530
 4443SOL     OW24964   2.849   2.948   8.491 -0.3610 -0.0150  0.3735
 4443SOL    HW124965   2.936   2.912   8.472  0.7464  2.9578 -0.2573
 4443SOL    HW224966   2.875   3.034   8.526 -5.7346  0.7348  2.4712
 4444SOL     OW24967   3.183   4.508   2.301 -0.8332 -0.1091 -0.4021
 4444SOL    HW124968   3.162   4.574   2.367 -0.3845 -0.1326 -0.2408
 4444SOL    HW224969   3.175   4.569   2.227  0.6828 -1.7575 -1.9376
 4445SOL     OW24970   1.292   2.235   6.802 -0.4174  0.2178  0.3084
 4445SOL    HW124971   1.256   2.314   6.844 -0.2912 -0.6812  2.1031
 4445SOL    HW224972   1.367   2.270   6.754  0.7041 -1.0252  1.1844
 4446SOL     OW24973   2.994   3.512   3.947 -0.3017 -0.4146 -0.3638
 4446SOL    HW124974   2.996   3.475   3.859 -0.6092  0.3079 -0.6760
 4446SOL    HW224975   3.074   3.564   3.952  0.7213 -1.8536 -1.8165
 4447SOL     OW24976   4.334   3.471   1.768 -0.5869  0.4379 -0.6030
 4447SOL    HW124977   4.394   3.443   1.699  2.2987 -0.6092  2.3170
 4447SOL    HW224978   4.345   3.566   1.775  4.3303 -0.1843 -0.0019
 4448SOL     OW24979   4.073   1.355   8.503  0.3136  0.2898 -0.0916
 4448SOL    HW124980   3.988   1.350   8.460 -1.4530  4.5082  2.8824
 4448SOL    HW224981   4.054   1.394   8.588 -0.5860 -1.4093  0.4936
 4449SOL     OW24982   3.456   1.919   7.407  0.3894 -0.2217  0.6386
 4449SOL    HW124983   3.404   1.974   7.349  3.1161  1.8752  0.2083
 4449SOL    HW224984   3.498   1.983   7.464  1.1010  0.7227 -0.9537
 4450SOL     OW24985   0.370   1.632  10.444 -0.5090  0.2276  0.5289
 4450SOL    HW124986   0.295   1.633  10.385 -1.9517  0.8727  2.3600
 4450SOL    HW224987   0.410   1.719  10.436  0.8558 -0.4178  0.3750
 4451SOL     OW24988   2.109   1.618   7.575 -0.5479 -0.4212 -0.2708
 4451SOL    HW124989   2.182   1.572   7.533 -1.0650 -0.3091 -1.3032
 4451SOL    HW224990   2.139   1.639   7.664 -0.4325  0.2389 -0.4597
 4452SOL     OW24991   0.844   1.717   2.272 -0.1588 -0.0648 -0.1953
 4452SOL    HW124992   0.879   1.787   2.216 -2.1335  1.3319  0.3212
 4452SOL    HW224993   0.923   1.662   2.272  0.4391  0.8148  2.2544
 4453SOL     OW24994   2.947   1.459  14.507  0.6105  0.0192 -0.4768
 4453SOL    HW124995   2.883   1.387  14.511  1.7374 -0.9539  0.3554
 4453SOL    HW224996   2.931   1.501  14.592 -0.0302  1.4958 -1.3343
 4454SOL     OW24997   3.748   1.685   2.183  0.6387  0.0579 -0.1053
 4454SOL    HW124998   3.757   1.640   2.099 -0.7316  3.2944 -2.0045
 4454SOL    HW224999   3.806   1.760   2.165 -1.3053  2.0305  2.0109
 4455SOL     OW25000   0.883   0.341   6.501  0.2969 -0.1860 -0.4222
 4455SOL    HW125001   0.788   0.335   6.503  0.2026  1.6790  0.5236
 4455SOL    HW225002   0.895   0.434   6.520 -1.6194 -0.2890  1.2420
 4456SOL     OW25003   2.186   0.329   1.497  0.5241  0.0925 -0.5721
 4456SOL    HW125004   2.194   0.317   1.592  1.6099  4.4935 -0.1038
 4456SOL    HW225005   2.094   0.311   1.481 -0.2537  2.0114  1.6792
 4457SOL     OW25006   2.580   1.775   4.397  0.0007 -0.2920 -0.4594
 4457SOL    HW125007   2.635   1.808   4.326 -2.0573 -0.8683 -2.3103
 4457SOL    HW225008   2.634   1.724   4.457  0.8567 -1.4093 -2.1993
 4458SOL     OW25009   0.081   3.778   3.561  0.0369 -0.4598  0.4277
 4458SOL    HW125010   0.165   3.771   3.515 -0.4120 -0.8865 -0.3448
 4458SOL    HW225011   0.015   3.760   3.494 -0.4346 -2.3090  1.4033
 4459SOL     OW25012   2.264   0.397   5.056  0.3656 -0.1803  0.5921
 4459SOL    HW125013   2.214   0.322   5.024  1.8660 -0.5177 -0.9522
 4459SOL    HW225014   2.298   0.361   5.139 -1.3985 -0.2929  1.2671
 4460SOL     OW25015   2.615   4.493   4.435  0.2406 -0.0397  0.8382
 4460SOL    HW125016   2.614   4.572   4.489 -1.8007 -0.1102  0.9004
 4460SOL    HW225017   2.709   4.475   4.433  0.5554  1.7707 -0.5744
 4461SOL     OW25018   2.795   1.580  16.712  0.2892 -0.1636 -0.2149
 4461SOL    HW125019   2.761   1.595  16.624 -0.0033  1.5843  0.1808
 4461SOL    HW225020   2.869   1.524  16.690  0.1684 -0.9804  1.4161
 4462SOL     OW25021   0.599   3.226   2.902  0.5435  0.4198  0.4120
 4462SOL    HW125022   0.526   3.209   2.962  0.4470 -0.0499  0.1592
 4462SOL    HW225023   0.557   3.201   2.820  0.7667 -1.3875  0.8348
 4463SOL     OW25024   0.287   2.147   2.374  0.0350  0.3222 -0.1183
 4463SOL    HW125025   0.381   2.131   2.389  0.1094 -1.2146 -2.1769
 4463SOL    HW225026   0.266   2.220   2.431 -0.6453  0.7698 -0.9453
 4464SOL     OW25027   1.986   4.509   9.407 -0.2270  0.0381  0.0178
 4464SOL    HW125028   1.960   4.423   9.439 -0.4199  0.4774  1.0697
 4464SOL    HW225029   1.931   4.566   9.461 -0.2833  0.5534 -0.5757
 4465SOL     OW25030   3.193   4.066   1.617  0.0406 -0.2081 -0.6155
 4465SOL    HW125031   3.201   3.971   1.611  0.0996 -0.3022  1.0406
 4465SOL    HW225032   3.098   4.068   1.626  0.1224 -4.3053  1.1901
 4466SOL     OW25033   3.038   3.236   7.395  0.1075  0.2067 -0.1080
 4466SOL    HW125034   3.116   3.212   7.344 -0.1259  0.3443 -0.5245
 4466SOL    HW225035   3.056   3.330   7.394 -0.0624  0.2758  2.4072
 4467SOL     OW25036   0.536   3.088   8.078  0.2255  0.1327  0.6158
 4467SOL    HW125037   0.530   3.150   8.151  1.6589 -1.2770  1.9116
 4467SOL    HW225038   0.630   3.078   8.065  0.4570 -1.2967  3.4846
 4468SOL     OW25039   1.792   2.596  15.539  0.2975  0.4697  0.5032
 4468SOL    HW125040   1.865   2.658  15.533  1.8250 -1.4297 -0.2040
 4468SOL    HW225041   1.827   2.516  15.500  1.4154  0.3596  1.7248
 4469SOL     OW25042   0.868   0.595   7.359  0.1751  0.0733  0.2586
 4469SOL    HW125043   0.805   0.529   7.388  1.4030 -1.3375 -0.2899
 4469SOL    HW225044   0.934   0.539   7.317 -1.0356 -2.5149  1.8181
 4470SOL     OW25045   1.209   3.758   1.743 -0.1249 -0.3341 -0.1795
 4470SOL    HW125046   1.155   3.682   1.766 -0.1496 -0.1941  0.2138
 4470SOL    HW225047   1.264   3.710   1.681 -0.4699  1.0587 -1.5910
 4471SOL     OW25048   2.989   3.843   8.719  0.2335 -0.1366  0.6861
 4471SOL    HW125049   2.998   3.912   8.653  0.6934  1.1783  2.0981
 4471SOL    HW225050   3.080   3.818   8.734 -0.1668 -1.6380  0.5536
 4472SOL     OW25051   4.169   2.915   3.117 -0.5664 -0.7146 -0.5305
 4472SOL    HW125052   4.187   2.821   3.105 -1.0560 -0.9943  0.9318
 4472SOL    HW225053   4.074   2.921   3.111 -0.4811  0.0912 -1.0828
 4473SOL     OW25054   4.163   2.387   2.269  0.4858  0.7899  0.2175
 4473SOL    HW125055   4.189   2.411   2.180  0.9449 -1.6714 -0.3047
 4473SOL    HW225056   4.081   2.435   2.266 -1.2561 -2.3152 -1.8545
 4474SOL     OW25057   0.787   2.688   1.924 -0.4284 -0.2273  0.2702
 4474SOL    HW125058   0.736   2.767   1.909  1.5032  0.5888 -1.8219
 4474SOL    HW225059   0.784   2.702   2.019  1.9963 -2.6023  0.6888
 4475SOL     OW25060   1.190   1.022   6.070  0.4674  0.2668 -0.3520
 4475SOL    HW125061   1.112   1.027   6.125 -0.3324  0.8708 -1.5459
 4475SOL    HW225062   1.160   1.019   5.979 -3.2295 -1.7391  0.9335
 4476SOL     OW25063   1.809   3.676  13.434  0.0195  0.1650 -0.1362
 4476SOL    HW125064   1.901   3.675  13.407  0.3564  1.7732  0.9352
 4476SOL    HW225065   1.805   3.621  13.513  1.6296  1.8541  1.1242
 4477SOL     OW25066   2.103   0.596   5.519 -0.4319 -0.1329  0.1997
 4477SOL    HW125067   2.051   0.662   5.565 -2.2814  0.0458 -2.1438
 4477SOL    HW225068   2.088   0.633   5.432  0.1320 -0.8816 -0.2152
 4478SOL     OW25069   2.706   3.355   8.797 -0.1185 -0.4438 -0.4911
 4478SOL    HW125070   2.693   3.392   8.884  0.5969 -1.5173  0.0813
 4478SOL    HW225071   2.794   3.392   8.789 -0.4660  0.3161 -0.7666
 4479SOL     OW25072   0.513   1.550   2.680  0.2620  0.4940 -0.2605
 4479SOL    HW125073   0.524   1.475   2.739 -0.7407  0.4804 -0.0962
 4479SOL    HW225074   0.431   1.528   2.637  0.8540 -0.9695 -0.6690
 4480SOL     OW25075   2.674   0.838  11.593 -0.0729 -0.0697 -0.4407
 4480SOL    HW125076   2.632   0.839  11.678  1.6231 -0.2639  0.4083
 4480SOL    HW225077   2.598   0.830  11.535 -1.5053  0.8361  1.3510
 4481SOL     OW25078   3.369   0.058   3.688 -0.4951 -0.2958  0.1872
 4481SOL    HW125079   3.331   4.715   3.718  0.7555  0.0191  2.6024
 4481SOL    HW225080   3.288   0.108   3.674  0.2397  0.6336 -0.7177
 4482SOL     OW25081   2.140   1.948   7.842  0.1107  0.6011  0.3765
 4482SOL    HW125082   2.196   1.998   7.783  1.7232 -1.9504 -0.2264
 4482SOL    HW225083   2.156   1.998   7.923 -1.4079 -1.0931  1.7244
 4483SOL     OW25084   2.467   1.662   7.682 -0.8209  0.0908 -0.0885
 4483SOL    HW125085   2.463   1.754   7.707 -0.3426  0.6237 -1.9810
 4483SOL    HW225086   2.383   1.648   7.725 -0.2005 -0.8441  0.8615
 4484SOL     OW25087   1.374   2.601   2.519  0.4517  0.1636 -0.5112
 4484SOL    HW125088   1.433   2.673   2.501 -0.7733  1.9564  2.8738
 4484SOL    HW225089   1.431   2.541   2.566 -1.1036 -2.5247 -2.0076
 4485SOL     OW25090   3.479   3.702   8.187  0.6354  0.2460  0.2863
 4485SOL    HW125091   3.437   3.704   8.273 -0.0306 -1.1818 -0.0007
 4485SOL    HW225092   3.569   3.681   8.214  0.0210 -1.1695  1.2748
 4486SOL     OW25093   2.980   1.256   6.931 -0.1561  0.6670  0.0289
 4486SOL    HW125094   2.957   1.230   7.020 -1.3301  1.2540 -0.0997
 4486SOL    HW225095   2.919   1.208   6.875 -1.4594  2.3449  0.0172
 4487SOL     OW25096   0.701   2.712   6.123  0.6283 -0.0399  0.2318
 4487SOL    HW125097   0.659   2.651   6.063  0.9841  1.0189 -1.1059
 4487SOL    HW225098   0.634   2.728   6.190  1.3710 -0.1153  0.9841
 4488SOL     OW25099   4.354   1.376   5.092  0.0973  0.4317  0.4978
 4488SOL    HW125100   4.284   1.427   5.051 -0.7938 -0.0671  1.3988
 4488SOL    HW225101   4.398   1.437   5.151  1.3718 -1.9555  2.0201
 4489SOL     OW25102   2.261   0.835   8.617 -0.6755 -0.1071  0.1587
 4489SOL    HW125103   2.247   0.741   8.629 -0.6519 -0.2834 -1.2361
 4489SOL    HW225104   2.172   0.865   8.601 -1.2396 -1.2703  1.0481
 4490SOL     OW25105   0.143   0.002   2.883  0.2848 -0.2736  0.0384
 4490SOL    HW125106   0.160   0.095   2.864  1.9789 -0.9088 -1.5328
 4490SOL    HW225107   0.224   0.004   2.934 -1.6896 -1.0911  3.1507
 4491SOL     OW25108   1.636   3.599  11.162  0.6128 -0.3043  0.1602
 4491SOL    HW125109   1.677   3.623  11.245  1.9519  1.3701 -0.9828
 4491SOL    HW225110   1.579   3.674  11.144 -0.3480 -0.7252  1.4240
 4492SOL     OW25111   1.546   4.495  15.910 -0.2041 -0.1570  0.2315
 4492SOL    HW125112   1.551   4.581  15.867 -1.4276 -0.6038 -0.8095
 4492SOL    HW225113   1.495   4.449  15.843  1.0778 -0.8725 -0.2585
 4493SOL     OW25114   1.194   2.840  16.693  0.2540 -0.3123 -0.1744
 4493SOL    HW125115   1.259   2.776  16.722  0.8985  1.0542  1.4234
 4493SOL    HW225116   1.201   2.909  16.759  1.1577 -1.6240  1.1059
 4494SOL     OW25117   3.027   3.252   0.079  0.6599  0.2437  0.1343
 4494SOL    HW125118   3.089   3.199   0.029  0.8983  0.2680  0.3977
 4494SOL    HW225119   3.042   3.227   0.170 -0.5961  1.7481  0.7635
 4495SOL     OW25120   2.052   3.582   4.311  0.0395  0.0676  0.2054
 4495SOL    HW125121   2.140   3.565   4.277 -0.1690  1.4954 -1.0380
 4495SOL    HW225122   2.017   3.653   4.258  0.7918  0.6069  0.4346
 4496SOL     OW25123   0.611   4.221  16.189  0.1398 -0.0957  0.3581
 4496SOL    HW125124   0.589   4.128  16.199 -1.1724  0.3550  1.7292
 4496SOL    HW225125   0.704   4.230  16.212  0.5920 -1.0651 -1.1118
 4497SOL     OW25126   3.963   4.651   1.923 -0.0771  0.1958 -0.3144
 4497SOL    HW125127   3.888   4.646   1.865 -1.3172  0.7049  1.2399
 4497SOL    HW225128   3.921   4.641   2.009  0.7515  0.7600  0.1574
 4498SOL     OW25129   3.445   0.432   2.587  0.1877 -0.3978 -0.1274
 4498SOL    HW125130   3.351   0.419   2.602  0.1395 -1.8414 -1.6518
 4498SOL    HW225131   3.436   0.498   2.518  1.5391  2.1915  2.2228
 4499SOL     OW25132   4.545   0.361   8.064  0.0340 -0.4480 -0.0439
 4499SOL    HW125133   4.553   0.313   7.981 -1.1949  0.2208 -0.5664
 4499SOL    HW225134   4.479   0.429   8.051 -1.4175 -1.5481  1.5936
 4500SOL     OW25135   2.270   0.168   7.201 -0.2073 -0.5178 -0.1912
 4500SOL    HW125136   2.365   0.161   7.214 -0.4183 -2.3070  0.2912
 4500SOL    HW225137   2.228   0.117   7.270  4.7919 -1.9872  1.7598
 4501SOL     OW25138   3.649   3.099   6.338  0.0508  0.3419  0.3240
 4501SOL    HW125139   3.568   3.130   6.296 -0.5662 -0.0729  1.2189
 4501SOL    HW225140   3.639   3.004   6.334 -1.8565  0.5131  1.0002
 4502SOL     OW25141   0.091   2.067   3.507  0.0257 -0.5496 -0.1150
 4502SOL    HW125142   0.036   2.013   3.452 -0.7116 -0.5598  0.6365
 4502SOL    HW225143   0.040   2.148   3.517 -0.9056 -0.9943 -1.2994
 4503SOL     OW25144   0.513   1.312   0.793 -0.2461  0.0311 -0.2300
 4503SOL    HW125145   0.589   1.349   0.838 -0.5220 -0.1145  0.3538
 4503SOL    HW225146   0.524   1.348   0.705  0.7464  1.0876  0.3172
 4504SOL     OW25147   4.060   0.624   2.345  0.4060  0.2400 -0.1241
 4504SOL    HW125148   4.104   0.552   2.390  0.0444 -0.6761 -1.2364
 4504SOL    HW225149   4.142   0.655   2.308  0.3396  1.0479  0.4050
 4505SOL     OW25150   2.022   0.387   2.634  0.0063 -1.0702 -0.0977
 4505SOL    HW125151   2.106   0.384   2.678  0.8497 -0.1613 -1.6410
 4505SOL    HW225152   2.025   0.478   2.603  2.4902 -1.0894  0.1406
 4506SOL     OW25153   3.046   0.124   8.560 -0.2447 -0.4531 -0.3941
 4506SOL    HW125154   3.031   0.202   8.615  1.9602 -0.6202  0.4498
 4506SOL    HW225155   3.140   0.107   8.564  0.0705  1.5806  1.1941
 4507SOL     OW25156   1.413   2.565  12.751 -0.2210 -0.0974 -0.5674
 4507SOL    HW125157   1.420   2.653  12.788 -0.3457 -0.2448 -0.1944
 4507SOL    HW225158   1.380   2.582  12.662 -1.7653 -1.5160 -0.2590
 4508SOL     OW25159   1.773   1.781   3.258  0.3572  0.5197 -0.0639
 4508SOL    HW125160   1.754   1.724   3.332 -1.1052  0.3015 -0.5931
 4508SOL    HW225161   1.780   1.863   3.307 -0.9436  1.3560 -1.2748
 4509SOL     OW25162   3.173   0.433   5.511  0.5219  0.4257  0.3065
 4509SOL    HW125163   3.102   0.389   5.464  3.1783 -4.1106  0.5414
 4509SOL    HW225164   3.209   0.361   5.562 -2.5755  0.6666  2.8594
 4510SOL     OW25165   3.173   3.186   2.497  0.5083  0.4019 -0.4494
 4510SOL    HW125166   3.102   3.144   2.546  1.5392 -1.2551 -0.3745
 4510SOL    HW225167   3.164   3.276   2.527  1.8174  2.0370 -4.9219
 4511SOL     OW25168   0.314   0.406   8.319 -0.2452  0.2859 -0.1064
 4511SOL    HW125169   0.399   0.450   8.311  0.5854 -1.6368 -1.8961
 4511SOL    HW225170   0.329   0.335   8.381  0.4172 -0.3873 -1.0239
 4512SOL     OW25171   4.458   2.593  15.438 -0.2574  0.0658  0.2350
 4512SOL    HW125172   4.472   2.561  15.527 -2.2932 -1.3643  0.0367
 4512SOL    HW225173   4.424   2.512  15.401  2.1745  0.0095 -1.8115
 4513SOL     OW25174   1.874   1.782   9.540  0.5012  0.2262 -0.3801
 4513SOL    HW125175   1.951   1.773   9.485 -0.1551  0.3997 -1.3365
 4513SOL    HW225176   1.815   1.803   9.467 -0.3151 -0.7953 -0.0203
 4514SOL     OW25177   4.203   2.317   1.112 -0.0119  0.0737 -0.0582
 4514SOL    HW125178   4.282   2.297   1.063  0.4242  1.9855 -0.1471
 4514SOL    HW225179   4.206   2.413   1.117  0.9497  0.0644 -0.4314
 4515SOL     OW25180   0.167   1.977   2.990 -0.7707  0.7702 -0.4863
 4515SOL    HW125181   0.258   1.968   2.964 -1.3263 -3.5588 -0.9543
 4515SOL    HW225182   0.174   1.980   3.086  0.0515  2.9907 -0.6107
 4516SOL     OW25183   3.087   4.579   6.855 -0.0014 -0.3620 -0.5653
 4516SOL    HW125184   3.171   4.541   6.881 -1.5048 -0.8433  3.6323
 4516SOL    HW225185   3.040   4.566   6.938  1.8487 -0.2916  0.5074
 4517SOL     OW25186   2.087   2.754   3.766  0.2641 -0.1695  0.3941
 4517SOL    HW125187   2.136   2.834   3.744  2.0831 -1.8045 -1.4269
 4517SOL    HW225188   2.156   2.689   3.758  0.7905  0.7683 -2.6025
 4518SOL     OW25189   0.287   3.232  16.521  0.9953 -0.3551  0.1504
 4518SOL    HW125190   0.202   3.232  16.564  1.4922 -2.4668  1.1460
 4518SOL    HW225191   0.269   3.241  16.427  2.4501 -1.0609 -0.2020
 4519SOL     OW25192   3.485   4.004   3.973 -0.7782  0.2289 -0.4616
 4519SOL    HW125193   3.578   4.006   3.997 -0.9464  0.0950  0.2051
 4519SOL    HW225194   3.489   4.046   3.887  0.1184  0.4102 -0.3328
 4520SOL     OW25195   3.093   0.269   9.198  0.8281  0.3312 -0.1502
 4520SOL    HW125196   3.050   0.355   9.196 -0.6143 -0.4222 -1.0232
 4520SOL    HW225197   3.168   0.286   9.141  0.8573  0.2715 -0.1300
 4521SOL     OW25198   2.646   1.812   6.072 -0.0435  0.1455  0.5936
 4521SOL    HW125199   2.667   1.806   5.979  1.2683 -0.9647  0.9682
 4521SOL    HW225200   2.618   1.721   6.082 -2.3941  1.0616  2.3260
 4522SOL     OW25201   4.637   0.775   8.990  0.5709  0.0487 -0.1447
 4522SOL    HW125202   4.657   0.867   9.005  1.5484  0.2311 -2.5312
 4522SOL    HW225203   4.567   0.756   9.052 -0.5553  1.1363 -1.0745
 4523SOL     OW25204   3.050   2.588   6.759  0.0858  0.2363 -0.3662
 4523SOL    HW125205   2.991   2.521   6.792  0.7956 -0.2151 -0.0020
 4523SOL    HW225206   3.007   2.616   6.678 -0.0100  0.0261 -0.3870
 4524SOL     OW25207   3.568   1.538   5.209 -0.0850 -0.4341  0.0724
 4524SOL    HW125208   3.517   1.549   5.129 -0.2054 -1.5915 -0.0181
 4524SOL    HW225209   3.543   1.449   5.237 -2.1002 -0.0076 -0.3298
 4525SOL     OW25210   3.572   3.788  12.854  0.0585  0.5998  0.5592
 4525SOL    HW125211   3.492   3.767  12.902  0.6727 -0.4548  1.1238
 4525SOL    HW225212   3.574   3.883  12.858  2.4279  0.5338  0.7846
 4526SOL     OW25213   2.820   3.220   7.954  0.7290 -0.5314  0.0812
 4526SOL    HW125214   2.834   3.312   7.932 -2.1761 -0.1748 -0.2700
 4526SOL    HW225215   2.733   3.196   7.922  0.0802  1.8107  0.1085
 4527SOL     OW25216   0.867   3.743  13.106  0.2092 -0.7504  0.0315
 4527SOL    HW125217   0.894   3.767  13.194  0.8363 -1.9471  0.1655
 4527SOL    HW225218   0.950   3.714  13.068  0.8590  0.9456  0.1771
 4528SOL     OW25219   4.431   2.320  17.097 -0.0940 -0.2528 -0.7161
 4528SOL    HW125220   4.433   2.282  17.010 -0.4009 -0.6514 -0.5499
 4528SOL    HW225221   4.350   2.371  17.093 -0.0369 -0.1259 -0.3360
 4529SOL     OW25222   0.944   4.167   8.614  0.5892 -0.1416 -0.4348
 4529SOL    HW125223   0.969   4.240   8.670  2.3370  0.5030 -2.0461
 4529SOL    HW225224   0.882   4.120   8.669  0.7180  0.6109  0.3576
 4530SOL     OW25225   0.558   1.532   2.324  0.7211 -0.0605  0.3917
 4530SOL    HW125226   0.592   1.476   2.254  2.6431  0.9494  0.5101
 4530SOL    HW225227   0.584   1.493   2.408 -2.9973 -1.8898  0.6779
 4531SOL     OW25228   3.276   0.992   9.138  0.2284  0.1133  0.1111
 4531SOL    HW125229   3.356   0.940   9.147 -0.8282 -1.3753  0.9253
 4531SOL    HW225230   3.305   1.079   9.114  1.0444 -0.2372 -0.1575
 4532SOL     OW25231   4.055   1.799   1.866  0.3943  0.1127 -0.5163
 4532SOL    HW125232   4.073   1.707   1.845  0.3180 -0.5948  2.4825
 4532SOL    HW225233   4.142   1.836   1.851  0.9810 -0.8581  0.4768
 4533SOL     OW25234   0.017   3.473   3.531 -0.2552  0.0397  0.7525
 4533SOL    HW125235   0.088   3.497   3.471 -1.4110  1.9068  0.0951
 4533SOL    HW225236   4.735   3.564   3.550 -0.6300  0.0345  0.3542
 4534SOL     OW25237   3.350   1.395   7.689 -0.1186  0.1278 -0.5101
 4534SOL    HW125238   3.400   1.424   7.766  1.5615  1.7257 -2.2064
 4534SOL    HW225239   3.318   1.318   7.736 -1.8023  1.5372  0.6658
 4535SOL     OW25240   3.482   3.947   8.072  0.6175  0.2934  0.0217
 4535SOL    HW125241   3.462   3.867   8.121 -1.7312  1.9278  1.7651
 4535SOL    HW225242   3.394   3.984   8.069  0.0065 -1.0140  1.6239
 4536SOL     OW25243   0.734   0.110   9.385  0.5588  0.4786 -0.6748
 4536SOL    HW125244   0.789   0.049   9.433  0.7317  1.6952  0.6823
 4536SOL    HW225245   0.773   0.195   9.407  0.6335  0.2605  0.0445
 4537SOL     OW25246   0.460   2.354   6.355 -0.3188  0.0813  0.4211
 4537SOL    HW125247   0.408   2.434   6.358  3.3867  2.4723 -0.6959
 4537SOL    HW225248   0.428   2.314   6.437 -2.0441  0.0897 -0.2357
 4538SOL     OW25249   3.962   3.495   3.841  0.6371 -0.0562  0.7725
 4538SOL    HW125250   4.030   3.449   3.888 -1.5842 -3.1250  0.9610
 4538SOL    HW225251   3.887   3.498   3.900 -0.0032 -2.3978  0.0757
 4539SOL     OW25252   3.097   1.315   8.815 -0.0002  0.2956 -0.1920
 4539SOL    HW125253   3.164   1.356   8.869 -0.2853  1.3138 -0.6142
 4539SOL    HW225254   3.148   1.250   8.767 -0.3509  0.3769 -0.6789
 4540SOL     OW25255   2.127   4.511   3.632  0.2367 -0.7920 -0.0750
 4540SOL    HW125256   2.093   4.483   3.547  2.1167  1.3440 -1.5365
 4540SOL    HW225257   2.202   4.454   3.649 -0.4012 -1.9943 -1.2921
 4541SOL     OW25258   2.482   2.012   8.637  0.0946  0.1975 -0.0571
 4541SOL    HW125259   2.387   2.019   8.632  0.0192  0.1509  1.1977
 4541SOL    HW225260   2.492   1.917   8.646  0.6427  0.3344  0.8145
 4542SOL     OW25261   3.990   3.408   4.530  0.2964 -0.3848 -0.6172
 4542SOL    HW125262   3.952   3.457   4.457 -0.5906 -1.5247 -0.9168
 4542SOL    HW225263   3.954   3.320   4.522 -0.9010  0.2835 -2.6188
 4543SOL     OW25264   1.794   0.645   1.855 -0.0039  0.2983  0.1359
 4543SOL    HW125265   1.700   0.630   1.842 -0.4531  0.0999  3.6477
 4543SOL    HW225266   1.814   0.709   1.787  1.6212  0.1935  0.5074
 4544SOL     OW25267   1.630   3.392   9.008 -0.1399 -0.5543 -0.7235
 4544SOL    HW125268   1.569   3.367   8.938  0.3719 -0.7352 -1.1081
 4544SOL    HW225269   1.706   3.339   8.984  0.8964  0.7203 -0.2798
 4545SOL     OW25270   2.152   0.153   5.452  0.5586  0.2481  0.2698
 4545SOL    HW125271   2.116   0.220   5.511 -1.9171 -1.8657  1.1243
 4545SOL    HW225272   2.128   0.191   5.367 -0.6897 -0.8455  0.1396
 4546SOL     OW25273   3.630   3.621  11.276 -0.6803 -0.0475  0.3647
 4546SOL    HW125274   3.632   3.538  11.229 -0.1909  0.4417 -0.4608
 4546SOL    HW225275   3.546   3.602  11.318 -0.7793  0.3952  0.3556
 4547SOL     OW25276   3.739   0.573   9.193  0.3893  0.3216  0.0310
 4547SOL    HW125277   3.725   0.600   9.284 -2.4007 -0.0771 -0.2744
 4547SOL    HW225278   3.655   0.532   9.172  1.7143 -1.5876 -1.5232
 4548SOL     OW25279   0.476   0.863   1.971  0.9344 -0.4962 -0.4121
 4548SOL    HW125280   0.383   0.873   1.954  0.6333  1.0665  2.0934
 4548SOL    HW225281   0.500   0.785   1.921  0.6858 -0.5766 -0.4028
 4549SOL     OW25282   2.070   2.023  15.510  0.2665  0.2052  0.3936
 4549SOL    HW125283   2.088   1.929  15.508 -0.2375  0.1659 -1.4267
 4549SOL    HW225284   2.051   2.028  15.604 -1.5716 -0.3590  0.0440
 4550SOL     OW25285   3.660   1.947  10.615 -0.3663 -0.2762 -0.1146
 4550SOL    HW125286   3.665   1.860  10.576 -1.0559  0.3197 -1.5480
 4550SOL    HW225287   3.620   1.997  10.544  1.0811 -0.8209 -1.3119
 4551SOL     OW25288   2.438   1.042  15.421  0.2808  0.4740  0.0388
 4551SOL    HW125289   2.378   0.973  15.449 -0.2944  2.0711  2.8137
 4551SOL    HW225290   2.384   1.103  15.369 -1.1129 -1.3413 -0.6453
 4552SOL     OW25291   4.158   0.991   7.850  0.1298  0.1477 -0.3833
 4552SOL    HW125292   4.093   0.998   7.781  1.1253 -0.7228 -1.4108
 4552SOL    HW225293   4.127   0.910   7.891  0.6664 -0.6916 -1.6408
 4553SOL     OW25294   0.848   3.492  12.990  0.2951  0.1344 -0.3619
 4553SOL    HW125295   0.793   3.416  13.013 -1.0875  1.6672  1.4270
 4553SOL    HW225296   0.843   3.540  13.073  1.8329 -0.8463  0.2986
 4554SOL     OW25297   2.284   3.780  17.704 -0.7838  0.4712 -0.0062
 4554SOL    HW125298   2.222   3.719  17.663  0.8078 -0.9353 -0.2976
 4554SOL    HW225299   2.281   3.855  17.645 -2.0062  0.3496 -0.1060
 4555SOL     OW25300   1.533   2.449   3.950  0.1255  0.4517 -0.3345
 4555SOL    HW125301   1.460   2.439   3.888 -0.8819  1.9644  0.6058
 4555SOL    HW225302   1.596   2.512   3.915 -0.9085  2.1343  0.8570
 4556SOL     OW25303   3.600   3.434   5.852 -0.3871  0.2447  0.0277
 4556SOL    HW125304   3.587   3.502   5.786  0.0082  0.1854 -0.1099
 4556SOL    HW225305   3.642   3.369   5.796  0.9031  0.7874  0.3623
 4557SOL     OW25306   1.631   0.374  17.515 -0.1607 -0.2197 -0.1642
 4557SOL    HW125307   1.629   0.377  17.610 -2.6428  2.0476 -0.3016
 4557SOL    HW225308   1.698   0.439  17.493 -0.3970  0.0016 -0.2220
 4558SOL     OW25309   0.322   3.519   6.388  0.1090 -0.1547  0.0584
 4558SOL    HW125310   0.333   3.550   6.298 -0.7915 -2.5643 -0.8907
 4558SOL    HW225311   0.228   3.537   6.394  0.2522  0.6949 -0.3072
 4559SOL     OW25312   3.097   3.328   2.111 -0.0858  0.0595 -0.0461
 4559SOL    HW125313   3.132   3.363   2.193 -0.6700  0.5028  0.0088
 4559SOL    HW225314   3.012   3.369   2.097  0.9831  1.3251 -2.8296
 4560SOL     OW25315   0.384   0.158   2.944 -0.0971 -0.2524  0.0953
 4560SOL    HW125316   0.466   0.202   2.925  0.3702 -0.6122  1.2414
 4560SOL    HW225317   0.331   0.198   2.875  0.1483  0.1266  0.1275
 4561SOL     OW25318   2.655   3.937   2.065 -0.1181 -0.3229  0.4451
 4561SOL    HW125319   2.621   4.026   2.058  0.6721 -0.1087 -0.6231
 4561SOL    HW225320   2.642   3.902   1.977  0.7001 -0.6153  0.4380
 4562SOL     OW25321   1.934   4.339   0.853  0.2161  0.0069  0.2727
 4562SOL    HW125322   1.919   4.330   0.947  0.8044  0.6129  0.4237
 4562SOL    HW225323   2.020   4.297   0.859  0.9978  1.6885  0.8812
 4563SOL     OW25324   1.241   0.654   4.865  0.2257 -0.2835  0.5252
 4563SOL    HW125325   1.320   0.704   4.847  0.1054 -0.7969 -1.4929
 4563SOL    HW225326   1.222   0.621   4.777 -3.3945 -1.0702  1.6074
 4564SOL     OW25327   0.804   2.677  10.641 -0.2906  0.0003  0.0434
 4564SOL    HW125328   0.797   2.604  10.702 -0.1031 -0.4635 -0.4816
 4564SOL    HW225329   0.775   2.751  10.694  4.2383  1.2174  0.7952
 4565SOL     OW25330   1.062   1.392  15.386 -0.3287  0.5826  0.2916
 4565SOL    HW125331   0.993   1.358  15.443 -0.0419 -0.5691 -0.0537
 4565SOL    HW225332   1.091   1.309  15.348  0.2910  0.1780  1.6672
 4566SOL     OW25333   4.142   2.852   7.202 -0.1155  0.1375 -0.0811
 4566SOL    HW125334   4.208   2.798   7.159 -0.9146 -0.6970 -0.2549
 4566SOL    HW225335   4.148   2.817   7.291 -0.6808 -2.4301 -1.0495
 4567SOL     OW25336   0.293   0.756   0.864 -0.6343  0.7618 -0.1715
 4567SOL    HW125337   0.201   0.783   0.857 -1.6308 -2.2873  1.4052
 4567SOL    HW225338   0.310   0.777   0.772  0.8825  0.6363  0.0834
 4568SOL     OW25339   0.588   1.611   8.533  0.6924 -0.1753  0.6156
 4568SOL    HW125340   0.673   1.571   8.546  0.9789  1.1623  2.9533
 4568SOL    HW225341   0.588   1.683   8.596 -0.6181  1.3588 -1.1304
 4569SOL     OW25342   3.259   1.586   3.003 -0.0771  0.1581  0.2091
 4569SOL    HW125343   3.292   1.675   3.018 -1.8362  1.0801 -1.5172
 4569SOL    HW225344   3.176   1.585   3.051  0.3117  0.1024  0.8860
 4570SOL     OW25345   3.597   0.562   6.064 -0.5663 -0.7523 -0.5251
 4570SOL    HW125346   3.619   0.652   6.089  2.1491 -2.0746  1.9257
 4570SOL    HW225347   3.506   0.571   6.036 -0.9831  1.2502  1.4413
 4571SOL     OW25348   0.033   4.069   6.278  0.0983  0.4937  1.2870
 4571SOL    HW125349   4.682   4.098   6.278  0.1638  0.6750  3.1820
 4571SOL    HW225350   0.029   3.978   6.306  0.1661  0.0341 -0.1763
 4572SOL     OW25351   4.586   1.256   6.198 -0.4191 -0.0382  0.0991
 4572SOL    HW125352   4.658   1.197   6.218  0.4909  1.0335 -0.0152
 4572SOL    HW225353   4.557   1.270   6.288 -2.7322 -0.1665 -0.6224
 4573SOL     OW25354   0.967   4.208   3.303  0.0453  0.2065  0.2900
 4573SOL    HW125355   1.035   4.166   3.249  0.1190 -2.1176  2.2168
 4573SOL    HW225356   0.925   4.264   3.238 -1.2016  0.4327  1.3076
 4574SOL     OW25357   3.272   0.117   0.025 -0.2694 -0.6536 -0.4478
 4574SOL    HW125358   3.330   0.156   0.091 -2.4574 -0.5173  1.3792
 4574SOL    HW225359   3.208   0.076   0.083  2.1210 -1.4824  1.6392
 4575SOL     OW25360   2.527   3.781   3.437 -0.3029 -0.1310 -0.2037
 4575SOL    HW125361   2.522   3.825   3.352  3.2781  1.3562  0.3587
 4575SOL    HW225362   2.601   3.827   3.476 -0.1289 -0.5739 -0.0176
 4576SOL     OW25363   1.014   2.600  10.482  0.0633  0.6196  0.2364
 4576SOL    HW125364   1.035   2.563  10.568  1.0529 -0.1774 -0.3488
 4576SOL    HW225365   0.920   2.615  10.491 -0.1559  0.0872 -1.2176
 4577SOL     OW25366   3.013   1.537   4.057  0.7146  0.2347 -0.5044
 4577SOL    HW125367   3.059   1.492   4.128  1.1438 -0.7159 -1.3843
 4577SOL    HW225368   2.995   1.474   3.987  1.9328  0.4107 -0.9889
 4578SOL     OW25369   4.181   3.619  12.563 -0.1372  0.1032 -0.3498
 4578SOL    HW125370   4.220   3.706  12.575 -1.4033  0.4959  0.9181
 4578SOL    HW225371   4.097   3.653  12.531 -0.3237  0.6959  0.7649
 4579SOL     OW25372   1.276   0.332  14.747 -0.2540 -0.0715 -0.0258
 4579SOL    HW125373   1.236   0.399  14.803  0.6639  2.7728 -2.8137
 4579SOL    HW225374   1.212   0.323  14.676 -0.5417 -0.8637  0.3319
 4580SOL     OW25375   4.505   1.330   3.069 -0.5708 -0.1324  0.3507
 4580SOL    HW125376   4.481   1.345   2.978 -0.0429 -2.9767 -0.2437
 4580SOL    HW225377   4.448   1.401   3.100 -0.2824 -0.0780  0.7593
 4581SOL     OW25378   3.557   3.572  11.677  0.2358 -0.5923 -0.5889
 4581SOL    HW125379   3.591   3.631  11.608  2.6325  1.0663  2.0153
 4581SOL    HW225380   3.517   3.643  11.728  1.8572 -1.1992  1.5189
 4582SOL     OW25381   3.916   1.839   6.276 -0.8799  0.2350 -0.9026
 4582SOL    HW125382   3.919   1.923   6.323  4.0215 -0.2536 -0.3831
 4582SOL    HW225383   3.820   1.835   6.277 -0.8700 -0.2659 -1.9713
 4583SOL     OW25384   0.073   3.640   6.460 -0.2142  0.2544 -0.3010
 4583SOL    HW125385   0.118   3.682   6.534  1.8177 -2.5168  0.0567
 4583SOL    HW225386   0.013   3.710   6.434 -2.2168 -1.0795  0.7884
 4584SOL     OW25387   3.908   3.351   5.551  0.6794 -0.9648  0.0300
 4584SOL    HW125388   3.992   3.397   5.553  0.0899  0.1716 -1.3375
 4584SOL    HW225389   3.888   3.354   5.644 -1.7708 -0.4047 -0.4901
 4585SOL     OW25390   4.675   4.098   6.713  0.6191  0.8360 -0.1315
 4585SOL    HW125391   4.647   4.018   6.756 -2.2315  1.4115 -0.9236
 4585SOL    HW225392   0.026   4.072   6.701 -0.0507 -2.0862  1.3333
 4586SOL     OW25393   0.329   1.151  12.576  0.8547  0.1088  0.2253
 4586SOL    HW125394   0.287   1.130  12.493  1.5447 -2.4222  0.5294
 4586SOL    HW225395   0.412   1.193  12.553  0.2542  1.9822  1.4760
 4587SOL     OW25396   1.027   2.164   3.018 -0.2197  0.3270 -0.1106
 4587SOL    HW125397   0.967   2.235   2.995 -1.3232 -0.7934 -0.6905
 4587SOL    HW225398   0.971   2.088   3.034  0.7716 -1.0441 -3.1322
 4588SOL     OW25399   3.186   1.916  17.681  0.2348 -0.1668  0.2467
 4588SOL    HW125400   3.128   1.843  17.660 -0.6428  0.7637 -0.5631
 4588SOL    HW225401   3.208   1.888   0.013  0.7647 -1.5040 -0.2959
 4589SOL     OW25402   2.035   4.307   3.389  0.0580 -0.2715 -0.3620
 4589SOL    HW125403   2.126   4.280   3.386  0.5443  1.0544  2.6310
 4589SOL    HW225404   2.030   4.345   3.301 -2.0835 -2.4668 -1.2163
 4590SOL     OW25405   1.484   1.078  16.156 -0.2439 -0.3660 -0.5936
 4590SOL    HW125406   1.545   1.016  16.115 -1.7879 -1.8254 -0.6587
 4590SOL    HW225407   1.455   1.017  16.224  2.4079 -1.6583 -0.5961
 4591SOL     OW25408   2.131   0.722   0.587  0.3117 -0.4858  0.4181
 4591SOL    HW125409   2.155   0.740   0.678  3.6392 -0.2361 -0.4816
 4591SOL    HW225410   2.197   0.775   0.541  0.3316 -2.2957 -1.6162
 4592SOL     OW25411   1.203   1.636   8.555 -0.5289 -0.4162 -0.2638
 4592SOL    HW125412   1.249   1.594   8.628 -0.4077  1.2097  0.5760
 4592SOL    HW225413   1.201   1.567   8.489 -0.8240 -0.8328  0.1731
 4593SOL     OW25414   1.493   2.646   6.422  0.7621 -0.0902  0.6617
 4593SOL    HW125415   1.458   2.594   6.495  1.9777 -2.5172 -0.4998
 4593SOL    HW225416   1.580   2.679   6.445  1.4475 -0.5739 -1.2219
 4594SOL     OW25417   0.566   4.543  12.457  0.1584 -0.1969 -0.1652
 4594SOL    HW125418   0.644   4.513  12.504 -0.5084 -1.3700  0.1728
 4594SOL    HW225419   0.591   4.559  12.366  1.6646 -1.4298  0.0348
 4595SOL     OW25420   4.679   4.311  16.972 -0.4468 -0.1641 -0.3687
 4595SOL    HW125421   4.590   4.345  16.969 -1.2665 -2.3010 -0.4864
 4595SOL    HW225422   4.707   4.335  17.060 -0.6889 -1.4612  0.0696
 4596SOL     OW25423   3.935   1.141   3.933  0.1855 -0.0970  0.2951
 4596SOL    HW125424   4.020   1.185   3.933 -0.6677  1.5272  2.2832
 4596SOL    HW225425   3.884   1.201   3.879  0.8913  1.6802  1.6162
 4597SOL     OW25426   0.697   2.173  12.430  0.2238 -0.3127 -0.6720
 4597SOL    HW125427   0.606   2.149  12.414 -0.6631  0.4754  3.0363
 4597SOL    HW225428   0.687   2.219  12.513 -0.0667 -2.9552  0.7570
 4598SOL     OW25429   2.735   2.346   2.600 -0.1067  0.4100 -0.5226
 4598SOL    HW125430   2.752   2.439   2.583  2.2462  0.1035  0.1959
 4598SOL    HW225431   2.721   2.321   2.508 -1.8659  0.6183 -0.2965
 4599SOL     OW25432   3.697   4.733   1.483  0.1891 -0.3645 -0.0340
 4599SOL    HW125433   3.631   4.667   1.461  0.1062 -0.0690 -0.6800
 4599SOL    HW225434   3.637   0.055   1.526  1.8747 -1.1315  3.4596
 4600SOL     OW25435   2.280   3.869  12.963  0.2292 -0.3303 -0.4922
 4600SOL    HW125436   2.357   3.923  12.982 -0.7068  1.2080 -1.0347
 4600SOL    HW225437   2.222   3.932  12.920 -2.1217 -0.8300  1.9918
 4601SOL     OW25438   2.338   0.186   2.208 -0.3400  0.4767  0.1480
 4601SOL    HW125439   2.314   0.143   2.127 -0.3945 -3.8972  2.5066
 4601SOL    HW225440   2.251   0.223   2.222  0.1814  2.8316 -2.8400
 4602SOL     OW25441   1.276   2.528   9.414 -0.0375  0.3044  1.1058
 4602SOL    HW125442   1.300   2.528   9.321  1.8653 -0.2539  1.6102
 4602SOL    HW225443   1.332   2.454   9.437 -0.1629 -0.1224  0.0505
 4603SOL     OW25444   3.863   1.437   5.797  0.1223  0.3893 -0.0118
 4603SOL    HW125445   3.802   1.365   5.780 -1.8984  2.4239 -1.2651
 4603SOL    HW225446   3.851   1.490   5.718 -1.2019  0.2423  0.0930
 4604SOL     OW25447   2.703   1.793   5.808  0.7117  0.5003  0.2045
 4604SOL    HW125448   2.657   1.852   5.749  0.1049  0.3929  0.5730
 4604SOL    HW225449   2.787   1.794   5.763 -0.7691  2.7097 -2.4772
 4605SOL     OW25450   0.328   4.296   6.989  0.1505 -0.4862 -0.2041
 4605SOL    HW125451   0.274   4.336   6.921  2.4781 -0.3616 -1.9676
 4605SOL    HW225452   0.261   4.286   7.057  1.2174  0.7875  1.0447
 4606SOL     OW25453   3.324   4.117  10.519 -0.3048  0.0960  0.8228
 4606SOL    HW125454   3.408   4.070  10.525 -1.4993 -2.4064 -2.5257
 4606SOL    HW225455   3.281   4.093  10.601 -1.1662 -1.7632 -0.1822
 4607SOL     OW25456   0.709   0.060   2.286 -0.6039  0.1779 -0.1281
 4607SOL    HW125457   0.780   0.043   2.347 -1.1553  1.2543  0.8095
 4607SOL    HW225458   0.702   0.155   2.281  0.0825  0.1847 -0.9602
 4608SOL     OW25459   1.466   4.489   6.612 -0.4736 -0.2577 -0.4823
 4608SOL    HW125460   1.403   4.516   6.545 -0.1433 -0.4979 -0.8794
 4608SOL    HW225461   1.410   4.484   6.690 -1.9425  0.8537 -1.4711
 4609SOL     OW25462   4.069   0.239   8.457 -0.1060 -0.6315  0.2276
 4609SOL    HW125463   4.117   0.229   8.539 -0.5582  2.9559  0.9266
 4609SOL    HW225464   4.137   0.277   8.401  0.4274 -1.7406  0.1167
 4610SOL     OW25465   0.806   0.781   1.682 -0.7239 -0.1258 -0.4242
 4610SOL    HW125466   0.900   0.798   1.684 -0.5712 -1.1763  1.1405
 4610SOL    HW225467   0.761   0.859   1.652  1.0494  0.6581 -1.0337
 4611SOL     OW25468   0.397   3.680  16.295  0.1098  0.0336 -0.7603
 4611SOL    HW125469   0.349   3.604  16.329 -0.6447  0.3236 -1.1824
 4611SOL    HW225470   0.470   3.688  16.356 -0.9355 -0.9757  0.6235
 4612SOL     OW25471   4.524   0.112   7.555  0.0288 -0.0652 -0.5115
 4612SOL    HW125472   4.590   0.144   7.493  0.6318  0.2120  0.2848
 4612SOL    HW225473   4.449   0.096   7.498  0.8735  0.1346 -1.6773
 4613SOL     OW25474   4.384   1.117  11.566 -0.0836  0.0017  0.2280
 4613SOL    HW125475   4.331   1.047  11.603 -2.8342  2.3636  0.7595
 4613SOL    HW225476   4.470   1.103  11.604 -1.1526 -0.9566  2.3125
 4614SOL     OW25477   4.670   3.583   7.554  0.3524  0.1817  0.1348
 4614SOL    HW125478   0.008   3.528   7.562  0.9960  0.9040 -1.2317
 4614SOL    HW225479   4.631   3.539   7.479 -0.6674 -0.3494  0.9955
 4615SOL     OW25480   0.928   4.447   1.951 -0.2083  0.0367  0.1608
 4615SOL    HW125481   0.845   4.400   1.947  0.1465 -0.6006  0.3257
 4615SOL    HW225482   0.942   4.448   2.045 -1.0424 -2.2551  0.2933
 4616SOL     OW25483   3.461   0.665  11.424  0.3619 -0.1037 -0.6898
 4616SOL    HW125484   3.386   0.715  11.395  1.2733  1.3021 -0.6031
 4616SOL    HW225485   3.503   0.648  11.340  0.3194  2.3280 -1.1893
 4617SOL     OW25486   1.533   3.504  11.525  0.0766  0.1970 -0.0201
 4617SOL    HW125487   1.449   3.538  11.558  1.2065  0.2050  2.8311
 4617SOL    HW225488   1.572   3.463  11.603 -1.3307  0.3472  0.7747
 4618SOL     OW25489   1.751   2.515  14.673  0.1046  0.1901 -0.2113
 4618SOL    HW125490   1.779   2.561  14.594 -1.6857  1.6501 -0.0160
 4618SOL    HW225491   1.761   2.424  14.645 -1.8070 -0.2080  0.3900
 4619SOL     OW25492   4.415   3.023   1.945  0.2280 -0.1987 -0.2190
 4619SOL    HW125493   4.410   3.090   1.877 -0.2713  0.0067  0.0157
 4619SOL    HW225494   4.476   2.966   1.899  0.5836  0.5890 -0.7241
 4620SOL     OW25495   3.378   3.723   8.436 -0.0616 -0.0666  0.1002
 4620SOL    HW125496   3.410   3.778   8.508 -1.5365 -1.7341  2.0156
 4620SOL    HW225497   3.297   3.697   8.479  0.0163 -1.2837 -0.5014
 4621SOL     OW25498   2.589   0.893   6.852  0.3748  0.4815  0.0111
 4621SOL    HW125499   2.620   0.842   6.927 -0.7926  1.5044  1.1722
 4621SOL    HW225500   2.497   0.904   6.874  0.3181  2.2406 -1.0977
 4622SOL     OW25501   3.420   0.815   3.084  0.1615 -0.3708  0.4379
 4622SOL    HW125502   3.377   0.889   3.041 -3.7476 -0.9520  3.3470
 4622SOL    HW225503   3.451   0.855   3.166 -1.9186  3.0253 -0.4129
 4623SOL     OW25504   4.122   0.938   4.975 -0.4182  0.1156 -0.1097
 4623SOL    HW125505   4.172   0.995   5.034 -0.6365  1.2191 -0.9788
 4623SOL    HW225506   4.184   0.876   4.938  1.5621  0.2547  3.0026
 4624SOL     OW25507   4.059   2.155   7.325 -0.7166  0.5059 -0.4417
 4624SOL    HW125508   4.101   2.087   7.377  0.2283 -0.1960 -2.0888
 4624SOL    HW225509   4.067   2.125   7.234  2.8559  0.8969 -0.2557
 4625SOL     OW25510   1.931   3.741  14.597  0.2676  0.5293 -0.6668
 4625SOL    HW125511   1.840   3.767  14.582  0.2560  0.8396 -0.0259
 4625SOL    HW225512   1.928   3.693  14.680  0.7516  1.8902  0.1187
 4626SOL     OW25513   0.725   3.531   3.584 -0.5129  0.4057 -0.1690
 4626SOL    HW125514   0.637   3.531   3.548  0.4107  1.4007 -2.4425
 4626SOL    HW225515   0.721   3.620   3.620 -2.1594 -0.6873  2.3022
 4627SOL     OW25516   4.615   0.423   8.616 -0.1440 -0.0990  0.0146
 4627SOL    HW125517   4.703   0.456   8.597  0.6290 -1.9550  0.4410
 4627SOL    HW225518   4.580   0.423   8.527 -0.3559 -0.9787  0.0965
 4628SOL     OW25519   0.981   3.288   1.108  0.7073 -0.4359  0.1538
 4628SOL    HW125520   0.911   3.321   1.164  0.2087 -1.4816  0.1413
 4628SOL    HW225521   0.960   3.329   1.024  1.2313  1.2389  0.8306
 4629SOL     OW25522   4.231   1.217   4.125  0.7891  0.2001 -0.4568
 4629SOL    HW125523   4.205   1.247   4.038  0.3317 -2.8580 -1.4035
 4629SOL    HW225524   4.186   1.132   4.120 -1.3080  1.4198 -2.6136
 4630SOL     OW25525   4.366   0.848   3.839 -0.1378  0.1528 -0.1721
 4630SOL    HW125526   4.374   0.941   3.819  3.3887 -0.3409 -1.0833
 4630SOL    HW225527   4.436   0.839   3.904 -0.4292  1.4473  0.3105
 4631SOL     OW25528   2.657   0.902   8.271  0.0800  0.1243 -0.3691
 4631SOL    HW125529   2.629   0.903   8.179 -0.4576 -1.7706 -0.2319
 4631SOL    HW225530   2.577   0.865   8.309 -0.4883  1.2432 -0.4553
 4632SOL     OW25531   3.283   2.648  11.744  0.4619  0.0042 -0.1302
 4632SOL    HW125532   3.220   2.612  11.682  0.3837 -1.5387  0.8461
 4632SOL    HW225533   3.338   2.705  11.690 -0.1350  0.5265 -0.1846
 4633SOL     OW25534   4.159   1.212  15.303 -0.1533  0.3245 -0.2503
 4633SOL    HW125535   4.232   1.162  15.265 -0.6405 -1.5646  1.2598
 4633SOL    HW225536   4.201   1.297  15.310  0.1790  0.1128  0.3620
 4634SOL     OW25537   3.045   4.335  14.956 -0.2707  0.5513 -0.3802
 4634SOL    HW125538   2.997   4.335  14.873 -0.0353 -0.7103 -0.5038
 4634SOL    HW225539   2.973   4.298  15.006  0.0904 -0.6537 -0.7518
 4635SOL     OW25540   0.548   3.449   1.697 -0.2408 -0.1783 -0.5205
 4635SOL    HW125541   0.466   3.474   1.655 -1.2698  1.0772  2.2571
 4635SOL    HW225542   0.555   3.529   1.749 -1.9335  0.0376 -0.6454
 4636SOL     OW25543   3.067   0.120   9.418 -0.2145  0.1052  0.2145
 4636SOL    HW125544   3.071   0.177   9.340 -0.1646 -1.5668 -1.0103
 4636SOL    HW225545   3.156   0.086   9.415  0.5754  2.1264  0.6782
 4637SOL     OW25546   3.980   1.107   4.759 -0.0597 -0.4005  0.5509
 4637SOL    HW125547   4.020   1.172   4.817  2.5093 -0.7411 -0.8142
 4637SOL    HW225548   4.021   1.028   4.794 -1.3207 -1.2714  0.0524
 4638SOL     OW25549   1.333   0.956   8.601  0.3874 -0.3384 -0.6119
 4638SOL    HW125550   1.296   0.877   8.561 -1.9250  1.2634 -1.5864
 4638SOL    HW225551   1.409   0.971   8.544  0.9519 -2.5589 -0.4547
 4639SOL     OW25552   4.365   2.087  11.123 -0.6324 -0.2438  0.1691
 4639SOL    HW125553   4.271   2.095  11.106 -0.6795 -0.2695  0.4182
 4639SOL    HW225554   4.384   2.152  11.191 -0.1310  0.8352 -1.0156
 4640SOL     OW25555   3.362   0.214  11.254  0.5429  0.0930 -0.3827
 4640SOL    HW125556   3.344   0.180  11.342  0.5681 -1.2689 -0.9090
 4640SOL    HW225557   3.429   0.155  11.220  3.1922  0.8393  3.6342
 4641SOL     OW25558   0.154   2.480   8.136 -0.8793 -0.9445 -0.1744
 4641SOL    HW125559   0.087   2.530   8.090 -0.7855  1.0715  1.8608
 4641SOL    HW225560   0.154   2.401   8.082 -0.5042  0.3556 -2.0575
 4642SOL     OW25561   1.359   1.730   5.490  0.1432  0.5312  0.2029
 4642SOL    HW125562   1.385   1.802   5.432  2.6797  0.9131  1.8116
 4642SOL    HW225563   1.408   1.749   5.569 -0.3928  2.4151  0.1014
 4643SOL     OW25564   0.394   3.260   3.092  0.0477 -0.4904  0.2682
 4643SOL    HW125565   0.325   3.195   3.079 -0.2159 -0.5317  1.8452
 4643SOL    HW225566   0.352   3.345   3.104 -2.2562 -1.2511 -2.3270
 4644SOL     OW25567   2.741   1.742   8.415  0.0492  0.1630  0.3186
 4644SOL    HW125568   2.659   1.692   8.409 -1.0443  1.6559  3.0142
 4644SOL    HW225569   2.754   1.769   8.324 -1.3826  2.2073  0.7212
 4645SOL     OW25570   3.523   1.538   9.642  0.0275 -0.4482 -0.3286
 4645SOL    HW125571   3.455   1.606   9.640  1.0142  0.4707 -3.0680
 4645SOL    HW225572   3.554   1.538   9.552  3.5410 -0.3616  0.8737
 4646SOL     OW25573   0.829   2.695   1.499 -0.0956  0.0545  0.7820
 4646SOL    HW125574   0.900   2.648   1.544  0.9960  1.8913  0.9516
 4646SOL    HW225575   0.747   2.648   1.517 -1.3035  1.9294  0.0974
 4647SOL     OW25576   0.885   3.607   2.195  0.0236  0.6538 -0.6799
 4647SOL    HW125577   0.938   3.682   2.167 -1.6887  2.6646  1.5083
 4647SOL    HW225578   0.903   3.596   2.288  1.9287 -0.3210 -1.1676
 4648SOL     OW25579   2.899   3.462  17.718 -0.0971  0.2866  0.0303
 4648SOL    HW125580   2.934   3.399   0.024 -1.0647 -0.3288 -0.0409
 4648SOL    HW225581   2.981   3.510  17.708 -0.8514  1.5086 -0.2051
 4649SOL     OW25582   3.598   4.103   9.215 -0.3808 -0.4754 -0.3198
 4649SOL    HW125583   3.627   4.031   9.158 -0.0908 -0.3693 -0.3067
 4649SOL    HW225584   3.607   4.058   9.298  1.0541 -0.9623 -0.7340
 4650SOL     OW25585   0.177   4.090   3.898 -0.1105  0.2199  0.3465
 4650SOL    HW125586   0.115   4.081   3.826 -0.7603  1.9204  0.7056
 4650SOL    HW225587   0.109   4.096   3.965 -1.1958  0.7634 -0.8144
 4651SOL     OW25588   2.927   0.971   8.895  0.1274 -0.8335 -0.2183
 4651SOL    HW125589   2.920   0.939   8.805 -0.2473  1.5531 -1.0547
 4651SOL    HW225590   2.991   0.910   8.931 -1.5430 -1.3880  1.8113
 4652SOL     OW25591   0.627   4.054   7.381 -0.2368  0.0936 -0.0971
 4652SOL    HW125592   0.683   4.032   7.306  1.1901 -1.0891  1.3043
 4652SOL    HW225593   0.692   4.049   7.452 -1.7242  0.8083  1.3086
 4653SOL     OW25594   2.444   2.550   2.177  0.3785  0.6297 -0.3918
 4653SOL    HW125595   2.492   2.591   2.105  0.0989 -2.0132 -2.0879
 4653SOL    HW225596   2.467   2.599   2.256  0.9071 -0.9514  0.4492
 4654SOL     OW25597   2.575   0.342   6.286  0.1830  0.3554  0.1942
 4654SOL    HW125598   2.596   0.289   6.363 -3.3259 -1.5162 -0.1288
 4654SOL    HW225599   2.586   0.281   6.213 -0.2620  0.5956 -0.0730
 4655SOL     OW25600   3.616   1.780   6.343  0.0400  0.0717  0.0214
 4655SOL    HW125601   3.540   1.830   6.313 -1.1770 -1.1199  1.1612
 4655SOL    HW225602   3.582   1.691   6.348 -3.2494  1.3317  0.2753
 4656SOL     OW25603   3.792   0.325   6.298  0.2952  0.0625 -0.3723
 4656SOL    HW125604   3.850   0.396   6.324  0.4351  0.3247 -1.4005
 4656SOL    HW225605   3.811   0.317   6.205  2.0342  2.8758 -0.2670
 4657SOL     OW25606   0.519   4.381   5.166  0.2700 -0.4626 -0.2685
 4657SOL    HW125607   0.603   4.355   5.203  0.6258  0.5597 -0.3596
 4657SOL    HW225608   0.469   4.299   5.174 -0.1254  0.0741  2.9681
 4658SOL     OW25609   1.117   1.617   5.979  1.1401  0.0240 -0.1386
 4658SOL    HW125610   1.132   1.538   5.927 -0.4706 -0.4488  0.1104
 4658SOL    HW225611   1.138   1.582   6.066  2.2686 -1.3097 -0.9431
 4659SOL     OW25612   2.516   4.220   4.158  0.0927 -0.1506 -0.4438
 4659SOL    HW125613   2.492   4.131   4.130 -2.3071  0.4292 -0.2306
 4659SOL    HW225614   2.466   4.224   4.239  1.3931  0.6563  0.2958
 4660SOL     OW25615   4.191   4.510   1.224 -0.1279 -0.0241 -0.3765
 4660SOL    HW125616   4.220   4.514   1.315  0.1558 -1.1570 -0.4189
 4660SOL    HW225617   4.225   4.596   1.199  0.0274  0.3305  1.0900
 4661SOL     OW25618   4.125   3.877  15.837 -0.0883  0.0411 -0.0158
 4661SOL    HW125619   4.200   3.926  15.870 -1.2901  1.7150  0.2275
 4661SOL    HW225620   4.096   3.834  15.917 -0.7343 -0.2745 -0.4112
 4662SOL     OW25621   1.155   0.475  16.388 -0.4215 -0.0695 -0.2469
 4662SOL    HW125622   1.119   0.445  16.471  2.1198 -1.1534  0.4446
 4662SOL    HW225623   1.121   0.405  16.333  0.5887 -1.7529  1.2801
 4663SOL     OW25624   3.489   1.360  12.122  0.1195  0.2322  0.3744
 4663SOL    HW125625   3.578   1.346  12.155 -0.0930 -1.5474  0.1759
 4663SOL    HW225626   3.450   1.401  12.199 -2.6038  2.1136 -1.9786
 4664SOL     OW25627   3.493   3.982   1.898 -0.1285  0.4135  0.1737
 4664SOL    HW125628   3.558   3.965   1.830 -0.5483 -1.7540  0.2946
 4664SOL    HW225629   3.475   3.890   1.918  2.9160 -0.4700 -1.1248
 4665SOL     OW25630   4.082   4.031   8.044  0.2022 -0.5969  0.1248
 4665SOL    HW125631   4.147   4.101   8.032 -0.4484  0.0213  0.1957
 4665SOL    HW225632   4.006   4.084   8.066 -0.0819 -1.6644  1.6999
 4666SOL     OW25633   0.597   0.605  17.162  0.2071 -0.2131  0.7389
 4666SOL    HW125634   0.524   0.637  17.215  0.1643 -1.1859  1.2631
 4666SOL    HW225635   0.553   0.597  17.077 -0.2745  1.6331  0.8148
 4667SOL     OW25636   1.395   2.571   0.695 -0.4851 -0.2100  0.1456
 4667SOL    HW125637   1.352   2.491   0.664 -0.8015  0.1241 -0.2764
 4667SOL    HW225638   1.472   2.587   0.640 -0.5635 -0.3940 -0.0176
 4668SOL     OW25639   1.484   2.801   5.617  0.4858  0.1715  0.0809
 4668SOL    HW125640   1.449   2.816   5.529  1.5623  3.7597  0.2612
 4668SOL    HW225641   1.444   2.717   5.635  2.5469 -0.9824 -0.7047
 4669SOL     OW25642   2.390   0.885   1.972  0.2920  0.1006 -0.0362
 4669SOL    HW125643   2.349   0.866   2.057  1.1217  1.5420  0.6996
 4669SOL    HW225644   2.376   0.978   1.956 -0.4866  0.0692  0.4590
 4670SOL     OW25645   0.118   2.216   8.560  0.0815 -0.1218 -0.2929
 4670SOL    HW125646   0.194   2.274   8.561  0.0614 -0.0927 -0.9963
 4670SOL    HW225647   0.060   2.267   8.505 -1.0620 -0.5465  0.5285
 4671SOL     OW25648   1.649   2.022   7.166 -1.1530  0.1826  0.8047
 4671SOL    HW125649   1.704   1.975   7.103  1.8771 -0.1689  3.7181
 4671SOL    HW225650   1.695   1.993   7.245  0.3365  0.5674  0.0653
 4672SOL     OW25651   2.320   0.652   3.343 -0.0995 -0.1971  0.1420
 4672SOL    HW125652   2.358   0.607   3.267  0.5110 -0.0567  0.3666
 4672SOL    HW225653   2.251   0.589   3.366  0.7106 -1.3731 -0.6232
 4673SOL     OW25654   2.794   4.578   1.928 -0.1340  0.7868  0.6015
 4673SOL    HW125655   2.865   4.635   1.957 -0.4571  1.2169  0.5446
 4673SOL    HW225656   2.717   4.634   1.921 -0.5625  0.0513 -0.6682
 4674SOL     OW25657   2.937   0.458   3.011 -0.0782 -0.0237  0.4202
 4674SOL    HW125658   3.000   0.388   3.028  2.5697  2.2751  0.0735
 4674SOL    HW225659   2.855   0.410   3.004 -0.1420 -0.1336  1.8823
 4675SOL     OW25660   2.647   4.680   8.552 -0.5252 -0.5174 -0.0002
 4675SOL    HW125661   2.627   4.596   8.511  0.7165 -0.9145  0.2049
 4675SOL    HW225662   2.585   0.002   8.513  0.4199  0.1620 -0.4179
 4676SOL     OW25663   2.428   3.598   8.501 -0.4025 -0.9822  0.0407
 4676SOL    HW125664   2.456   3.526   8.557  1.4751 -0.4332 -0.1983
 4676SOL    HW225665   2.364   3.548   8.451  0.7768 -0.3496 -2.1330
 4677SOL     OW25666   0.383   1.839  16.465 -0.0390  0.0511 -0.2291
 4677SOL    HW125667   0.373   1.931  16.439 -2.7415 -0.1016  0.2966
 4677SOL    HW225668   0.412   1.800  16.383  0.4264 -1.2108  0.5482
 4678SOL     OW25669   1.014   0.907   3.653 -0.0195  0.1485  0.7564
 4678SOL    HW125670   0.982   0.909   3.743 -3.3981  0.8563 -0.4634
 4678SOL    HW225671   1.040   0.815   3.643 -2.2117 -0.4872  0.9345
 4679SOL     OW25672   1.910   2.951   8.649 -0.0054 -0.0247  0.1186
 4679SOL    HW125673   1.851   2.954   8.573  0.4817 -1.3882 -0.3226
 4679SOL    HW225674   1.949   3.038   8.645  0.6931 -0.3341  0.2894
 4680SOL     OW25675   3.348   2.504   7.113 -0.2072 -0.3119 -0.5194
 4680SOL    HW125676   3.437   2.494   7.081 -0.1140  0.6324 -0.5474
 4680SOL    HW225677   3.317   2.575   7.056 -0.2551  0.2163  0.1681
 4681SOL     OW25678   0.118   1.409  10.410 -0.0939  0.7544 -0.0438
 4681SOL    HW125679   0.122   1.375  10.499 -1.7496  3.1378  0.9432
 4681SOL    HW225680   0.103   1.503  10.423  2.1939  1.0760  0.1645
 4682SOL     OW25681   3.268   3.691   7.994  0.6764 -0.2418  0.0139
 4682SOL    HW125682   3.182   3.718   8.024  1.4314  2.1434  0.0364
 4682SOL    HW225683   3.318   3.683   8.075  1.3689  0.0128 -0.3863
 4683SOL     OW25684   3.913   1.091   5.090 -0.2803 -0.3434  0.0146
 4683SOL    HW125685   3.968   1.021   5.055  0.0262 -0.3014  0.4118
 4683SOL    HW225686   3.970   1.165   5.070 -0.3515  0.0304  1.2360
 4684SOL     OW25687   4.226   3.057   4.269  0.2022 -0.1840  0.0415
 4684SOL    HW125688   4.278   3.045   4.189  1.4222  2.4440  0.4164
 4684SOL    HW225689   4.294   3.033   4.332  1.3717 -1.0820 -1.5654
 4685SOL     OW25690   2.353   1.474   8.979 -0.1319 -0.2548 -0.3084
 4685SOL    HW125691   2.316   1.546   8.929 -1.0954 -0.4942  0.0430
 4685SOL    HW225692   2.279   1.413   8.980  0.4514 -0.9738  0.2053
 4686SOL     OW25693   2.832   1.741  16.178 -0.8418 -0.4336  0.6827
 4686SOL    HW125694   2.793   1.656  16.202  1.4642 -1.0159  2.4257
 4686SOL    HW225695   2.754   1.784  16.144  0.5773  2.7170  1.4302
 4687SOL     OW25696   3.898   3.483   7.128 -0.4208 -0.3097  0.5013
 4687SOL    HW125697   3.851   3.512   7.207 -0.8278 -1.0543  0.5385
 4687SOL    HW225698   3.973   3.440   7.168 -0.5006  0.4373  1.4765
 4688SOL     OW25699   4.455   2.895   9.508 -0.4550  0.3493  0.2391
 4688SOL    HW125700   4.538   2.940   9.520  0.7165 -1.9855  0.9744
 4688SOL    HW225701   4.484   2.813   9.467 -2.4156 -0.3573  0.2646
 4689SOL     OW25702   1.272   3.654   2.137 -0.1393  0.1777 -0.0044
 4689SOL    HW125703   1.261   3.655   2.233 -0.2381 -0.1239 -0.0146
 4689SOL    HW225704   1.244   3.564   2.124 -2.2365  1.1627 -2.2352
 4690SOL     OW25705   3.431   4.099   5.533  0.0605 -0.3413 -0.5101
 4690SOL    HW125706   3.506   4.079   5.478  0.2235 -1.1071 -0.0083
 4690SOL    HW225707   3.462   4.163   5.598  0.3283 -3.2493  2.1993
 4691SOL     OW25708   4.066   3.208  11.033 -1.1104  0.3738 -0.8865
 4691SOL    HW125709   4.098   3.237  10.948 -0.6155  2.7285  0.0938
 4691SOL    HW225710   4.040   3.280  11.091  1.2598  2.8308 -2.8704
 4692SOL     OW25711   1.008   2.512   2.015  0.1353 -0.5682  0.2067
 4692SOL    HW125712   1.094   2.529   1.977  1.1466 -0.1580  2.7371
 4692SOL    HW225713   0.953   2.581   1.977 -0.2992 -0.9590  0.1181
 4693SOL     OW25714   0.735   0.167   7.068  0.5135 -0.8946 -0.1293
 4693SOL    HW125715   0.777   0.117   7.139 -1.1097 -1.3131  0.5289
 4693SOL    HW225716   0.655   0.118   7.051  0.0422  0.2592 -1.1633
 4694SOL     OW25717   3.151   0.167   6.023  0.0426 -0.5243 -0.5725
 4694SOL    HW125718   3.221   0.124   6.071  0.9971 -0.5154 -1.9572
 4694SOL    HW225719   3.074   0.128   6.066  0.6213  1.2554  2.1057
 4695SOL     OW25720   2.718   1.095   2.299 -0.1449 -0.3544 -0.1277
 4695SOL    HW125721   2.812   1.114   2.309 -0.1205 -1.1524  1.1266
 4695SOL    HW225722   2.714   1.119   2.206  1.5561 -1.4296 -0.4834
 4696SOL     OW25723   1.120   3.206   4.636  0.1667  0.1762 -0.2584
 4696SOL    HW125724   1.103   3.119   4.673  0.4102  1.2926  2.4421
 4696SOL    HW225725   1.036   3.244   4.660  0.4005  0.7078 -0.2949
 4697SOL     OW25726   3.527   1.000  15.584  0.3240  0.5200 -0.0833
 4697SOL    HW125727   3.583   0.973  15.511 -1.8600  1.1296 -1.9926
 4697SOL    HW225728   3.526   1.095  15.571  1.6060  0.5150 -0.1888
 4698SOL     OW25729   3.646   3.716  17.581  0.9283 -0.2533 -0.0592
 4698SOL    HW125730   3.619   3.691  17.670  1.6033  0.1155  0.2470
 4698SOL    HW225731   3.671   3.807  17.596 -2.3261  0.8399 -1.2713
 4699SOL     OW25732   2.030   0.664   7.697  0.4681  0.4190 -0.3111
 4699SOL    HW125733   2.077   0.724   7.754 -0.5356  2.2578 -1.4003
 4699SOL    HW225734   2.043   0.581   7.742 -2.3275 -0.8739 -1.8865
 4700SOL     OW25735   3.703   0.918  15.381 -0.0212 -0.2970  0.4418
 4700SOL    HW125736   3.762   0.859  15.427  0.3695 -1.6729 -1.8364
 4700SOL    HW225737   3.707   0.885  15.292  0.7568  1.7926 -0.3206
 4701SOL     OW25738   1.902   1.122   6.326 -0.0276 -0.1930 -0.1238
 4701SOL    HW125739   1.961   1.120   6.251 -1.3810 -0.5855 -1.1885
 4701SOL    HW225740   1.961   1.163   6.390  0.1233  0.1244 -0.4680
 4702SOL     OW25741   1.392   2.366  16.285 -0.1214 -0.5083  0.5067
 4702SOL    HW125742   1.454   2.439  16.287  2.6690 -2.9086  1.5146
 4702SOL    HW225743   1.364   2.360  16.376 -0.1228 -2.6777  0.3683
 4703SOL     OW25744   2.934   1.148   1.614  0.2001  0.2278  0.0725
 4703SOL    HW125745   2.840   1.165   1.618  0.1216 -0.5141  1.6000
 4703SOL    HW225746   2.935   1.056   1.642 -0.4204  0.3150  0.3764
 4704SOL     OW25747   0.898   0.417   6.155 -0.3538 -0.1034  0.5245
 4704SOL    HW125748   0.824   0.375   6.112 -0.1393  1.3353 -1.2302
 4704SOL    HW225749   0.934   0.339   6.198 -0.2203 -1.4914 -2.0951
 4705SOL     OW25750   3.189   4.706  11.813  0.0618  0.0053 -0.5903
 4705SOL    HW125751   3.252   4.682  11.744 -1.0045  0.6237 -1.7886
 4705SOL    HW225752   3.148   4.621  11.828 -2.7039  1.1291 -1.7169
 4706SOL     OW25753   1.089   0.094   3.529  0.4825  0.1208 -0.0225
 4706SOL    HW125754   1.095   0.127   3.619 -1.2245  2.5110 -0.7862
 4706SOL    HW225755   0.994   0.084   3.530  0.7543 -2.3565 -0.6514
 4707SOL     OW25756   0.866   0.391  16.284  0.1674  0.6486 -0.1374
 4707SOL    HW125757   0.783   0.434  16.263 -0.7774 -1.4301 -0.6845
 4707SOL    HW225758   0.859   0.364  16.376  2.6539  0.5685  0.0402
 4708SOL     OW25759   1.697   2.890   1.881  0.3478  0.0036  0.6306
 4708SOL    HW125760   1.681   2.969   1.829 -0.6822 -2.2253 -2.4640
 4708SOL    HW225761   1.611   2.877   1.920  1.1678 -3.4380  1.2968
 4709SOL     OW25762   1.807   4.300   9.467  0.6628 -0.4631  0.5221
 4709SOL    HW125763   1.778   4.258   9.547  1.6923 -1.5252  0.3462
 4709SOL    HW225764   1.721   4.305   9.425 -0.7027  1.2987  3.5757
 4710SOL     OW25765   0.778   4.292   5.276 -0.1348  0.3753 -0.2776
 4710SOL    HW125766   0.735   4.302   5.361  1.9850 -0.4687  0.8585
 4710SOL    HW225767   0.869   4.279   5.299  0.1015  3.6619  0.7161
 4711SOL     OW25768   1.653   1.068   5.764  0.3254 -0.1377 -0.7748
 4711SOL    HW125769   1.682   0.985   5.726 -1.8349 -0.6412 -1.3418
 4711SOL    HW225770   1.654   1.039   5.855  3.3187 -0.7864 -0.9986
 4712SOL     OW25771   0.362   0.741   4.089  0.0869  0.2096  0.1367
 4712SOL    HW125772   0.355   0.770   3.998 -0.3230  2.9997  1.0603
 4712SOL    HW225773   0.450   0.703   4.090  0.9276  2.1629  0.8838
 4713SOL     OW25774   0.435   3.046   6.252 -0.0837 -0.1081  0.4606
 4713SOL    HW125775   0.508   3.107   6.250 -0.9918  0.9705  0.3861
 4713SOL    HW225776   0.478   2.964   6.227 -2.4862 -0.9450 -0.9470
 4714SOL     OW25777   3.267   1.717   3.806  0.0686  0.3205  0.4702
 4714SOL    HW125778   3.327   1.689   3.875 -0.9515  0.7823  1.5338
 4714SOL    HW225779   3.311   1.788   3.758  0.1829  0.9721  1.5508
 4715SOL     OW25780   3.434   0.859   7.127 -0.2439  0.1025 -0.2237
 4715SOL    HW125781   3.396   0.913   7.058  1.4491  1.0916 -0.3868
 4715SOL    HW225782   3.364   0.809   7.168  1.0661  0.2253  2.1409
 4716SOL     OW25783   1.617   1.055   4.753 -0.5470  0.0764  0.4733
 4716SOL    HW125784   1.557   1.123   4.721  0.5531  0.7580 -0.1555
 4716SOL    HW225785   1.669   1.046   4.673 -2.9571 -0.9645 -0.9521
 4717SOL     OW25786   1.373   3.723   3.308  0.4789  0.2274  0.0114
 4717SOL    HW125787   1.359   3.768   3.224  2.5265 -1.0847 -1.0498
 4717SOL    HW225788   1.332   3.789   3.363  1.7715  0.7572  0.3355
 4718SOL     OW25789   0.492   2.098   8.547  0.0430 -0.1615 -0.2027
 4718SOL    HW125790   0.478   2.166   8.613 -0.4651  0.2393 -0.7330
 4718SOL    HW225791   0.541   2.040   8.605 -0.8356 -3.8484 -3.1535
 4719SOL     OW25792   0.491   3.091  14.527 -0.1563 -0.6682 -0.2836
 4719SOL    HW125793   0.490   3.102  14.432 -1.5860  0.5819 -0.1260
 4719SOL    HW225794   0.443   3.008  14.535 -1.6124  0.3618  1.5941
 4720SOL     OW25795   3.466   2.983   0.892  0.5576  0.0411  0.3326
 4720SOL    HW125796   3.433   2.974   0.803  0.5861 -3.1994  0.6618
 4720SOL    HW225797   3.383   2.997   0.937  0.0761  0.2097 -0.6274
 4721SOL     OW25798   2.531   3.702   1.626  0.3935  0.2199  0.5581
 4721SOL    HW125799   2.442   3.719   1.593  0.0057 -1.0481  0.9671
 4721SOL    HW225800   2.581   3.696   1.544 -1.1867  0.4750 -0.4411
 4722SOL     OW25801   0.097   0.799   6.108  0.2079 -0.3813  0.5143
 4722SOL    HW125802   0.094   0.718   6.057  2.2844 -0.2306  0.1458
 4722SOL    HW225803   0.034   0.858   6.068  3.1173  0.9828 -2.0550
 4723SOL     OW25804   0.957   4.491   6.998 -0.1754  0.1082 -0.3647
 4723SOL    HW125805   0.867   4.504   6.969 -0.2837 -1.7272 -0.8669
 4723SOL    HW225806   0.976   4.415   6.942 -0.1586  0.1512 -0.4171
 4724SOL     OW25807   1.059   0.173  16.332 -0.0402 -0.2893  0.2557
 4724SOL    HW125808   1.093   0.089  16.364  0.0764 -0.1701  0.4491
 4724SOL    HW225809   0.994   0.185  16.402  0.1777 -0.7515  0.5364
 4725SOL     OW25810   3.920   3.570  13.466  0.1161 -0.0698  0.1173
 4725SOL    HW125811   3.953   3.596  13.552  2.0525 -1.8783 -0.0956
 4725SOL    HW225812   3.835   3.541  13.501  1.3068  0.7087  3.6917
 4726SOL     OW25813   3.570   0.085  11.103  0.0409 -0.3005  0.1562
 4726SOL    HW125814   3.524   0.088  11.019  0.0980 -0.5205  0.1167
 4726SOL    HW225815   3.657   0.065  11.069  0.6640  0.3081  1.3886
 4727SOL     OW25816   0.083   0.547   3.542 -0.2583 -0.0722 -0.0842
 4727SOL    HW125817   0.112   0.515   3.457 -0.3863  1.4789 -0.7141
 4727SOL    HW225818   0.029   0.474   3.575 -1.6740  1.0914  0.1990
 4728SOL     OW25819   3.586   1.911   8.295  0.2971  0.3206 -0.5289
 4728SOL    HW125820   3.535   1.980   8.252 -0.6479  0.5874  1.0534
 4728SOL    HW225821   3.522   1.863   8.347 -1.2029  2.0068 -0.8337
 4729SOL     OW25822   1.274   4.231   1.232  0.6179 -0.6443 -0.7545
 4729SOL    HW125823   1.337   4.297   1.203 -0.0955  0.9438  1.3394
 4729SOL    HW225824   1.203   4.284   1.268  1.5418  1.6793 -2.3724
 4730SOL     OW25825   1.816   1.790  14.882  0.5482  0.0474  0.1241
 4730SOL    HW125826   1.775   1.744  14.956 -0.1397  0.7259  0.1552
 4730SOL    HW225827   1.806   1.882  14.903 -1.2270 -0.0352 -0.4021
 4731SOL     OW25828   3.766   1.819  13.126  0.4793 -0.8690  0.3108
 4731SOL    HW125829   3.831   1.789  13.063 -1.3624 -0.6850 -1.6855
 4731SOL    HW225830   3.820   1.851  13.199  0.2847 -1.0213  0.5222
 4732SOL     OW25831   3.552   1.199  17.639  0.0881 -0.2863  0.1019
 4732SOL    HW125832   3.550   1.206  17.543  2.4400  1.8168  0.1945
 4732SOL    HW225833   3.565   1.106  17.655  2.4887  0.1908  0.8689
 4733SOL     OW25834   1.768   3.454  10.942  0.2418 -0.1093  0.1791
 4733SOL    HW125835   1.731   3.398  10.874 -0.1204 -2.0549  1.9989
 4733SOL    HW225836   1.704   3.469  11.012  0.8182  1.5073  0.3735
 4734SOL     OW25837   4.308   3.514   3.312  0.2455  0.4045 -0.0979
 4734SOL    HW125838   4.362   3.538   3.388 -1.6869  0.3061  1.3143
 4734SOL    HW225839   4.264   3.596   3.290  0.3889  1.0557  1.9987
 4735SOL     OW25840   1.282   0.931   1.408 -1.0248 -0.2979  0.3536
 4735SOL    HW125841   1.218   1.001   1.390 -0.2364  0.8755  2.0813
 4735SOL    HW225842   1.348   0.961   1.345 -2.3813  1.2579 -0.3543
 4736SOL     OW25843   1.078   0.679  14.652 -0.5263 -0.2798 -0.6465
 4736SOL    HW125844   1.113   0.621  14.720  0.3754  1.3269  0.2759
 4736SOL    HW225845   1.156   0.732  14.632 -1.2709  1.8954  2.2478
 4737SOL     OW25846   4.446   2.318   1.894 -0.1946  0.1200  0.6306
 4737SOL    HW125847   4.369   2.261   1.896 -1.8478  2.4168  3.1527
 4737SOL    HW225848   4.511   2.270   1.946 -0.3024 -1.3748 -0.6418
 4738SOL     OW25849   3.272   0.639   4.072 -0.1272  0.1665  0.4475
 4738SOL    HW125850   3.193   0.585   4.074 -0.9311  1.2898 -1.3871
 4738SOL    HW225851   3.341   0.587   4.114  3.1052  0.7388 -4.1317
 4739SOL     OW25852   3.408   3.939   8.620  0.3059  0.2456  0.4359
 4739SOL    HW125853   3.447   3.962   8.704  0.1782  0.1466  0.5219
 4739SOL    HW225854   3.316   3.965   8.628 -0.3561 -1.5711 -1.1927
 4740SOL     OW25855   0.960   2.963   3.014  0.1913  0.4655  0.6043
 4740SOL    HW125856   0.975   2.889   2.956  1.8216  2.1340 -1.0982
 4740SOL    HW225857   1.028   3.028   2.995 -1.0450  1.1612 -1.3838
 4741SOL     OW25858   4.353   1.038   1.564 -0.2971 -0.3562  0.1594
 4741SOL    HW125859   4.315   1.091   1.635  1.1994  1.3791 -0.3542
 4741SOL    HW225860   4.325   1.095   1.492  2.1253  0.3145 -0.2275
 4742SOL     OW25861   2.135   3.382  16.877 -0.2280  0.4492  0.4536
 4742SOL    HW125862   2.100   3.356  16.791  0.0981  0.4775  0.3103
 4742SOL    HW225863   2.091   3.466  16.884  0.8442  1.2056 -1.7774
 4743SOL     OW25864   3.136   2.650   5.199 -0.5702  0.0822 -0.0127
 4743SOL    HW125865   3.214   2.676   5.150  0.1227 -0.4234  0.8168
 4743SOL    HW225866   3.101   2.579   5.145 -2.0938  0.8680 -0.0643
 4744SOL     OW25867   3.634   0.229   6.503 -0.0553 -0.6830  0.0828
 4744SOL    HW125868   3.603   0.306   6.551 -2.1723 -1.1589 -0.5168
 4744SOL    HW225869   3.658   0.273   6.421 -2.3960  1.8763  0.7882
 4745SOL     OW25870   3.728   3.531  12.490 -0.4972  0.0794  0.5619
 4745SOL    HW125871   3.682   3.451  12.466 -1.2148  0.6455  0.0543
 4745SOL    HW225872   3.664   3.602  12.484 -0.0154  0.5237  0.7200
 4746SOL     OW25873   2.116   3.222   5.899 -0.5782  0.0427  0.1187
 4746SOL    HW125874   2.146   3.226   5.808 -2.0765  3.6228 -0.2160
 4746SOL    HW225875   2.078   3.135   5.910 -0.5545  0.1185  0.7850
 4747SOL     OW25876   3.222   4.292   2.002 -0.2147  0.4517 -0.0064
 4747SOL    HW125877   3.151   4.229   2.010  1.5106 -1.7339 -1.6153
 4747SOL    HW225878   3.298   4.238   2.024 -1.2255 -1.2893 -0.7252
 4748SOL     OW25879   0.875   1.217   0.621  0.5763 -0.7119 -0.2521
 4748SOL    HW125880   0.789   1.183   0.645  0.2467  1.0028  1.0052
 4748SOL    HW225881   0.908   1.154   0.556 -0.2896 -0.4079 -0.9814
 4749SOL     OW25882   4.466   0.449   4.105  0.2760  0.1088 -0.4446
 4749SOL    HW125883   4.514   0.531   4.116 -0.7654  0.5324  1.0124
 4749SOL    HW225884   4.432   0.444   4.015 -0.3975  1.0538 -0.2459
 4750SOL     OW25885   3.757   2.789   6.746  0.0158  0.0813 -0.4400
 4750SOL    HW125886   3.669   2.751   6.756  0.9205 -1.9232 -0.0217
 4750SOL    HW225887   3.769   2.769   6.653  0.3264  0.3786 -0.4617
 4751SOL     OW25888   2.039   1.123  11.648  0.3851  0.0257 -0.0190
 4751SOL    HW125889   1.946   1.128  11.628  0.1283 -2.1835  0.5667
 4751SOL    HW225890   2.086   1.115  11.565  0.3982 -1.6688  0.1329
 4752SOL     OW25891   0.611   3.868  13.128 -0.3663 -0.1362 -0.3332
 4752SOL    HW125892   0.593   3.799  13.192 -0.8898 -1.6248 -2.0825
 4752SOL    HW225893   0.684   3.829  13.081  0.6295 -1.2133  2.0698
 4753SOL     OW25894   4.304   0.122  11.716  0.0779  0.2023 -0.3430
 4753SOL    HW125895   4.269   0.048  11.766  1.3060  0.1724  0.4646
 4753SOL    HW225896   4.226   0.177  11.710  0.7337  1.2299  0.7455
 4754SOL     OW25897   0.914   0.824   8.084  0.0574  0.0747 -0.3265
 4754SOL    HW125898   0.856   0.889   8.043 -0.0394  1.1015  1.4274
 4754SOL    HW225899   0.852   0.752   8.068  1.1462 -1.0810  0.7111
 4755SOL     OW25900   3.433   1.189   7.503  0.3133  0.1520  0.5882
 4755SOL    HW125901   3.448   1.260   7.565 -1.3384  1.3892 -0.4355
 4755SOL    HW225902   3.508   1.132   7.521  0.1464 -0.3366 -0.2697
 4756SOL     OW25903   0.105   3.508   8.241 -1.1936 -0.4684  0.1982
 4756SOL    HW125904   0.140   3.550   8.162  0.4038 -0.2386  1.0323
 4756SOL    HW225905   0.013   3.532   8.254 -0.8246  2.0230 -1.8555
 4757SOL     OW25906   3.419   1.156   7.895  0.3121  0.3154 -0.7381
 4757SOL    HW125907   3.434   1.075   7.944 -0.4786 -0.1841 -1.3043
 4757SOL    HW225908   3.326   1.173   7.910  0.6015  3.5966 -2.5999
 4758SOL     OW25909   2.810   0.016   4.794  0.0482  0.7658  0.4466
 4758SOL    HW125910   2.898   0.018   4.756  0.6358 -0.6275  1.7635
 4758SOL    HW225911   2.805   4.663   4.775  0.3021  0.6969  0.7230
 4759SOL     OW25912   2.654   4.458   7.402  0.1997  0.6211 -1.1032
 4759SOL    HW125913   2.617   4.427   7.320 -1.0080 -0.5435 -0.1373
 4759SOL    HW225914   2.609   4.403   7.467  0.3650 -0.5921 -2.0044
 4760SOL     OW25915   3.224   3.213   9.589 -0.1433 -0.2731 -0.1616
 4760SOL    HW125916   3.241   3.140   9.648 -0.2048  0.3543  0.6292
 4760SOL    HW225917   3.157   3.164   9.541 -1.9708  0.3478  1.7730
 4761SOL     OW25918   2.381   2.725   8.314  0.2356 -0.4203 -0.4428
 4761SOL    HW125919   2.353   2.682   8.395  0.7046 -0.7098 -0.4361
 4761SOL    HW225920   2.402   2.649   8.260  2.2582  0.9622 -1.5975
 4762SOL     OW25921   2.936   3.145   0.573 -0.1998  0.1217 -0.0388
 4762SOL    HW125922   2.950   3.134   0.667 -0.3219 -0.2224 -0.0644
 4762SOL    HW225923   2.846   3.113   0.576 -0.1889  0.0327 -0.7459
 4763SOL     OW25924   2.896   0.942   4.480 -0.4054 -0.2824 -0.0143
 4763SOL    HW125925   2.873   0.945   4.387  1.7433 -0.4718 -0.5697
 4763SOL    HW225926   2.864   0.855   4.504 -0.4322 -0.4232 -0.5534
 4764SOL     OW25927   1.511   2.042   6.619  0.2975 -0.6450 -0.2936
 4764SOL    HW125928   1.570   2.076   6.686  1.2878  0.6098 -1.7939
 4764SOL    HW225929   1.431   2.033   6.671 -0.0592  0.9434 -0.5712
 4765SOL     OW25930   2.830   1.308   8.819  0.2402 -0.5909  0.0302
 4765SOL    HW125931   2.916   1.289   8.856  0.5813 -0.7929 -0.8655
 4765SOL    HW225932   2.855   1.317   8.727  2.9626 -0.1331  0.8146
 4766SOL     OW25933   2.097   0.240  15.687 -0.3849  0.0166 -0.2637
 4766SOL    HW125934   2.137   0.177  15.627 -0.3282 -0.0861 -0.1176
 4766SOL    HW225935   2.018   0.191  15.710  0.5028 -2.0279 -1.5517
 4767SOL     OW25936   4.601   2.796   1.904  0.4905  0.1799  0.3625
 4767SOL    HW125937   4.617   2.712   1.861  1.4753 -0.7409  2.5377
 4767SOL    HW225938   4.558   2.769   1.985  0.3486 -1.3191 -0.2207
 4768SOL     OW25939   3.923   0.920  10.009  0.0761  0.1827 -0.3797
 4768SOL    HW125940   3.885   0.907   9.922 -2.0110 -0.9877  0.7047
 4768SOL    HW225941   3.933   1.015  10.016  0.6159  0.0609  0.5430
 4769SOL     OW25942   3.799   0.234   3.290  0.0429 -0.3856  0.1689
 4769SOL    HW125943   3.705   0.231   3.309 -0.3026  0.9509 -1.2520
 4769SOL    HW225944   3.814   0.190   3.207 -0.7906  0.9019 -0.6756
 4770SOL     OW25945   2.165   0.794   7.948 -0.0111 -0.1947  0.4308
 4770SOL    HW125946   2.154   0.880   7.906  0.0129 -0.8059 -0.8250
 4770SOL    HW225947   2.140   0.803   8.040 -0.1108  0.9064  0.2967
 4771SOL     OW25948   3.294   2.754   1.397 -0.2289  0.3553  1.0270
 4771SOL    HW125949   3.380   2.797   1.405  0.3813 -0.8744  1.1154
 4771SOL    HW225950   3.289   2.725   1.488  0.3496  0.1141  0.9841
 4772SOL     OW25951   2.846   0.691   9.594 -0.0819  0.6628 -0.8493
 4772SOL    HW125952   2.878   0.609   9.632  2.9764  2.2515 -0.0578
 4772SOL    HW225953   2.757   0.657   9.588 -0.2817  1.4184 -2.0434
 4773SOL     OW25954   1.398   4.063  12.004  0.6214  0.4538 -0.2268
 4773SOL    HW125955   1.416   3.980  11.960  0.5181  1.7512 -2.7655
 4773SOL    HW225956   1.437   4.052  12.090  0.3573  1.2685 -0.0036
 4774SOL     OW25957   3.388   3.734   6.191 -0.1930 -0.5976  0.3278
 4774SOL    HW125958   3.443   3.754   6.267  2.7561  0.9154 -2.2236
 4774SOL    HW225959   3.445   3.661   6.167 -2.4435 -1.9541 -0.9251
 4775SOL     OW25960   1.911   2.841   7.956  0.5719 -0.0433  0.3935
 4775SOL    HW125961   1.929   2.931   7.982  0.2637  0.5081 -1.3143
 4775SOL    HW225962   1.815   2.838   7.960  0.5181  0.0963 -0.8841
 4776SOL     OW25963   2.375   2.841   5.492 -0.2283 -0.3707  0.5127
 4776SOL    HW125964   2.290   2.843   5.448  0.0199  0.5784  0.0700
 4776SOL    HW225965   2.430   2.829   5.414  0.1246 -2.6358  1.0978
 4777SOL     OW25966   0.278   1.223  13.146 -0.7460 -0.0401  1.2164
 4777SOL    HW125967   0.366   1.257  13.162 -0.9268  1.3328 -0.6761
 4777SOL    HW225968   0.236   1.272  13.216  1.1667  1.9241  0.9509
 4778SOL     OW25969   3.812   1.945   5.559 -0.3965  0.0487  0.0047
 4778SOL    HW125970   3.730   1.960   5.513 -1.1714  0.1180  1.4189
 4778SOL    HW225971   3.795   1.866   5.611 -1.0979 -0.6214 -1.2491
 4779SOL     OW25972   2.110   0.309   8.997  0.3873  0.3013 -0.7225
 4779SOL    HW125973   2.181   0.370   9.018 -0.7243  1.0529  0.8001
 4779SOL    HW225974   2.064   0.324   9.079 -0.0384  0.2038 -0.9456
 4780SOL     OW25975   0.611   1.091   4.523 -0.1949  0.2195  0.3354
 4780SOL    HW125976   0.619   1.063   4.615  1.5139  0.5386  0.2709
 4780SOL    HW225977   0.571   1.014   4.483 -0.9929  1.1028 -0.5638
 4781SOL     OW25978   3.020   2.324   0.650  0.0897 -0.5678 -0.1716
 4781SOL    HW125979   2.956   2.377   0.697 -0.9723 -1.5555 -0.5059
 4781SOL    HW225980   3.007   2.234   0.679 -1.1148 -0.1400  0.6099
 4782SOL     OW25981   1.275   0.226  10.152  0.7647 -0.0247  0.4349
 4782SOL    HW125982   1.369   0.210  10.138  0.5828 -0.8296  0.1435
 4782SOL    HW225983   1.248   0.149  10.202  1.2642  0.5568  1.6109
 4783SOL     OW25984   1.563   2.373   2.313 -0.0802 -0.1448 -0.3700
 4783SOL    HW125985   1.552   2.376   2.408  2.8701  0.1432 -0.0295
 4783SOL    HW225986   1.605   2.289   2.295  0.3116 -0.4608  1.9778
 4784SOL     OW25987   2.380   3.126   3.379 -0.4432 -0.3668  0.3707
 4784SOL    HW125988   2.445   3.167   3.321 -1.0846 -0.7194 -0.5868
 4784SOL    HW225989   2.432   3.121   3.460 -3.4797  0.5868  2.3676
 4785SOL     OW25990   2.033   0.836  14.109  0.3922 -0.1626  0.6658
 4785SOL    HW125991   1.962   0.814  14.169 -0.6274 -1.5540 -1.0587
 4785SOL    HW225992   2.104   0.775  14.128  1.5176  0.8294 -0.3303
 4786SOL     OW25993   0.722   2.833  16.682  0.0192 -0.1146  0.8445
 4786SOL    HW125994   0.697   2.919  16.716  2.3796  1.0212 -0.2015
 4786SOL    HW225995   0.805   2.846  16.729  1.2519 -0.2567 -1.2882
 4787SOL     OW25996   1.498   2.609   7.691  0.6921 -0.2388 -0.4687
 4787SOL    HW125997   1.480   2.678   7.628  0.2889  1.1003  1.1004
 4787SOL    HW225998   1.589   2.624   7.717  0.5795  1.7197 -1.2448
 4788SOL     OW25999   3.484   3.979  17.346 -0.4291  0.1179  0.4954
 4788SOL    HW126000   3.509   4.071  17.347 -0.1494  0.0387  1.1529
 4788SOL    HW226001   3.569   3.937  17.339 -1.1411 -1.3006  0.2864
 4789SOL     OW26002   0.318   2.413   8.588 -0.2566  0.3829  0.3358
 4789SOL    HW126003   0.333   2.413   8.494 -2.8590  0.6557 -0.0823
 4789SOL    HW226004   0.405   2.396   8.626 -1.6975 -0.5212  3.2363
 4790SOL     OW26005   4.577   3.849   1.886 -0.4991 -0.0349  0.1352
 4790SOL    HW126006   4.659   3.860   1.935 -0.0686  2.4738 -1.1140
 4790SOL    HW226007   4.599   3.837   1.793  0.1293  0.2257  0.2460
 4791SOL     OW26008   3.285   0.854   4.237  0.0242 -0.1572  0.0916
 4791SOL    HW126009   3.218   0.806   4.189 -0.7734  0.4048  0.6412
 4791SOL    HW226010   3.247   0.941   4.251  0.6822 -0.1288  1.7154
 4792SOL     OW26011   0.571   3.679   8.440  0.2659  0.1972  0.0594
 4792SOL    HW126012   0.539   3.760   8.479 -0.5807  0.2797 -0.8063
 4792SOL    HW226013   0.510   3.660   8.369  1.0276  0.8675 -0.7695
 4793SOL     OW26014   3.218   4.626   6.422  0.7235 -0.2666 -0.2728
 4793SOL    HW126015   3.282   4.603   6.489  1.3451  0.6399 -0.5556
 4793SOL    HW226016   3.138   4.597   6.466  0.6643  0.7918  0.3298
 4794SOL     OW26017   3.903   1.147   6.856 -0.1298  0.6892  0.6805
 4794SOL    HW126018   3.870   1.185   6.774  4.9260  0.3712 -1.4736
 4794SOL    HW226019   3.995   1.149   6.829 -0.6766  1.5593 -1.1592
 4795SOL     OW26020   0.906   0.212   8.297 -0.4106  0.2738  0.2083
 4795SOL    HW126021   0.877   0.260   8.374 -0.9514  0.2555  0.0178
 4795SOL    HW226022   0.821   0.177   8.269 -1.3942  2.8842 -0.0729
 4796SOL     OW26023   1.905   1.536  11.047  0.1978 -0.3254  0.1372
 4796SOL    HW126024   1.839   1.578  10.992 -0.8530 -0.2896  1.4393
 4796SOL    HW226025   1.978   1.529  10.985 -2.3134 -2.9005 -2.5152
 4797SOL     OW26026   4.389   0.031  12.115  0.1920 -0.5643  0.1391
 4797SOL    HW126027   4.425   0.118  12.099 -1.9658  0.7481  2.4579
 4797SOL    HW226028   4.448   0.015  12.189  1.5917 -1.6639 -1.2191
 4798SOL     OW26029   0.232   0.568   7.292  0.2815 -0.4032 -0.1399
 4798SOL    HW126030   0.238   0.506   7.219 -0.7849  0.0336 -0.6015
 4798SOL    HW226031   0.192   0.644   7.249  3.6436  0.7914 -1.1701
 4799SOL     OW26032   3.538   1.778   5.948 -0.4458 -0.2682  0.3266
 4799SOL    HW126033   3.466   1.739   5.998  0.1809 -0.2607  1.2390
 4799SOL    HW226034   3.600   1.712   5.978  0.1610  1.2511  2.3855
 4800SOL     OW26035   3.320   0.321   1.663  0.4404  0.7786 -0.3838
 4800SOL    HW126036   3.249   0.266   1.629 -0.0341  1.3727 -0.3730
 4800SOL    HW226037   3.391   0.266   1.633 -1.2973 -1.4925 -0.3435
 4801SOL     OW26038   0.492   1.825   8.360  0.1197 -0.1727 -0.0098
 4801SOL    HW126039   0.488   1.737   8.399 -0.8334  0.8356  2.2094
 4801SOL    HW226040   0.569   1.809   8.306  0.9614  2.8675  0.2887
 4802SOL     OW26041   4.621   3.483   6.982  0.0655 -0.0910  0.6793
 4802SOL    HW126042   4.709   3.456   7.010  0.7281 -0.7563 -2.0306
 4802SOL    HW226043   4.571   3.417   7.031  0.0602 -1.3762 -1.0368
 4803SOL     OW26044   1.133   0.483   4.379 -0.0857  0.0525 -0.4354
 4803SOL    HW126045   1.077   0.409   4.359  0.5149 -0.3320 -0.6813
 4803SOL    HW226046   1.187   0.497   4.302  1.4338 -1.6057  0.3396
 4804SOL     OW26047   0.560   4.249  15.251  0.0738 -0.5807 -1.1625
 4804SOL    HW126048   0.595   4.287  15.331 -2.2650  2.2581 -1.5097
 4804SOL    HW226049   0.570   4.323  15.191  0.1932  0.6565  0.3845
 4805SOL     OW26050   1.203   4.267  15.014 -0.6078 -0.2321  0.2049
 4805SOL    HW126051   1.241   4.289  14.929  1.2958 -0.3519  1.0423
 4805SOL    HW226052   1.248   4.317  15.081 -1.9233  1.4507 -0.1700
 4806SOL     OW26053   2.949   1.743   1.017  0.3777  0.1360  0.5612
 4806SOL    HW126054   2.879   1.687   1.049 -0.1237  0.5531  0.1890
 4806SOL    HW226055   2.911   1.762   0.931  0.7997  0.7221  0.4996
 4807SOL     OW26056   4.421   2.384   7.702 -0.2041  0.2037 -0.4071
 4807SOL    HW126057   4.347   2.342   7.658 -0.9244  1.4905 -0.4164
 4807SOL    HW226058   4.397   2.471   7.669  1.4046  1.3234  1.3848
 4808SOL     OW26059   2.525   1.539   6.155 -0.1378 -0.4470  0.4810
 4808SOL    HW126060   2.459   1.522   6.088  0.7995  4.3273 -1.6265
 4808SOL    HW226061   2.500   1.473   6.220 -1.0262 -0.8577 -0.2718
 4809SOL     OW26062   0.552   4.301   7.332 -0.1156  0.1724  0.0231
 4809SOL    HW126063   0.555   4.324   7.239 -0.6424 -1.8608 -0.5117
 4809SOL    HW226064   0.587   4.212   7.343 -0.6378 -0.0351  0.0244
 4810SOL     OW26065   2.861   1.412  15.830 -0.3848  0.2889 -0.2235
 4810SOL    HW126066   2.783   1.466  15.842 -0.0256  0.7819 -0.0688
 4810SOL    HW226067   2.898   1.465  15.759 -0.6529  0.7997  0.0129
 4811SOL     OW26068   3.690   2.498   8.621 -0.1231  0.2189 -0.3844
 4811SOL    HW126069   3.771   2.540   8.648  0.0005  0.6453 -1.3849
 4811SOL    HW226070   3.629   2.571   8.612 -0.0914  0.3161  0.2568
 4812SOL     OW26071   4.509   1.290  10.124  0.2349 -0.7681 -0.4703
 4812SOL    HW126072   4.452   1.276  10.200  1.4232  0.6604  0.6804
 4812SOL    HW226073   4.504   1.385  10.111  0.3187 -0.9012 -1.4678
 4813SOL     OW26074   1.804   1.063   9.146 -0.8428 -0.2815 -0.7854
 4813SOL    HW126075   1.847   1.147   9.133 -0.1911 -0.4848  0.0812
 4813SOL    HW226076   1.867   1.005   9.103 -0.7015 -0.6136 -0.1213
 4814SOL     OW26077   0.189   2.299   6.871 -1.1302 -0.6444 -0.8572
 4814SOL    HW126078   0.128   2.255   6.812 -1.2675 -2.3281  0.5269
 4814SOL    HW226079   0.132   2.370   6.900 -0.6113  0.4909 -2.6703
 4815SOL     OW26080   0.937   0.607   6.923 -0.6551  0.0456  0.3909
 4815SOL    HW126081   0.995   0.534   6.903  2.0204  1.7899  1.7608
 4815SOL    HW226082   0.998   0.680   6.916  1.1803 -1.2604  2.6242
 4816SOL     OW26083   1.956   3.832  17.192 -0.1960  0.1334  0.3716
 4816SOL    HW126084   1.870   3.791  17.198 -0.3098  0.1773 -0.8831
 4816SOL    HW226085   1.992   3.801  17.109 -1.9949  0.1007 -0.4040
 4817SOL     OW26086   3.310   0.958   7.439 -0.8413  0.4734 -0.2024
 4817SOL    HW126087   3.360   1.038   7.458 -1.0827  0.3933  0.7718
 4817SOL    HW226088   3.376   0.922   7.380 -1.3591 -0.6096 -0.1271
 4818SOL     OW26089   2.903   3.330   6.686  0.4075 -0.2330 -0.2370
 4818SOL    HW126090   2.874   3.246   6.721  1.1165  0.6489  2.4459
 4818SOL    HW226091   2.868   3.316   6.598 -1.0103  1.3008  0.0620
 4819SOL     OW26092   2.222   3.227   5.641  0.0568  0.4147 -0.2063
 4819SOL    HW126093   2.178   3.148   5.609 -1.1687  0.5740  1.0809
 4819SOL    HW226094   2.245   3.261   5.555  0.7907  0.9649  0.2092
 4820SOL     OW26095   3.836   0.111   6.924 -0.1682  0.2821 -0.0350
 4820SOL    HW126096   3.879   0.029   6.950  1.0341  1.0101  0.2341
 4820SOL    HW226097   3.840   0.105   6.828 -0.0756  0.8909 -0.0688
 4821SOL     OW26098   0.676   4.023   0.690 -0.2124  0.0758 -0.1882
 4821SOL    HW126099   0.711   4.081   0.757  1.8876 -2.0300  0.5124
 4821SOL    HW226100   0.751   4.008   0.632  0.7884  1.1178  0.8586
 4822SOL     OW26101   4.222   1.377  14.971 -0.5124  0.2222  0.1240
 4822SOL    HW126102   4.280   1.349  14.900  0.6117  1.5273  0.5075
 4822SOL    HW226103   4.254   1.465  14.993  0.2597  0.2497 -1.1085
 4823SOL     OW26104   4.041   0.910  12.310  0.0294 -0.2030  0.4099
 4823SOL    HW126105   4.070   0.943  12.395 -0.1485 -0.3191  0.5169
 4823SOL    HW226106   4.040   0.815  12.326 -2.0177  0.0463  1.7495
 4824SOL     OW26107   3.691   3.819   7.621 -0.2530  0.0844  0.2463
 4824SOL    HW126108   3.750   3.875   7.672 -1.1053 -0.4317  1.7872
 4824SOL    HW226109   3.624   3.799   7.685 -1.4604 -1.4447 -1.5020
 4825SOL     OW26110   3.686   2.733   5.302  0.4109  0.6311  0.0590
 4825SOL    HW126111   3.658   2.822   5.282 -0.0229  0.5421  0.2693
 4825SOL    HW226112   3.709   2.709   5.212 -2.7227 -1.6124 -0.1444
 4826SOL     OW26113   1.466   3.574   5.048 -0.2722 -0.2948 -0.4393
 4826SOL    HW126114   1.538   3.519   5.016  1.0996 -0.2857  2.6260
 4826SOL    HW226115   1.396   3.509   5.057 -0.4592 -0.0649 -0.2574
 4827SOL     OW26116   3.647   0.437   7.092  0.4283 -0.2093 -0.6593
 4827SOL    HW126117   3.556   0.456   7.072  0.1212 -0.5161  0.4687
 4827SOL    HW226118   3.677   0.520   7.131 -0.7668 -0.0738 -0.0500
 4828SOL     OW26119   4.646   2.610   3.866  0.7075  0.4684 -0.8395
 4828SOL    HW126120   4.713   2.630   3.802  1.6509  2.6223  0.8029
 4828SOL    HW226121   4.682   2.664   3.936  1.8017 -0.9304 -0.3122
 4829SOL     OW26122   4.117   2.437  13.210 -0.4422 -0.3482  0.4321
 4829SOL    HW126123   4.107   2.475  13.122 -1.1000 -1.9339 -0.1685
 4829SOL    HW226124   4.025   2.411  13.214 -0.1945 -1.1420  0.8981
 4830SOL     OW26125   3.489   4.568  13.866  0.3726  0.4478 -0.1957
 4830SOL    HW126126   3.415   4.512  13.886  2.0482 -2.1085 -1.1499
 4830SOL    HW226127   3.512   4.596  13.954 -0.0126  0.8057 -0.2084
 4831SOL     OW26128   4.352   2.567   9.566 -0.4387  0.4189 -0.0636
 4831SOL    HW126129   4.367   2.504   9.636  1.7111 -1.1394 -1.9046
 4831SOL    HW226130   4.331   2.646   9.615 -0.4282  0.7175 -0.5376
 4832SOL     OW26131   0.418   0.957   5.750  0.5316 -0.6048  0.4165
 4832SOL    HW126132   0.412   0.941   5.656 -0.5580 -0.2036  0.4159
 4832SOL    HW226133   0.363   1.036   5.750 -0.9994 -1.6634  2.6331
 4833SOL     OW26134   3.804   1.307   8.198 -0.5205 -0.0576  0.1119
 4833SOL    HW126135   3.716   1.292   8.165 -0.1092 -1.0400 -0.5611
 4833SOL    HW226136   3.845   1.308   8.111  0.3798  1.5355  0.5466
 4834SOL     OW26137   0.493   1.271  11.488 -0.4181 -0.2334  0.3410
 4834SOL    HW126138   0.456   1.187  11.515  2.4520 -2.0711 -1.3939
 4834SOL    HW226139   0.523   1.254  11.399 -1.5367 -2.6640  0.4423
 4835SOL     OW26140   3.911   1.341  15.244 -0.7614  0.2108 -0.2100
 4835SOL    HW126141   3.994   1.293  15.234 -1.6615 -1.5399  0.6527
 4835SOL    HW226142   3.856   1.275  15.286 -0.5211 -0.3586 -0.7732
 4836SOL     OW26143   3.134   4.527   1.834  0.3686  0.3668 -0.9124
 4836SOL    HW126144   3.075   4.564   1.899  1.4175  0.3885  0.0329
 4836SOL    HW226145   3.165   4.449   1.880 -0.5044 -0.8373 -2.3403
 4837SOL     OW26146   1.309   3.840   8.383  0.2321  0.2809 -0.2678
 4837SOL    HW126147   1.251   3.916   8.388 -0.2588 -0.2446  2.0803
 4837SOL    HW226148   1.365   3.858   8.458  0.8794  0.3358 -0.7729
 4838SOL     OW26149   1.366   3.871   1.971 -0.0128 -0.1197  0.6073
 4838SOL    HW126150   1.306   3.841   1.902  1.7928 -1.6074 -0.3193
 4838SOL    HW226151   1.338   3.816   2.044 -3.2210  0.9948  0.2144
 4839SOL     OW26152   0.083   3.820   1.377 -0.5203  0.3780  0.4181
 4839SOL    HW126153   0.125   3.896   1.338 -0.4614  0.1951  0.1239
 4839SOL    HW226154   0.045   3.789   1.295  2.1288  0.5804 -0.8564
 4840SOL     OW26155   4.256   3.106   5.159  0.5190  0.2623 -0.3030
 4840SOL    HW126156   4.275   3.036   5.096  0.2487  0.6124 -0.7694
 4840SOL    HW226157   4.170   3.136   5.130 -0.1981 -1.6832 -0.2440
 4841SOL     OW26158   0.063   0.361  14.180 -0.4774 -0.0688 -0.1427
 4841SOL    HW126159   0.058   0.361  14.085  1.5591 -0.0557 -0.2447
 4841SOL    HW226160   4.719   0.319  14.201 -0.5413 -1.1708 -2.6493
 4842SOL     OW26161   0.536   1.390   5.734  0.1774 -0.1425 -0.3471
 4842SOL    HW126162   0.492   1.369   5.816 -1.2534 -1.9790 -1.5627
 4842SOL    HW226163   0.625   1.398   5.769  0.1181 -0.2367 -0.1767
 4843SOL     OW26164   0.044   3.658   7.961  0.8653 -0.3562  0.1660
 4843SOL    HW126165   0.043   3.747   7.926 -2.7521 -0.2247  0.5577
 4843SOL    HW226166   4.722   3.606   7.909  0.9355 -0.3945  0.1208
 4844SOL     OW26167   2.169   1.509   5.479  0.0380  0.5733  0.8949
 4844SOL    HW126168   2.155   1.461   5.398 -1.0677 -1.4031  2.2316
 4844SOL    HW226169   2.077   1.507   5.507 -0.2619  4.3629  0.1764
 4845SOL     OW26170   4.136   2.957   7.647  0.0106 -0.0087 -0.0513
 4845SOL    HW126171   4.055   2.994   7.611  1.2469  2.7189 -0.0694
 4845SOL    HW226172   4.091   2.902   7.712 -0.3248 -0.0462 -0.3134
 4846SOL     OW26173   0.923   2.918  10.497  0.2418  0.0063 -0.4485
 4846SOL    HW126174   0.922   2.836  10.546 -1.3422  0.1954 -0.1590
 4846SOL    HW226175   0.840   2.920  10.449 -0.1377  1.4105  0.2689
 4847SOL     OW26176   1.368   0.203  12.089 -0.3390  0.2088  0.2687
 4847SOL    HW126177   1.383   0.297  12.074  0.7528 -0.0777 -0.4122
 4847SOL    HW226178   1.457   0.176  12.110 -1.0447 -1.6905  0.8015
 4848SOL     OW26179   1.074   2.869   9.380 -0.0087 -0.1682  0.7169
 4848SOL    HW126180   1.032   2.936   9.326  2.2358  0.0081 -0.8230
 4848SOL    HW226181   1.166   2.868   9.353 -0.7882 -0.8073 -1.8848
 4849SOL     OW26182   3.693   1.004   0.896 -0.3580 -0.2849  0.2315
 4849SOL    HW126183   3.676   0.939   0.828 -0.3310 -0.1280  0.0743
 4849SOL    HW226184   3.713   1.079   0.839  0.5009  0.1411  1.0908
 4850SOL     OW26185   0.437   2.068   2.087 -0.8739  0.3024 -0.0668
 4850SOL    HW126186   0.370   2.107   2.031 -1.9956 -0.7815  0.5337
 4850SOL    HW226187   0.462   1.992   2.035 -0.7040  0.1895  0.1769
 4851SOL     OW26188   1.592   3.147  14.192 -0.3090  0.0292 -0.5139
 4851SOL    HW126189   1.499   3.166  14.176 -0.7939 -1.4250  0.5025
 4851SOL    HW226190   1.616   3.116  14.104 -0.6443 -1.3905 -0.1105
 4852SOL     OW26191   3.807   4.385   8.288  0.2167  0.1983 -0.2189
 4852SOL    HW126192   3.758   4.422   8.361 -0.1181  2.7353 -1.7336
 4852SOL    HW226193   3.804   4.460   8.228 -0.4721  1.3941  1.3185
 4853SOL     OW26194   2.177   3.281   5.343 -0.3052  0.0567 -0.0716
 4853SOL    HW126195   2.178   3.366   5.386  0.1697 -0.3811  0.7708
 4853SOL    HW226196   2.244   3.295   5.277  1.4361  2.8013  2.3059
 4854SOL     OW26197   4.592   3.857  15.854  0.3762 -0.2560  0.1218
 4854SOL    HW126198   4.674   3.898  15.880  2.2162 -3.5031 -0.4537
 4854SOL    HW226199   4.628   3.777  15.815 -1.2206 -1.0602  0.2663
 4855SOL     OW26200   2.288   2.396   3.014  0.3906 -0.3173  0.2574
 4855SOL    HW126201   2.303   2.339   2.938 -1.9976 -0.1808 -0.3207
 4855SOL    HW226202   2.218   2.447   2.974  1.2985  0.5014 -0.2750
 4856SOL     OW26203   2.054   3.572   4.912  0.4280 -0.5041 -0.3399
 4856SOL    HW126204   1.987   3.556   4.978  1.2311 -1.8297  0.1488
 4856SOL    HW226205   2.004   3.616   4.843  3.2536  1.9529 -0.7951
 4857SOL     OW26206   4.015   3.084   5.511 -0.0579  0.0747 -0.2603
 4857SOL    HW126207   3.936   3.031   5.516  0.1922 -0.2217  0.7322
 4857SOL    HW226208   3.986   3.164   5.554  1.1323 -0.3432  1.3417
 4858SOL     OW26209   2.818   4.129   8.311 -0.7989  0.8654  0.0379
 4858SOL    HW126210   2.833   4.099   8.222 -2.1988  0.8806 -0.2067
 4858SOL    HW226211   2.784   4.218   8.309 -1.1370  0.7093 -0.9822
 4859SOL     OW26212   4.497   2.073   8.212  0.3463 -0.3279 -0.1439
 4859SOL    HW126213   4.485   1.980   8.231  0.5079 -0.3799 -0.2980
 4859SOL    HW226214   4.408   2.105   8.198  0.5135  0.4372  0.5824
 4860SOL     OW26215   2.790   4.292   1.922 -0.1171 -0.4607  0.2474
 4860SOL    HW126216   2.796   4.249   2.007  2.8707 -2.4775 -0.9902
 4860SOL    HW226217   2.778   4.383   1.949  0.9121 -0.6293  1.2487
 4861SOL     OW26218   0.557   4.510  16.069 -0.2424 -0.4534 -0.2987
 4861SOL    HW126219   0.591   4.424  16.094 -0.4080 -0.7571 -1.1058
 4861SOL    HW226220   0.500   4.529  16.143 -0.3959 -2.1783  0.0374
 4862SOL     OW26221   1.321   1.808   2.290 -0.0522  0.6615  0.6297
 4862SOL    HW126222   1.233   1.839   2.313 -0.7281 -0.1655 -0.8325
 4862SOL    HW226223   1.347   1.751   2.362 -1.6373  1.9314  2.2008
 4863SOL     OW26224   3.858   0.326   1.230 -0.0179  0.2665 -0.4234
 4863SOL    HW126225   3.853   0.422   1.234  1.6058  0.2858  1.4023
 4863SOL    HW226226   3.766   0.305   1.243  0.0544 -0.5437 -1.2377
 4864SOL     OW26227   0.260   3.291  16.938  0.2129 -0.1352  0.4818
 4864SOL    HW126228   0.225   3.339  16.863 -1.6680 -1.9966  0.1385
 4864SOL    HW226229   0.197   3.301  17.010 -0.7113 -0.0306 -0.3455
 4865SOL     OW26230   3.368   3.985  11.420  0.0235 -0.0805  0.2092
 4865SOL    HW126231   3.310   3.981  11.344  3.4077 -1.5814 -2.3011
 4865SOL    HW226232   3.317   4.018  11.495  0.8397 -1.7442  1.4950
 4866SOL     OW26233   1.306   2.027   9.229 -0.0545 -0.3074  0.5569
 4866SOL    HW126234   1.260   2.110   9.217  1.6873  0.6265  0.4106
 4866SOL    HW226235   1.243   1.965   9.192  0.6337 -1.3581  1.1302
 4867SOL     OW26236   3.192   0.983   7.060 -0.1866 -0.3920  0.1041
 4867SOL    HW126237   3.166   0.982   7.152  0.4516  2.8714  0.3235
 4867SOL    HW226238   3.237   1.067   7.057 -2.2157  0.7319  1.5681
 4868SOL     OW26239   2.268   4.454   9.345 -0.5737  0.1181  0.2679
 4868SOL    HW126240   2.236   4.372   9.306  0.3215  0.3847 -1.0418
 4868SOL    HW226241   2.184   4.484   9.378 -0.7695 -1.1733  0.9673
 4869SOL     OW26242   0.543   4.559  12.957 -0.6071  0.2677 -0.3706
 4869SOL    HW126243   0.555   4.599  12.871  1.9047 -1.1488 -0.6938
 4869SOL    HW226244   0.474   4.496  12.938 -0.2840 -0.4273  0.7692
 4870SOL     OW26245   0.131   4.260   1.213 -0.2000 -0.4176  0.2935
 4870SOL    HW126246   0.165   4.350   1.207  0.9062 -0.7774  1.1852
 4870SOL    HW226247   0.044   4.264   1.172 -0.5447  2.2623  1.2943
 4871SOL     OW26248   0.817   3.744   8.727  0.7044 -0.5405  0.5055
 4871SOL    HW126249   0.730   3.719   8.695  0.9854 -1.5839  0.5632
 4871SOL    HW226250   0.804   3.838   8.715  0.1529 -0.8716 -1.5567
 4872SOL     OW26251   1.317   3.976  13.354 -0.3871  0.5878 -0.0071
 4872SOL    HW126252   1.404   3.938  13.343 -0.5820  0.7375 -2.2433
 4872SOL    HW226253   1.261   3.901  13.371 -0.4802 -0.0156 -2.9557
 4873SOL     OW26254   1.774   2.712  12.874  0.8019 -0.2838 -1.0768
 4873SOL    HW126255   1.679   2.725  12.870  0.5839 -0.6701  2.5542
 4873SOL    HW226256   1.816   2.747  12.795 -0.4360  0.7340 -1.2915
 4874SOL     OW26257   0.430   4.618   5.088 -0.0487 -0.0618 -0.0947
 4874SOL    HW126258   0.475   4.536   5.108  1.2594  1.1376  1.8695
 4874SOL    HW226259   0.496   4.645   5.025  0.5163 -1.3012 -0.0296
 4875SOL     OW26260   4.538   1.185   0.973  0.1392  0.0173  0.3839
 4875SOL    HW126261   4.513   1.147   1.057 -0.8915 -0.6372 -0.2132
 4875SOL    HW226262   4.628   1.156   0.959  0.7482  1.5855  1.0476
 4876SOL     OW26263   0.258   0.941   2.236  0.0232  0.1449  0.0668
 4876SOL    HW126264   0.168   0.909   2.241 -0.5633  1.7990  0.2800
 4876SOL    HW226265   0.297   0.874   2.180 -1.2131  0.1110 -0.7559
 4877SOL     OW26266   3.359   1.880   6.288 -0.6256  0.1917  0.2286
 4877SOL    HW126267   3.341   1.821   6.215  0.1121  1.1107 -0.7052
 4877SOL    HW226268   3.304   1.846   6.358 -0.6594 -0.3906 -0.0795
 4878SOL     OW26269   4.440   4.280   5.376 -0.5220  0.1373  0.2833
 4878SOL    HW126270   4.413   4.360   5.420 -4.0299 -0.9451  0.1331
 4878SOL    HW226271   4.526   4.305   5.344  0.7992 -2.9965  1.3255
 4879SOL     OW26272   2.792   4.436   2.815 -0.3061  0.1715 -0.5523
 4879SOL    HW126273   2.699   4.447   2.832 -0.4152 -0.1443 -0.9513
 4879SOL    HW226274   2.823   4.411   2.903 -1.7574  0.5389  0.0486
 4880SOL     OW26275   1.272   0.112   8.414 -0.2017 -0.6698  0.0276
 4880SOL    HW126276   1.257   0.021   8.441 -1.1813 -0.8253 -1.0298
 4880SOL    HW226277   1.192   0.149   8.451 -0.5669 -1.2552 -0.1786
 4881SOL     OW26278   2.511   4.357   6.027  0.6166 -0.0841 -0.2231
 4881SOL    HW126279   2.464   4.360   6.111  0.1213 -0.9517 -0.4714
 4881SOL    HW226280   2.439   4.330   5.970  0.5881  0.3578 -0.3924
 4882SOL     OW26281   1.080   2.914   9.847  0.2332 -0.0113  0.5586
 4882SOL    HW126282   1.114   2.871   9.925 -0.7942 -0.5247  0.7193
 4882SOL    HW226283   1.018   2.852   9.809  0.3470  1.6144 -2.2993
 4883SOL     OW26284   2.139   3.066  11.531 -0.0712  0.0315  0.5307
 4883SOL    HW126285   2.096   3.139  11.486  0.1386 -0.8561 -1.1273
 4883SOL    HW226286   2.071   3.002  11.551  0.0299 -1.1079 -2.7074
 4884SOL     OW26287   4.265   0.009   3.314  0.2724  0.1062 -0.3353
 4884SOL    HW126288   4.205   0.081   3.330 -0.7563 -0.6571 -0.7384
 4884SOL    HW226289   4.266   0.030   3.220  0.8194  0.2654 -0.2932
 4885SOL     OW26290   0.309   3.538   8.562 -0.2374  0.0270  0.3451
 4885SOL    HW126291   0.285   3.622   8.524  0.1304 -0.3035 -0.6231
 4885SOL    HW226292   0.257   3.477   8.511 -0.1643  0.6931 -0.5228
 4886SOL     OW26293   0.426   3.353  12.424  0.0589 -0.0066  0.4021
 4886SOL    HW126294   0.482   3.338  12.500  0.9265  0.2268 -0.1899
 4886SOL    HW226295   0.462   3.434  12.389  0.4761 -0.2070  0.3589
 4887SOL     OW26296   4.591   2.523  17.197 -0.3289  0.8238 -0.2975
 4887SOL    HW126297   4.613   2.559  17.112 -0.8288  0.2819 -0.6576
 4887SOL    HW226298   4.548   2.444  17.163 -0.8345  0.6038  0.8261
 4888SOL     OW26299   0.596   0.777   6.124  0.1196  0.3894  0.2322
 4888SOL    HW126300   0.644   0.859   6.115  0.8625  0.0541  1.1771
 4888SOL    HW226301   0.513   0.801   6.082 -0.0440 -0.7897 -0.1024
 4889SOL     OW26302   3.677   4.048   2.153  0.0907 -0.1078 -0.5632
 4889SOL    HW126303   3.593   4.028   2.111  0.1904 -0.4404 -0.6031
 4889SOL    HW226304   3.651   4.079   2.240 -2.3091 -1.1121 -0.9103
 4890SOL     OW26305   3.925   0.732   7.620  0.7085 -0.3853 -0.0416
 4890SOL    HW126306   3.844   0.741   7.671  1.2729 -2.0106  1.1479
 4890SOL    HW226307   3.951   0.823   7.605  0.8297 -0.6872 -1.6355
 4891SOL     OW26308   0.911   1.871   7.803 -0.4180  0.3936  0.1203
 4891SOL    HW126309   0.951   1.876   7.890  0.5210 -0.2465 -0.2713
 4891SOL    HW226310   0.979   1.838   7.744  0.9597  2.3867  0.6032
 4892SOL     OW26311   4.056   3.383   9.680 -0.2490 -0.0287 -0.6100
 4892SOL    HW126312   3.962   3.365   9.678 -0.3882  0.6742 -0.5633
 4892SOL    HW226313   4.090   3.306   9.724  0.4718  1.8286  2.0805
 4893SOL     OW26314   1.095   1.959   8.827 -0.5970 -0.2001 -0.2965
 4893SOL    HW126315   1.175   1.917   8.859  0.3415 -0.5379 -3.0428
 4893SOL    HW226316   1.062   2.001   8.906 -0.3622  3.3029 -2.0440
 4894SOL     OW26317   1.104   1.510   8.964 -0.5289  0.0877 -0.2099
 4894SOL    HW126318   1.167   1.509   8.892 -1.4026  1.5095 -0.9945
 4894SOL    HW226319   1.043   1.573   8.926 -0.6598 -0.0686 -0.2612
 4895SOL     OW26320   2.026   4.137   5.233 -0.0112 -0.3766  0.0315
 4895SOL    HW126321   1.942   4.182   5.236  1.7653  3.0626 -1.8516
 4895SOL    HW226322   2.081   4.177   5.165 -0.2254  0.5741  0.4158
 4896SOL     OW26323   1.375   1.364   5.917 -0.0339 -0.1792 -0.2432
 4896SOL    HW126324   1.414   1.337   5.834 -0.4591 -1.3974 -0.0467
 4896SOL    HW226325   1.435   1.330   5.983 -0.3138 -0.0955  0.0556
 4897SOL     OW26326   1.089   1.540  17.203 -0.2942  0.1459  0.0421
 4897SOL    HW126327   1.022   1.472  17.199 -0.4164  0.2602  0.1432
 4897SOL    HW226328   1.087   1.563  17.110 -1.4788  0.0327  0.0411
 4898SOL     OW26329   1.359   0.077   5.229 -0.2454  0.0483  0.2486
 4898SOL    HW126330   1.427   0.038   5.175 -0.1230 -2.9932  2.6080
 4898SOL    HW226331   1.413   0.098   5.306 -0.5596 -1.5669  0.9136
 4899SOL     OW26332   3.441   1.697   4.014 -0.1743 -0.3351 -0.2755
 4899SOL    HW126333   3.463   1.659   4.099  1.4349 -0.0451 -0.5615
 4899SOL    HW226334   3.525   1.738   3.994  0.2826  0.2801  3.0330
 4900SOL     OW26335   2.429   1.809   6.280 -0.2042  0.1273  0.2535
 4900SOL    HW126336   2.486   1.836   6.207  0.2767  2.2567  1.4183
 4900SOL    HW226337   2.398   1.729   6.237  1.0933 -0.6384  0.7436
 4901SOL     OW26338   3.816   2.548   5.463  0.2168  0.1164 -0.0493
 4901SOL    HW126339   3.734   2.523   5.507  0.2442 -2.4577 -1.4808
 4901SOL    HW226340   3.775   2.611   5.405 -1.6034 -0.5370  0.4998
 4902SOL     OW26341   0.348   0.976   3.438 -0.0484  0.3312 -0.2210
 4902SOL    HW126342   0.339   0.989   3.343  1.9943 -1.0363 -0.6115
 4902SOL    HW226343   0.259   0.952   3.463 -0.6936 -0.4043 -3.2143
 4903SOL     OW26344   1.483   0.007   9.003  0.0628  0.3111 -0.1061
 4903SOL    HW126345   1.416   0.056   8.955 -0.8189  0.5661  1.4231
 4903SOL    HW226346   1.550   0.074   8.991 -1.5629  1.7897 -0.9254
 4904SOL     OW26347   2.353   1.801   6.725  0.5238  0.0538  0.1278
 4904SOL    HW126348   2.365   1.843   6.810  0.2488 -0.9068  0.6525
 4904SOL    HW226349   2.319   1.715   6.753 -1.3709 -0.0632 -2.5789
 4905SOL     OW26350   2.902   2.906  16.037 -0.0567 -0.4377 -0.0396
 4905SOL    HW126351   2.819   2.948  16.058 -0.4458 -0.2834 -1.8893
 4905SOL    HW226352   2.949   2.971  15.986  1.6914 -0.6378  1.3309
 4906SOL     OW26353   3.624   1.791   1.852  0.8057 -1.0092 -0.4597
 4906SOL    HW126354   3.634   1.847   1.929  1.7766  1.1159 -2.1068
 4906SOL    HW226355   3.629   1.860   1.785  1.5423  0.2373  0.8886
 4907SOL     OW26356   4.104   0.362   4.110 -0.3576 -0.0440  0.4829
 4907SOL    HW126357   4.077   0.454   4.100  0.8914  0.3291  0.5411
 4907SOL    HW226358   4.181   0.352   4.055  0.1766 -1.5554  1.4989
 4908SOL     OW26359   0.569   0.503  11.187 -0.8887  0.4656  0.6608
 4908SOL    HW126360   0.561   0.435  11.120  0.4095  1.3326 -0.3920
 4908SOL    HW226361   0.505   0.565  11.152 -0.4049 -0.0986 -1.2434
 4909SOL     OW26362   1.218   2.510   9.836  0.8060  0.6369 -0.2307
 4909SOL    HW126363   1.207   2.552   9.751  0.1896  0.0917 -0.4224
 4909SOL    HW226364   1.283   2.567   9.876  0.2740  0.0825  1.3978
 4910SOL     OW26365   2.367   2.438   9.548 -0.0614 -0.0168  0.6250
 4910SOL    HW126366   2.321   2.462   9.629 -3.6470  0.4109 -1.5506
 4910SOL    HW226367   2.313   2.482   9.483  0.9940 -0.1309 -0.3267
 4911SOL     OW26368   2.430   2.914   5.015 -0.2117 -0.4883 -0.2365
 4911SOL    HW126369   2.522   2.935   5.031  0.6866 -2.9333 -2.2640
 4911SOL    HW226370   2.430   2.822   5.042  0.2130 -0.7745 -1.2315
 4912SOL     OW26371   1.321   2.196   2.250 -0.2525 -0.3677 -0.0941
 4912SOL    HW126372   1.304   2.179   2.342 -1.1537  1.1818  0.0214
 4912SOL    HW226373   1.239   2.164   2.212  0.4564 -1.6484 -0.5427
 4913SOL     OW26374   3.114   1.958  13.524  0.0840  0.1311 -0.0173
 4913SOL    HW126375   3.157   1.913  13.450  1.1600 -0.4357  0.9496
 4913SOL    HW226376   3.124   1.894  13.595 -0.3062 -0.8754 -0.8583
 4914SOL     OW26377   3.075   3.255   0.365 -0.1403 -0.1148  0.0859
 4914SOL    HW126378   3.015   3.221   0.432  0.1147 -1.2166 -0.2399
 4914SOL    HW226379   3.159   3.243   0.410 -1.1109  3.0815  2.7271
 4915SOL     OW26380   2.328   1.739   7.229  0.3121  0.4255  0.0093
 4915SOL    HW126381   2.249   1.785   7.256  0.6621  0.8601  0.3027
 4915SOL    HW226382   2.386   1.752   7.304  0.2047 -2.8714  0.6281
 4916SOL     OW26383   1.572   1.955   4.720 -0.2362  0.7056  0.3883
 4916SOL    HW126384   1.515   1.882   4.695  2.0438 -0.7738 -0.5055
 4916SOL    HW226385   1.617   1.972   4.638 -1.1506 -0.8330 -0.4226
 4917SOL     OW26386   0.823   2.383  14.510  0.1967 -0.2140 -0.0991
 4917SOL    HW126387   0.794   2.312  14.567  0.5587  0.5453  1.0369
 4917SOL    HW226388   0.915   2.360  14.510  0.2069 -0.1299  2.6710
 4918SOL     OW26389   3.482   3.321  11.651  0.2247  0.0427 -0.2132
 4918SOL    HW126390   3.557   3.263  11.664 -0.2488 -0.6842 -0.7802
 4918SOL    HW226391   3.521   3.407  11.670 -1.5956  1.0630 -1.1447
 4919SOL     OW26392   2.601   0.668  11.274 -0.0314 -0.0493  0.3075
 4919SOL    HW126393   2.564   0.750  11.305  3.4996  1.5548  0.3233
 4919SOL    HW226394   2.695   0.687  11.284  0.4178 -2.5644  0.9523
 4920SOL     OW26395   3.683   4.309   8.662 -0.5000  0.3881  0.0507
 4920SOL    HW126396   3.613   4.325   8.725 -0.0845 -0.8533  0.8402
 4920SOL    HW226397   3.657   4.224   8.624  1.4633 -0.4272  0.5595
 4921SOL     OW26398   4.052   4.164   9.323  0.4663  0.4527 -0.0505
 4921SOL    HW126399   4.024   4.073   9.313  0.6371  0.3203  0.7109
 4921SOL    HW226400   4.082   4.188   9.235 -1.9411 -2.1070 -1.5680
 4922SOL     OW26401   3.072   3.076   6.206  0.1842  0.1957  0.0952
 4922SOL    HW126402   3.144   3.109   6.259 -1.7304 -0.8613  3.3635
 4922SOL    HW226403   3.069   3.137   6.132  1.9146 -2.0278 -1.8083
 4923SOL     OW26404   2.335   3.875   7.548 -0.2693 -0.0703  0.1035
 4923SOL    HW126405   2.274   3.875   7.474  1.4945 -2.7757 -1.3794
 4923SOL    HW226406   2.366   3.784   7.542  1.2078  0.7733 -4.8983
 4924SOL     OW26407   4.631   1.807   3.071  0.1866  0.2819 -0.3449
 4924SOL    HW126408   4.695   1.753   3.025  0.1746  1.1717 -1.4129
 4924SOL    HW226409   4.634   1.889   3.021  0.6391 -0.1806 -1.0792
 4925SOL     OW26410   4.121   0.903  14.798 -0.4637 -0.1573  0.3752
 4925SOL    HW126411   4.128   0.911  14.703  0.3052 -3.9433  0.1028
 4925SOL    HW226412   4.204   0.941  14.829 -0.0725 -0.0249 -0.7925
 4926SOL     OW26413   0.614   2.675   4.290  0.7368 -0.3183 -0.2088
 4926SOL    HW126414   0.525   2.639   4.287  0.6935 -0.1286 -1.1376
 4926SOL    HW226415   0.616   2.761   4.248  0.3813 -0.5690 -0.7359
 4927SOL     OW26416   3.814   0.975  16.614 -0.0845  0.0071 -0.3583
 4927SOL    HW126417   3.759   1.046  16.581  2.0940  1.2541 -1.2783
 4927SOL    HW226418   3.841   1.011  16.698 -3.0483 -1.4254  1.2321
 4928SOL     OW26419   4.354   2.775   7.853  0.0114  0.3199  0.3151
 4928SOL    HW126420   4.360   2.699   7.911 -0.1742  0.9412  1.1452
 4928SOL    HW226421   4.425   2.834   7.879  1.1974 -0.2270 -1.6935
 4929SOL     OW26422   0.067   4.155   8.045 -0.1755  0.1008  0.1843
 4929SOL    HW126423   0.162   4.141   8.047 -0.4534 -1.7286  0.5142
 4929SOL    HW226424   0.050   4.143   8.139 -2.6315  2.0313 -0.0352
 4930SOL     OW26425   0.526   1.170   2.396  0.4454  0.4279  0.6725
 4930SOL    HW126426   0.568   1.173   2.310 -0.3870 -1.2053  0.2022
 4930SOL    HW226427   0.589   1.112   2.440  0.6430  0.3699  0.3103
 4931SOL     OW26428   3.330   4.669   7.977  0.6497 -0.2068 -0.0409
 4931SOL    HW126429   3.336   4.619   8.059 -0.8046  0.4514  0.4789
 4931SOL    HW226430   3.383   4.618   7.917 -0.8370 -0.2439 -1.3278
 4932SOL     OW26431   4.399   3.580  12.197  0.1778 -0.1556  0.0224
 4932SOL    HW126432   4.485   3.556  12.163 -0.4766 -1.1941 -0.8983
 4932SOL    HW226433   4.364   3.643  12.134  0.9972 -0.3806 -0.6504
 4933SOL     OW26434   3.676   1.164   7.783 -0.4654  0.4032  0.5875
 4933SOL    HW126435   3.588   1.160   7.820  0.1910  0.5364  2.1895
 4933SOL    HW226436   3.667   1.096   7.716 -0.0185  1.3172 -0.4112
 4934SOL     OW26437   4.436   1.826  15.799 -0.4660 -0.1645 -0.4923
 4934SOL    HW126438   4.427   1.735  15.827  1.6226 -0.5356 -1.0769
 4934SOL    HW226439   4.343   1.845  15.809  0.0397  2.2872 -0.4479
 4935SOL     OW26440   0.243   3.096   2.555  0.1729 -0.2573 -0.5363
 4935SOL    HW126441   0.233   3.039   2.479  1.6659 -2.2999  0.8114
 4935SOL    HW226442   0.240   3.182   2.513  0.7751  0.2006  0.3500
 4936SOL     OW26443   3.228   1.374  17.393 -0.4850  0.0429 -0.5970
 4936SOL    HW126444   3.255   1.464  17.413  1.6973 -0.4034 -1.4821
 4936SOL    HW226445   3.312   1.328  17.398 -0.1734  0.7369  0.5099
 4937SOL     OW26446   0.933   2.276   4.331 -0.0318  0.3929 -0.5210
 4937SOL    HW126447   1.012   2.268   4.277 -1.1055 -1.1950 -1.8267
 4937SOL    HW226448   0.956   2.351   4.386 -1.4718  0.2425  0.2761
 4938SOL     OW26449   0.113   0.863   6.990 -1.0702 -0.1900  0.1404
 4938SOL    HW126450   0.087   0.858   7.082  0.1229 -0.9381  0.4299
 4938SOL    HW226451   0.203   0.896   6.992 -0.7453 -1.0215 -1.1762
 4939SOL     OW26452   1.709   2.253   5.844 -0.2344  0.4023  0.8979
 4939SOL    HW126453   1.648   2.180   5.855  0.2199 -0.2082 -0.5361
 4939SOL    HW226454   1.788   2.204   5.822  0.2309  1.4079  0.3404
 4940SOL     OW26455   0.513   0.782   2.213 -0.3667 -0.1234 -0.4243
 4940SOL    HW126456   0.600   0.808   2.244 -0.8910  0.9355  0.1997
 4940SOL    HW226457   0.503   0.827   2.129 -1.1253 -1.8804 -1.2732
 4941SOL     OW26458   1.820   2.687   1.728 -0.2028 -0.0772 -0.5108
 4941SOL    HW126459   1.751   2.747   1.756  0.5783  0.8591 -0.5769
 4941SOL    HW226460   1.819   2.621   1.798  1.4542 -0.6140 -0.9873
 4942SOL     OW26461   0.676   2.021   3.099  0.1421  0.7374 -0.2604
 4942SOL    HW126462   0.771   2.009   3.100  0.0145 -0.3047 -0.3630
 4942SOL    HW226463   0.651   2.006   3.190 -0.5983 -0.4208 -0.6591
 4943SOL     OW26464   4.154   3.539  10.404  0.2696 -0.0125  0.0953
 4943SOL    HW126465   4.237   3.584  10.399  0.5626 -0.7451 -1.9775
 4943SOL    HW226466   4.172   3.453  10.365  0.7110 -0.3388  1.0163
 4944SOL     OW26467   0.647   1.931   5.267  0.6484  0.1139 -0.0570
 4944SOL    HW126468   0.733   1.904   5.300  0.8397 -0.6050 -1.1552
 4944SOL    HW226469   0.614   1.997   5.328  0.3708  0.9693 -1.1272
 4945SOL     OW26470   2.909   1.185   5.837 -0.2781 -0.1604  0.5565
 4945SOL    HW126471   2.945   1.099   5.815  1.4611  0.3476  1.4099
 4945SOL    HW226472   2.820   1.157   5.858 -1.2790  1.7813 -1.1343
 4946SOL     OW26473   0.996   2.217  16.868  0.1111  0.0063 -0.2126
 4946SOL    HW126474   0.904   2.202  16.889 -0.2426  0.7106 -1.2691
 4946SOL    HW226475   0.987   2.225  16.773  3.5695  0.3691 -0.5340
 4947SOL     OW26476   3.734   2.577   5.827  1.2058  0.1801 -0.6423
 4947SOL    HW126477   3.756   2.669   5.812  4.5769 -0.3329  1.1215
 4947SOL    HW226478   3.683   2.559   5.748  0.5675 -2.1916  0.3062
 4948SOL     OW26479   2.318   1.099  13.003  0.2826 -0.3154 -0.5053
 4948SOL    HW126480   2.282   1.148  12.928 -0.4008 -1.1327 -0.7190
 4948SOL    HW226481   2.388   1.151  13.042  1.5721 -1.2172 -1.6517
 4949SOL     OW26482   4.467   0.328  17.640 -0.2645  0.4369  0.1516
 4949SOL    HW126483   4.448   0.409  17.593  1.7450  1.4909  1.1760
 4949SOL    HW226484   4.551   0.356  17.675  1.0681 -0.8252 -2.0143
 4950SOL     OW26485   4.131   2.954  11.042 -0.2909 -0.4418  0.1941
 4950SOL    HW126486   4.118   3.049  11.035 -1.3176 -0.5016  1.3696
 4950SOL    HW226487   4.144   2.938  11.135  0.2005  0.4326  0.2826
 4951SOL     OW26488   1.890   1.491   7.488  0.2515 -0.4333 -0.6497
 4951SOL    HW126489   1.935   1.446   7.417  2.3192 -0.9601  1.0138
 4951SOL    HW226490   1.960   1.548   7.520 -0.1819  0.5598 -1.4981
 4952SOL     OW26491   1.140   4.620  15.768  0.1486  0.0620 -0.1993
 4952SOL    HW126492   1.092   4.685  15.819  1.1794 -1.1332  2.2808
 4952SOL    HW226493   1.115   4.545  15.823  0.6489  0.6673  0.8417
 4953SOL     OW26494   2.453   2.824   7.226  0.5793 -0.4208 -0.0264
 4953SOL    HW126495   2.418   2.913   7.228  0.1483 -0.5986  0.2816
 4953SOL    HW226496   2.410   2.786   7.149 -2.6043  0.3474  1.3702
 4954SOL     OW26497   0.020   4.135  17.676  0.0996  0.0821  0.2486
 4954SOL    HW126498   0.036   4.058  17.622  1.6022 -0.5133  1.5454
 4954SOL    HW226499   0.085   4.104  17.740  0.6804 -0.3477 -0.5479
 4955SOL     OW26500   2.503   0.726   0.424  0.0301 -0.5975 -0.5642
 4955SOL    HW126501   2.421   0.691   0.392 -1.5736  0.4513  2.3797
 4955SOL    HW226502   2.537   0.643   0.460  1.5137  0.3136  0.1550
 4956SOL     OW26503   0.260   2.050   0.087 -0.1803 -0.1937  0.3197
 4956SOL    HW126504   0.320   2.026   0.017  1.6187 -0.6940  2.0560
 4956SOL    HW226505   0.215   2.125   0.048 -0.4593 -0.1725  0.6808
 4957SOL     OW26506   4.071   1.923   7.729 -0.1486  0.7051  0.2091
 4957SOL    HW126507   4.089   1.888   7.816 -2.2098  2.1098  1.1861
 4957SOL    HW226508   4.138   1.991   7.738  2.7912 -2.5223  2.7478
 4958SOL     OW26509   0.416   1.014  11.595 -0.5114  0.6319 -0.2206
 4958SOL    HW126510   0.468   0.943  11.559 -0.2910 -0.4833  2.2981
 4958SOL    HW226511   0.475   1.025  11.669 -1.4832  0.5405  0.5781
 4959SOL     OW26512   0.203   1.769   3.829 -0.0896  0.1360 -0.1307
 4959SOL    HW126513   0.226   1.812   3.912  1.3969 -1.7783  0.4460
 4959SOL    HW226514   0.282   1.717   3.813 -0.1705  0.7566 -2.5546
 4960SOL     OW26515   2.928   0.928   8.282 -0.2075  0.1821  0.2305
 4960SOL    HW126516   2.938   0.848   8.333 -0.3262  0.4870  0.7344
 4960SOL    HW226517   2.832   0.929   8.281 -0.2117  0.9948  1.2592
 4961SOL     OW26518   3.846   3.955   0.363 -0.3168  0.0759  0.2048
 4961SOL    HW126519   3.866   3.907   0.282 -0.2765 -1.3738  1.0657
 4961SOL    HW226520   3.758   3.990   0.355 -1.0617 -0.9158  4.4908
 4962SOL     OW26521   0.744   2.768  14.652  0.8408 -0.2635  0.2759
 4962SOL    HW126522   0.675   2.798  14.593  3.1263  1.7754 -1.3705
 4962SOL    HW226523   0.753   2.849  14.701  0.5134 -1.0019  1.5516
 4963SOL     OW26524   1.335   3.612   4.713 -0.0855  0.3242  0.5364
 4963SOL    HW126525   1.427   3.609   4.688  0.0930  0.5560  1.1799
 4963SOL    HW226526   1.321   3.523   4.745  2.5893 -0.1649  0.3043
 4964SOL     OW26527   3.262   3.586   3.012 -0.3355  0.1511  0.2240
 4964SOL    HW126528   3.266   3.560   3.104  0.8810  0.7426  0.3398
 4964SOL    HW226529   3.243   3.679   3.005  0.1545  0.1359 -1.2486
 4965SOL     OW26530   2.178   1.354   4.562 -0.1892  0.0844 -0.7084
 4965SOL    HW126531   2.164   1.359   4.467  2.5757 -1.0304 -1.1655
 4965SOL    HW226532   2.190   1.447   4.580 -2.4803  0.3198 -0.3873
 4966SOL     OW26533   4.011   2.831   3.923  0.0305 -0.3429  0.2487
 4966SOL    HW126534   3.999   2.741   3.954  0.8907  0.4271  2.8089
 4966SOL    HW226535   3.945   2.867   3.982  1.7918  0.8856  1.4484
 4967SOL     OW26536   0.082   1.225   2.533 -0.2549 -0.3038 -0.1801
 4967SOL    HW126537   0.060   1.318   2.537 -1.7066 -0.6577  0.3699
 4967SOL    HW226538   0.140   1.224   2.458  0.7165 -3.8678  0.5852
 4968SOL     OW26539   2.516   1.409   0.618 -0.0549  0.0113  0.2847
 4968SOL    HW126540   2.548   1.387   0.705 -0.3693 -1.3006  0.0691
 4968SOL    HW226541   2.423   1.389   0.628 -0.2886  0.3011 -1.3274
 4969SOL     OW26542   1.877   3.113   4.320  0.0472  0.1839  0.0463
 4969SOL    HW126543   1.869   3.102   4.415 -0.2709 -0.3303 -0.0426
 4969SOL    HW226544   1.785   3.129   4.297 -0.1384 -0.8900  0.0500
 4970SOL     OW26545   1.771   4.507   6.851  0.4514 -0.5125  0.9138
 4970SOL    HW126546   1.710   4.581   6.844  1.1384 -0.1084 -0.8595
 4970SOL    HW226547   1.814   4.538   6.930 -2.4726 -0.7432  2.5965
 4971SOL     OW26548   3.944   0.778   8.161 -0.5977  0.9927  0.1325
 4971SOL    HW126549   3.934   0.868   8.191  1.2484  2.0967 -2.5707
 4971SOL    HW226550   3.877   0.733   8.212  0.0928  2.1904  2.1024
 4972SOL     OW26551   1.344   4.605  13.323 -0.5598  0.4155  0.0538
 4972SOL    HW126552   1.284   4.673  13.354 -0.3303  0.1169  1.1218
 4972SOL    HW226553   1.329   4.604  13.228  1.5894  0.1454 -0.2880
 4973SOL     OW26554   3.428   2.521   6.255  0.2082  0.1858 -0.3948
 4973SOL    HW126555   3.405   2.601   6.209 -2.1724  0.2559  0.9076
 4973SOL    HW226556   3.427   2.464   6.178  0.2324 -0.4780  0.0936
 4974SOL     OW26557   2.982   0.779   7.826 -1.0043 -0.2322 -0.1372
 4974SOL    HW126558   3.041   0.721   7.778  0.5931  1.6468 -0.4545
 4974SOL    HW226559   2.985   0.736   7.912 -0.6439  0.3034  0.1168
 4975SOL     OW26560   0.520   2.200   4.037 -0.1971  0.1266  0.6652
 4975SOL    HW126561   0.573   2.273   4.006  1.0966 -0.8489  0.5817
 4975SOL    HW226562   0.585   2.168   4.099 -0.0331 -0.3370  0.2561
 4976SOL     OW26563   4.617   4.626   4.462  0.4331  0.1356 -0.3195
 4976SOL    HW126564   4.630   4.532   4.456 -0.5927 -0.0624  0.5474
 4976SOL    HW226565   4.611   4.642   4.557 -1.1928  0.3141 -0.4541
 4977SOL     OW26566   2.248   2.839   3.254 -0.7799 -0.0832 -0.5547
 4977SOL    HW126567   2.295   2.919   3.229 -4.1377  1.9917 -0.1768
 4977SOL    HW226568   2.327   2.787   3.240 -0.0035  1.2648 -1.2872
 4978SOL     OW26569   1.668   1.132   1.562 -0.0291  0.0662 -0.4267
 4978SOL    HW126570   1.637   1.143   1.472 -1.9779  0.1855  0.2524
 4978SOL    HW226571   1.655   1.217   1.604  0.0581  0.2737 -0.8286
 4979SOL     OW26572   2.670   3.633   1.369  0.0216 -0.0682  0.1413
 4979SOL    HW126573   2.716   3.710   1.405  0.8793  0.0571 -1.2216
 4979SOL    HW226574   2.720   3.557   1.399 -0.8333 -0.1188  1.4557
 4980SOL     OW26575   2.738   2.049   8.734  0.5073 -0.1315  0.2107
 4980SOL    HW126576   2.761   1.957   8.738  1.2405  0.1184  1.8175
 4980SOL    HW226577   2.650   2.047   8.696  0.4678 -0.0093  0.2959
 4981SOL     OW26578   3.781   3.865   8.990  0.3455 -0.2505  0.2648
 4981SOL    HW126579   3.862   3.814   8.992 -0.0661 -0.8801  0.6735
 4981SOL    HW226580   3.815   3.952   8.968  1.5027 -1.3809 -2.5002
 4982SOL     OW26581   2.868   1.295   0.693  0.1748  0.2332  0.3994
 4982SOL    HW126582   2.804   1.340   0.748 -0.1687 -1.3991  1.3278
 4982SOL    HW226583   2.819   1.252   0.623  3.1398  1.2110 -2.2682
 4983SOL     OW26584   1.546   0.445  13.147  0.3863 -0.5258 -0.2493
 4983SOL    HW126585   1.582   0.381  13.086  0.4504  0.3077 -1.0922
 4983SOL    HW226586   1.602   0.522  13.136 -0.4366  0.1625  0.3074
 4984SOL     OW26587   3.850   3.054  14.153 -0.1691 -0.1632 -0.5390
 4984SOL    HW126588   3.906   3.124  14.186 -0.4219  0.9715 -2.5411
 4984SOL    HW226589   3.901   2.981  14.189  0.0807 -0.0184 -0.5962
 4985SOL     OW26590   1.018   2.596  14.573 -0.5687 -0.6992 -0.0760
 4985SOL    HW126591   1.069   2.530  14.526  0.9361  0.3559  0.0932
 4985SOL    HW226592   1.079   2.669  14.581 -0.2646 -0.8195 -1.2871
 4986SOL     OW26593   3.298   4.327   4.564 -0.2837 -0.3129 -0.2450
 4986SOL    HW126594   3.331   4.248   4.521  2.4203  1.3733 -1.2279
 4986SOL    HW226595   3.300   4.289   4.653 -1.8385  0.9708  0.3240
 4987SOL     OW26596   0.261   0.781   7.951  0.1486 -0.5009 -0.5675
 4987SOL    HW126597   0.258   0.698   7.902  1.0676  0.3233 -2.0261
 4987SOL    HW226598   0.259   0.753   8.042 -2.1045  0.1406 -0.4307
 4988SOL     OW26599   2.098   1.510   3.276 -0.2047 -0.1349 -0.0346
 4988SOL    HW126600   2.015   1.480   3.239  0.0823 -0.9438 -0.0105
 4988SOL    HW226601   2.155   1.434   3.263  1.5641  1.1692  0.1403
 4989SOL     OW26602   3.504   1.840  13.193 -0.0034 -0.2407  0.1494
 4989SOL    HW126603   3.593   1.834  13.157 -1.3253 -1.5512 -2.8779
 4989SOL    HW226604   3.488   1.747  13.179  0.0637 -0.1138 -0.7794
 4990SOL     OW26605   3.442   3.208  10.002  0.2430 -0.1064 -0.1639
 4990SOL    HW126606   3.457   3.217  10.096  1.9699  1.6439 -0.6059
 4990SOL    HW226607   3.525   3.177   9.966  0.2540  0.7358 -0.8576
 4991SOL     OW26608   2.618   0.850  11.052 -0.0491  0.5612  0.1849
 4991SOL    HW126609   2.707   0.832  11.021 -0.5608 -0.8827 -0.4171
 4991SOL    HW226610   2.578   0.766  11.073 -1.9751  1.1893 -0.9747
 4992SOL     OW26611   3.937   0.135   4.025 -0.6013 -0.5336 -0.7965
 4992SOL    HW126612   3.984   0.202   4.073 -0.0492 -3.5322  2.8693
 4992SOL    HW226613   3.894   0.092   4.099  0.8528  1.6705  1.3086
 4993SOL     OW26614   3.873   1.307  12.784 -0.4415 -0.2553 -0.7414
 4993SOL    HW126615   3.890   1.292  12.691 -0.6909  0.2038 -0.8586
 4993SOL    HW226616   3.893   1.221  12.823  0.1285  0.6793  1.0446
 4994SOL     OW26617   1.704   4.026  11.648  0.7004  0.3718  0.4419
 4994SOL    HW126618   1.714   3.933  11.669 -0.4807 -0.3377 -2.1481
 4994SOL    HW226619   1.740   4.026  11.560  0.4134  2.2796  0.3181
 4995SOL     OW26620   3.141   2.899   0.821  0.1992 -0.3759  0.0422
 4995SOL    HW126621   3.162   2.947   0.901  2.0283 -3.6355  1.5277
 4995SOL    HW226622   3.194   2.943   0.754  0.9307 -0.5368  0.5097
 4996SOL     OW26623   3.995   0.573   9.919  1.0077  0.0125  0.2366
 4996SOL    HW126624   4.065   0.634   9.896  2.0737 -0.8519  1.2063
 4996SOL    HW226625   3.939   0.593   9.844  1.8224 -1.3208 -0.7185
 4997SOL     OW26626   0.759   0.076   1.589  0.2320  0.2605  0.0857
 4997SOL    HW126627   0.770   4.729   1.628 -1.8866  0.4486  1.0871
 4997SOL    HW226628   0.699   0.112   1.654  0.8153  1.8312 -0.2535
 4998SOL     OW26629   3.745   3.668   5.432 -0.1893 -0.4435 -0.0114
 4998SOL    HW126630   3.774   3.739   5.489  1.5242 -2.1252  1.1870
 4998SOL    HW226631   3.826   3.621   5.411  1.1805  1.7903  0.3715
 4999SOL     OW26632   1.857   2.096  16.573 -0.0223 -0.1332  0.3844
 4999SOL    HW126633   1.796   2.156  16.531  2.4675  1.6848 -0.6427
 4999SOL    HW226634   1.889   2.149  16.647  1.4067  0.8738 -0.9408
 5000SOL     OW26635   1.480   1.363   3.806 -0.0874  0.4044 -0.0848
 5000SOL    HW126636   1.495   1.416   3.728  1.6752  0.1192  0.0501
 5000SOL    HW226637   1.416   1.417   3.853 -0.2827 -0.7182  0.9455
 5001SOL     OW26638   4.457   3.702   6.084 -0.7257 -0.2261  0.3170
 5001SOL    HW126639   4.469   3.789   6.123 -1.6342 -0.3994  0.9826
 5001SOL    HW226640   4.464   3.718   5.990  2.9713  1.3547  0.8656
 5002SOL     OW26641   3.981   1.405   3.723 -0.3742  0.6252 -0.4359
 5002SOL    HW126642   3.978   1.472   3.791 -2.8504 -0.9991  1.0325
 5002SOL    HW226643   3.894   1.367   3.733  0.4192 -0.4472  2.4513
 5003SOL     OW26644   3.385   1.931  12.693 -0.2485 -0.0106  0.8566
 5003SOL    HW126645   3.348   1.876  12.623 -0.7480  1.2588  0.1243
 5003SOL    HW226646   3.380   1.872  12.768 -1.9658  0.3261  1.0029
 5004SOL     OW26647   2.633   0.592   2.897 -0.2298  0.1177 -0.6711
 5004SOL    HW126648   2.676   0.603   2.813 -1.4655 -0.7953 -1.4233
 5004SOL    HW226649   2.672   0.510   2.927 -1.4239 -0.2339 -0.0773
 5005SOL     OW26650   3.825   3.759   2.533 -0.6348  0.4576 -0.2974
 5005SOL    HW126651   3.816   3.750   2.438 -3.0593 -1.7526  0.1218
 5005SOL    HW226652   3.910   3.715   2.539 -0.6041  0.5719  0.1400
 5006SOL     OW26653   1.860   2.705   3.644 -0.2466 -0.2834 -0.0845
 5006SOL    HW126654   1.935   2.726   3.700 -0.8426  1.3530  0.1143
 5006SOL    HW226655   1.888   2.630   3.592  1.1388  1.0362 -1.2568
 5007SOL     OW26656   1.909   4.448  10.511 -0.0290  0.3948 -0.1017
 5007SOL    HW126657   1.824   4.443  10.468  0.2549  1.0962 -0.7387
 5007SOL    HW226658   1.916   4.543  10.504  4.6287 -0.2819 -4.2433
 5008SOL     OW26659   2.238   1.841  17.110  0.3759  0.4423  0.1344
 5008SOL    HW126660   2.159   1.794  17.085  0.9353 -0.2551 -0.3272
 5008SOL    HW226661   2.229   1.918  17.054  0.1606  0.5434  0.3084
 5009SOL     OW26662   1.149   0.766   4.186 -0.0170  0.0359 -0.6143
 5009SOL    HW126663   1.125   0.707   4.114  2.3132 -0.6026 -0.8885
 5009SOL    HW226664   1.245   0.761   4.184 -0.1498 -1.6466 -3.9278
 5010SOL     OW26665   2.146   2.253   8.799  0.1227 -0.4739 -0.4470
 5010SOL    HW126666   2.222   2.285   8.847  1.3709 -1.6472 -1.6777
 5010SOL    HW226667   2.138   2.167   8.841  3.2035 -0.5134  0.0674
 5011SOL     OW26668   1.974   0.453   9.449  0.2217 -0.1177  0.1482
 5011SOL    HW126669   1.894   0.420   9.491  0.7987 -1.1431  0.4401
 5011SOL    HW226670   2.024   0.472   9.528 -0.6120 -1.0423  0.9172
 5012SOL     OW26671   3.565   4.347  12.037  0.3862  0.0404  0.3888
 5012SOL    HW126672   3.629   4.289  11.996 -1.8299 -1.8749 -0.3572
 5012SOL    HW226673   3.604   4.426  11.999  0.0617  0.3423  0.6811
 5013SOL     OW26674   4.716   1.155   1.881  0.1540  0.1955  0.3215
 5013SOL    HW126675   4.645   1.099   1.851  0.7086  1.1404 -2.7647
 5013SOL    HW226676   4.668   1.225   1.925 -1.7619 -1.8653  1.5490
 5014SOL     OW26677   3.828   0.236  15.497  0.4915  0.0063  0.4734
 5014SOL    HW126678   3.893   0.207  15.433  0.0387 -1.1699  0.5418
 5014SOL    HW226679   3.876   0.206  15.574 -2.3634  0.9561  2.6039
 5015SOL     OW26680   0.205   3.967   0.025  0.2854  0.1265 -0.3840
 5015SOL    HW126681   0.146   3.894   0.008  0.1172  0.3960 -0.9451
 5015SOL    HW226682   0.293   3.933   0.010  0.2944 -0.3840  0.8461
 5016SOL     OW26683   1.120   2.034   4.055  0.2733 -0.2497 -0.4675
 5016SOL    HW126684   1.136   2.128   4.060  0.4870 -0.3367  0.4714
 5016SOL    HW226685   1.025   2.031   4.045  0.2334  2.9099 -0.8518
 5017SOL     OW26686   1.254   3.902   0.515 -0.2069 -0.0692 -0.6088
 5017SOL    HW126687   1.339   3.944   0.526  0.2992 -0.9521 -1.1591
 5017SOL    HW226688   1.215   3.945   0.439  0.6609 -2.5541 -2.4666
 5018SOL     OW26689   4.618   3.229   5.471  0.2128  0.6470  0.2162
 5018SOL    HW126690   4.644   3.302   5.415 -0.4682 -1.1010 -2.3621
 5018SOL    HW226691   4.693   3.169   5.460 -0.1272  0.0288  1.2224
 5019SOL     OW26692   4.386   0.137   4.553 -0.2098  0.4389  0.3324
 5019SOL    HW126693   4.375   0.197   4.480  0.4470  0.8018  0.5293
 5019SOL    HW226694   4.438   0.190   4.612  3.2632 -1.2717 -1.1473
 5020SOL     OW26695   3.201   3.376   2.704 -0.5489 -0.0791 -0.1054
 5020SOL    HW126696   3.270   3.433   2.671 -0.2440  1.5788  3.4574
 5020SOL    HW226697   3.129   3.435   2.726 -0.6913 -0.4156  0.3428
 5021SOL     OW26698   0.352   4.217   0.062  0.1492 -0.7666 -0.1858
 5021SOL    HW126699   0.329   4.127   0.038 -0.8702 -0.1561 -1.4829
 5021SOL    HW226700   0.337   4.211   0.156 -0.9282  1.4355 -0.2109
 5022SOL     OW26701   3.392   4.715   7.269  0.3868 -0.5150  0.4846
 5022SOL    HW126702   3.312   4.663   7.263  0.7108 -0.7556 -1.7387
 5022SOL    HW226703   3.433   4.677   7.347 -0.7261  0.7446  1.6874
 5023SOL     OW26704   2.929   2.137   8.532  0.1914 -0.0139  0.0233
 5023SOL    HW126705   2.905   2.090   8.612  0.0948 -3.0938 -1.8503
 5023SOL    HW226706   2.865   2.111   8.466  0.8182 -0.6239 -0.3406
 5024SOL     OW26707   0.813   3.623   8.170 -0.4518 -0.2969 -0.2470
 5024SOL    HW126708   0.872   3.691   8.204  0.0363 -1.0113  0.3343
 5024SOL    HW226709   0.779   3.583   8.251  1.1085 -0.2608  0.4185
 5025SOL     OW26710   0.701   1.244   6.428 -0.3142 -0.0692  0.0255
 5025SOL    HW126711   0.620   1.267   6.383 -1.4296  0.1179  2.1205
 5025SOL    HW226712   0.744   1.328   6.445 -1.5565  0.6511 -0.3828
 5026SOL     OW26713   4.093   1.991   5.550  0.3258  0.0862 -0.1864
 5026SOL    HW126714   4.079   1.938   5.628  1.2010  2.0011  1.2885
 5026SOL    HW226715   4.002   2.000   5.521  0.8223  1.7156 -1.2801
 5027SOL     OW26716   0.512   0.764  11.511 -0.0418 -0.2936  0.1595
 5027SOL    HW126717   0.459   0.698  11.556 -3.0404  2.6854  1.0928
 5027SOL    HW226718   0.591   0.718  11.485  0.5208  0.4354  0.5735
 5028SOL     OW26719   1.014   1.472   0.541  0.1133  0.7832 -0.1355
 5028SOL    HW126720   0.997   1.513   0.625 -0.3668  1.1506 -0.4140
 5028SOL    HW226721   1.110   1.469   0.546  0.0426 -0.7158  0.2086
 5029SOL     OW26722   4.177   0.342   2.331 -0.4436 -0.4211 -0.1188
 5029SOL    HW126723   4.181   0.247   2.321  2.5003 -0.1334 -1.7027
 5029SOL    HW226724   4.095   0.343   2.379  1.2810 -1.1185  2.8514
 5030SOL     OW26725   3.117   3.464   4.460 -0.2094  0.0579 -0.0396
 5030SOL    HW126726   3.027   3.455   4.428  0.6407  0.9904 -2.6204
 5030SOL    HW226727   3.148   3.536   4.406 -0.5572 -0.7191 -1.2687
 5031SOL     OW26728   2.941   1.758   8.933  0.2596 -0.1453  0.3343
 5031SOL    HW126729   2.869   1.771   8.872  0.4668  1.1128  0.3585
 5031SOL    HW226730   3.019   1.777   8.880  0.1580 -2.9573 -0.8517
 5032SOL     OW26731   1.788   2.221  14.735 -0.1853  0.0338  0.0689
 5032SOL    HW126732   1.800   2.169  14.814 -0.5806 -1.6142 -0.9428
 5032SOL    HW226733   1.742   2.159  14.678 -3.1265 -0.1917  2.7048
 5033SOL     OW26734   2.475   1.741   2.834  0.0604 -0.5751  0.2442
 5033SOL    HW126735   2.568   1.752   2.854  0.1731 -1.7462  0.3355
 5033SOL    HW226736   2.475   1.650   2.807  1.1979 -1.4419  3.1999
 5034SOL     OW26737   3.123   0.329   3.332  0.2100 -0.0291 -0.4768
 5034SOL    HW126738   3.124   0.425   3.324  0.5990  0.0007 -0.0819
 5034SOL    HW226739   3.095   0.301   3.245  1.0342  2.2195 -1.4737
 5035SOL     OW26740   3.905   4.173   2.155 -0.6343  0.0681  0.0160
 5035SOL    HW126741   3.815   4.140   2.151 -1.2364  1.7911 -0.7461
 5035SOL    HW226742   3.881   4.259   2.120  1.8596  0.4053 -0.8501
 5036SOL     OW26743   1.975   0.001   8.142  0.1216  0.0550 -0.1108
 5036SOL    HW126744   1.926   4.703   8.216 -0.1463  1.3346  0.3610
 5036SOL    HW226745   1.900   0.052   8.112 -0.4604 -0.2657  0.7798
 5037SOL     OW26746   0.614   0.113   6.726 -0.3424 -0.7445 -0.3017
 5037SOL    HW126747   0.608   0.209   6.722  1.5422 -0.5654  0.7918
 5037SOL    HW226748   0.528   0.086   6.756 -2.6832  1.8598 -4.6833
 5038SOL     OW26749   0.243   1.806   7.457 -0.6274  0.1773 -1.1495
 5038SOL    HW126750   0.180   1.763   7.515  0.2779 -0.0817 -0.3604
 5038SOL    HW226751   0.311   1.843   7.513 -2.8677 -0.3284  1.8919
 5039SOL     OW26752   3.197   0.643   7.725  0.3221 -0.2159 -0.2639
 5039SOL    HW126753   3.268   0.616   7.667  1.1073 -0.3045  0.7418
 5039SOL    HW226754   3.221   0.735   7.738  1.7218 -0.6726  0.3387
 5040SOL     OW26755   2.347   1.588  17.682  0.8321 -0.3751 -0.2935
 5040SOL    HW126756   2.395   1.545  17.611  1.2349  3.2075 -2.1983
 5040SOL    HW226757   2.279   1.526  17.709 -1.5781  1.1144 -2.9138
 5041SOL     OW26758   4.323   1.081  11.870  0.2923 -0.1629  0.6377
 5041SOL    HW126759   4.248   1.086  11.929 -2.4423  0.3751 -2.8679
 5041SOL    HW226760   4.274   1.072  11.787  0.3807  1.8581  0.3600
 5042SOL     OW26761   2.848   2.775   8.933 -0.4218  0.2323  0.1281
 5042SOL    HW126762   2.830   2.838   9.003  1.0145 -0.1902  0.8821
 5042SOL    HW226763   2.762   2.753   8.899 -0.7090  0.5294  0.6610
 5043SOL     OW26764   3.940   4.227   5.808  0.6956 -0.1458  0.0854
 5043SOL    HW126765   3.954   4.268   5.894  1.0067  0.7904 -0.4110
 5043SOL    HW226766   4.025   4.238   5.766  0.5729 -0.2756 -0.1961
 5044SOL     OW26767   1.213   3.598   3.882  0.0872  0.1252 -0.1443
 5044SOL    HW126768   1.299   3.636   3.869  1.5425 -3.1498 -0.0549
 5044SOL    HW226769   1.245   3.508   3.888  2.7484  1.0329 -1.1262
 5045SOL     OW26770   2.526   0.603   4.549 -0.0350  0.1839 -0.0977
 5045SOL    HW126771   2.475   0.614   4.469 -0.6072  0.5871  0.3194
 5045SOL    HW226772   2.457   0.642   4.603 -0.4686 -2.5336  1.2674
 5046SOL     OW26773   1.388   3.783   4.103 -0.6894  0.4969  0.2042
 5046SOL    HW126774   1.422   3.774   4.014  0.3330  1.0414  0.5439
 5046SOL    HW226775   1.416   3.700   4.143  2.0066  0.8114 -1.0025
 5047SOL     OW26776   0.037   0.536   4.716  0.6429 -0.0646  0.4027
 5047SOL    HW126777   0.070   0.515   4.628  1.5800  1.6036  0.3543
 5047SOL    HW226778   0.071   0.626   4.723  2.7710 -0.9740  1.8449
 5048SOL     OW26779   2.741   1.631   3.876  0.1206 -0.1015 -0.2641
 5048SOL    HW126780   2.827   1.671   3.860  1.1852 -1.6212  1.6017
 5048SOL    HW226781   2.764   1.549   3.920  0.4472  0.2031  0.1313
 5049SOL     OW26782   1.228   3.641  13.994 -0.4005 -0.5761  0.2356
 5049SOL    HW126783   1.158   3.617  14.054 -0.9281 -0.3887 -0.3056
 5049SOL    HW226784   1.201   3.724  13.956  0.8491  0.3268  1.3279
 5050SOL     OW26785   1.862   3.913   8.078 -0.1372 -0.1336  0.1162
 5050SOL    HW126786   1.864   4.000   8.117  0.2149  0.8400 -2.0837
 5050SOL    HW226787   1.952   3.881   8.087  0.5336  0.9192 -2.8844
 5051SOL     OW26788   0.322   2.810   6.588  0.0221 -0.2673 -0.4888
 5051SOL    HW126789   0.328   2.727   6.637  3.0119  0.9485  1.1611
 5051SOL    HW226790   0.286   2.769   6.509 -1.6817  1.8549 -0.7925
 5052SOL     OW26791   4.031   3.132   3.968  0.1085 -0.3990 -0.5463
 5052SOL    HW126792   3.938   3.124   3.946 -0.2319 -1.3852  1.1754
 5052SOL    HW226793   4.059   3.041   3.958 -2.6232 -1.2393 -0.6380
 5053SOL     OW26794   1.997   0.660   9.835 -0.4010  0.0939 -0.3641
 5053SOL    HW126795   1.951   0.617   9.907  1.3308 -0.5088  0.3848
 5053SOL    HW226796   2.016   0.581   9.785 -1.2387 -0.6888  0.5521
 5054SOL     OW26797   2.066   1.053   6.864 -0.6452  0.5974 -0.5810
 5054SOL    HW126798   2.107   1.132   6.829 -1.6374  1.0806 -0.6302
 5054SOL    HW226799   2.144   0.998   6.871 -1.5673 -0.4992  1.2586
 5055SOL     OW26800   4.467   3.692   3.114 -0.0647  0.2680  0.4819
 5055SOL    HW126801   4.398   3.734   3.165 -0.8847  0.5195 -0.8139
 5055SOL    HW226802   4.529   3.765   3.113  1.9910 -1.4712  0.2829
 5056SOL     OW26803   3.306   1.340   3.418 -0.1158  0.0501  0.2793
 5056SOL    HW126804   3.391   1.382   3.401  0.4565 -0.9467  0.6458
 5056SOL    HW226805   3.270   1.397   3.486  2.1135  0.4528  1.1245
 5057SOL     OW26806   3.107   0.001   3.978  0.2620 -0.0837  0.2151
 5057SOL    HW126807   3.177   0.063   3.997  1.2301 -1.5677  1.5066
 5057SOL    HW226808   3.030   0.057   3.993 -0.3565 -0.9406  0.2345
 5058SOL     OW26809   3.065   3.969   4.840  0.0910  0.6427 -0.0250
 5058SOL    HW126810   2.977   3.988   4.872  0.3290  0.3802  0.7869
 5058SOL    HW226811   3.086   3.887   4.886  1.3821  0.2101 -1.4031
 5059SOL     OW26812   4.055   4.246   2.923  0.2946  0.3738 -0.0734
 5059SOL    HW126813   3.990   4.199   2.975  1.2987  0.4974  1.2905
 5059SOL    HW226814   4.024   4.238   2.833  1.3994 -0.9685 -0.3411
 5060SOL     OW26815   1.721   1.511   5.791 -0.9565 -0.5938 -0.1374
 5060SOL    HW126816   1.678   1.580   5.842  2.1149  2.3096 -1.5448
 5060SOL    HW226817   1.652   1.452   5.759 -1.0917  0.8705 -2.4890
 5061SOL     OW26818   4.218   2.938   3.806  0.1546 -0.5078  0.4180
 5061SOL    HW126819   4.139   2.887   3.821  0.8686 -1.6241  0.3261
 5061SOL    HW226820   4.282   2.880   3.847 -0.3895 -2.0625 -0.9650
 5062SOL     OW26821   0.161   3.829   4.248 -0.2568  0.5589 -0.2877
 5062SOL    HW126822   0.205   3.752   4.283  0.4219  0.8483 -0.4956
 5062SOL    HW226823   0.146   3.796   4.160  1.0665  1.9856 -1.0560
 5063SOL     OW26824   0.512   2.022   2.732 -0.1946 -0.5782  0.0823
 5063SOL    HW126825   0.490   2.002   2.823 -2.1426  0.5551 -0.1400
 5063SOL    HW226826   0.479   1.945   2.685  0.8642  0.3318 -2.1437
 5064SOL     OW26827   1.678   1.639   4.816  0.6872  0.2553  0.3272
 5064SOL    HW126828   1.596   1.591   4.829  0.3690  0.5264 -0.6581
 5064SOL    HW226829   1.707   1.600   4.734  0.6645 -3.6082  2.1492
 5065SOL     OW26830   4.450   0.319   3.226  0.6322  0.1445  0.1111
 5065SOL    HW126831   4.513   0.361   3.167 -0.3659  0.4202 -0.7729
 5065SOL    HW226832   4.399   0.258   3.172  0.2066  2.5965 -2.3003
 5066SOL     OW26833   4.422   3.748  11.189  0.5694  0.3996 -0.7580
 5066SOL    HW126834   4.428   3.729  11.282 -1.8474 -5.1291 -1.7199
 5066SOL    HW226835   4.506   3.708  11.165 -0.0001 -2.9476  2.8168
 5067SOL     OW26836   4.244   2.713   9.801  0.5499 -0.6303 -0.3502
 5067SOL    HW126837   4.164   2.693   9.752  0.9711  1.0181 -1.6977
 5067SOL    HW226838   4.247   2.656   9.878 -0.6796  0.0849  0.2340
 5068SOL     OW26839   0.308   2.053   0.373  0.3375  0.4659 -0.7354
 5068SOL    HW126840   0.390   2.004   0.380  0.7585  0.9690 -2.1434
 5068SOL    HW226841   0.294   2.061   0.279  0.0832  1.9244 -0.5796
 5069SOL     OW26842   4.136   3.324   4.244  0.4323 -0.7463  0.0469
 5069SOL    HW126843   4.181   3.362   4.319  1.4017  0.7851 -1.2936
 5069SOL    HW226844   4.146   3.232   4.270  0.1326 -1.0322 -0.8290
 5070SOL     OW26845   2.413   4.485   2.484 -0.2667  0.3831  0.2030
 5070SOL    HW126846   2.432   4.405   2.533 -1.1434  1.0444  1.6249
 5070SOL    HW226847   2.447   4.553   2.542 -0.6900 -2.0690  3.2930
 5071SOL     OW26848   3.867   0.207  10.726  0.1241 -0.2122 -0.0050
 5071SOL    HW126849   3.811   0.215  10.649  0.6500  1.9158 -0.1668
 5071SOL    HW226850   3.950   0.171  10.698  0.1254  1.3551 -2.0180
 5072SOL     OW26851   0.432   3.311  11.985  0.5100 -0.0125 -0.9267
 5072SOL    HW126852   0.354   3.285  11.936 -0.8883 -0.5881  1.6215
 5072SOL    HW226853   0.393   3.327  12.071  1.8613  2.7326 -0.8079
 5073SOL     OW26854   2.881   0.722   3.403 -0.1369  0.3231 -0.2277
 5073SOL    HW126855   2.974   0.743   3.396 -0.4773  1.6475 -0.8170
 5073SOL    HW226856   2.849   0.797   3.454  1.3441 -0.7867  2.3519
 5074SOL     OW26857   1.168   0.150  16.872  0.2069  0.3869 -0.4310
 5074SOL    HW126858   1.095   0.091  16.857 -0.5877  1.3289 -0.3016
 5074SOL    HW226859   1.208   0.097  16.940  4.0885  2.1185 -1.3706
 5075SOL     OW26860   0.645   1.126   0.505  0.2088 -0.5285  0.3908
 5075SOL    HW126861   0.669   1.127   0.413 -2.2370 -0.4427 -0.2493
 5075SOL    HW226862   0.680   1.211   0.529  2.2398 -0.8496 -1.4352
 5076SOL     OW26863   3.847   0.115   6.641  0.2864 -0.1660  0.1440
 5076SOL    HW126864   3.903   0.184   6.605  0.1275 -0.0072  0.2018
 5076SOL    HW226865   3.769   0.137   6.591 -0.6479 -1.1230  1.1516
 5077SOL     OW26866   3.867   4.329   7.176 -0.4728 -0.2906  0.2623
 5077SOL    HW126867   3.940   4.351   7.118 -0.6176  2.3279  1.0530
 5077SOL    HW226868   3.915   4.263   7.225  0.5917  1.1840  1.2166
 5078SOL     OW26869   0.364   3.460   9.827  0.3444 -0.4781  0.1101
 5078SOL    HW126870   0.409   3.544   9.834 -0.0442 -0.3821  1.3899
 5078SOL    HW226871   0.436   3.401   9.802 -0.6858 -2.4178  1.7367
 5079SOL     OW26872   3.913   3.174  16.866  0.5532  0.0429 -0.2442
 5079SOL    HW126873   3.982   3.181  16.800  2.6762 -1.3166  1.8446
 5079SOL    HW226874   3.895   3.264  16.894  1.5970  0.1632  0.0304
 5080SOL     OW26875   1.732   1.275   6.543  0.4088 -0.9600  0.6852
 5080SOL    HW126876   1.799   1.333   6.581  0.1359 -0.1665 -0.0371
 5080SOL    HW226877   1.782   1.213   6.490  0.2958  0.7970 -1.4752
 5081SOL     OW26878   2.381   1.928   3.021 -0.1830  0.3849 -0.0149
 5081SOL    HW126879   2.336   1.860   3.070 -0.2888  2.0795  2.1961
 5081SOL    HW226880   2.438   1.880   2.961 -2.4722  0.0321 -1.9147
 5082SOL     OW26881   0.417   2.910   8.752  0.1954  0.0339 -0.1605
 5082SOL    HW126882   0.450   2.957   8.676  0.6387  0.0931  0.0726
 5082SOL    HW226883   0.410   2.818   8.727 -1.5593 -0.1955  1.1280
 5083SOL     OW26884   2.225   2.272   5.180 -0.8815 -0.1887 -0.2574
 5083SOL    HW126885   2.173   2.353   5.183 -0.3467  0.2225 -1.8704
 5083SOL    HW226886   2.283   2.297   5.108 -1.5629 -0.3438 -0.8645
 5084SOL     OW26887   0.765   0.751   7.099 -0.0334  0.1327 -0.0621
 5084SOL    HW126888   0.768   0.668   7.148  1.9520  0.3077  0.1192
 5084SOL    HW226889   0.826   0.726   7.030  0.5805  1.1203  0.1257
 5085SOL     OW26890   0.985   0.449   9.070  0.0084  0.0255 -0.0390
 5085SOL    HW126891   1.037   0.515   9.024 -0.5084 -0.5003 -1.3754
 5085SOL    HW226892   1.012   0.478   9.157 -0.2280  0.9013 -0.2617
 5086SOL     OW26893   0.397   2.699   4.685  0.2906 -0.0327 -0.2977
 5086SOL    HW126894   0.380   2.792   4.669 -5.6434 -0.6238  2.9009
 5086SOL    HW226895   0.315   2.660   4.713  0.8951 -1.3478 -0.3481
 5087SOL     OW26896   4.098   1.040   5.610 -0.1501 -0.5866  0.7793
 5087SOL    HW126897   4.012   1.068   5.577 -1.0951 -2.2698  1.8250
 5087SOL    HW226898   4.147   1.109   5.565 -0.1872 -0.3233  1.1414
 5088SOL     OW26899   3.600   1.248   3.965 -0.1339 -0.4561  0.1389
 5088SOL    HW126900   3.523   1.213   4.009  1.2492 -1.8268  1.4473
 5088SOL    HW226901   3.657   1.244   4.042 -2.3555  0.8589  1.8609
 5089SOL     OW26902   3.844   0.811   1.000  0.3727  0.3583 -0.2711
 5089SOL    HW126903   3.909   0.811   0.929 -1.4066 -0.3896 -1.9102
 5089SOL    HW226904   3.792   0.887   0.975 -1.1146 -0.7787 -0.6665
 5090SOL     OW26905   0.423   3.557  13.058 -0.4985 -0.2644  0.2215
 5090SOL    HW126906   0.442   3.638  13.011  0.7532  2.1192  4.8851
 5090SOL    HW226907   0.362   3.584  13.126 -1.5097 -0.4220 -0.6252
 5091SOL     OW26908   1.829   1.366   6.969  0.6037 -0.7158  0.0729
 5091SOL    HW126909   1.736   1.383   6.956  0.8596  1.7057  1.4530
 5091SOL    HW226910   1.869   1.394   6.887 -1.8565  0.4266 -0.7289
 5092SOL     OW26911   3.516   3.625   8.942  0.3797 -0.2582  0.4371
 5092SOL    HW126912   3.515   3.700   8.883 -0.8434 -0.0738  0.6906
 5092SOL    HW226913   3.603   3.592   8.922 -0.6214 -1.2052 -2.4195
 5093SOL     OW26914   3.971   4.436   1.640 -0.1366 -0.1497 -0.3432
 5093SOL    HW126915   3.932   4.509   1.689  1.3809 -1.1906  2.4121
 5093SOL    HW226916   3.900   4.414   1.581 -0.6644 -0.9209  0.5790
 5094SOL     OW26917   2.496   0.661   5.359  0.2901 -0.0629  0.2261
 5094SOL    HW126918   2.443   0.710   5.422 -0.0036 -0.1618  0.0580
 5094SOL    HW226919   2.434   0.661   5.286  3.3773  0.2882 -2.3866
 5095SOL     OW26920   4.656   3.076  11.180  0.3093  0.3497  0.9839
 5095SOL    HW126921   4.709   3.125  11.243  1.1817  2.0469 -1.0855
 5095SOL    HW226922   4.580   3.062  11.237 -0.6863  2.3755  0.1646
 5096SOL     OW26923   1.868   2.617   2.293  0.2578 -0.3652  0.8754
 5096SOL    HW126924   1.883   2.675   2.218 -1.9844  0.6923  1.2456
 5096SOL    HW226925   1.924   2.547   2.259 -0.3479 -0.3919 -0.0765
 5097SOL     OW26926   0.318   2.693   3.933  0.5386  0.1888  1.0402
 5097SOL    HW126927   0.232   2.697   3.893  0.5715 -3.8798  0.5604
 5097SOL    HW226928   0.326   2.600   3.954  0.9998  0.2358  1.0751
 5098SOL     OW26929   1.053   2.547   1.625 -0.1677 -0.1269  0.1234
 5098SOL    HW126930   1.101   2.541   1.542 -0.6945  1.9415 -0.3265
 5098SOL    HW226931   1.120   2.576   1.688  0.5147  0.0287 -0.6683
 5099SOL     OW26932   3.680   0.352  14.566 -0.1268  0.0281 -0.5076
 5099SOL    HW126933   3.630   0.314  14.494 -1.7649  0.3230  0.4823
 5099SOL    HW226934   3.643   0.440  14.560  1.2534  0.6059 -0.4992
 5100SOL     OW26935   2.549   0.831   1.737 -0.7624  0.0810  0.4103
 5100SOL    HW126936   2.482   0.784   1.686 -0.9121  1.0705 -0.2894
 5100SOL    HW226937   2.498   0.835   1.818 -0.4236  3.0060  0.4709
 5101SOL     OW26938   2.343   0.717   1.636  0.4026 -0.0898 -0.1212
 5101SOL    HW126939   2.281   0.790   1.632  0.9019  0.4133  1.1780
 5101SOL    HW226940   2.329   0.664   1.558  1.1589 -0.9978  0.3572
 5102SOL     OW26941   2.262   0.467   6.518 -0.3754  0.0097 -0.7143
 5102SOL    HW126942   2.247   0.441   6.609 -0.0175  0.7629 -0.4336
 5102SOL    HW226943   2.322   0.537   6.544 -0.7619 -0.0927  0.4475
 5103SOL     OW26944   1.411   2.494   5.939  0.0464  0.4229 -0.0731
 5103SOL    HW126945   1.378   2.404   5.948 -1.2388  0.8167 -0.9817
 5103SOL    HW226946   1.468   2.494   6.017 -1.3611 -1.0808  0.9641
 5104SOL     OW26947   4.667   2.674   6.245  0.1741  0.5995  0.4726
 5104SOL    HW126948   4.712   2.646   6.326  1.6974 -0.4246 -0.7282
 5104SOL    HW226949   4.580   2.682   6.284  0.9519 -2.3479  2.8756
 5105SOL     OW26950   1.563   1.137  17.668  0.3514 -0.4786 -0.3359
 5105SOL    HW126951   1.559   1.130  17.573  2.9316 -1.1238 -0.3996
 5105SOL    HW226952   1.519   1.058  17.699 -0.4927  0.8096  1.7330
 5106SOL     OW26953   3.283   1.262   6.951 -0.2273 -0.5048 -0.0292
 5106SOL    HW126954   3.293   1.296   6.862  1.5560 -0.2271  0.2832
 5106SOL    HW226955   3.200   1.301   6.979  1.8402 -0.6307  6.1849
 5107SOL     OW26956   2.700   2.284   0.832 -0.2882  0.0863 -0.3450
 5107SOL    HW126957   2.672   2.317   0.747 -1.3852  0.2391  0.0663
 5107SOL    HW226958   2.786   2.322   0.850  1.0352 -3.0639  0.0628
 5108SOL     OW26959   1.503   0.248   8.350  0.1089  0.5807 -0.7643
 5108SOL    HW126960   1.421   0.204   8.328  0.2049  0.1372 -0.2287
 5108SOL    HW226961   1.499   0.323   8.290 -0.3408  1.0720 -0.1262
 5109SOL     OW26962   0.853   2.348   2.930  0.1447 -0.3173  0.2194
 5109SOL    HW126963   0.889   2.384   2.849 -2.8830  1.0079 -0.5657
 5109SOL    HW226964   0.766   2.387   2.919 -0.2264 -1.0977  0.4278
 5110SOL     OW26965   3.407   0.416  16.832  0.1469 -0.2129 -0.4546
 5110SOL    HW126966   3.341   0.404  16.764 -1.3388 -0.5478  1.0253
 5110SOL    HW226967   3.366   0.487  16.880 -0.4782 -0.7917 -0.1247
 5111SOL     OW26968   1.223   4.465   6.710  0.2870  0.3288  0.8294
 5111SOL    HW126969   1.221   4.388   6.654  1.1175  0.7340  0.2384
 5111SOL    HW226970   1.160   4.522   6.665  1.3961  1.0552  0.2031
 5112SOL     OW26971   1.117   3.115   5.461 -0.0503  0.5363  0.2711
 5112SOL    HW126972   1.188   3.117   5.525  1.4211  2.5135 -1.3952
 5112SOL    HW226973   1.057   3.162   5.518 -1.0089 -0.1397 -0.1974
 5113SOL     OW26974   4.111   4.383  16.725 -0.2826 -0.1831 -0.0242
 5113SOL    HW126975   4.024   4.419  16.744  0.0006  0.1733  0.5955
 5113SOL    HW226976   4.105   4.301  16.774 -1.3484 -0.1039 -0.0089
 5114SOL     OW26977   4.003   4.291   2.444 -0.4416  0.1173  0.2738
 5114SOL    HW126978   3.947   4.300   2.367 -1.2023  0.1819  0.8447
 5114SOL    HW226979   4.089   4.311   2.407 -0.0520 -2.8338 -0.4376
 5115SOL     OW26980   4.522   3.260   3.270 -0.0340  0.5557  0.0033
 5115SOL    HW126981   4.482   3.296   3.349 -1.0000 -0.7441  0.0977
 5115SOL    HW226982   4.491   3.170   3.280  1.1336  0.1935  0.4330
 5116SOL     OW26983   2.583   3.608  10.757 -0.1745 -0.0942 -0.3538
 5116SOL    HW126984   2.520   3.583  10.824  1.6354  1.2661  1.8330
 5116SOL    HW226985   2.579   3.529  10.702  0.1451 -1.8206  2.1053
 5117SOL     OW26986   2.646   1.229   8.562 -0.4902  0.0546  0.3598
 5117SOL    HW126987   2.702   1.307   8.567 -0.4186  0.0228  0.0636
 5117SOL    HW226988   2.569   1.264   8.606  0.1713  1.6579  0.2548
 5118SOL     OW26989   1.556   3.343  17.501  0.0569 -0.7031  0.1496
 5118SOL    HW126990   1.627   3.279  17.494  1.9580  1.2370  1.6110
 5118SOL    HW226991   1.566   3.376  17.591  2.3062  1.7364 -0.9839
 5119SOL     OW26992   2.361   4.599   4.714 -0.5646  0.0599 -0.2231
 5119SOL    HW126993   2.366   4.659   4.641  1.4951 -1.9891 -1.7645
 5119SOL    HW226994   2.283   4.632   4.758  0.2346  0.5847  0.8162
 5120SOL     OW26995   2.818   4.706  14.069  0.2730  0.0188  0.2537
 5120SOL    HW126996   2.866   4.638  14.117 -0.1206 -1.0045 -0.8115
 5120SOL    HW226997   2.749   4.653  14.029  0.0328  1.0810 -0.7306
 5121SOL     OW26998   4.201   3.758   1.173 -0.4812 -0.2993  0.7681
 5121SOL    HW126999   4.283   3.793   1.139  0.0971 -1.7660  0.6338
 5121SOL    HW227000   4.250   3.719   1.246 -0.5925 -0.3865  0.7973
 5122SOL     OW27001   1.117   4.588   4.748  0.5274 -0.3757 -0.0825
 5122SOL    HW127002   1.205   4.582   4.785 -0.4134 -2.5257  1.8040
 5122SOL    HW227003   1.110   4.501   4.709 -2.1044 -0.8527  1.4948
 5123SOL     OW27004   0.745   3.402   1.242 -0.4091 -0.3074 -0.3553
 5123SOL    HW127005   0.713   3.335   1.182 -2.4556  0.1622  0.2311
 5123SOL    HW227006   0.655   3.420   1.268  0.0095  1.8122 -0.3737
 5124SOL     OW27007   3.585   1.019   7.311 -0.2958  0.5634  0.0741
 5124SOL    HW127008   3.621   1.082   7.248  1.3304 -2.0081 -1.5827
 5124SOL    HW227009   3.560   0.947   7.253 -0.2882 -0.6761  1.6313
 5125SOL     OW27010   2.616   3.555   8.296  0.3574 -0.0978 -0.3484
 5125SOL    HW127011   2.581   3.522   8.214 -0.4506  1.6055 -0.6923
 5125SOL    HW227012   2.540   3.611   8.313 -0.9263 -2.5169  1.9291
 5126SOL     OW27013   3.227   4.095  16.561 -0.9411 -0.3044  0.4963
 5126SOL    HW127014   3.231   4.191  16.565 -0.1893 -0.3164 -0.0762
 5126SOL    HW227015   3.132   4.088  16.549 -1.1043  0.6090  1.1748
 5127SOL     OW27016   4.133   3.188   2.984 -0.2697 -0.2384  0.0481
 5127SOL    HW127017   4.121   3.258   3.048 -3.3972 -2.9406  2.3705
 5127SOL    HW227018   4.147   3.119   3.048  0.2387  0.0139  0.2160
 5128SOL     OW27019   3.590   3.654   6.974  0.5705  0.3164 -0.1422
 5128SOL    HW127020   3.543   3.634   7.055  0.8969 -1.4955 -0.3939
 5128SOL    HW227021   3.519   3.635   6.913 -0.1996 -1.8263  1.4402
 5129SOL     OW27022   1.520   3.937   2.255 -0.3420 -0.3566 -0.0313
 5129SOL    HW127023   1.531   3.933   2.160 -0.3249 -1.1879  0.0007
 5129SOL    HW227024   1.608   3.970   2.275 -1.4103  3.1326 -1.2166
 5130SOL     OW27025   0.184   4.051   1.618  0.0474 -0.4908  0.2325
 5130SOL    HW127026   0.120   3.983   1.601  2.7342 -3.1156  0.5330
 5130SOL    HW227027   0.131   4.129   1.634  2.5257  0.8918  1.7264
 5131SOL     OW27028   3.671   1.717   0.780 -0.6368 -0.0234  0.5427
 5131SOL    HW127029   3.665   1.741   0.873 -0.0765 -0.1964  0.6227
 5131SOL    HW227030   3.594   1.661   0.769  0.3745 -1.6018  1.4271
 5132SOL     OW27031   3.459   1.523   2.782 -0.2902  0.4256  0.1423
 5132SOL    HW127032   3.466   1.545   2.875  1.7413  1.2158 -0.1927
 5132SOL    HW227033   3.364   1.513   2.773 -0.1954  0.5641 -1.0111
 5133SOL     OW27034   1.238   3.454  17.072  0.2518  0.0138 -0.2816
 5133SOL    HW127035   1.330   3.467  17.049  0.0901 -0.6538 -1.3145
 5133SOL    HW227036   1.223   3.518  17.141 -0.5101  1.5461 -1.8782
 5134SOL     OW27037   3.803   0.262  17.120  0.2375 -0.0008  0.8414
 5134SOL    HW127038   3.858   0.321  17.171 -1.4861  2.5756 -0.2410
 5134SOL    HW227039   3.812   0.178  17.164 -1.7778 -2.2704 -3.0361
 5135SOL     OW27040   0.825   0.351   5.484  0.3862 -0.2264 -0.0284
 5135SOL    HW127041   0.898   0.402   5.449  1.0756 -0.0862  1.5818
 5135SOL    HW227042   0.834   0.264   5.444 -1.5800  0.7744 -2.5638
 5136SOL     OW27043   2.494   3.063   2.736  0.6662  0.0975  0.0625
 5136SOL    HW127044   2.580   3.030   2.763  0.7030 -0.3673 -0.6204
 5136SOL    HW227045   2.511   3.087   2.644 -1.2422  1.4053  0.0644
 5137SOL     OW27046   2.974   2.183   7.141 -0.2134  0.2625 -0.1483
 5137SOL    HW127047   3.049   2.226   7.100  0.7148 -0.0482  1.1992
 5137SOL    HW227048   2.900   2.207   7.086 -1.2251 -0.0124  1.0914
 5138SOL     OW27049   3.374   2.557   7.591  0.0966  0.1726  0.6650
 5138SOL    HW127050   3.342   2.467   7.587  0.4273  0.1275 -0.9823
 5138SOL    HW227051   3.408   2.582   7.505 -1.0838 -0.7379 -0.0525
 5139SOL     OW27052   4.279   2.356   9.158 -0.1015  0.3130  0.3027
 5139SOL    HW127053   4.250   2.286   9.100  2.5856  1.5362 -2.5316
 5139SOL    HW227054   4.200   2.363   9.210 -0.5693 -1.3072 -0.2071
 5140SOL     OW27055   3.678   1.454   4.859 -0.3704 -0.2102  0.2533
 5140SOL    HW127056   3.609   1.502   4.904  0.5120 -0.4173  1.8285
 5140SOL    HW227057   3.662   1.367   4.895  1.7959 -1.4796 -1.8377
 5141SOL     OW27058   4.710   1.459   4.456  0.4538  0.0065  0.1744
 5141SOL    HW127059   4.712   1.513   4.377 -0.4877  1.9045  1.4416
 5141SOL    HW227060   4.715   1.530   4.519 -2.0080  1.6126 -1.4278
 5142SOL     OW27061   4.164   0.268   9.624  0.5098 -0.7887  0.2314
 5142SOL    HW127062   4.203   0.195   9.672 -1.9459 -3.8264 -2.3823
 5142SOL    HW227063   4.108   0.228   9.558 -2.3093  0.5460  1.7962
 5143SOL     OW27064   2.838   1.709  13.683 -0.1606 -0.2182  0.4382
 5143SOL    HW127065   2.818   1.798  13.712  0.0042 -0.3297  0.9000
 5143SOL    HW227066   2.763   1.666  13.724  0.6773 -2.4381 -0.3273
 5144SOL     OW27067   1.431   2.664   1.248 -0.1768 -0.1955  0.4297
 5144SOL    HW127068   1.381   2.706   1.177  1.1354  0.9281  0.1856
 5144SOL    HW227069   1.444   2.744   1.298 -0.2336 -0.6530  1.1783
 5145SOL     OW27070   3.123   3.024   2.843  0.4102 -0.0304  0.4040
 5145SOL    HW127071   3.177   3.081   2.897  0.9819 -0.0401 -0.1596
 5145SOL    HW227072   3.078   3.087   2.787  0.6881 -1.7601 -1.7583
 5146SOL     OW27073   3.757   2.979   8.181 -0.2131  0.1024  0.1682
 5146SOL    HW127074   3.715   3.058   8.215  0.8248  1.2127 -1.1548
 5146SOL    HW227075   3.694   2.909   8.200  0.0251  0.4068  2.0862
 5147SOL     OW27076   1.026   4.290   5.419  0.4596 -0.2257 -0.3343
 5147SOL    HW127077   1.067   4.302   5.334  0.9965  0.2067 -0.0096
 5147SOL    HW227078   1.023   4.373   5.467 -0.6634  0.1954 -1.1266
 5148SOL     OW27079   1.866   4.255   6.736 -0.5864 -0.0403 -0.2278
 5148SOL    HW127080   1.883   4.337   6.688  0.0790  0.1962  0.4075
 5148SOL    HW227081   1.885   4.293   6.822  1.2268 -0.5292 -0.4125
 5149SOL     OW27082   2.049   2.142   7.579  0.1783  0.9279 -0.0376
 5149SOL    HW127083   1.954   2.136   7.591 -0.1360 -0.0503 -2.8847
 5149SOL    HW227084   2.078   2.193   7.654 -0.6949  3.0577 -1.1518
 5150SOL     OW27085   0.627   1.894   6.224 -0.0984 -0.3818 -0.3825
 5150SOL    HW127086   0.552   1.933   6.268 -1.2488 -1.4057 -1.4487
 5150SOL    HW227087   0.603   1.803   6.236 -0.4236 -0.4248 -1.3671
 5151SOL     OW27088   0.407   2.631   1.737 -0.0247  0.1228 -0.0909
 5151SOL    HW127089   0.497   2.657   1.717  0.6024 -1.5850  0.5578
 5151SOL    HW227090   0.409   2.632   1.833  1.9261  0.0323 -0.1375
 5152SOL     OW27091   4.030   2.364   3.489  1.1232 -0.1122  0.6346
 5152SOL    HW127092   3.936   2.350   3.499  1.3454 -2.5382 -0.5376
 5152SOL    HW227093   4.060   2.313   3.564  1.6895 -1.2943 -0.3860
 5153SOL     OW27094   0.181   2.239   3.891 -0.1671 -0.0608 -0.4407
 5153SOL    HW127095   0.170   2.232   3.985 -2.1164 -1.7968 -0.7908
 5153SOL    HW227096   0.097   2.261   3.850  0.5866 -0.3759 -2.1914
 5154SOL     OW27097   3.239   0.327   3.861 -0.6583 -0.1051  0.1104
 5154SOL    HW127098   3.235   0.422   3.852  0.7314  0.2722  3.3992
 5154SOL    HW227099   3.197   0.301   3.779 -1.9796 -0.3874  0.8765
 5155SOL     OW27100   3.290   0.155   2.401 -0.4269  0.2751  0.0661
 5155SOL    HW127101   3.332   0.132   2.318 -3.3776  2.4545 -2.0543
 5155SOL    HW227102   3.216   0.213   2.386 -0.7748  0.0194  0.7640
 5156SOL     OW27103   4.118   3.480   9.404  0.2152  0.7534  0.1558
 5156SOL    HW127104   4.213   3.474   9.393 -0.0740 -1.8693 -0.8487
 5156SOL    HW227105   4.103   3.474   9.498 -0.4137  2.5313  0.1671
 5157SOL     OW27106   3.805   3.976   3.637  0.0116 -0.3964  0.0874
 5157SOL    HW127107   3.764   4.054   3.676  0.6555 -0.8626  1.7025
 5157SOL    HW227108   3.859   3.955   3.713  1.2588 -1.0908 -0.9951
 5158SOL     OW27109   2.537   2.167   7.190 -0.2119 -0.0286  0.2197
 5158SOL    HW127110   2.461   2.172   7.131 -1.4064 -1.7833  1.5807
 5158SOL    HW227111   2.548   2.073   7.201  0.7045  0.2387  1.6318
 5159SOL     OW27112   3.335   1.787  16.933 -0.5000  0.0982  0.0507
 5159SOL    HW127113   3.386   1.707  16.918 -1.2756 -0.8445  2.4451
 5159SOL    HW227114   3.246   1.758  16.912 -1.4840  0.7762  3.2159
 5160SOL     OW27115   1.776   3.034   3.358  0.1996 -0.3007 -0.1147
 5160SOL    HW127116   1.802   3.091   3.285 -3.0339 -1.1165 -1.8937
 5160SOL    HW227117   1.859   2.986   3.359  0.7266  0.5958 -0.5120
 5161SOL     OW27118   1.052   3.745   4.240  0.0023 -0.4601 -0.1921
 5161SOL    HW127119   1.141   3.719   4.215  0.0544  0.5615 -1.0777
 5161SOL    HW227120   1.006   3.661   4.244 -0.2420 -0.2970  0.4474
 5162SOL     OW27121   2.043   3.697   6.593  0.6454  0.2773 -0.5146
 5162SOL    HW127122   2.123   3.660   6.629  1.2657  1.9272 -0.1930
 5162SOL    HW227123   2.084   3.726   6.511 -0.7624  0.5746 -1.1132
 5163SOL     OW27124   3.063   1.823   4.268  0.0883 -0.3587  0.0055
 5163SOL    HW127125   2.978   1.862   4.247  0.2332 -0.1931 -0.2816
 5163SOL    HW227126   3.125   1.852   4.200  0.5322 -0.2569  0.4550
 5164SOL     OW27127   1.387   4.276   7.700 -0.0233  0.5882  0.3680
 5164SOL    HW127128   1.315   4.331   7.731 -0.5286  1.0342 -1.5852
 5164SOL    HW227129   1.339   4.228   7.632 -1.1355  0.2243  1.3921
 5165SOL     OW27130   1.429   4.127   6.154  0.6269  0.4181 -0.1192
 5165SOL    HW127131   1.342   4.090   6.158  1.3799 -1.2779  0.4244
 5165SOL    HW227132   1.487   4.056   6.126  2.6645  2.3600 -0.9153
 5166SOL     OW27133   1.936   1.141   5.147  0.4815  0.1177 -0.3763
 5166SOL    HW127134   1.905   1.056   5.179 -0.1399  1.3614  2.3437
 5166SOL    HW227135   1.861   1.169   5.095 -2.1735 -0.0350  3.3916
 5167SOL     OW27136   2.009   2.897   3.408 -0.3117  0.1884 -0.3123
 5167SOL    HW127137   2.075   2.883   3.341  1.0652  1.3863  0.7896
 5167SOL    HW227138   2.051   2.947   3.478  0.5812 -1.0154  0.0015
 5168SOL     OW27139   0.899   0.130   3.079 -0.0618  0.1029 -0.1171
 5168SOL    HW127140   0.970   0.189   3.054 -0.0577 -0.1491 -0.6991
 5168SOL    HW227141   0.881   0.080   2.999  0.1004 -0.6870  0.3391
 5169SOL     OW27142   2.423   4.426   8.732  0.2612  0.1284  0.5346
 5169SOL    HW127143   2.439   4.340   8.771  0.2507  0.0485  0.3653
 5169SOL    HW227144   2.385   4.474   8.805  0.8918  3.1594 -1.1078
 5170SOL     OW27145   3.816   3.212   7.880  0.2829  0.2586 -0.0488
 5170SOL    HW127146   3.811   3.117   7.874  1.5886  0.0875  1.4580
 5170SOL    HW227147   3.744   3.225   7.941 -0.1225 -1.2802 -0.2142
 5171SOL     OW27148   4.514   2.471   7.304  0.2265  0.4474 -0.5062
 5171SOL    HW127149   4.599   2.499   7.339  0.7927 -0.1379 -1.4430
 5171SOL    HW227150   4.513   2.377   7.323  0.2596  0.5993  0.2736
 5172SOL     OW27151   0.208   3.298   4.612  0.5237  0.7449  0.1303
 5172SOL    HW127152   0.127   3.349   4.621  0.6672  0.9636  0.1910
 5172SOL    HW227153   0.278   3.359   4.589  1.0107 -0.6451 -2.0884
 5173SOL     OW27154   2.911   0.064   6.469  0.3011 -0.0139  0.3433
 5173SOL    HW127155   2.820   0.040   6.486  0.1569  0.3861  0.1327
 5173SOL    HW227156   2.947   0.072   6.557  0.2758  0.0031  0.3521
 5174SOL     OW27157   4.325   2.000   4.418  0.4076  0.3088 -0.1369
 5174SOL    HW127158   4.277   2.046   4.485 -0.4407  1.1682 -1.3409
 5174SOL    HW227159   4.298   2.050   4.341 -0.2772  0.0728 -0.0460
 5175SOL     OW27160   2.713   1.299   5.271  0.1069  0.7157 -0.0545
 5175SOL    HW127161   2.786   1.237   5.277 -0.8104 -0.3564 -0.0247
 5175SOL    HW227162   2.745   1.370   5.326 -0.3254  0.2160  0.8296
 5176SOL     OW27163   4.626   4.398   4.169 -0.3869  0.4788  0.5848
 5176SOL    HW127164   4.585   4.384   4.254 -4.2777  1.8220 -1.0223
 5176SOL    HW227165   4.706   4.349   4.185  0.4369  1.8149  0.4943
 5177SOL     OW27166   4.299   3.122  16.984  0.7913  0.8159 -0.6507
 5177SOL    HW127167   4.279   3.213  16.962 -1.2548  0.7736  0.9812
 5177SOL    HW227168   4.347   3.120  17.067  1.8464  1.8872 -1.2453
 5178SOL     OW27169   3.437   0.809   5.266  0.2287  0.3685 -0.0684
 5178SOL    HW127170   3.509   0.755   5.298  0.6047  0.1196 -1.3546
 5178SOL    HW227171   3.358   0.768   5.301  2.4594 -2.1506  1.9874
 5179SOL     OW27172   2.612   3.371   2.202 -0.1369  0.5788  0.1811
 5179SOL    HW127173   2.561   3.376   2.283 -0.9305 -1.4516 -0.1789
 5179SOL    HW227174   2.541   3.386   2.140 -0.5817 -2.6626 -0.1244
 5180SOL     OW27175   1.400   4.484  13.689  0.2649  0.5378 -0.6538
 5180SOL    HW127176   1.396   4.521  13.777 -0.4409 -0.7413 -0.1563
 5180SOL    HW227177   1.439   4.564  13.654  1.0321  0.9906  1.2392
 5181SOL     OW27178   3.170   0.848  15.802  0.2823  0.6356  0.1308
 5181SOL    HW127179   3.109   0.867  15.731  0.1574  0.5092  0.2045
 5181SOL    HW227180   3.125   0.777  15.848 -1.1987  1.0192 -0.7285
 5182SOL     OW27181   4.637   0.927   6.847 -0.6947 -0.5117  0.3932
 5182SOL    HW127182   4.715   0.894   6.893 -0.3014 -1.1333 -0.7004
 5182SOL    HW227183   4.580   0.930   6.924 -1.2284  1.1914 -0.0713
 5183SOL     OW27184   4.148   2.364   1.579  0.0995  0.0407 -0.2554
 5183SOL    HW127185   4.114   2.304   1.646  0.8829  0.3641  0.4296
 5183SOL    HW227186   4.068   2.376   1.527 -0.1428  1.7362  0.5233
 5184SOL     OW27187   0.081   4.570  11.277 -0.3055 -0.1888 -0.1801
 5184SOL    HW127188   0.158   4.627  11.272 -0.6940  0.4218  0.8625
 5184SOL    HW227189   0.028   4.616  11.342 -0.5050  0.8579 -1.0765
 5185SOL     OW27190   3.618   4.456   2.156  0.0603 -0.4132  0.7631
 5185SOL    HW127191   3.574   4.426   2.236 -0.1201 -0.0337  0.8064
 5185SOL    HW227192   3.572   4.396   2.098 -2.5556  1.6191  0.7213
 5186SOL     OW27193   0.618   1.887   8.672 -0.3555 -0.4216 -0.1529
 5186SOL    HW127194   0.697   1.894   8.619 -2.2272 -2.9555 -3.2454
 5186SOL    HW227195   0.669   1.891   8.753 -2.9045  0.6623  1.3914
 5187SOL     OW27196   3.530   3.868   6.383  0.0616 -0.2190 -0.2056
 5187SOL    HW127197   3.572   3.833   6.461  0.6095 -0.8925 -0.8070
 5187SOL    HW227198   3.464   3.925   6.424  0.7979  1.3664 -1.1901
 5188SOL     OW27199   2.821   2.489   2.891 -0.0939 -0.6630 -0.5012
 5188SOL    HW127200   2.897   2.448   2.849 -0.2947 -1.8123  0.2511
 5188SOL    HW227201   2.767   2.410   2.892  1.7396 -1.9065  1.1758
 5189SOL     OW27202   4.501   2.847   0.483  0.0210 -0.7785  0.1299
 5189SOL    HW127203   4.521   2.769   0.429 -0.5782  0.7206 -2.2544
 5189SOL    HW227204   4.517   2.920   0.423 -3.2101 -1.9673 -2.1850
 5190SOL     OW27205   4.160   2.381  13.484 -0.3751  0.2682  0.0728
 5190SOL    HW127206   4.209   2.301  13.465 -2.0014 -0.5740 -0.5588
 5190SOL    HW227207   4.129   2.410  13.398  1.3939  0.0131 -0.6492
 5191SOL     OW27208   0.297   2.554  14.617  0.6432 -0.0795 -0.1769
 5191SOL    HW127209   0.209   2.593  14.622 -0.0669 -1.4875 -1.7461
 5191SOL    HW227210   0.281   2.490  14.686  1.7953  0.5135  0.6359
 5192SOL     OW27211   4.507   3.680   0.810 -0.0380  0.0136 -0.2853
 5192SOL    HW127212   4.452   3.609   0.843  0.6804  0.6118  2.1871
 5192SOL    HW227213   4.554   3.645   0.735  0.9700  0.6561  0.0564
 5193SOL     OW27214   4.039   4.213   6.302 -0.2360 -0.1629 -0.6522
 5193SOL    HW127215   3.966   4.274   6.295  2.2998  2.7135 -2.3814
 5193SOL    HW227216   4.106   4.269   6.262  0.1146  0.5068  0.8747
 5194SOL     OW27217   4.529   3.094   5.199  0.8229 -0.0426 -0.1627
 5194SOL    HW127218   4.438   3.086   5.173  1.5798 -0.4667 -2.7190
 5194SOL    HW227219   4.525   3.145   5.280  1.7317 -1.2562  0.6424
 5195SOL     OW27220   4.503   0.482   5.816  0.1293 -0.0326  0.2444
 5195SOL    HW127221   4.517   0.395   5.780 -1.6060 -1.2809  2.5769
 5195SOL    HW227222   4.525   0.459   5.906  2.7868  0.1485 -0.3664
 5196SOL     OW27223   2.836   0.172   8.008  0.6554 -0.1701 -0.0390
 5196SOL    HW127224   2.892   0.098   8.034  0.4953 -0.2155  0.1824
 5196SOL    HW227225   2.756   0.127   7.982  0.5634  1.2083 -2.1447
 5197SOL     OW27226   2.362   3.316   9.948  0.1704 -0.1164  0.4551
 5197SOL    HW127227   2.340   3.382  10.014  3.5711  1.7338 -0.2597
 5197SOL    HW227228   2.280   3.323   9.900  0.9761  3.7059 -0.4044
 5198SOL     OW27229   0.450   4.577   9.036  0.5037 -0.5366  0.1739
 5198SOL    HW127230   0.456   4.672   9.046 -0.8491 -0.6900  2.5669
 5198SOL    HW227231   0.376   4.574   8.975  0.7117  0.5422 -0.1262
 5199SOL     OW27232   1.248   4.039   4.014 -0.2534  0.0592 -0.0184
 5199SOL    HW127233   1.237   3.945   4.029  0.4438 -0.2974 -1.7650
 5199SOL    HW227234   1.290   4.065   4.096 -0.1112 -1.7527  0.4733
 5200SOL     OW27235   1.661   0.945  16.000 -0.2893 -0.0718 -0.0289
 5200SOL    HW127236   1.664   0.855  16.034  1.1342  0.2332  0.6498
 5200SOL    HW227237   1.679   0.925  15.909  1.0694  2.6179 -0.3422
 5201SOL     OW27238   0.381   3.826   2.423 -0.5406 -0.6398 -0.3508
 5201SOL    HW127239   0.444   3.840   2.352  0.8774 -1.2534  0.7872
 5201SOL    HW227240   0.429   3.866   2.495  0.9926 -2.6217 -0.2662
 5202SOL     OW27241   3.971   3.807   7.141  0.4964 -0.0720  0.6249
 5202SOL    HW127242   3.927   3.728   7.111 -0.8165  0.3837  1.3538
 5202SOL    HW227243   4.020   3.771   7.215  1.9906  1.4173  0.3535
 5203SOL     OW27244   3.461   0.876  15.818  0.3036  0.6635  0.1836
 5203SOL    HW127245   3.367   0.870  15.805  0.1766  0.2505  1.3512
 5203SOL    HW227246   3.492   0.922  15.740  3.9827 -0.4984  0.9552
 5204SOL     OW27247   1.585   3.895  15.674 -0.1439 -0.1517  0.4979
 5204SOL    HW127248   1.556   3.847  15.596 -0.2022 -0.4378  0.6974
 5204SOL    HW227249   1.558   3.831  15.740  0.9168 -0.4457  0.6335
 5205SOL     OW27250   3.145   0.350   8.139  0.0285 -0.1127  0.2653
 5205SOL    HW127251   3.082   0.282   8.163 -0.1306  0.0906  0.4227
 5205SOL    HW227252   3.122   0.418   8.201  2.6088  1.9611 -1.0677
 5206SOL     OW27253   3.174   2.829   3.863 -0.1089 -0.2141  0.5887
 5206SOL    HW127254   3.245   2.892   3.851 -0.3342 -0.2420 -0.8442
 5206SOL    HW227255   3.104   2.873   3.814  0.1565  0.6544  0.9868
 5207SOL     OW27256   3.730   2.885   7.765 -0.0869 -0.0418  0.4323
 5207SOL    HW127257   3.637   2.905   7.775  0.3298  1.5365  1.1895
 5207SOL    HW227258   3.724   2.883   7.670  0.7954  0.9626  0.3521
 5208SOL     OW27259   3.485   2.865   3.751  0.0319  0.0484  0.3064
 5208SOL    HW127260   3.538   2.791   3.783  1.6217  1.0324 -0.0307
 5208SOL    HW227261   3.443   2.892   3.832  1.5985 -1.6363  1.6706
 5209SOL     OW27262   4.343   0.545   8.027 -0.6066 -0.1472 -0.0283
 5209SOL    HW127263   4.301   0.607   8.085  0.9286 -0.1754  1.1048
 5209SOL    HW227264   4.264   0.506   7.989 -1.1454  0.8264  0.0913
 5210SOL     OW27265   0.203   0.204   4.874  0.1368 -0.5586 -0.3703
 5210SOL    HW127266   0.182   0.294   4.897  1.1949 -0.2188 -0.7097
 5210SOL    HW227267   0.253   0.180   4.952  1.2309  2.7449 -0.0478
 5211SOL     OW27268   0.440   3.614  16.775 -0.8617 -0.0760  0.4107
 5211SOL    HW127269   0.444   3.588  16.683  1.2618 -0.3165  0.5864
 5211SOL    HW227270   0.531   3.596  16.796 -0.2994  2.4579  0.1384
 5212SOL     OW27271   1.567   3.590   8.366 -0.3079  0.0894 -0.3850
 5212SOL    HW127272   1.524   3.563   8.447  0.7469 -1.4525 -0.3467
 5212SOL    HW227273   1.620   3.665   8.395 -0.6654  0.5759 -0.9779
 5213SOL     OW27274   2.363   0.548   5.645 -0.1844  0.1456 -0.3320
 5213SOL    HW127275   2.391   0.558   5.554  0.5737  0.0322 -0.1087
 5213SOL    HW227276   2.273   0.580   5.636 -1.6703 -4.0916 -1.0714
 5214SOL     OW27277   1.855   2.216   5.224 -0.7734  0.5103 -0.0043
 5214SOL    HW127278   1.766   2.221   5.258 -0.3161 -1.2733  1.4873
 5214SOL    HW227279   1.831   2.203   5.133 -0.8300 -1.1216  0.2442
 5215SOL     OW27280   0.733   3.328  16.929  0.4905  0.0874 -0.1042
 5215SOL    HW127281   0.821   3.346  16.961  0.6688 -0.1633 -0.4542
 5215SOL    HW227282   0.706   3.417  16.910  1.7178  0.7152  1.1230
 5216SOL     OW27283   4.712   0.900   2.228 -0.1451 -0.3875  0.6517
 5216SOL    HW127284   4.682   0.990   2.240 -1.3816 -0.7405  0.2219
 5216SOL    HW227285   4.662   0.874   2.151  0.8691  0.1715 -0.1956
 5217SOL     OW27286   4.339   2.111  15.964  0.2827 -0.2623 -0.0654
 5217SOL    HW127287   4.288   2.038  15.998  2.8316 -1.9951  0.0685
 5217SOL    HW227288   4.427   2.096  15.999  0.2569 -1.2322 -0.4029
 5218SOL     OW27289   1.562   0.451   4.413  0.0699 -0.0317 -0.4895
 5218SOL    HW127290   1.623   0.450   4.339  0.9418 -1.0978  0.2530
 5218SOL    HW227291   1.474   0.434   4.377 -0.5205 -2.5139  2.1723
 5219SOL     OW27292   2.773   1.057  11.834 -0.0198  0.0508  0.0720
 5219SOL    HW127293   2.686   1.089  11.858  0.4635  0.0724  1.7314
 5219SOL    HW227294   2.823   1.093  11.907  0.5996 -0.1712 -0.2470
 5220SOL     OW27295   1.393   1.403   7.952 -0.2064 -0.2150 -0.1930
 5220SOL    HW127296   1.459   1.365   8.010  0.0885  1.0433  0.2959
 5220SOL    HW227297   1.414   1.497   7.956  2.4386 -0.8414  0.7410
 5221SOL     OW27298   0.056   0.961   0.457 -0.1121 -0.2250 -0.1461
 5221SOL    HW127299   0.002   1.004   0.391  1.3275  3.3146  1.0129
 5221SOL    HW227300   4.732   0.975   0.526  0.5239  4.5791 -0.5267
 5222SOL     OW27301   0.879   2.014   7.558  0.2446  0.4368 -0.2588
 5222SOL    HW127302   0.790   2.033   7.528 -0.2792  1.1348  1.7693
 5222SOL    HW227303   0.860   1.996   7.650  2.4655  1.4001  0.3979
 5223SOL     OW27304   4.050   1.681   8.153 -0.1742  0.2696 -0.2272
 5223SOL    HW127305   4.088   1.703   8.068 -0.5781  0.6435 -0.3116
 5223SOL    HW227306   4.061   1.586   8.146 -0.7096  0.0829  1.6338
 5224SOL     OW27307   2.799   2.499   3.515 -0.2450 -0.2206  0.3501
 5224SOL    HW127308   2.853   2.485   3.438 -0.2133 -0.6862  0.4531
 5224SOL    HW227309   2.717   2.454   3.491 -1.8274  2.7407  0.2435
 5225SOL     OW27310   0.515   0.359  11.489 -0.4964  0.1391 -0.3272
 5225SOL    HW127311   0.528   0.392  11.401 -0.9673 -0.2906 -0.5594
 5225SOL    HW227312   0.601   0.383  11.523 -1.1876  1.7194  0.2768
 5226SOL     OW27313   2.000   1.203   7.088  0.0753 -0.2135 -0.3667
 5226SOL    HW127314   1.942   1.266   7.045 -0.6734 -0.0119  0.9486
 5226SOL    HW227315   1.997   1.138   7.018  2.6467 -1.5132  0.7606
 5227SOL     OW27316   0.274   0.393  10.532  0.3186 -0.1357  0.3646
 5227SOL    HW127317   0.223   0.320  10.567  1.9048 -1.2218  0.4319
 5227SOL    HW227318   0.217   0.470  10.537 -0.5716 -0.7028 -1.0636
 5228SOL     OW27319   3.359   3.154   8.463 -0.2501  0.5585 -0.2392
 5228SOL    HW127320   3.371   3.246   8.439  0.2580  0.7806  0.9095
 5228SOL    HW227321   3.315   3.152   8.548 -0.3606  3.1245 -0.2617
 5229SOL     OW27322   2.644   4.333   1.700 -0.0181 -0.0685  0.0400
 5229SOL    HW127323   2.603   4.248   1.683 -0.5482  0.6531 -2.2854
 5229SOL    HW227324   2.702   4.307   1.772 -0.8391  1.2140  1.1653
 5230SOL     OW27325   2.038   1.697   4.538  0.8466  0.2488  0.5962
 5230SOL    HW127326   1.984   1.760   4.491 -0.5917 -2.5986 -1.6005
 5230SOL    HW227327   2.108   1.756   4.565 -1.2640  2.5182  1.0400
 5231SOL     OW27328   3.089   3.655   5.779 -0.2361 -0.2541 -0.3085
 5231SOL    HW127329   3.034   3.729   5.803  0.5862 -0.4180  2.0161
 5231SOL    HW227330   3.169   3.682   5.823 -0.8315 -1.3821  1.4769
 5232SOL     OW27331   0.209   2.386   2.170 -0.1538 -0.8110 -0.2213
 5232SOL    HW127332   0.231   2.377   2.263  0.1405  0.0634 -0.2020
 5232SOL    HW227333   0.217   2.299   2.132  1.7777  0.6079 -3.0823
 5233SOL     OW27334   2.018   4.343   8.287 -0.3789  0.0117 -0.1903
 5233SOL    HW127335   2.042   4.254   8.263 -1.4131 -1.0829  2.8544
 5233SOL    HW227336   2.028   4.395   8.208 -0.6105  1.9049  1.0153
 5234SOL     OW27337   2.868   2.423   2.008  0.4055  0.3343  0.2890
 5234SOL    HW127338   2.806   2.370   1.959 -0.1578  0.1154  1.2383
 5234SOL    HW227339   2.874   2.510   1.970 -1.2560  1.1558  1.9520
 5235SOL     OW27340   4.659   1.857   6.521 -0.0193 -0.2594  0.4655
 5235SOL    HW127341   4.580   1.910   6.508  0.8528  0.2401 -2.6673
 5235SOL    HW227342   4.622   1.774   6.552  2.9704 -2.3951 -1.7030
 5236SOL     OW27343   1.712   2.428   2.828 -0.2852  0.0609 -0.3726
 5236SOL    HW127344   1.806   2.449   2.828  0.1406 -1.8456  1.1666
 5236SOL    HW227345   1.710   2.386   2.914  2.7219  0.4545 -0.1072
 5237SOL     OW27346   3.153   2.221   5.122 -0.5002  0.4769 -0.5923
 5237SOL    HW127347   3.166   2.126   5.121 -0.8884  0.3600  2.7092
 5237SOL    HW227348   3.207   2.231   5.201 -0.5244  1.0174 -0.6454
 5238SOL     OW27349   2.932   0.728  16.901  0.4054  0.3588 -0.2765
 5238SOL    HW127350   2.942   0.822  16.888 -1.4100  0.5900  0.0512
 5238SOL    HW227351   2.883   0.722  16.983 -0.3198  1.9783 -0.6142
 5239SOL     OW27352   2.128   2.319   2.471 -0.3584 -0.3982 -0.4306
 5239SOL    HW127353   2.173   2.397   2.500 -2.5907  0.0147  1.9128
 5239SOL    HW227354   2.062   2.304   2.539  0.1716 -0.5553  0.0475
 5240SOL     OW27355   2.496   2.100   6.543  0.0143 -0.2745  0.4736
 5240SOL    HW127356   2.541   2.033   6.491  2.4098  2.8323 -1.4511
 5240SOL    HW227357   2.500   2.064   6.632 -0.0786 -0.6789  0.3143
 5241SOL     OW27358   3.236   1.958   4.104 -0.0535  0.3007 -0.4813
 5241SOL    HW127359   3.303   1.899   4.070  0.0215 -0.3870  0.8545
 5241SOL    HW227360   3.290   2.011   4.163 -1.2559  1.0518 -0.0446
 5242SOL     OW27361   1.982   4.223  12.627 -0.4659 -0.1262 -0.1646
 5242SOL    HW127362   1.916   4.157  12.647  0.4280 -1.2553 -0.9905
 5242SOL    HW227363   2.014   4.192  12.542 -1.0584 -2.7654  0.5856
 5243SOL     OW27364   0.566   3.554   1.980 -0.3752 -0.0358  0.4025
 5243SOL    HW127365   0.487   3.503   1.965 -0.0146 -0.0538 -1.4075
 5243SOL    HW227366   0.570   3.541   2.075 -0.6402 -0.8015  0.3038
 5244SOL     OW27367   3.387   2.987   3.977  0.1455 -0.0229 -0.8534
 5244SOL    HW127368   3.317   3.050   3.958 -2.8672 -3.0360  0.2750
 5244SOL    HW227369   3.403   3.006   4.070  1.8707 -0.5795 -1.0351
 5245SOL     OW27370   1.627   3.074   3.991 -0.2508 -0.4259  0.1035
 5245SOL    HW127371   1.624   2.993   4.040 -3.1040 -1.0843 -1.1572
 5245SOL    HW227372   1.564   3.065   3.920  1.5273  0.8986 -1.6393
 5246SOL     OW27373   0.879   2.860   2.594  1.3813  0.0021  0.0253
 5246SOL    HW127374   0.920   2.781   2.559  0.2019 -1.8395  2.8223
 5246SOL    HW227375   0.848   2.823   2.676 -0.9808 -1.0757 -1.3653
 5247SOL     OW27376   2.020   4.647   2.966  0.0660  0.5329  0.6118
 5247SOL    HW127377   1.996   4.623   2.877 -1.6611 -0.8581  1.4171
 5247SOL    HW227378   2.045   4.738   2.956  0.9783  0.1114 -0.8665
 5248SOL     OW27379   1.145   4.367  11.837 -0.5396  0.1333  0.1409
 5248SOL    HW127380   1.190   4.297  11.789 -1.5067 -0.1230 -0.3858
 5248SOL    HW227381   1.146   4.341  11.929 -1.7086 -0.1074  0.0909
 5249SOL     OW27382   1.626   0.962   6.627  0.0739  0.3133  0.0676
 5249SOL    HW127383   1.604   0.888   6.684  1.1856 -0.3448 -0.3650
 5249SOL    HW227384   1.599   0.941   6.538 -0.1790 -1.4824  0.5798
 5250SOL     OW27385   2.655   4.721   5.959  0.1319 -0.4735  0.5808
 5250SOL    HW127386   2.690   4.640   5.997 -0.4632 -1.2969 -0.6491
 5250SOL    HW227387   2.681   4.707   5.868 -0.9572 -0.5183  0.2747
 5251SOL     OW27388   4.090   3.556   7.983  0.3478 -0.0910 -0.1982
 5251SOL    HW127389   4.025   3.618   7.949 -1.3449 -1.7630 -0.0318
 5251SOL    HW227390   4.083   3.480   7.926 -2.5516  2.4263 -3.2022
 5252SOL     OW27391   3.794   0.596   1.178  0.3156  0.6373  0.6201
 5252SOL    HW127392   3.775   0.652   1.254  1.5797  0.0274  1.4010
 5252SOL    HW227393   3.804   0.657   1.106 -0.8288 -0.2289 -0.2713
 5253SOL     OW27394   4.221   1.771   2.539  0.7484 -0.1161  0.4485
 5253SOL    HW127395   4.255   1.859   2.556  1.1545  0.2423 -2.2441
 5253SOL    HW227396   4.169   1.787   2.461  2.7218  0.8024 -0.6841
 5254SOL     OW27397   0.545   4.024   8.503  0.9565  0.3010  0.0256
 5254SOL    HW127398   0.623   4.070   8.470  0.1015  1.5445 -0.2912
 5254SOL    HW227399   0.478   4.084   8.472 -0.4815 -1.6608 -0.6379
 5255SOL     OW27400   0.522   1.330   7.844  0.3258 -0.0523 -0.4549
 5255SOL    HW127401   0.456   1.289   7.900  1.5384 -1.0045  0.2792
 5255SOL    HW227402   0.505   1.282   7.763  2.2740 -1.2950 -0.1107
 5256SOL     OW27403   2.886   1.785   9.337 -0.5990  0.6774 -0.6288
 5256SOL    HW127404   2.814   1.741   9.292 -0.7699  0.1810  0.1388
 5256SOL    HW227405   2.834   1.853   9.381 -0.7356  0.5211 -0.5482
 5257SOL     OW27406   3.728   2.702   5.047  0.5802 -0.1504  0.1367
 5257SOL    HW127407   3.767   2.770   4.993 -0.5631  1.0300  0.8204
 5257SOL    HW227408   3.672   2.650   4.988  0.2498  2.1762 -1.5814
 5258SOL     OW27409   3.992   2.324   4.375 -0.1949 -0.5297 -0.6455
 5258SOL    HW127410   3.929   2.313   4.446  1.3313 -0.6293  0.6970
 5258SOL    HW227411   4.013   2.417   4.365 -2.3939 -0.0392 -0.6025
 5259SOL     OW27412   0.509   4.000   4.410 -0.0802  0.1432  0.0769
 5259SOL    HW127413   0.456   4.021   4.334  1.0845 -0.7936 -0.9989
 5259SOL    HW227414   0.457   4.031   4.484  0.3069 -2.7642  1.5718
 5260SOL     OW27415   0.642   4.001   3.243 -0.1317  0.0302 -0.3047
 5260SOL    HW127416   0.680   3.973   3.326  0.9826  3.1319  0.2295
 5260SOL    HW227417   0.605   3.915   3.221  4.2030 -1.9221 -0.0579
 5261SOL     OW27418   0.178   1.321   3.390 -0.7781 -0.2468 -0.1027
 5261SOL    HW127419   0.142   1.241   3.428 -0.5986 -0.9427 -1.3648
 5261SOL    HW227420   0.134   1.389   3.441 -2.1845 -0.4630 -1.0256
 5262SOL     OW27421   1.929   1.681   9.032 -0.1827  0.0663  0.2205
 5262SOL    HW127422   1.944   1.689   8.938 -0.4049 -2.0760  0.0042
 5262SOL    HW227423   1.996   1.746   9.053  0.9647 -0.6976 -1.1373
 5263SOL     OW27424   0.344   1.092   4.051  0.4081  0.1839 -0.6641
 5263SOL    HW127425   0.439   1.078   4.052  0.6168  1.7873  1.9073
 5263SOL    HW227426   0.319   1.023   3.990 -2.7907 -1.9772  3.0563
 5264SOL     OW27427   3.623   4.423   9.815 -0.2920 -0.2811  0.0498
 5264SOL    HW127428   3.713   4.449   9.835 -0.5329 -0.3099  1.1962
 5264SOL    HW227429   3.582   4.432   9.901 -0.5711  2.5625 -0.3821
 5265SOL     OW27430   1.698   4.312   8.205 -0.3325  0.5574  0.6352
 5265SOL    HW127431   1.652   4.277   8.282  1.8666  0.9426  2.1196
 5265SOL    HW227432   1.791   4.314   8.229 -0.4094 -1.6594  1.1577
 5266SOL     OW27433   2.701   0.748  12.028 -0.0896 -0.0051  0.4454
 5266SOL    HW127434   2.751   0.678  11.986 -0.6875 -0.7745  1.0133
 5266SOL    HW227435   2.621   0.702  12.051  0.9412 -2.1014 -0.1714
 5267SOL     OW27436   3.851   3.050   2.471  0.0194  0.2014 -0.1886
 5267SOL    HW127437   3.876   2.962   2.498 -3.3917 -0.0643  2.0134
 5267SOL    HW227438   3.914   3.116   2.500  2.1380 -1.9670  0.0961
 5268SOL     OW27439   2.156   2.812   6.599 -0.2325  0.1170 -0.4675
 5268SOL    HW127440   2.213   2.829   6.675 -0.8565  1.1283 -0.2166
 5268SOL    HW227441   2.202   2.742   6.554 -0.3214  0.7887 -1.5858
 5269SOL     OW27442   3.528   4.548   7.827 -0.2003  0.0304  0.1273
 5269SOL    HW127443   3.566   4.489   7.762  0.6142  2.3281 -1.4700
 5269SOL    HW227444   3.563   4.631   7.795 -3.5157  1.2706 -0.2302
 5270SOL     OW27445   0.910   4.286   3.571 -0.9918  0.0151  0.5498
 5270SOL    HW127446   0.911   4.248   3.483 -1.5448  1.0327  0.1052
 5270SOL    HW227447   0.992   4.336   3.577 -0.1536 -1.3904  1.0109
 5271SOL     OW27448   0.141   3.572   1.015  0.4179  0.0587  0.5892
 5271SOL    HW127449   0.157   3.515   1.090 -1.2448 -1.0490  0.1092
 5271SOL    HW227450   0.086   3.522   0.954  4.3922 -2.5712 -0.8048
 5272SOL     OW27451   2.566   0.592   7.240 -0.2355 -0.1222 -0.0674
 5272SOL    HW127452   2.652   0.614   7.204  0.1390 -1.2096  0.1607
 5272SOL    HW227453   2.581   0.526   7.308  0.9611  0.5086  0.2844
 5273SOL     OW27454   0.609   4.638   3.096 -0.0682 -0.4998  0.3326
 5273SOL    HW127455   0.602   4.728   3.128 -1.2664 -0.2568 -0.6240
 5273SOL    HW227456   0.547   4.592   3.154  0.3103 -0.9467  0.3814
 5274SOL     OW27457   1.576   1.664   2.909  0.3670 -0.3512  0.4572
 5274SOL    HW127458   1.560   1.666   2.814 -0.9183  2.9807  0.7497
 5274SOL    HW227459   1.487   1.679   2.940  0.8292 -0.5251  1.8428
 5275SOL     OW27460   1.196   0.560   2.299  0.5707  0.1958 -0.0867
 5275SOL    HW127461   1.106   0.590   2.308  0.7350  0.3398  1.0762
 5275SOL    HW227462   1.231   0.628   2.241  0.1316  0.3294 -0.1955
 5276SOL     OW27463   3.363   2.954   0.655 -1.0695 -0.4705  0.4508
 5276SOL    HW127464   3.367   2.864   0.622 -2.2378  0.1108 -1.3013
 5276SOL    HW227465   3.363   3.002   0.572  0.0540  0.6117  1.0837
 5277SOL     OW27466   3.953   3.427   6.083 -0.2638  0.5108  0.1550
 5277SOL    HW127467   3.996   3.411   6.167 -0.6241 -0.5437  0.1398
 5277SOL    HW227468   3.973   3.518   6.062  0.5329  0.2754 -0.0731
 5278SOL     OW27469   3.038   0.301   7.322  0.3705  0.4228 -0.0987
 5278SOL    HW127470   3.044   0.339   7.410 -0.1476 -0.1913  0.2032
 5278SOL    HW227471   3.128   0.273   7.307  0.5163 -0.4287  2.4334
 5279SOL     OW27472   2.982   3.619   9.730  0.6758  0.1391  0.0053
 5279SOL    HW127473   2.914   3.594   9.668 -0.4936  0.0674  1.2927
 5279SOL    HW227474   2.940   3.687   9.784 -0.2948 -0.9699  0.6528
 5280SOL     OW27475   2.698   1.980   9.395  0.2951 -0.2503 -0.3880
 5280SOL    HW127476   2.631   1.984   9.463  1.5776 -2.7300  0.9960
 5280SOL    HW227477   2.662   1.920   9.330 -0.5644 -0.7531  0.5561
 5281SOL     OW27478   3.981   3.233   2.597  0.6786  0.2652  0.4077
 5281SOL    HW127479   4.064   3.205   2.635  0.2269 -0.1968  1.0455
 5281SOL    HW227480   4.016   3.267   2.514  2.0841  1.9204  1.6608
 5282SOL     OW27481   3.346   0.228  11.723 -0.3615 -0.2672  0.0136
 5282SOL    HW127482   3.372   0.295  11.660  1.3565  0.6161  1.6556
 5282SOL    HW227483   3.285   0.168  11.679 -0.4137  0.1884 -0.5328
 5283SOL     OW27484   1.565   2.009   6.340 -0.6235 -0.2151 -0.1177
 5283SOL    HW127485   1.567   2.005   6.435 -0.9313 -0.8522 -0.1366
 5283SOL    HW227486   1.475   1.983   6.322 -1.1766  0.0966  2.2668
 5284SOL     OW27487   4.430   3.960   6.447 -0.2935 -0.5062  0.5256
 5284SOL    HW127488   4.437   4.052   6.468 -0.0646 -0.1870 -0.9303
 5284SOL    HW227489   4.359   3.924   6.501 -0.5638  0.6750  0.9583
 5285SOL     OW27490   0.195   3.255  12.819  0.2070  0.0712  0.0617
 5285SOL    HW127491   0.194   3.293  12.731 -2.7213 -0.5074 -0.1316
 5285SOL    HW227492   0.276   3.288  12.859  0.4121 -0.2416 -0.0969
 5286SOL     OW27493   1.186   1.435   3.481  0.1745  0.0190 -0.3779
 5286SOL    HW127494   1.176   1.418   3.574 -0.1968 -0.7603 -0.5618
 5286SOL    HW227495   1.279   1.438   3.458  0.3100  0.0398  0.1749
 5287SOL     OW27496   3.114   4.473   4.863 -0.2727 -0.4430 -0.7279
 5287SOL    HW127497   3.139   4.386   4.832 -2.2823 -0.7122 -1.5808
 5287SOL    HW227498   3.157   4.466   4.948 -0.1214 -1.4805 -0.8913
 5288SOL     OW27499   2.309   4.740   3.697  0.3214  0.5577 -0.8586
 5288SOL    HW127500   2.334   4.688   3.774  2.0706 -0.2981 -1.9997
 5288SOL    HW227501   2.254   4.680   3.646 -0.7821  2.2369 -1.6724
 5289SOL     OW27502   4.189   1.707   6.857  0.7622  0.2397  0.1148
 5289SOL    HW127503   4.173   1.618   6.889  0.7755  0.3957  0.5506
 5289SOL    HW227504   4.147   1.704   6.771 -0.6162  0.5042  0.7927
 5290SOL     OW27505   0.075   3.565   5.503 -0.2218  0.0911  0.1854
 5290SOL    HW127506   0.094   3.645   5.454  0.4709  0.4648  1.0561
 5290SOL    HW227507   0.046   3.509   5.431 -2.1548 -0.0482  1.0727
 5291SOL     OW27508   0.685   0.801   2.588 -0.1397 -0.7039  0.2324
 5291SOL    HW127509   0.649   0.884   2.558  0.7470 -0.2583  0.4099
 5291SOL    HW227510   0.742   0.829   2.659 -0.6778  0.5739  0.1522
 5292SOL     OW27511   1.463   1.655   7.942 -0.3079  0.0577  0.0356
 5292SOL    HW127512   1.533   1.661   7.877  0.2211  1.2311  0.7111
 5292SOL    HW227513   1.513   1.676   8.021 -2.0714  0.8479  0.9278
 5293SOL     OW27514   3.250   2.958   4.583 -0.3811 -0.0711 -0.0940
 5293SOL    HW127515   3.172   2.924   4.539  0.3808 -1.9934  0.0440
 5293SOL    HW227516   3.262   3.048   4.553 -1.8167  0.0038 -0.4231
 5294SOL     OW27517   3.462   3.492   2.669  0.4982 -0.8282  0.4256
 5294SOL    HW127518   3.446   3.437   2.746 -1.4860 -0.0292  0.5768
 5294SOL    HW227519   3.556   3.473   2.664  0.4437 -1.1155  0.4669
 5295SOL     OW27520   2.027   3.643  14.359 -0.3230  0.3173  0.0036
 5295SOL    HW127521   1.940   3.609  14.339  0.5445 -1.6426 -0.3974
 5295SOL    HW227522   2.018   3.670  14.451  0.6866 -0.4758  0.3378
 5296SOL     OW27523   2.809   1.504   5.437  0.8014  0.9286 -0.0000
 5296SOL    HW127524   2.759   1.584   5.450 -1.1524 -0.1445 -0.9142
 5296SOL    HW227525   2.897   1.541   5.445  0.4384  1.5423  1.0831
 5297SOL     OW27526   1.055   2.897   4.740 -0.2364  0.7766  0.2143
 5297SOL    HW127527   1.067   2.857   4.826  1.4148 -1.4678 -1.0551
 5297SOL    HW227528   1.136   2.869   4.698 -0.6228 -0.2727  0.1627
 5298SOL     OW27529   2.678   3.763   5.297 -0.3548 -0.4960 -0.3258
 5298SOL    HW127530   2.606   3.703   5.280 -1.8781  0.8602  1.3447
 5298SOL    HW227531   2.750   3.716   5.254 -2.2297 -1.8805 -1.9465
 5299SOL     OW27532   0.076   1.960   6.001 -0.6279 -0.0343  0.9203
 5299SOL    HW127533   0.064   1.955   6.095 -0.2750  0.7684  1.0097
 5299SOL    HW227534   0.171   1.977   6.002 -0.7449  0.6946 -0.1036
 5300SOL     OW27535   4.646   3.123   8.151  0.1314 -0.1582  0.2528
 5300SOL    HW127536   0.000   3.141   8.162  0.7424 -1.5309 -2.6767
 5300SOL    HW227537   4.598   3.198   8.185 -0.4362 -0.0963 -0.6809
 5301SOL     OW27538   4.463   2.088   7.915 -0.0647 -0.0539  0.5847
 5301SOL    HW127539   4.515   2.097   7.995  0.4221 -1.6613  0.4484
 5301SOL    HW227540   4.374   2.101   7.947  0.1978  0.3051  1.1767
 5302SOL     OW27541   4.343   4.450  12.890 -0.6098 -0.2934  0.1316
 5302SOL    HW127542   4.283   4.432  12.818 -0.8222  0.4881  0.1122
 5302SOL    HW227543   4.295   4.522  12.930  1.7574  0.5239  1.5650
 5303SOL     OW27544   3.374   4.228   0.426  0.1728 -0.5758  0.0108
 5303SOL    HW127545   3.316   4.280   0.370 -2.3158 -1.4530  1.7779
 5303SOL    HW227546   3.335   4.232   0.513  0.6675 -0.7832  0.2436
 5304SOL     OW27547   3.068   1.387   8.445 -0.0372  0.1131 -0.4791
 5304SOL    HW127548   3.150   1.349   8.478  0.6367  0.4691 -1.7574
 5304SOL    HW227549   3.015   1.308   8.429 -0.4580  0.1657  0.6570
 5305SOL     OW27550   0.798   2.817  11.546  0.4666  0.5503 -0.1184
 5305SOL    HW127551   0.862   2.747  11.560  0.3477  0.5567  0.4810
 5305SOL    HW227552   0.802   2.828  11.451  0.3108 -0.3111 -0.2192
 5306SOL     OW27553   1.787   2.729   4.848 -0.2431 -0.2859 -0.5161
 5306SOL    HW127554   1.743   2.813   4.837  3.9336  2.2510  2.0964
 5306SOL    HW227555   1.874   2.738   4.811  0.6048 -1.5569  1.1618
 5307SOL     OW27556   0.261   1.871   2.196 -0.1758  0.0707  0.0084
 5307SOL    HW127557   0.278   1.964   2.178 -1.2923  0.0730 -1.0420
 5307SOL    HW227558   0.352   1.845   2.205 -1.2193 -3.9575 -1.3652
 5308SOL     OW27559   0.768   2.761   2.192  0.0626  0.0832 -0.3129
 5308SOL    HW127560   0.702   2.694   2.210  0.6965 -0.2592  0.7368
 5308SOL    HW227561   0.744   2.819   2.265  1.8106 -0.9894  1.1149
 5309SOL     OW27562   1.702   2.539   4.649 -0.4272 -0.1809 -0.0796
 5309SOL    HW127563   1.727   2.577   4.565 -1.8968  0.3314 -0.2874
 5309SOL    HW227564   1.743   2.601   4.710  1.1689 -0.4038 -0.9274
 5310SOL     OW27565   1.900   4.521  10.110  0.3420  0.1502 -0.9271
 5310SOL    HW127566   1.902   4.489  10.020 -0.4374  1.2327 -1.3336
 5310SOL    HW227567   1.992   4.510  10.134  0.9488  0.2440 -3.2297
 5311SOL     OW27568   3.803   1.423  12.097 -0.3206  0.2630  0.4929
 5311SOL    HW127569   3.850   1.506  12.089 -0.4776  0.2739 -0.3046
 5311SOL    HW227570   3.724   1.455  12.140 -0.9161 -0.7862  0.1734
 5312SOL     OW27571   4.274   2.870  16.864  0.0598 -0.4961  0.1317
 5312SOL    HW127572   4.298   2.953  16.906  2.0822 -1.6498  1.2395
 5312SOL    HW227573   4.184   2.886  16.835 -0.6433 -1.7465  1.6637
 5313SOL     OW27574   3.873   4.186   8.092  0.0749  0.8076  0.2521
 5313SOL    HW127575   3.792   4.176   8.043  0.4188 -0.4726 -0.0687
 5313SOL    HW227576   3.847   4.250   8.158 -0.7206 -0.5735  1.2611
 5314SOL     OW27577   1.765   2.902  15.403 -0.1562  0.4708  0.1571
 5314SOL    HW127578   1.740   2.984  15.360 -0.0945  0.3961 -0.0212
 5314SOL    HW227579   1.800   2.850  15.331 -1.3773 -1.6365  1.0766
 5315SOL     OW27580   3.251   0.875   4.676  0.5508 -0.1423 -0.5552
 5315SOL    HW127581   3.268   0.968   4.658 -0.2387  0.4179  1.6891
 5315SOL    HW227582   3.340   0.842   4.663 -1.1315 -3.2380 -4.2210
 5316SOL     OW27583   4.622   3.127  15.656  0.0860  0.1206  0.0322
 5316SOL    HW127584   4.567   3.067  15.606  1.1527 -1.2074  0.4483
 5316SOL    HW227585   4.709   3.088  15.664 -0.9659 -2.1933  0.1164
 5317SOL     OW27586   4.152   2.270   8.836 -0.0947  0.5870  0.2000
 5317SOL    HW127587   4.155   2.365   8.823  0.7029  0.6628  0.9455
 5317SOL    HW227588   4.075   2.268   8.893 -1.9150  0.5331 -2.2797
 5318SOL     OW27589   0.316   3.935   9.290  0.3985 -0.0473  0.0981
 5318SOL    HW127590   0.340   3.846   9.265  0.5519  0.3299 -1.1035
 5318SOL    HW227591   0.319   3.926   9.385 -1.7073  0.5616  0.2227
 5319SOL     OW27592   0.710   0.083   5.115  0.2582  0.0074  0.0453
 5319SOL    HW127593   0.687   0.050   5.028  0.6401 -3.7865  1.3993
 5319SOL    HW227594   0.727   0.002   5.162 -2.3227 -0.1433  0.7534
 5320SOL     OW27595   3.587   3.247   5.582 -0.3009  0.1556  0.3692
 5320SOL    HW127596   3.499   3.257   5.544 -1.1269  0.8303  2.4694
 5320SOL    HW227597   3.632   3.318   5.536 -2.6701  1.2421 -0.3102
 5321SOL     OW27598   3.209   3.454   9.737  0.2403 -0.1219 -0.6735
 5321SOL    HW127599   3.177   3.380   9.685 -0.3154 -0.4521  0.1460
 5321SOL    HW227600   3.146   3.524   9.719  0.1335  0.1602  0.7490
 5322SOL     OW27601   4.549   3.347   6.423 -0.1874  0.4967  0.1195
 5322SOL    HW127602   4.542   3.385   6.335  0.0522 -1.1902 -0.6210
 5322SOL    HW227603   4.516   3.416   6.481 -2.5987 -1.5296  1.1420
 5323SOL     OW27604   1.414   3.384   1.507  0.0680 -0.3767  0.1091
 5323SOL    HW127605   1.366   3.302   1.503  2.0559 -1.4071 -2.6005
 5323SOL    HW227606   1.486   3.371   1.446  0.9401  0.7372  0.8962
 5324SOL     OW27607   3.060   1.706   5.920  0.1149 -0.2443  0.5886
 5324SOL    HW127608   3.009   1.628   5.899 -1.0689  0.1764  1.9015
 5324SOL    HW227609   3.018   1.775   5.868 -2.3448 -1.9523  0.3386
 5325SOL     OW27610   1.425   3.616  13.309 -0.3218 -0.4745  0.6163
 5325SOL    HW127611   1.333   3.595  13.327 -0.9088  2.7596  1.3884
 5325SOL    HW227612   1.421   3.644  13.218  0.9219  0.9351  0.9920
 5326SOL     OW27613   2.501   4.692   9.542  0.0369 -0.8320 -0.1747
 5326SOL    HW127614   2.574   0.011   9.556 -0.0319 -0.6320 -0.6650
 5326SOL    HW227615   2.445   4.737   9.480  0.9263 -2.1116 -1.8943
 5327SOL     OW27616   2.060   3.468   1.374 -0.0417 -0.1583  0.2787
 5327SOL    HW127617   1.967   3.450   1.359  0.0694  0.8848 -1.7413
 5327SOL    HW227618   2.085   3.376   1.374 -2.2411 -0.7622  0.0659
 5328SOL     OW27619   1.596   0.765   8.068 -0.0312  0.2567 -0.1791
 5328SOL    HW127620   1.666   0.779   8.131  1.2599  2.9742 -2.2439
 5328SOL    HW227621   1.655   0.747   7.996  1.1213  0.3631  0.7385
 5329SOL     OW27622   1.082   0.377   3.117 -0.5647 -0.3038 -0.2070
 5329SOL    HW127623   1.097   0.360   3.210  1.7394 -0.5398 -0.6112
 5329SOL    HW227624   0.992   0.409   3.117 -0.3966  0.1093 -3.4958
 5330SOL     OW27625   2.479   3.995  13.074  0.4423 -0.3626  0.1784
 5330SOL    HW127626   2.472   4.055  13.147 -1.8131 -0.1094 -0.2274
 5330SOL    HW227627   2.561   3.948  13.088  0.2556 -0.7626 -0.0404
 5331SOL     OW27628   3.153   1.110   4.390  0.0669 -0.0684  0.5923
 5331SOL    HW127629   3.210   1.117   4.466 -1.4961 -1.2280  1.8696
 5331SOL    HW227630   3.074   1.068   4.424  0.1169 -0.2601  0.4739
 5332SOL     OW27631   0.911   2.737   4.007  0.0593 -0.2073 -0.2570
 5332SOL    HW127632   0.825   2.696   3.998 -1.3217  1.9769  2.9969
 5332SOL    HW227633   0.882   2.828   4.010  1.0891  0.1100 -0.2790
 5333SOL     OW27634   2.074   2.045  15.807 -0.0807  0.0759 -0.3081
 5333SOL    HW127635   2.165   2.044  15.835 -0.7217 -1.8379  1.7041
 5333SOL    HW227636   2.028   2.099  15.872 -0.8877  1.5693 -2.1322
 5334SOL     OW27637   1.310   3.623   2.446  0.1431  0.6051 -0.0710
 5334SOL    HW127638   1.237   3.655   2.498 -0.1600  0.7796 -0.6017
 5334SOL    HW227639   1.317   3.535   2.483  0.7095  1.3556  1.5647
 5335SOL     OW27640   0.303   3.831   8.099  0.5758 -0.3512 -0.3650
 5335SOL    HW127641   0.242   3.798   8.033  0.6537 -4.3755  1.6181
 5335SOL    HW227642   0.377   3.808   8.043  1.7307  0.1167  0.9734
 5336SOL     OW27643   3.564   2.368   8.854  0.6284 -0.4203  0.5067
 5336SOL    HW127644   3.608   2.284   8.849  1.6032 -0.0138  2.2650
 5336SOL    HW227645   3.606   2.440   8.806 -1.4679  0.2299 -0.3551
 5337SOL     OW27646   2.056   0.142   8.744  0.1167 -0.5789 -0.5762
 5337SOL    HW127647   1.993   0.213   8.730  2.2921  1.1526 -1.4452
 5337SOL    HW227648   2.098   0.176   8.823 -2.2083  2.1892 -0.5042
 5338SOL     OW27649   0.606   2.822   1.637  0.1848  0.0078  0.3344
 5338SOL    HW127650   0.697   2.824   1.608  0.0865 -2.0272 -0.1098
 5338SOL    HW227651   0.612   2.873   1.718  3.7853 -1.4458  0.9808
 5339SOL     OW27652   1.222   3.468   2.709  0.3153  0.0928  0.3358
 5339SOL    HW127653   1.205   3.552   2.751  0.5443  0.2317  0.1521
 5339SOL    HW227654   1.134   3.430   2.703  0.1905  0.2973  0.8655
 5340SOL     OW27655   2.428   2.407   7.601 -0.6283 -0.5796  0.3777
 5340SOL    HW127656   2.386   2.489   7.575  2.1363  1.4862  2.4766
 5340SOL    HW227657   2.497   2.407   7.535 -0.3660  2.3961  0.6597
 5341SOL     OW27658   3.570   0.073  13.148 -0.2504  0.9691  0.8227
 5341SOL    HW127659   3.661   0.060  13.122 -0.6094  0.4146 -0.1612
 5341SOL    HW227660   3.574   0.036  13.236  0.9238  0.9030  0.7339
 5342SOL     OW27661   3.111   1.291  14.944 -0.1172  0.1537 -0.1832
 5342SOL    HW127662   3.206   1.295  14.953 -0.3415 -0.1593  2.2007
 5342SOL    HW227663   3.111   1.287  14.848  2.4249  0.5186 -0.1996
 5343SOL     OW27664   2.406   4.266   8.172  0.0680  0.2254  0.1022
 5343SOL    HW127665   2.332   4.217   8.135 -1.0528  0.4818  1.9916
 5343SOL    HW227666   2.479   4.208   8.155 -1.0498 -0.0807 -3.8276
 5344SOL     OW27667   0.394   1.374  10.512 -0.3257  0.4369 -0.2234
 5344SOL    HW127668   0.377   1.467  10.496 -2.0981 -0.2162 -2.2131
 5344SOL    HW227669   0.429   1.374  10.601  2.5017 -0.6913 -1.3276
 5345SOL     OW27670   2.658   0.229   7.731  0.6874 -0.0988 -0.3677
 5345SOL    HW127671   2.607   0.150   7.714 -2.7265  1.7841  1.2136
 5345SOL    HW227672   2.590   0.293   7.749  0.5391 -0.2965 -0.2306
 5346SOL     OW27673   4.462   0.648   1.624  1.0805  0.3241 -0.0544
 5346SOL    HW127674   4.489   0.639   1.715  1.2942  0.2130 -0.1300
 5346SOL    HW227675   4.368   0.670   1.625  0.8295 -0.6049 -1.9930
 5347SOL     OW27676   2.871   3.363   9.533  0.8014  0.1511  0.0086
 5347SOL    HW127677   2.825   3.447   9.533 -0.3545 -0.4715 -2.0813
 5347SOL    HW227678   2.910   3.369   9.446  6.5513  0.1196  2.6331
 5348SOL     OW27679   3.001   2.028   6.421  0.3141 -0.1593  0.1312
 5348SOL    HW127680   2.959   1.999   6.340 -0.2612  0.5915  0.1618
 5348SOL    HW227681   3.026   1.942   6.456  1.4736  0.9174  1.9450
 5349SOL     OW27682   1.336   3.326  13.870  0.1289 -0.4491  0.7322
 5349SOL    HW127683   1.395   3.261  13.908 -0.3104 -1.3324 -0.0905
 5349SOL    HW227684   1.271   3.337  13.939 -0.6082  0.7192 -0.1558
 5350SOL     OW27685   3.133   1.349  17.697  0.4029 -0.0428  0.2442
 5350SOL    HW127686   3.100   1.395   0.016 -1.7497  0.6702 -1.1059
 5350SOL    HW227687   3.066   1.389  17.642  0.1467 -0.4372  0.2666
 5351SOL     OW27688   2.588   1.414   5.069  0.2809  0.6490 -0.0025
 5351SOL    HW127689   2.641   1.357   5.125  0.9082  1.1623 -0.0739
 5351SOL    HW227690   2.610   1.375   4.984 -1.0947 -1.3581  0.5620
 5352SOL     OW27691   1.827   0.729  10.066  0.1150  0.0466  0.2307
 5352SOL    HW127692   1.859   0.640  10.080  0.0659 -0.1653 -0.9338
 5352SOL    HW227693   1.733   0.715  10.057  0.8264 -3.3763 -2.1311
 5353SOL     OW27694   3.431   1.503  12.901 -0.0062  0.5948 -0.1561
 5353SOL    HW127695   3.471   1.490  12.815 -1.4383 -0.1702 -0.7215
 5353SOL    HW227696   3.374   1.578  12.884  1.8574  1.9851 -0.1997
 5354SOL     OW27697   3.700   3.418   3.234  0.2747 -0.0055  0.3353
 5354SOL    HW127698   3.687   3.339   3.182  0.8985  0.0215  0.1366
 5354SOL    HW227699   3.636   3.408   3.305  1.6760 -1.2045  1.4335
 5355SOL     OW27700   3.506   1.450   3.791 -0.4390  0.9283  0.2524
 5355SOL    HW127701   3.540   1.395   3.861  1.6685  0.5922 -0.9987
 5355SOL    HW227702   3.552   1.533   3.803  1.1518  0.0846  0.0065
 5356SOL     OW27703   3.924   2.017   4.603  0.1827  0.2088 -0.1823
 5356SOL    HW127704   3.927   1.998   4.509 -2.8092  1.0947 -0.4477
 5356SOL    HW227705   4.012   2.050   4.624 -0.6805  2.0001  0.6582
 5357SOL     OW27706   4.437   3.654   3.903 -0.2943  0.0921  0.2344
 5357SOL    HW127707   4.358   3.630   3.855 -1.3793  1.9866  1.1166
 5357SOL    HW227708   4.429   3.602   3.983  0.6047 -0.0644  0.2231
 5358SOL     OW27709   0.135   0.252   2.499 -0.1123 -0.1262 -0.1534
 5358SOL    HW127710   0.138   0.244   2.404  1.7638  1.2943 -0.2282
 5358SOL    HW227711   0.147   0.346   2.510  1.0349 -0.3469  0.4946
 5359SOL     OW27712   1.201   1.092   3.028  0.1356 -0.4348  0.3396
 5359SOL    HW127713   1.278   1.094   3.084 -1.1800  1.4752  2.0720
 5359SOL    HW227714   1.143   1.035   3.078 -0.3128 -0.7437 -0.5301
 5360SOL     OW27715   4.694   4.202   1.637 -0.6044 -0.3847 -0.3237
 5360SOL    HW127716   4.696   4.269   1.705 -2.7800  1.7242 -2.3497
 5360SOL    HW227717   4.608   4.210   1.596 -0.5777 -2.3175 -0.7798
 5361SOL     OW27718   3.839   3.916   2.933 -0.1413 -0.0806  0.1408
 5361SOL    HW127719   3.774   3.847   2.930 -0.7863  0.4987  0.7926
 5361SOL    HW227720   3.907   3.880   2.877 -0.1290 -0.0469  0.1337
 5362SOL     OW27721   0.508   2.812  15.005  0.3120  0.3880 -0.2075
 5362SOL    HW127722   0.547   2.898  15.018  1.4547  0.0278 -1.2190
 5362SOL    HW227723   0.520   2.815  14.910 -1.6107 -0.5269 -0.4705
 5363SOL     OW27724   4.691   1.576   2.836  0.1316 -0.2362  0.3639
 5363SOL    HW127725   4.701   1.627   2.755 -0.5863 -0.6862 -0.0129
 5363SOL    HW227726   0.040   1.582   2.870  0.4674  0.0519 -0.5661
 5364SOL     OW27727   3.443   3.238   2.445 -0.0181  0.5274 -0.0185
 5364SOL    HW127728   3.434   3.333   2.436  0.9129  0.5253 -1.0774
 5364SOL    HW227729   3.366   3.215   2.495  1.2069  0.4798  1.8502
 5365SOL     OW27730   0.829   0.412   1.942 -1.1202 -0.2368 -0.0401
 5365SOL    HW127731   0.766   0.343   1.964  0.4324 -1.6343 -0.0071
 5365SOL    HW227732   0.894   0.375   1.882  0.0839  0.2146  0.9913
 5366SOL     OW27733   1.876   1.316   9.000 -0.8046  0.1038 -0.1834
 5366SOL    HW127734   1.832   1.374   8.938 -1.0039  0.5806  0.4118
 5366SOL    HW227735   1.873   1.366   9.082 -0.6017  0.1656 -0.2135
 5367SOL     OW27736   0.976   3.178  10.540  0.0194 -0.0997 -0.1780
 5367SOL    HW127737   0.956   3.084  10.533  0.4548 -0.2989  1.1705
 5367SOL    HW227738   0.893   3.220  10.562  1.2036  1.1639  1.8341
 5368SOL     OW27739   1.975   0.322   6.498 -0.0948  0.4348 -0.1825
 5368SOL    HW127740   2.055   0.371   6.518 -0.1055  0.1984  0.4131
 5368SOL    HW227741   2.001   0.232   6.518 -1.4778  0.6031  2.3521
 5369SOL     OW27742   3.727   0.561   5.642 -0.2845 -0.0848  0.0455
 5369SOL    HW127743   3.760   0.649   5.659  1.4786 -0.7100 -0.1334
 5369SOL    HW227744   3.641   0.560   5.683 -0.5220 -2.4384 -0.4821
 5370SOL     OW27745   0.794   4.391  12.548 -0.5330  0.2404  0.0643
 5370SOL    HW127746   0.818   4.398  12.641  2.2358 -0.1787 -0.6077
 5370SOL    HW227747   0.788   4.296  12.544  0.5803  0.1305  0.6794
 5371SOL     OW27748   3.307   0.457   7.942  0.3411 -0.6050 -0.0735
 5371SOL    HW127749   3.239   0.421   7.998 -0.0622  1.1570  0.5614
 5371SOL    HW227750   3.294   0.550   7.923  1.3796 -0.5680 -0.6252
 5372SOL     OW27751   4.170   3.479   8.246 -0.8714  0.0808  0.3407
 5372SOL    HW127752   4.132   3.542   8.184 -0.4312 -1.4901 -1.5350
 5372SOL    HW227753   4.096   3.445   8.297 -1.5874  1.2548  0.1017
 5373SOL     OW27754   3.432   3.350   9.161  0.1111  0.4317 -0.0629
 5373SOL    HW127755   3.475   3.357   9.245 -1.1484  2.2474  0.4303
 5373SOL    HW227756   3.502   3.343   9.096 -0.5976  0.5584 -0.8415
 5374SOL     OW27757   2.656   4.602   7.145 -0.2451 -0.6503 -0.0952
 5374SOL    HW127758   2.636   4.555   7.064  1.6675 -0.8001 -0.4790
 5374SOL    HW227759   2.571   4.585   7.185 -1.0374  1.8204 -0.7920
 5375SOL     OW27760   3.625   0.863   8.838  0.0910  0.3816 -0.1524
 5375SOL    HW127761   3.578   0.793   8.793 -0.9547  0.4300  0.8509
 5375SOL    HW227762   3.570   0.865   8.917 -2.7034  0.4460 -2.1087
 5376SOL     OW27763   1.433   1.032   4.494 -0.0873 -0.6016 -0.5746
 5376SOL    HW127764   1.421   1.126   4.510 -0.6567 -1.1683  2.4436
 5376SOL    HW227765   1.528   1.025   4.489  0.0314 -0.8726  2.0981
 5377SOL     OW27766   2.776   1.279  13.273  0.2599  0.2766  0.5777
 5377SOL    HW127767   2.771   1.318  13.360  0.3499  0.1344  0.6474
 5377SOL    HW227768   2.827   1.203  13.301  1.0185 -0.1587 -1.9311
 5378SOL     OW27769   3.269   4.668   7.594 -0.3038  0.4403 -0.1882
 5378SOL    HW127770   3.204   4.665   7.524 -1.8872 -0.3174  1.3066
 5378SOL    HW227771   3.244   4.592   7.647  2.5660 -1.0284 -0.9139
 5379SOL     OW27772   0.722   0.643   8.060 -0.0663  1.0381  0.5270
 5379SOL    HW127773   0.631   0.631   8.032  0.3583 -0.0019 -0.3883
 5379SOL    HW227774   0.764   0.564   8.025  0.9046  1.3906  0.9046
 5380SOL     OW27775   3.954   2.115   6.868 -0.6683  0.5579 -0.4429
 5380SOL    HW127776   3.887   2.146   6.929 -1.2579 -2.1849  0.2757
 5380SOL    HW227777   4.015   2.060   6.917 -0.2788  0.3271 -1.1791
 5381SOL     OW27778   1.757   2.504   5.052 -0.1931  0.5182  0.5656
 5381SOL    HW127779   1.817   2.571   5.020 -0.2297  0.0298 -0.5065
 5381SOL    HW227780   1.685   2.509   4.990  0.3863  2.1036  0.0281
 5382SOL     OW27781   4.494   1.574   8.898 -0.5628 -0.3410 -0.3144
 5382SOL    HW127782   4.587   1.554   8.909 -0.7184  1.0141  3.6997
 5382SOL    HW227783   4.489   1.666   8.924  1.6316 -0.0972 -0.7601
 5383SOL     OW27784   1.358   0.267   8.648 -0.2861 -0.2575  0.1287
 5383SOL    HW127785   1.344   0.360   8.634  0.7691 -0.3062 -1.1542
 5383SOL    HW227786   1.385   0.233   8.563  0.1600  1.3266 -0.3546
 5384SOL     OW27787   1.877   2.083   8.682  0.6449 -0.6060  0.1679
 5384SOL    HW127788   1.870   2.178   8.687  0.7938 -0.6207  0.6876
 5384SOL    HW227789   1.926   2.071   8.763  1.4748 -1.5494 -0.4736
 5385SOL     OW27790   0.563   3.016  12.171  0.3697 -0.2078  0.5315
 5385SOL    HW127791   0.536   2.976  12.253 -0.4036  0.0716  0.4178
 5385SOL    HW227792   0.593   3.102  12.200 -0.7097  0.6685 -0.9046
 5386SOL     OW27793   1.868   3.257   2.072 -0.2306  0.4568  0.3621
 5386SOL    HW127794   1.930   3.257   1.999 -1.6424  2.0867 -0.8376
 5386SOL    HW227795   1.849   3.163   2.080  3.2819 -0.3692 -1.1754
 5387SOL     OW27796   0.933   1.006   6.963 -0.6147  0.3446 -0.0375
 5387SOL    HW127797   0.956   1.092   6.928  2.7304 -0.4930  0.1298
 5387SOL    HW227798   0.877   1.028   7.038  0.4330 -0.4622  0.9932
 5388SOL     OW27799   1.514   4.738  17.163 -0.0477  0.6951 -0.0490
 5388SOL    HW127800   1.558   0.059  17.223  1.0307 -1.1803  1.0682
 5388SOL    HW227801   1.596   4.699  17.131 -0.8321 -0.1414 -1.0246
 5389SOL     OW27802   4.234   1.875   3.846 -0.4158  0.2354 -0.2824
 5389SOL    HW127803   4.214   1.829   3.928 -3.7889  1.8941 -0.1786
 5389SOL    HW227804   4.290   1.945   3.878 -1.1059  1.3444 -1.5035
 5390SOL     OW27805   4.582   1.940   1.296 -0.1435 -0.0536  0.4973
 5390SOL    HW127806   4.588   2.031   1.269  0.9243 -0.3047 -0.0966
 5390SOL    HW227807   4.541   1.942   1.383 -0.4588  0.6966  0.3273
 5391SOL     OW27808   3.760   3.103   8.490  0.1167  0.5142  0.3198
 5391SOL    HW127809   3.739   3.123   8.582  1.5902  0.6887  0.6213
 5391SOL    HW227810   3.698   3.149   8.433  0.9211  1.7096  0.4131
 5392SOL     OW27811   3.542   4.621   9.409 -0.1333  0.3191 -0.5048
 5392SOL    HW127812   3.502   4.542   9.444  1.2470  0.9245  2.3870
 5392SOL    HW227813   3.622   4.586   9.368  0.6034  2.2107 -0.6823
 5393SOL     OW27814   3.655   1.983  11.798  0.0196 -0.2204 -0.4740
 5393SOL    HW127815   3.670   2.031  11.716  3.5020 -1.2534 -0.4689
 5393SOL    HW227816   3.743   1.960  11.829 -0.3019  0.8591  1.2843
 5394SOL     OW27817   4.368   4.094   4.077 -0.7372  0.8577 -1.1150
 5394SOL    HW127818   4.348   4.176   4.033 -1.9173  1.1038 -0.1068
 5394SOL    HW227819   4.459   4.084   4.048  0.2119  0.3119  2.0154
 5395SOL     OW27820   0.061   1.212   8.280 -0.0878  0.4183 -0.1704
 5395SOL    HW127821   4.728   1.204   8.219 -0.3301  0.2226  0.1461
 5395SOL    HW227822   0.019   1.190   8.364  0.7160  1.4846  0.5047
 5396SOL     OW27823   4.053   2.625   5.309  0.0046  0.5189 -0.5865
 5396SOL    HW127824   3.978   2.597   5.361 -0.0429  1.1784 -0.2873
 5396SOL    HW227825   4.109   2.665   5.376  3.5743 -1.7996 -2.1764
 5397SOL     OW27826   1.989   2.329   7.080  0.5164  0.0743 -0.5435
 5397SOL    HW127827   1.919   2.389   7.057 -0.6635 -0.5903  1.3189
 5397SOL    HW227828   1.989   2.327   7.176 -3.3977  0.2477 -0.5515
 5398SOL     OW27829   1.719   3.917   5.163 -0.5641 -0.2906 -0.0108
 5398SOL    HW127830   1.731   3.968   5.083 -0.5435 -1.5141 -0.7917
 5398SOL    HW227831   1.628   3.897   5.141  0.2248 -0.6487 -3.0566
 5399SOL     OW27832   0.584   3.521   4.317 -0.0812 -0.0824 -0.1949
 5399SOL    HW127833   0.570   3.532   4.411 -2.1632  1.7580 -0.7149
 5399SOL    HW227834   0.598   3.614   4.297 -1.0175 -0.3982 -2.2954
 5400SOL     OW27835   4.359   0.251   5.105 -0.5581 -0.2520  0.3648
 5400SOL    HW127836   4.328   0.269   5.193  0.2356  0.4421  0.4887
 5400SOL    HW227837   4.302   0.307   5.053 -0.0037 -0.4256 -0.4322
 5401SOL     OW27838   0.791   4.223   1.393 -0.2255  0.3350  0.0643
 5401SOL    HW127839   0.832   4.151   1.345  0.4595 -0.0928  1.2719
 5401SOL    HW227840   0.725   4.257   1.333  1.0886  0.6547 -1.1749
 5402SOL     OW27841   1.331   1.021   4.221  0.0135  0.4055 -0.0529
 5402SOL    HW127842   1.300   1.063   4.301  0.4286 -0.2029  0.4219
 5402SOL    HW227843   1.396   1.086   4.195  1.5383 -1.9158 -1.9643
 5403SOL     OW27844   2.220   2.012   8.642 -0.0375  0.3903 -0.2910
 5403SOL    HW127845   2.167   2.067   8.698  0.2559 -0.9690  1.3480
 5403SOL    HW227846   2.157   1.970   8.583 -1.2290  0.0997  1.2020
 5404SOL     OW27847   1.095   1.079   8.276 -0.1664  0.0695 -0.3672
 5404SOL    HW127848   1.122   1.168   8.256  0.6798 -0.6406 -2.4298
 5404SOL    HW227849   1.011   1.080   8.230 -0.8123 -0.6657  0.7911
 5405SOL     OW27850   4.283   1.695   2.794 -0.0093  0.5717  0.3317
 5405SOL    HW127851   4.241   1.728   2.715 -0.1508 -0.6004 -0.0772
 5405SOL    HW227852   4.355   1.652   2.748 -0.7727  0.1028 -0.4169
 5406SOL     OW27853   1.764   3.970  11.358  0.2542 -1.0129 -0.6849
 5406SOL    HW127854   1.768   3.959  11.263  1.7648  2.6610 -1.0566
 5406SOL    HW227855   1.785   3.880  11.382  0.7556 -0.9006 -0.6893
 5407SOL     OW27856   4.175   0.644   5.212 -0.4163 -0.7438 -0.3150
 5407SOL    HW127857   4.105   0.642   5.147 -0.7977  1.0266  0.0440
 5407SOL    HW227858   4.142   0.582   5.277  0.9612  0.5667  1.6319
 5408SOL     OW27859   4.355   0.635   6.668 -0.1432 -0.7762 -0.3480
 5408SOL    HW127860   4.429   0.693   6.651  1.1399 -1.3100  3.3810
 5408SOL    HW227861   4.391   0.547   6.661  0.3934 -0.4595 -1.6244
 5409SOL     OW27862   3.760   2.016   3.227  0.2094  0.4086  0.1243
 5409SOL    HW127863   3.814   1.976   3.159 -0.2026  1.5598 -0.8855
 5409SOL    HW227864   3.833   2.055   3.274 -0.6188  5.2143 -2.5809
 5410SOL     OW27865   2.651   1.293   7.553  0.4070 -0.2320 -0.1827
 5410SOL    HW127866   2.666   1.251   7.469 -1.2437 -0.6762 -0.2543
 5410SOL    HW227867   2.729   1.348   7.564  0.0122  0.2797  0.0788
 5411SOL     OW27868   2.419   4.007  11.085  0.5458  0.2102  0.1138
 5411SOL    HW127869   2.449   3.989  11.174 -0.2062 -1.0861  0.0933
 5411SOL    HW227870   2.499   4.041  11.044  2.0504 -1.5689  1.5410
 5412SOL     OW27871   0.010   1.743   1.918  0.1689  0.3796  0.1404
 5412SOL    HW127872   0.067   1.728   1.993  0.4382  0.2491 -0.0909
 5412SOL    HW227873   4.697   1.812   1.958  0.6203  0.2342  0.9810
 5413SOL     OW27874   4.398   1.858  11.384  0.1667 -0.5272  0.0477
 5413SOL    HW127875   4.345   1.853  11.304  1.5021 -0.5068 -0.8390
 5413SOL    HW227876   4.459   1.786  11.369 -0.2711 -0.6700 -1.1032
 5414SOL     OW27877   0.344   0.092   7.372  0.0552 -0.0721 -0.1631
 5414SOL    HW127878   0.397   0.136   7.438 -0.2522 -0.6151  0.4392
 5414SOL    HW227879   0.358   4.740   7.392  0.9272  0.4967  1.7480
 5415SOL     OW27880   3.572   0.526  16.442 -0.1730 -0.2148 -0.4079
 5415SOL    HW127881   3.607   0.439  16.422 -1.3571 -0.7770 -0.0573
 5415SOL    HW227882   3.534   0.553  16.358 -3.3260  0.4014  1.2023
 5416SOL     OW27883   3.920   3.573   0.407  0.3696  0.8269 -0.2468
 5416SOL    HW127884   3.924   3.554   0.313 -0.1516  0.7851 -0.2586
 5416SOL    HW227885   3.831   3.608   0.404  0.5310  1.3118  0.4989
 5417SOL     OW27886   3.670   2.231   2.229 -0.2558  0.1592  0.5810
 5417SOL    HW127887   3.651   2.272   2.145 -2.0598 -0.8504  0.5068
 5417SOL    HW227888   3.584   2.212   2.268 -1.3482 -1.6907 -2.7329
 5418SOL     OW27889   1.348   4.022   4.267 -0.0315 -0.1882 -0.1020
 5418SOL    HW127890   1.369   3.929   4.258  2.5942  0.2786  1.3889
 5418SOL    HW227891   1.318   4.023   4.358  0.5054  1.9129  0.0516
 5419SOL     OW27892   0.490   2.342  11.006  0.0690 -0.1590  0.8756
 5419SOL    HW127893   0.583   2.335  11.030  0.2187  2.5979  1.0853
 5419SOL    HW227894   0.464   2.423  11.050  0.1859  0.5229 -0.3318
 5420SOL     OW27895   4.363   4.252   7.166 -0.4293  0.0442  0.0768
 5420SOL    HW127896   4.395   4.163   7.151  1.3886  1.2500 -3.2720
 5420SOL    HW227897   4.407   4.281   7.246 -0.8319  0.1175  0.2737
 5421SOL     OW27898   2.115   3.802  10.888  0.4027 -0.0156  0.6158
 5421SOL    HW127899   2.087   3.893  10.887 -0.3110 -0.2481 -0.2632
 5421SOL    HW227900   2.044   3.752  10.847  0.9741 -0.4020  0.0875
 5422SOL     OW27901   1.325   4.592  12.208 -0.2515 -0.2463 -0.6718
 5422SOL    HW127902   1.283   4.507  12.218  0.1336 -0.4883 -1.0918
 5422SOL    HW227903   1.246   4.647  12.204 -0.9252 -1.2131 -0.5808
 5423SOL     OW27904   3.313   2.689   4.998 -0.0374  0.3088  0.3947
 5423SOL    HW127905   3.323   2.705   4.904  0.3544 -2.4877 -0.0194
 5423SOL    HW227906   3.378   2.753   5.029 -0.9074  1.1349  0.5113
 5424SOL     OW27907   4.579   3.170   7.267 -0.2405 -0.2632  0.3907
 5424SOL    HW127908   4.505   3.113   7.288  0.7554 -2.7151 -2.8335
 5424SOL    HW227909   4.616   3.135   7.186  2.3348 -0.3544  1.6263
 5425SOL     OW27910   1.002   3.144   7.698  0.0228 -0.1299 -0.3232
 5425SOL    HW127911   0.930   3.084   7.721  2.3379 -3.2880 -1.3119
 5425SOL    HW227912   0.955   3.223   7.724  0.6018  0.8277 -2.1910
 5426SOL     OW27913   1.950   3.638  11.102  0.6446 -0.4475 -0.0966
 5426SOL    HW127914   1.888   3.569  11.079 -0.9979  0.5948  1.2875
 5426SOL    HW227915   2.002   3.658  11.024  1.0562  1.1002  0.5658
 5427SOL     OW27916   2.394   4.655   0.014 -0.0211 -0.5176 -0.1645
 5427SOL    HW127917   2.380   4.618  17.684 -3.8509 -2.6381  1.3246
 5427SOL    HW227918   2.437   4.737  17.750 -0.0705  0.2641  2.6967
 5428SOL     OW27919   2.897   2.725   2.013 -0.0618 -0.2636  0.4369
 5428SOL    HW127920   2.982   2.686   2.036 -0.8569 -2.3550 -0.1235
 5428SOL    HW227921   2.921   2.807   1.971 -1.4873 -0.3859 -0.5961
 5429SOL     OW27922   4.536   3.970   2.692  0.7708 -0.4490  0.1414
 5429SOL    HW127923   4.562   4.030   2.762  1.6848 -2.3054  1.3740
 5429SOL    HW227924   4.583   3.888   2.703  0.0094 -0.8461  0.4826
 5430SOL     OW27925   3.341   4.321  11.468  0.1237 -0.0181  0.5115
 5430SOL    HW127926   3.289   4.253  11.512 -0.8059  1.8994  2.4351
 5430SOL    HW227927   3.339   4.378  11.545 -2.6265 -0.0580  0.4694
 5431SOL     OW27928   2.173   3.919   3.529 -0.1374  0.3573  0.2509
 5431SOL    HW127929   2.221   3.841   3.555 -0.2256 -0.4103 -1.9120
 5431SOL    HW227930   2.243   3.982   3.509  0.3562 -0.6404 -1.2004
 5432SOL     OW27931   3.083   1.180  10.191 -0.2932 -0.6432 -0.5948
 5432SOL    HW127932   3.159   1.123  10.209 -0.4787 -1.1058 -1.2750
 5432SOL    HW227933   3.048   1.191  10.279  1.2572 -1.1208  0.0920
 5433SOL     OW27934   0.687   2.622   5.684 -0.4946  0.0905  0.5283
 5433SOL    HW127935   0.659   2.562   5.614  0.4077 -2.7446  2.6043
 5433SOL    HW227936   0.760   2.675   5.653  0.5251 -1.2617  0.6277
 5434SOL     OW27937   4.101   2.566  15.260 -0.1410  0.3716  0.1798
 5434SOL    HW127938   4.065   2.500  15.318 -1.2010  0.9448  0.1663
 5434SOL    HW227939   4.032   2.588  15.198  1.1601  0.7200 -1.1541
 5435SOL     OW27940   0.121   4.208  13.582 -0.1296  0.3224  0.4125
 5435SOL    HW127941   0.062   4.156  13.638  1.5654 -1.8680  0.1655
 5435SOL    HW227942   0.070   4.239  13.507 -1.0612 -1.3768  0.3444
 5436SOL     OW27943   2.599   4.073   8.062  0.2868  0.0849 -0.7386
 5436SOL    HW127944   2.693   4.089   8.062 -0.3588  3.8948 -0.6329
 5436SOL    HW227945   2.583   4.104   7.973 -2.9729  3.7511  1.1193
 5437SOL     OW27946   0.778   3.350   2.260  0.5875 -0.1391  0.4898
 5437SOL    HW127947   0.862   3.393   2.244  0.8439 -0.4860  0.9258
 5437SOL    HW227948   0.721   3.425   2.241  0.5164 -0.3847 -0.2642
 5438SOL     OW27949   2.761   3.020   4.678 -0.0276  0.0495  0.4189
 5438SOL    HW127950   2.744   3.099   4.626  1.6617  1.7873  2.4934
 5438SOL    HW227951   2.792   3.059   4.760 -1.6353 -2.0607  2.0282
 5439SOL     OW27952   2.677   2.667   0.027  0.4740 -0.0627 -0.1056
 5439SOL    HW127953   2.765   2.694   0.052  0.3895  1.2668 -1.2391
 5439SOL    HW227954   2.684   2.583  17.739  0.7735 -1.6201  2.8482
 5440SOL     OW27955   1.349   2.939   4.327  0.2957 -0.2282 -0.6150
 5440SOL    HW127956   1.395   2.939   4.243  0.9443  1.3107 -0.2683
 5440SOL    HW227957   1.409   2.887   4.380 -0.1446  0.4981  0.6045
 5441SOL     OW27958   1.340   1.072   1.616  0.0884 -0.2111  0.4050
 5441SOL    HW127959   1.412   1.069   1.679 -0.7995  0.0893  1.4457
 5441SOL    HW227960   1.346   0.998   1.555 -0.9662 -1.3468  1.6912
 5442SOL     OW27961   2.912   0.758   4.070 -0.4720 -0.2316  0.6012
 5442SOL    HW127962   2.958   0.836   4.041 -1.9655  0.6780  0.6978
 5442SOL    HW227963   2.818   0.777   4.060  0.2872  1.9648 -2.3064
 5443SOL     OW27964   2.789   3.476   3.637 -0.6091 -1.0132  0.5162
 5443SOL    HW127965   2.703   3.484   3.594 -0.0931 -0.4637 -0.4001
 5443SOL    HW227966   2.814   3.564   3.666  1.7750 -1.2092 -0.9560
 5444SOL     OW27967   0.823   1.408   2.101  0.0786  0.2821 -0.3557
 5444SOL    HW127968   0.917   1.405   2.119  0.3519  2.4771 -1.3440
 5444SOL    HW227969   0.794   1.476   2.040 -2.4514 -0.7967 -0.3431
 5445SOL     OW27970   3.877   2.396   6.820  0.1769 -0.0957  0.6026
 5445SOL    HW127971   3.879   2.311   6.864 -0.1483  0.1062  1.0125
 5445SOL    HW227972   3.855   2.366   6.732 -0.5373 -0.4451  0.8979
 5446SOL     OW27973   3.474   0.212   0.174  0.9712 -0.2046 -0.3944
 5446SOL    HW127974   3.514   0.136   0.216  0.5348 -0.2464 -0.0536
 5446SOL    HW227975   3.523   0.280   0.220  2.1800 -1.3909  0.0752
 5447SOL     OW27976   0.030   2.443  13.722  0.8278 -0.5403 -0.7283
 5447SOL    HW127977   0.091   2.385  13.768  1.1670  1.7368  1.7302
 5447SOL    HW227978   0.025   2.402  13.636 -2.7048 -1.8432  0.0577
 5448SOL     OW27979   3.659   0.479  16.924 -0.3705  0.4145 -0.0007
 5448SOL    HW127980   3.581   0.438  16.887 -0.8570 -0.1804  1.6807
 5448SOL    HW227981   3.717   0.404  16.911 -1.8602 -0.9183  1.0852
 5449SOL     OW27982   3.643   1.529   6.023  0.3428  0.5037 -0.2464
 5449SOL    HW127983   3.705   1.501   6.090  0.4202 -0.2224 -0.6202
 5449SOL    HW227984   3.609   1.440   6.013  0.3796  0.7204 -2.3838
 5450SOL     OW27985   0.265   0.270   1.700  0.3734  0.3033  0.0417
 5450SOL    HW127986   0.238   0.327   1.627  0.2000  0.5023  0.2623
 5450SOL    HW227987   0.331   0.326   1.741 -0.8517 -0.2930  2.7917
 5451SOL     OW27988   1.229   3.983   5.863  0.0632 -0.1118 -0.2343
 5451SOL    HW127989   1.170   4.052   5.832 -0.6470 -0.5713  0.0891
 5451SOL    HW227990   1.170   3.911   5.843  0.3869 -0.4198 -0.0729
 5452SOL     OW27991   0.301   3.363   2.337  0.0859  0.0555  1.1542
 5452SOL    HW127992   0.360   3.403   2.401  0.4730 -0.8074  1.3370
 5452SOL    HW227993   0.217   3.370   2.383 -0.8330 -1.9780 -0.2126
 5453SOL     OW27994   2.817   2.424  12.324 -0.4054  0.2359  0.3705
 5453SOL    HW127995   2.804   2.409  12.418 -0.1326  4.0530  1.0190
 5453SOL    HW227996   2.911   2.443  12.314 -0.3817  0.2386  0.5941
 5454SOL     OW27997   2.781   2.911  17.397  0.0414 -0.2656 -0.6448
 5454SOL    HW127998   2.841   2.843  17.429  1.9078  2.2083  1.0489
 5454SOL    HW227999   2.768   2.888  17.305  3.8440  0.5900 -1.4010
 5455SOL     OW28000   0.657   2.000   6.968 -0.0101  0.0946  0.3406
 5455SOL    HW128001   0.668   2.080   7.019 -0.3578  1.5154 -1.7647
 5455SOL    HW228002   0.717   1.937   7.007 -0.4977 -1.7170 -1.8426
 5456SOL     OW28003   1.412   3.840   4.507  0.0544  0.4958  0.2037
 5456SOL    HW128004   1.486   3.841   4.568 -0.2146  0.3338  0.5302
 5456SOL    HW228005   1.342   3.815   4.567 -0.1230 -0.1261 -0.2622
 5457SOL     OW28006   0.641   2.919   6.627  0.4173 -0.0157 -0.1905
 5457SOL    HW128007   0.565   2.957   6.583  1.2011  1.3159 -0.3932
 5457SOL    HW228008   0.638   2.826   6.607  1.0077 -0.1059  0.1276
 5458SOL     OW28009   4.377   1.174   4.850  0.0798  0.4590 -0.0843
 5458SOL    HW128010   4.399   1.257   4.893  0.1094  0.5042 -0.1870
 5458SOL    HW228011   4.467   1.144   4.845  0.3161  1.4012 -1.4500
 5459SOL     OW28012   1.687   3.751  13.069 -0.2008 -0.0476  0.0560
 5459SOL    HW128013   1.767   3.796  13.095  1.1542 -1.3682 -1.8308
 5459SOL    HW228014   1.632   3.757  13.148  1.5862 -0.7264  1.3581
 5460SOL     OW28015   0.932   4.455  12.324 -0.2304 -0.3107  0.5489
 5460SOL    HW128016   0.886   4.423  12.402 -0.1210  2.8571  1.9240
 5460SOL    HW228017   0.997   4.385  12.329 -0.8263 -0.7716  1.9256
 5461SOL     OW28018   2.166   0.627  15.113 -0.1047  0.3270  0.3593
 5461SOL    HW128019   2.170   0.698  15.177  0.7397  0.9435 -0.3919
 5461SOL    HW228020   2.159   0.693  15.045 -2.0893  2.2986  2.4765
 5462SOL     OW28021   4.173   1.144   6.683  0.0052 -0.8705  0.9825
 5462SOL    HW128022   4.253   1.121   6.636 -0.7963  1.0148 -1.2633
 5462SOL    HW228023   4.110   1.077   6.657 -0.4707 -0.5416  1.2797
 5463SOL     OW28024   2.038   3.213   1.358 -0.7289  0.6315 -0.3112
 5463SOL    HW128025   2.059   3.120   1.365 -0.4419  0.5511 -2.3823
 5463SOL    HW228026   1.942   3.205   1.360 -0.5684 -0.9521  0.6845
 5464SOL     OW28027   2.251   4.630   4.411  0.0854 -0.5100  0.4513
 5464SOL    HW128028   2.313   4.629   4.338  0.7794 -1.8601  1.0710
 5464SOL    HW228029   2.184   4.568   4.381 -0.6462  1.0025 -1.0850
 5465SOL     OW28030   2.624   0.121  15.038  0.1768 -0.7728 -0.3938
 5465SOL    HW128031   2.680   0.193  15.009  0.9022 -1.3027 -0.2947
 5465SOL    HW228032   2.537   0.162  15.031 -0.7372 -2.5410  0.7908
 5466SOL     OW28033   3.125   4.364   5.731 -0.0091 -0.9286 -0.1916
 5466SOL    HW128034   3.121   4.412   5.648 -0.2736  1.0372  0.9406
 5466SOL    HW228035   3.165   4.424   5.795 -2.8529  1.0728 -0.2824
 5467SOL     OW28036   3.345   1.477   8.099 -0.2988  0.7290  0.0413
 5467SOL    HW128037   3.371   1.518   8.017  0.9577 -1.4671 -0.6678
 5467SOL    HW228038   3.362   1.549   8.160 -2.2010 -1.1104  2.7298
 5468SOL     OW28039   2.923   0.635   8.078 -0.0069 -0.0232 -0.2301
 5468SOL    HW128040   2.908   0.553   8.125 -1.1454  0.3140  0.0065
 5468SOL    HW228041   2.835   0.664   8.053 -0.6509 -2.6422 -1.0551
 5469SOL     OW28042   1.895   2.487  11.376  0.3068  0.4309 -0.4548
 5469SOL    HW128043   1.962   2.466  11.441 -1.4191 -0.8476  0.9416
 5469SOL    HW228044   1.824   2.511  11.436  1.1457  0.6117  0.4661
 5470SOL     OW28045   2.280   0.071   3.404 -0.1964 -0.5409 -0.3814
 5470SOL    HW128046   2.223   0.021   3.345  0.4626 -0.2334 -1.2801
 5470SOL    HW228047   2.242   0.158   3.417 -1.8601 -0.9588 -2.3921
 5471SOL     OW28048   3.269   3.492   0.399 -0.2975 -0.0478 -0.0625
 5471SOL    HW128049   3.289   3.443   0.479 -1.7617 -0.9142 -0.2316
 5471SOL    HW228050   3.198   3.437   0.365 -0.1863 -2.3862  3.4985
 5472SOL     OW28051   4.283   3.691   2.671  0.2700 -0.3295 -0.4254
 5472SOL    HW128052   4.263   3.785   2.664 -1.6790 -0.5706  1.9621
 5472SOL    HW228053   4.362   3.691   2.617  0.2451 -1.4014 -0.4571
 5473SOL     OW28054   2.451   2.342   3.684 -0.5705 -0.3279 -0.2119
 5473SOL    HW128055   2.503   2.294   3.620 -1.8141 -2.4961  0.4308
 5473SOL    HW228056   2.514   2.348   3.756 -3.0508 -1.5037  2.0767
 5474SOL     OW28057   4.431   2.027   4.741 -0.7865  0.1700 -0.2705
 5474SOL    HW128058   4.483   1.994   4.814 -3.0357 -1.4935  0.5975
 5474SOL    HW228059   4.421   1.947   4.689  2.5795 -0.3061 -0.2246
 5475SOL     OW28060   3.094   2.773   2.974 -0.4023 -0.0480 -0.5436
 5475SOL    HW128061   3.178   2.756   3.018 -0.3524 -0.9289 -0.9984
 5475SOL    HW228062   3.113   2.846   2.915  0.3680 -0.7683 -1.1811
 5476SOL     OW28063   0.380   4.543  12.107 -0.0641  0.4711 -0.4966
 5476SOL    HW128064   0.331   4.468  12.142 -0.1199  0.3714 -0.7951
 5476SOL    HW228065   0.451   4.539  12.171 -1.3178 -1.8068  0.7671
 5477SOL     OW28066   0.535   3.163   7.047  0.5426 -0.2011  0.2460
 5477SOL    HW128067   0.454   3.113   7.039  1.6535 -2.2655  1.9775
 5477SOL    HW228068   0.571   3.168   6.958 -1.8367 -0.0143 -0.7041
 5478SOL     OW28069   2.895   3.341   4.124 -0.2087 -0.2031  0.5445
 5478SOL    HW128070   2.920   3.276   4.058 -2.0441  1.2586 -1.5961
 5478SOL    HW228071   2.932   3.420   4.084  2.7455 -1.2559  1.1943
 5479SOL     OW28072   4.208   4.249   7.975 -0.1443 -0.5602 -0.6368
 5479SOL    HW128073   4.176   4.325   8.023 -1.2719 -1.8603  0.6843
 5479SOL    HW228074   4.290   4.294   7.952 -1.7545  2.7302  0.0834
 5480SOL     OW28075   0.825   0.295   2.573  0.2136  0.1589  0.0746
 5480SOL    HW128076   0.775   0.334   2.501  0.3017  2.5676  1.3118
 5480SOL    HW228077   0.860   0.367   2.626  1.5271 -1.1588  0.9975
 5481SOL     OW28078   1.333   2.840   5.356  0.4074 -0.6340 -0.0195
 5481SOL    HW128079   1.333   2.782   5.280 -0.9592 -0.5055 -0.1129
 5481SOL    HW228080   1.243   2.842   5.388 -0.4746 -0.6256 -2.5391
 5482SOL     OW28081   4.622   4.568   8.246  0.8329 -0.4588  0.2699
 5482SOL    HW128082   4.534   4.530   8.236  0.4477  0.4565  0.2522
 5482SOL    HW228083   4.620   4.567   8.341 -1.4586  0.0212  0.2369
 5483SOL     OW28084   4.295   3.802   8.049 -0.2204  0.1417 -0.6891
 5483SOL    HW128085   4.202   3.812   8.068  0.1733  1.1009  0.7282
 5483SOL    HW228086   4.330   3.891   8.061  0.3856 -0.1796 -0.0935
 5484SOL     OW28087   1.691   0.867  15.727 -0.0029  0.5964 -0.1802
 5484SOL    HW128088   1.736   0.784  15.740  1.0405  1.0345 -1.0016
 5484SOL    HW228089   1.604   0.829  15.714  1.0263 -1.5111 -0.8053
 5485SOL     OW28090   1.452   0.743   8.740 -0.3828 -1.0178  0.1244
 5485SOL    HW128091   1.510   0.777   8.808  0.8090  0.8504 -1.8372
 5485SOL    HW228092   1.390   0.815   8.728 -0.2522 -1.1537 -1.3622
 5486SOL     OW28093   2.220   3.051   5.156  0.5645 -0.4548  0.8722
 5486SOL    HW128094   2.280   3.011   5.093  0.2654 -2.3465  1.7665
 5486SOL    HW228095   2.247   3.142   5.152  1.1465 -0.6554  0.3132
 5487SOL     OW28096   2.484   1.327   8.751 -0.3987 -0.3128  0.0550
 5487SOL    HW128097   2.433   1.246   8.759 -1.0151  0.1579  0.8706
 5487SOL    HW228098   2.454   1.367   8.833  1.7150 -0.0331  0.6846
 5488SOL     OW28099   0.624   1.696   6.556 -0.3850 -0.4719  0.2838
 5488SOL    HW128100   0.701   1.744   6.525 -1.8969  1.3942 -0.5551
 5488SOL    HW228101   0.583   1.770   6.601  2.4127  1.9031 -1.0782
 5489SOL     OW28102   3.227   0.566  16.195 -0.0507  0.3850 -0.4341
 5489SOL    HW128103   3.197   0.577  16.285  0.6445 -1.8289  0.0813
 5489SOL    HW228104   3.195   0.642  16.147 -0.7446  1.6445  2.0496
 5490SOL     OW28105   2.078   0.123   1.942  0.3025  0.1683  0.6717
 5490SOL    HW128106   1.987   0.125   1.912 -0.1272  0.4874  2.0134
 5490SOL    HW228107   2.094   0.033   1.913 -0.1442  0.9450 -2.0086
 5491SOL     OW28108   3.463   0.790   7.845 -0.1104 -0.2964 -0.1871
 5491SOL    HW128109   3.425   0.831   7.767  2.6019 -0.9049 -1.8227
 5491SOL    HW228110   3.555   0.778   7.824 -0.1586  1.9777 -1.7046
 5492SOL     OW28111   1.585   2.798  17.745 -0.7534 -0.5422 -0.6239
 5492SOL    HW128112   1.642   2.860  17.699 -0.8585  0.0950  0.1093
 5492SOL    HW228113   1.645   2.724  17.750 -1.8159 -1.2125  1.8566
 5493SOL     OW28114   2.085   1.170  15.332  0.3203  0.3237  0.4309
 5493SOL    HW128115   2.010   1.207  15.287 -0.6812 -3.0396 -0.6693
 5493SOL    HW228116   2.155   1.231  15.308  0.8272  0.7359  2.8992
 5494SOL     OW28117   3.812   4.154  12.004  0.1686  0.6759  0.8470
 5494SOL    HW128118   3.811   4.071  11.957 -2.7668  1.2448 -0.1093
 5494SOL    HW228119   3.886   4.201  11.965  0.1584 -0.1640 -0.1868
 5495SOL     OW28120   1.113   3.922   5.447 -0.1935 -0.1242 -0.1603
 5495SOL    HW128121   1.024   3.939   5.480 -0.5621  0.9823 -1.7668
 5495SOL    HW228122   1.142   3.852   5.506 -2.0336  0.5861  1.5898
 5496SOL     OW28123   4.041   2.918   8.973  0.6728 -0.1554  0.3091
 5496SOL    HW128124   4.054   2.839   9.027 -0.8626 -1.3488 -1.0446
 5496SOL    HW228125   4.084   2.893   8.891  2.5873 -2.6925  2.0595
 5497SOL     OW28126   2.414   0.159  10.953 -0.1955  0.3190 -0.7323
 5497SOL    HW128127   2.463   0.220  10.898  0.0369  2.1247  1.4728
 5497SOL    HW228128   2.470   0.151  11.030 -1.0264 -0.1451 -0.1735
 5498SOL     OW28129   1.997   1.717  17.055  0.2751 -0.1563  0.3879
 5498SOL    HW128130   1.910   1.725  17.095  0.7388  2.2653  0.8794
 5498SOL    HW228131   1.994   1.634  17.007 -0.3770 -0.0068  0.1737
 5499SOL     OW28132   2.893   3.569  13.652  0.1597 -0.3346  0.1350
 5499SOL    HW128133   2.819   3.611  13.696 -1.2926 -0.9496 -1.7255
 5499SOL    HW228134   2.952   3.644  13.651  1.7474 -1.5624  0.0007
 5500SOL     OW28135   1.171   1.346   4.149  0.0876 -0.3510 -0.2510
 5500SOL    HW128136   1.092   1.386   4.186 -0.1023  0.0886 -1.1150
 5500SOL    HW228137   1.140   1.277   4.090 -0.0214 -0.1723 -0.4091
 5501SOL     OW28138   2.019   2.650   4.683  0.5001 -0.2901 -0.1042
 5501SOL    HW128139   2.032   2.732   4.732  1.8278  0.2254 -1.3285
 5501SOL    HW228140   2.058   2.655   4.596  1.0611  1.0901  0.2254
 5502SOL     OW28141   4.510   3.395  11.541  0.8036 -0.1283  0.1452
 5502SOL    HW128142   4.513   3.300  11.546  0.8099 -0.0865  0.9326
 5502SOL    HW228143   4.520   3.416  11.633  0.7523  0.4298  0.0248
 5503SOL     OW28144   2.887   3.769   2.580 -0.4300  0.0222  0.3112
 5503SOL    HW128145   2.861   3.806   2.495  1.5270 -2.4045 -1.3378
 5503SOL    HW228146   2.952   3.831   2.613 -0.4936  0.0057  0.4648
 5504SOL     OW28147   2.352   1.316   5.170  0.5751  0.2152 -0.0549
 5504SOL    HW128148   2.273   1.336   5.120  1.7225 -0.2592 -2.0390
 5504SOL    HW228149   2.424   1.354   5.120 -1.3337  0.0089 -2.9326
 5505SOL     OW28150   4.672   1.105  11.731 -0.0983 -0.4833 -0.3949
 5505SOL    HW128151   0.016   1.145  11.752 -1.1836  1.4178  0.4025
 5505SOL    HW228152   4.675   1.030  11.790  1.8886  0.3105  0.4889
 5506SOL     OW28153   1.040   0.916   1.806 -0.3268  0.2322 -0.3729
 5506SOL    HW128154   0.987   0.901   1.884  1.4731  2.5273  1.2890
 5506SOL    HW228155   1.125   0.935   1.845 -1.8692  4.1808  1.0860
 5507SOL     OW28156   3.408   1.251   5.713  0.3567  0.2274  0.3051
 5507SOL    HW128157   3.362   1.261   5.797  1.0886 -0.0536  0.7427
 5507SOL    HW228158   3.373   1.164   5.697 -0.6983  0.9728 -1.4386
 5508SOL     OW28159   1.613   2.341   7.636  0.3716  0.0139 -0.3218
 5508SOL    HW128160   1.543   2.278   7.654  0.6714  0.4512  2.3333
 5508SOL    HW228161   1.620   2.384   7.721  1.0848  0.9437 -0.8478
 5509SOL     OW28162   3.629   2.771   3.971 -0.4353 -0.0767 -0.0835
 5509SOL    HW128163   3.555   2.732   4.016  2.3272 -1.0569  3.5967
 5509SOL    HW228164   3.667   2.832   4.035  2.4420 -1.2665 -0.6433
 5510SOL     OW28165   0.918   0.526  11.817 -0.2134  0.2674  0.3215
 5510SOL    HW128166   0.908   0.439  11.779 -0.0037  0.2450  0.3181
 5510SOL    HW228167   0.982   0.501  11.884  0.2193 -0.4075 -0.3530
 5511SOL     OW28168   3.543   0.316   7.363 -0.4776  0.4504 -0.0550
 5511SOL    HW128169   3.562   0.238   7.312 -1.3711 -0.3760  0.8832
 5511SOL    HW228170   3.611   0.368   7.320  0.6975 -2.2273 -1.4123
 5512SOL     OW28171   0.259   2.530   4.269 -0.6097  0.4396 -0.5747
 5512SOL    HW128172   0.284   2.501   4.181 -0.8993  2.5572 -1.3547
 5512SOL    HW228173   0.183   2.475   4.288 -0.8649  2.1041  3.1067
 5513SOL     OW28174   2.628   1.635  16.511  0.7709  0.4152 -0.8152
 5513SOL    HW128175   2.553   1.585  16.545  0.5259  1.2673 -0.1145
 5513SOL    HW228176   2.606   1.726  16.528 -2.0971 -0.3981 -0.1025
 5514SOL     OW28177   0.438   0.346   4.774 -0.0192 -0.4015 -0.1655
 5514SOL    HW128178   0.497   0.273   4.754 -1.2959 -1.7883  1.0763
 5514SOL    HW228179   0.366   0.299   4.816  0.9999 -1.5770  0.2611
 5515SOL     OW28180   1.892   4.286   8.937 -0.3290 -0.2815 -0.4863
 5515SOL    HW128181   1.815   4.336   8.966  2.1245  2.3455  1.5604
 5515SOL    HW228182   1.935   4.348   8.878  1.8377 -0.1076  1.2622
 5516SOL     OW28183   2.633   1.953   7.915 -0.6082  0.2593  0.3088
 5516SOL    HW128184   2.570   1.933   7.984 -0.3056  0.8398  0.7498
 5516SOL    HW228185   2.704   1.908   7.960  0.1396  0.3520 -0.7962
 5517SOL     OW28186   4.425   2.149   2.929 -0.3625  0.1374  0.3691
 5517SOL    HW128187   4.384   2.215   2.873  1.6106  0.6663 -0.4540
 5517SOL    HW228188   4.511   2.190   2.938 -0.2830 -0.0841  0.6070
 5518SOL     OW28189   2.909   4.582   7.514  0.0311 -0.0370 -0.5364
 5518SOL    HW128190   2.833   4.578   7.456  1.5138 -1.3611 -2.3854
 5518SOL    HW228191   2.910   4.669   7.553 -0.4583  0.2425 -1.1362
 5519SOL     OW28192   4.583   1.637  13.011  0.3265 -0.1342 -0.4622
 5519SOL    HW128193   4.589   1.558  12.957 -2.7106 -0.6664 -0.0104
 5519SOL    HW228194   4.647   1.615  13.079  0.7089 -1.0225 -1.1193
 5520SOL     OW28195   1.220   1.696   2.762 -0.0951 -0.5819  0.1070
 5520SOL    HW128196   1.147   1.753   2.786 -1.2672 -2.1138  0.1956
 5520SOL    HW228197   1.195   1.609   2.792 -2.8247 -0.3798 -1.6108
 5521SOL     OW28198   4.439   1.630   2.138  0.2486  0.3158  0.1638
 5521SOL    HW128199   4.415   1.593   2.054 -0.8361  2.4843 -0.4756
 5521SOL    HW228200   4.437   1.549   2.189  1.1760 -0.2354 -0.6651
 5522SOL     OW28201   2.549   0.556   0.790 -0.3335 -0.3412 -0.4111
 5522SOL    HW128202   2.575   0.535   0.700  1.1544  1.0869 -0.3047
 5522SOL    HW228203   2.458   0.542   0.763 -0.6145 -0.0967  0.4302
 5523SOL     OW28204   4.252   4.561   8.969 -0.0796 -0.3932  0.0211
 5523SOL    HW128205   4.234   4.572   8.876  0.9302 -3.2016 -0.5124
 5523SOL    HW228206   4.182   4.615   9.006  0.5043  1.0760 -1.0183
 5524SOL     OW28207   4.248   2.153   1.862  0.4365  0.1181 -0.0912
 5524SOL    HW128208   4.255   2.062   1.834 -1.9526  0.5302 -2.0422
 5524SOL    HW228209   4.156   2.178   1.847  0.9483  1.2476 -1.3626
 5525SOL     OW28210   2.193   0.047  10.007  0.4693  0.1397 -0.0768
 5525SOL    HW128211   2.194   4.691  10.013 -2.5519  0.1852  0.9412
 5525SOL    HW228212   2.229   0.064   9.920  0.9616 -5.1356 -0.9434
 5526SOL     OW28213   4.184   2.933   2.096  0.8200 -0.3846 -0.1079
 5526SOL    HW128214   4.251   2.953   2.030  0.1531 -0.1756 -0.7163
 5526SOL    HW228215   4.133   3.014   2.103  0.5034 -0.5535 -0.5245
 5527SOL     OW28216   2.632   3.817   2.895  0.1717  0.0939  0.6756
 5527SOL    HW128217   2.671   3.896   2.858  0.1953 -0.7577 -1.1132
 5527SOL    HW228218   2.572   3.793   2.824  3.8682 -2.5545 -1.5128
 5528SOL     OW28219   3.126   2.466  11.188  0.2948  0.5116  0.1823
 5528SOL    HW128220   3.219   2.474  11.206  0.3797 -1.2379  0.5411
 5528SOL    HW228221   3.077   2.439  11.265 -0.5285  1.0368 -0.1552
 5529SOL     OW28222   3.063   0.564  14.162  0.5286  1.0642 -0.5045
 5529SOL    HW128223   3.065   0.520  14.077 -0.7383  2.2745 -1.1660
 5529SOL    HW228224   3.152   0.598  14.175 -0.0481  1.4398  2.4693
 5530SOL     OW28225   4.307   0.847   0.933 -0.6464  0.6224 -0.4845
 5530SOL    HW128226   4.337   0.772   0.986  0.1240  0.3622 -1.3006
 5530SOL    HW228227   4.305   0.913   1.002  0.4015  0.1219  0.0313
 5531SOL     OW28228   1.405   3.367   2.527 -0.7828  0.1225  0.4510
 5531SOL    HW128229   1.363   3.385   2.611 -0.3912 -0.5775  0.7928
 5531SOL    HW228230   1.384   3.276   2.508  2.7659 -0.2467 -1.7715
 5532SOL     OW28231   2.811   0.182   5.594 -0.4257  0.0153  0.1818
 5532SOL    HW128232   2.841   0.245   5.660 -2.8562  3.0587 -1.5889
 5532SOL    HW228233   2.819   0.241   5.519 -1.8150 -0.5285 -0.4023
 5533SOL     OW28234   0.717   1.049   6.142  0.1529  0.3608 -0.0332
 5533SOL    HW128235   0.643   1.095   6.183 -0.6936 -0.9696 -0.0860
 5533SOL    HW228236   0.789   1.110   6.161  0.5778 -0.1437 -0.0187
 5534SOL     OW28237   0.578   1.616   6.216  0.2345 -0.2525 -0.7607
 5534SOL    HW128238   0.621   1.577   6.140  1.5369 -0.5455  0.1218
 5534SOL    HW228239   0.587   1.547   6.282  1.1120  0.0703 -0.5297
 5535SOL     OW28240   3.691   3.315   9.040  0.0737  0.1295  0.3645
 5535SOL    HW128241   3.706   3.260   9.117  0.7045 -1.1148 -0.6468
 5535SOL    HW228242   3.767   3.371   9.027 -0.5675  0.8691 -0.1588
 5536SOL     OW28243   3.146   1.918   2.261  0.1353 -0.4897 -0.7898
 5536SOL    HW128244   3.167   1.912   2.168  1.5084 -0.8260 -0.4734
 5536SOL    HW228245   3.232   1.905   2.302 -0.2884  3.3576  1.3632
 5537SOL     OW28246   1.621   2.129   5.558 -0.6326 -0.0649 -0.6581
 5537SOL    HW128247   1.715   2.143   5.569 -0.6457 -1.0261  0.5854
 5537SOL    HW228248   1.589   2.109   5.646 -5.6554  1.9405 -2.0034
 5538SOL     OW28249   2.079   2.994   7.530 -0.0109 -0.2658 -0.2248
 5538SOL    HW128250   2.130   2.915   7.552  0.4165  1.0151  3.2582
 5538SOL    HW228251   1.998   2.974   7.577  0.5084  1.6616  1.4683
 5539SOL     OW28252   0.655   2.331  12.685  0.2476  0.1427 -0.1422
 5539SOL    HW128253   0.671   2.261  12.749  1.4367  0.8535  0.3434
 5539SOL    HW228254   0.627   2.404  12.739  1.5867  0.5915 -0.0470
 5540SOL     OW28255   1.022   4.624   6.559 -0.4929 -0.1178  0.3462
 5540SOL    HW128256   1.053   4.710   6.532  2.6997 -1.6009 -0.7054
 5540SOL    HW228257   0.963   4.644   6.631 -1.0971  1.2312 -0.5187
 5541SOL     OW28258   1.437   1.689   6.794  0.2405  0.8146 -0.5001
 5541SOL    HW128259   1.530   1.688   6.817  0.4458 -0.6944 -1.3828
 5541SOL    HW228260   1.408   1.775   6.824 -1.0932 -0.3124  1.4340
 5542SOL     OW28261   0.115   4.121   2.308  0.3145 -0.2004 -0.1906
 5542SOL    HW128262   0.172   4.114   2.232  1.3838  0.6855  0.5244
 5542SOL    HW228263   0.028   4.093   2.279  0.2652  0.9917 -1.1865
 5543SOL     OW28264   2.253   0.707   9.310  0.0004 -0.1387 -0.4154
 5543SOL    HW128265   2.165   0.673   9.291 -0.4926  0.1307  1.3999
 5543SOL    HW228266   2.241   0.802   9.310 -0.7916 -0.2394  0.5577
 5544SOL     OW28267   2.951   1.033   4.037 -0.0180  0.6352 -0.1380
 5544SOL    HW128268   2.872   0.987   4.008  0.6239 -1.3451  1.2188
 5544SOL    HW228269   2.911   1.081   4.110 -0.5201  1.2448 -0.8100
 5545SOL     OW28270   3.556   3.601   5.647  0.4004  0.8382  0.0433
 5545SOL    HW128271   3.473   3.640   5.620  0.0302 -0.1962 -0.3406
 5545SOL    HW228272   3.616   3.618   5.575 -0.5314 -1.5220 -1.3038
 5546SOL     OW28273   0.508   4.060   2.516  0.4612 -0.3883 -0.5296
 5546SOL    HW128274   0.542   4.131   2.571  1.0414  0.0221 -1.4117
 5546SOL    HW228275   0.522   4.100   2.430 -1.2455  0.6880 -0.3299
 5547SOL     OW28276   0.578   1.423   7.225 -0.2998  0.9081  0.0680
 5547SOL    HW128277   0.671   1.446   7.233 -0.3174  0.2766  2.1225
 5547SOL    HW228278   0.541   1.501   7.185  0.5224  0.9352 -0.6490
 5548SOL     OW28279   2.576   2.940   4.138 -0.2420  0.0074 -0.1818
 5548SOL    HW128280   2.519   2.996   4.085 -1.4221 -0.3340  0.7311
 5548SOL    HW228281   2.551   2.973   4.224 -0.6764  0.0924 -0.3418
 5549SOL     OW28282   1.802   3.256   3.928  0.2392  0.3239  0.1904
 5549SOL    HW128283   1.857   3.202   3.872 -0.8071  0.6338 -1.1724
 5549SOL    HW228284   1.737   3.192   3.958  0.5420 -1.1405 -2.2726
 5550SOL     OW28285   1.619   3.065   7.291  0.0996  0.2484 -0.5406
 5550SOL    HW128286   1.556   3.101   7.354  0.9327  0.0505  0.4168
 5550SOL    HW228287   1.662   2.994   7.338 -0.0166  0.2499 -0.4306
 5551SOL     OW28288   2.096   1.707   2.626 -0.2783 -0.1591  0.3217
 5551SOL    HW128289   2.043   1.721   2.548 -0.1615  0.5738  0.3750
 5551SOL    HW228290   2.094   1.798   2.655  3.3787 -0.1129  0.4537
 5552SOL     OW28291   0.022   3.268  11.685  0.1431  0.1243 -0.2001
 5552SOL    HW128292   4.730   3.199  11.627 -0.0663  0.0256  0.0283
 5552SOL    HW228293   4.681   3.301  11.725  0.6731  1.2172 -0.0345
 5553SOL     OW28294   3.859   0.075   9.704 -0.1012 -0.0005  0.2182
 5553SOL    HW128295   3.915   0.064   9.781  0.8837 -1.2755 -0.6749
 5553SOL    HW228296   3.923   0.079   9.633 -0.0623  0.9982  0.3016
 5554SOL     OW28297   3.236   0.563   5.789  0.2910 -0.3482  0.0554
 5554SOL    HW128298   3.173   0.593   5.723 -0.6602  1.0476  1.5743
 5554SOL    HW228299   3.168   0.512   5.834  1.1151 -1.6574 -0.1817
 5555SOL     OW28300   0.078   3.289  16.666  0.0351 -0.0045 -0.5363
 5555SOL    HW128301   0.052   3.213  16.718 -0.1411  1.9971  2.2999
 5555SOL    HW228302   4.737   3.341  16.668  0.8933  1.1730  3.1192
 5556SOL     OW28303   2.638   0.012   2.366 -0.3407 -0.1206 -0.2913
 5556SOL    HW128304   2.719   0.055   2.395 -1.0331 -0.8985  2.7573
 5556SOL    HW228305   2.631   0.048   2.277 -0.0009 -0.4854 -0.4632
 5557SOL     OW28306   4.158   3.708  12.841  0.1929  0.2153  0.0824
 5557SOL    HW128307   4.177   3.738  12.930  0.4785  1.3281 -0.3593
 5557SOL    HW228308   4.081   3.762  12.823  0.5205  1.2455  1.7871
 5558SOL     OW28309   3.817   2.893   5.547  0.2533 -0.5467  0.7799
 5558SOL    HW128310   3.722   2.896   5.530  0.8326 -0.0071 -2.4109
 5558SOL    HW228311   3.827   2.804   5.513  1.8032  0.1221 -0.5203
 5559SOL     OW28312   3.478   2.391   7.916  0.0784  0.5575 -0.0856
 5559SOL    HW128313   3.444   2.465   7.966 -1.0191  2.0977 -3.1111
 5559SOL    HW228314   3.533   2.448   7.862  0.4746  0.4806  0.2357
 5560SOL     OW28315   4.351   2.328  16.815 -0.6402  0.6482 -0.2712
 5560SOL    HW128316   4.418   2.345  16.749  0.8188 -1.3854  0.6727
 5560SOL    HW228317   4.326   2.420  16.810  0.4571  0.7865 -3.3097
 5561SOL     OW28318   1.163   0.300   0.732  0.1060 -0.6196 -0.2742
 5561SOL    HW128319   1.129   0.388   0.748  2.6769  0.6067 -1.5202
 5561SOL    HW228320   1.092   0.248   0.770 -0.4539  1.2132  1.2000
 5562SOL     OW28321   0.978   0.659   5.687 -0.6930 -0.2013 -0.2843
 5562SOL    HW128322   0.894   0.692   5.718 -1.2395  0.2470 -2.2581
 5562SOL    HW228323   0.964   0.627   5.598 -0.1598 -1.7162  0.1612
 5563SOL     OW28324   1.777   0.044  11.759  0.0835  0.0244  0.1504
 5563SOL    HW128325   1.736   4.723  11.820 -1.5237 -0.3740 -1.3315
 5563SOL    HW228326   1.699   0.098  11.743  0.3917  0.9189  1.7220
 5564SOL     OW28327   0.089   4.118  14.177  0.0225  0.0285 -0.2269
 5564SOL    HW128328   0.168   4.171  14.164  0.7864 -0.5767  1.9119
 5564SOL    HW228329   0.095   4.054  14.107  1.8691 -0.2011  0.1524
 5565SOL     OW28330   2.070   1.316   1.892 -0.3906  0.1180 -0.5024
 5565SOL    HW128331   2.080   1.400   1.937  0.0846  0.8074 -1.8840
 5565SOL    HW228332   1.985   1.330   1.851 -0.9267 -1.1209  0.1899
 5566SOL     OW28333   0.210   4.638   1.834 -0.8010  0.4427  0.1751
 5566SOL    HW128334   0.210   4.544   1.814 -1.2252  0.2423  1.1535
 5566SOL    HW228335   0.289   4.651   1.887  2.1952  0.4935 -4.2745
 5567SOL     OW28336   2.699   0.347  17.544  0.4150  0.2136  0.1563
 5567SOL    HW128337   2.737   0.278  17.598  1.6398 -0.6350 -1.7856
 5567SOL    HW228338   2.749   0.346  17.463 -0.6110 -0.7520 -0.4643
 5568SOL     OW28339   4.559   0.275   1.784 -0.1034 -0.1622 -0.4693
 5568SOL    HW128340   4.631   0.213   1.793 -1.6671 -1.9172 -0.0597
 5568SOL    HW228341   4.513   0.231   1.712 -0.6364 -1.4969  0.6714
 5569SOL     OW28342   4.100   3.315   1.723  0.0251 -0.1296  0.3365
 5569SOL    HW128343   4.121   3.228   1.687  2.0435  0.8139 -0.7745
 5569SOL    HW228344   4.181   3.362   1.743 -0.2241 -0.0513  1.1733
 5570SOL     OW28345   2.176   3.448  10.822  0.9605  0.1774  0.2382
 5570SOL    HW128346   2.086   3.482  10.820  1.2601  1.0013  0.5874
 5570SOL    HW228347   2.205   3.483  10.906  0.3320  1.7591 -0.2011
 5571SOL     OW28348   1.400   4.211   2.986  0.8166  0.3552 -0.0340
 5571SOL    HW128349   1.415   4.223   3.080  1.0950  1.7946 -0.2576
 5571SOL    HW228350   1.470   4.149   2.968 -0.3566 -0.9672 -0.1001
 5572SOL     OW28351   3.428   1.789   1.173  0.2633 -0.5597  0.3105
 5572SOL    HW128352   3.343   1.770   1.213 -0.2151  0.8159 -0.0460
 5572SOL    HW228353   3.407   1.844   1.097 -2.3231 -0.3233  1.1815
 5573SOL     OW28354   1.974   0.534  13.322  0.7720 -0.3523  0.6332
 5573SOL    HW128355   1.969   0.450  13.277 -0.2222 -1.6036  3.0536
 5573SOL    HW228356   1.887   0.550  13.358  1.0707 -1.7077  1.9803
 5574SOL     OW28357   2.016   2.009   3.300  0.2823 -0.3610 -0.0350
 5574SOL    HW128358   2.019   2.105   3.295  2.0769 -0.2312  3.6637
 5574SOL    HW228359   2.007   1.977   3.211  1.8469  1.2403 -0.7678
 5575SOL     OW28360   1.158   4.247   6.568 -0.4233  0.5807  0.0893
 5575SOL    HW128361   1.092   4.250   6.499  0.8864  0.2222 -1.1944
 5575SOL    HW228362   1.178   4.153   6.563  2.7729  1.4115 -3.5649
 5576SOL     OW28363   2.578   1.233   1.940  0.3145 -0.0990  0.0045
 5576SOL    HW128364   2.506   1.202   1.994 -0.2301 -0.5749 -0.9892
 5576SOL    HW228365   2.647   1.176   1.974  1.5458 -0.5363 -3.2036
 5577SOL     OW28366   2.050   2.867   4.844  0.1650 -0.4375 -0.3894
 5577SOL    HW128367   2.055   2.805   4.917  0.7299  2.1272  1.7587
 5577SOL    HW228368   2.012   2.945   4.885 -1.4404 -2.2626  1.6175
 5578SOL     OW28369   1.908   2.686  11.657  0.2620 -0.1836  0.0116
 5578SOL    HW128370   1.834   2.629  11.635  2.0318 -3.3389  2.2930
 5578SOL    HW228371   1.983   2.639  11.621 -0.5466 -1.5883  0.1730
 5579SOL     OW28372   2.288   2.207  16.153  0.2835 -0.4601  0.0609
 5579SOL    HW128373   2.238   2.254  16.087  0.3603 -0.7542 -0.2043
 5579SOL    HW228374   2.370   2.180  16.112  0.0204 -1.7933  0.4059
 5580SOL     OW28375   1.689   3.322   6.808  0.2357 -0.7105  0.4341
 5580SOL    HW128376   1.600   3.352   6.791  0.5544  0.2499  0.4652
 5580SOL    HW228377   1.743   3.400   6.819 -0.6441 -0.0042 -0.3173
 5581SOL     OW28378   3.110   0.044  10.567 -0.3311 -0.5544  0.8189
 5581SOL    HW128379   3.049   0.070  10.498 -0.0502 -0.0398  0.7574
 5581SOL    HW228380   3.125   4.693  10.544 -0.7831 -0.2063 -0.8584
 5582SOL     OW28381   1.671   4.500  15.266  0.0346  0.3768 -0.2665
 5582SOL    HW128382   1.607   4.542  15.324  0.8047  3.9975 -2.0229
 5582SOL    HW228383   1.745   4.483  15.324 -0.9297  0.1372  0.8914
 5583SOL     OW28384   0.053   3.973  13.951 -0.0261 -0.4626  0.5150
 5583SOL    HW128385   4.718   4.029  13.929 -0.4925 -1.3295 -0.1089
 5583SOL    HW228386   0.093   3.953  13.866  1.1106  2.0435  0.4388
 5584SOL     OW28387   3.254   0.686   5.451 -0.1384  0.8468 -0.5401
 5584SOL    HW128388   3.209   0.602   5.454  2.9580 -0.8587 -1.7597
 5584SOL    HW228389   3.182   0.734   5.409 -1.8798  0.0290  1.5307
 5585SOL     OW28390   2.862   1.960  14.706 -0.0531  0.2377 -0.0190
 5585SOL    HW128391   2.783   1.996  14.745  0.3008  2.1138 -1.0565
 5585SOL    HW228392   2.840   1.960  14.613  1.0669  0.7205 -0.2819
 5586SOL     OW28393   4.172   2.282   5.573  0.2642 -0.7499 -0.2836
 5586SOL    HW128394   4.103   2.249   5.632  0.4006  0.7842  0.7186
 5586SOL    HW228395   4.125   2.297   5.491  1.1681  1.5651 -0.3632
 5587SOL     OW28396   3.838   2.028   2.326 -0.2769 -0.2869  0.0603
 5587SOL    HW128397   3.887   1.984   2.257 -1.5634 -1.2210 -0.2678
 5587SOL    HW228398   3.832   2.112   2.282 -0.9425 -0.5007 -0.2566
 5588SOL     OW28399   4.593   3.107  10.133  0.2060 -0.5439  0.0343
 5588SOL    HW128400   4.642   3.184  10.104  0.1680 -1.3427 -2.1200
 5588SOL    HW228401   4.651   3.076  10.203  1.4043  0.9441 -0.3031
 5589SOL     OW28402   4.445   0.603   9.926  0.1559  0.0005  0.4242
 5589SOL    HW128403   4.430   0.664   9.998  2.0931 -0.3581  1.1417
 5589SOL    HW228404   4.410   0.521   9.961  0.9251 -0.7559 -0.5904
 5590SOL     OW28405   2.837   3.940   8.935 -0.3910  0.4401 -0.4489
 5590SOL    HW128406   2.895   3.887   8.880 -1.1432 -0.8041 -0.0486
 5590SOL    HW228407   2.905   3.990   8.980  1.0994 -2.6487  0.7899
 5591SOL     OW28408   0.136   0.242   3.870 -0.0381 -0.4242 -0.5836
 5591SOL    HW128409   0.115   0.200   3.953  0.0648 -0.9978 -0.8517
 5591SOL    HW228410   0.058   0.297   3.861  0.5318  0.1270 -2.1285
 5592SOL     OW28411   1.070   1.120   1.330  0.5804  0.5792  0.1617
 5592SOL    HW128412   1.060   1.149   1.239 -1.3601  0.7930  0.4242
 5592SOL    HW228413   0.980   1.131   1.361 -0.3386 -0.3538 -2.1898
 5593SOL     OW28414   4.108   0.937   4.193 -0.3431  0.1801 -0.5771
 5593SOL    HW128415   4.136   0.855   4.234 -1.0971  0.8170  1.1936
 5593SOL    HW228416   4.046   0.916   4.123 -0.2181 -1.0031 -0.3233
 5594SOL     OW28417   4.224   1.359   2.863 -0.5017 -0.1955 -0.0161
 5594SOL    HW128418   4.303   1.410   2.843 -1.7207  2.9586  3.3629
 5594SOL    HW228419   4.180   1.364   2.778  2.2513 -2.5912 -1.5877
 5595SOL     OW28420   4.690   0.105   6.778  0.4944 -0.4626  0.2318
 5595SOL    HW128421   4.612   0.061   6.743  0.1675 -1.8758  2.7356
 5595SOL    HW228422   4.659   0.133   6.864 -0.7775 -2.1491  0.3282
 5596SOL     OW28423   4.427   1.325   5.402  0.8554  0.5176 -0.5863
 5596SOL    HW128424   4.509   1.350   5.443  1.2799  0.7468 -1.5782
 5596SOL    HW228425   4.396   1.402   5.354 -2.0203 -0.8598 -0.9588
 5597SOL     OW28426   1.501   3.107   1.851  0.7430 -0.3433  0.4160
 5597SOL    HW128427   1.492   3.145   1.938 -0.3334 -1.5759  0.8653
 5597SOL    HW228428   1.420   3.054   1.851  0.2140  0.4695  1.9538
 5598SOL     OW28429   0.871   4.669  12.573  0.2072 -0.1002 -0.0427
 5598SOL    HW128430   0.845   4.596  12.517 -0.8855 -1.7150  2.6255
 5598SOL    HW228431   0.967   4.662  12.565  0.3738 -0.0860  1.9485
 5599SOL     OW28432   3.960   1.174  12.220 -0.3681 -0.4001 -0.7886
 5599SOL    HW128433   3.872   1.211  12.217  0.5117  1.9657  2.0393
 5599SOL    HW228434   3.947   1.092  12.268 -3.2130  0.5859  0.1104
 5600SOL     OW28435   4.705   3.617   1.625  0.0473 -0.2277 -0.2629
 5600SOL    HW128436   4.652   3.692   1.652 -2.7747 -1.5007 -2.3609
 5600SOL    HW228437   0.012   3.672   1.562  0.1572 -1.1969 -1.0240
 5601SOL     OW28438   0.943   2.108  12.334 -0.6425  0.1356 -0.3591
 5601SOL    HW128439   0.871   2.148  12.382 -0.9383 -1.0010  0.1483
 5601SOL    HW228440   0.925   2.119  12.240  1.8107  1.4823 -0.6571
 5602SOL     OW28441   0.946   3.333   6.052  0.0727 -0.2105 -0.1577
 5602SOL    HW128442   0.941   3.257   6.110 -3.1583 -0.1277 -0.3306
 5602SOL    HW228443   1.032   3.370   6.068 -0.2872  1.1008 -1.3024
 5603SOL     OW28444   3.415   2.490   2.846  0.0465 -0.3314  0.1389
 5603SOL    HW128445   3.351   2.495   2.775  0.5369 -0.8582 -0.3367
 5603SOL    HW228446   3.441   2.582   2.845 -2.1596  0.3012  1.4006
 5604SOL     OW28447   1.563   3.477   7.587  0.2066  0.3654 -0.2779
 5604SOL    HW128448   1.629   3.498   7.653  0.1818 -2.8387  0.7967
 5604SOL    HW228449   1.506   3.553   7.582  1.6149  1.5521  1.7991
 5605SOL     OW28450   3.248   1.971   5.956 -0.5550 -0.1880 -0.1813
 5605SOL    HW128451   3.247   1.889   6.005 -1.8018  0.2190  0.4623
 5605SOL    HW228452   3.199   2.019   6.023 -0.8296  0.0649 -0.5661
 5606SOL     OW28453   1.667   2.112   2.297  0.4597  0.2154  0.3595
 5606SOL    HW128454   1.698   2.089   2.209  0.8210 -1.3444  0.8876
 5606SOL    HW228455   1.661   2.023   2.332  0.4325 -0.0657 -0.3456
 5607SOL     OW28456   3.500   4.083   4.457 -0.0105 -0.2674 -0.2508
 5607SOL    HW128457   3.494   3.991   4.431 -1.1891  0.0140 -0.9483
 5607SOL    HW228458   3.535   4.078   4.546  1.0288 -0.6157 -0.6827
 5608SOL     OW28459   3.982   1.571  12.359  0.4553  0.4948 -0.0418
 5608SOL    HW128460   3.892   1.590  12.336  1.3430  1.9333 -2.3432
 5608SOL    HW228461   4.022   1.598  12.276  0.3087  0.8241 -0.0047
 5609SOL     OW28462   2.945   1.647  12.364 -0.1617  0.0544  0.5438
 5609SOL    HW128463   3.006   1.608  12.300  1.6652 -0.5600  2.6762
 5609SOL    HW228464   2.973   1.629  12.454  2.5540  0.5583 -0.1815
 5610SOL     OW28465   1.478   2.254   0.190  0.1550  0.7341  0.1209
 5610SOL    HW128466   1.542   2.267   0.260 -2.2106  1.2636  2.1588
 5610SOL    HW228467   1.431   2.337   0.180 -0.5902  0.6652  3.2205
 5611SOL     OW28468   0.926   0.039   1.366  0.5052  0.6796 -0.2196
 5611SOL    HW128469   0.850   0.027   1.421  2.0130  2.3631  2.2408
 5611SOL    HW228470   0.990   4.716   1.399  1.0064  2.9319  3.0872
 5612SOL     OW28471   2.112   2.917  15.805 -0.6668 -0.4214  0.1226
 5612SOL    HW128472   2.171   2.958  15.742  0.4024 -0.8942  0.8180
 5612SOL    HW228473   2.074   2.990  15.854  1.3568 -1.0543  2.6477
 5613SOL     OW28474   4.669   4.703   4.732 -0.0690 -0.0191  0.3574
 5613SOL    HW128475   4.674   0.057   4.714  0.1930  0.1106  1.1074
 5613SOL    HW228476   4.691   4.711   4.825  2.7390 -0.4882 -0.2806
 5614SOL     OW28477   2.089   1.745  17.676 -0.1610 -0.3957 -0.0415
 5614SOL    HW128478   2.176   1.722  17.643  0.2200 -2.2792  2.3235
 5614SOL    HW228479   2.039   1.677  17.631 -0.9525  0.7262 -0.8552
 5615SOL     OW28480   2.235   0.333  17.057 -0.4746 -0.0097 -0.2087
 5615SOL    HW128481   2.302   0.400  17.053 -0.4114 -0.0828 -0.3753
 5615SOL    HW228482   2.269   0.264  16.999 -0.1097 -1.3206  1.5721
 5616SOL     OW28483   2.493   1.682   1.658 -0.1084 -1.0242 -0.7271
 5616SOL    HW128484   2.559   1.615   1.639  0.7171  0.3556 -2.6290
 5616SOL    HW228485   2.435   1.629   1.713  2.1942 -1.7807  0.9668
 5617SOL     OW28486   0.179   3.141  10.278  0.4005 -0.2826 -0.1850
 5617SOL    HW128487   0.164   3.235  10.275  0.2504 -0.2280  2.2261
 5617SOL    HW228488   0.275   3.139  10.284  0.3418 -0.4447  0.6681
 5618SOL     OW28489   1.101   3.660   5.170 -0.4038  0.3445 -0.0437
 5618SOL    HW128490   1.154   3.739   5.167 -0.5929  0.4134 -1.8796
 5618SOL    HW228491   1.102   3.632   5.078  2.3213 -0.3192  0.1880
 5619SOL     OW28492   3.593   3.958  14.665  0.3989  0.6615  0.2069
 5619SOL    HW128493   3.548   4.006  14.734 -1.9763 -2.7058  0.9817
 5619SOL    HW228494   3.515   3.917  14.628  0.3561 -1.2081  2.3581
 5620SOL     OW28495   4.412   4.401  16.930 -0.5022 -0.1546 -0.0355
 5620SOL    HW128496   4.371   4.445  17.004 -1.3280 -1.3069  0.2005
 5620SOL    HW228497   4.426   4.476  16.872 -1.4424  0.3355  0.3608
 5621SOL     OW28498   0.888   3.295   7.355  0.2930  0.4392  0.4182
 5621SOL    HW128499   0.845   3.330   7.277  0.8391 -1.2040 -0.6327
 5621SOL    HW228500   0.875   3.201   7.340 -1.3889  0.7433  0.0725
 5622SOL     OW28501   2.934   0.741   6.432  0.0810 -0.2637 -0.5001
 5622SOL    HW128502   2.877   0.815   6.411  2.5138  1.4472 -1.1074
 5622SOL    HW228503   2.877   0.667   6.413  1.3196 -1.6678  1.3369
 5623SOL     OW28504   0.636   1.609   4.296  0.2216 -0.1479  0.0528
 5623SOL    HW128505   0.635   1.705   4.297 -0.0655 -0.1492 -0.0332
 5623SOL    HW228506   0.637   1.597   4.391 -3.0078  0.0631  0.1231
 5624SOL     OW28507   0.818   2.867   5.267 -0.9199  0.0754 -0.5199
 5624SOL    HW128508   0.770   2.926   5.209 -0.3215 -0.6996 -1.8011
 5624SOL    HW228509   0.797   2.890   5.358  0.7516  0.7588 -0.3197
 5625SOL     OW28510   0.027   3.757   5.286 -0.6751 -0.4236  0.1064
 5625SOL    HW128511   0.040   3.831   5.345  0.4512  0.2663 -1.0052
 5625SOL    HW228512   4.677   3.755   5.253  0.2532 -1.1121 -2.3973
 5626SOL     OW28513   1.420   1.800  15.479  0.0408 -0.6408 -0.1977
 5626SOL    HW128514   1.396   1.852  15.556 -1.0811  0.1368 -1.0651
 5626SOL    HW228515   1.352   1.734  15.463 -0.5269 -0.4047  1.2248
 5627SOL     OW28516   1.513   0.399   5.389 -0.1242  0.3339 -0.1038
 5627SOL    HW128517   1.548   0.387   5.301 -0.2553  0.8259 -0.2249
 5627SOL    HW228518   1.421   0.381   5.368  0.4370 -1.7540 -0.7420
 5628SOL     OW28519   2.096   3.626   9.136 -0.2342 -0.1310  0.0040
 5628SOL    HW128520   2.006   3.601   9.159 -0.2484  0.2487  0.3627
 5628SOL    HW228521   2.068   3.688   9.068 -1.3348  0.6439  1.1633
 5629SOL     OW28522   1.059   2.672   9.160  0.5224 -0.4117 -0.0979
 5629SOL    HW128523   1.107   2.670   9.243  0.1309  1.2270  0.1632
 5629SOL    HW228524   1.134   2.675   9.101 -0.8021 -2.5901 -1.9171
 5630SOL     OW28525   1.844   0.929   2.522  0.2855  0.0098  0.4779
 5630SOL    HW128526   1.816   0.873   2.594 -0.8451 -2.2692 -1.7177
 5630SOL    HW228527   1.939   0.925   2.522  0.2818 -0.0871 -0.1499
 5631SOL     OW28528   1.668   2.687  15.129  0.1145  0.2131  0.3259
 5631SOL    HW128529   1.647   2.663  15.038 -1.1632 -0.3513  0.7719
 5631SOL    HW228530   1.582   2.728  15.142 -0.7614 -1.3287 -0.5278
 5632SOL     OW28531   3.434   2.475  15.685  0.0158  0.4238 -0.1201
 5632SOL    HW128532   3.423   2.569  15.701  2.7791  0.8334 -0.7504
 5632SOL    HW228533   3.508   2.464  15.744 -0.8520 -1.9662  0.5242
 5633SOL     OW28534   0.259   3.609  15.362  0.4355 -0.2233  0.6187
 5633SOL    HW128535   0.343   3.563  15.364  0.2469 -0.5412  1.1678
 5633SOL    HW228536   0.266   3.657  15.280 -0.2645  0.7774  1.1514
 5634SOL     OW28537   2.445   0.048   7.671  0.0311  0.1182  0.8654
 5634SOL    HW128538   2.385   4.724   7.711  0.9059 -1.3233 -0.1240
 5634SOL    HW228539   2.427   0.117   7.734  1.0649  1.7821 -0.6772
 5635SOL     OW28540   1.889   2.910   7.684 -0.0399 -0.1765 -0.6638
 5635SOL    HW128541   1.801   2.913   7.720 -0.0035 -0.8719 -0.5231
 5635SOL    HW228542   1.938   2.921   7.765 -0.2097  0.2640 -0.6194
 5636SOL     OW28543   3.368   3.796  11.110 -0.0390  0.1552 -0.0929
 5636SOL    HW128544   3.450   3.748  11.112 -0.0264  0.1582 -0.7713
 5636SOL    HW228545   3.411   3.873  11.072  1.4641  0.2899  1.8915
 5637SOL     OW28546   4.677   1.780   5.425 -0.1755 -0.0045 -0.0661
 5637SOL    HW128547   4.628   1.858   5.454 -1.0724 -0.9544  0.9645
 5637SOL    HW228548   4.677   1.723   5.501  0.6915 -1.1807 -0.9439
 5638SOL     OW28549   4.419   3.141   7.790  0.1123 -0.1583  0.3138
 5638SOL    HW128550   4.334   3.114   7.826  0.0384  1.2522  1.1913
 5638SOL    HW228551   4.397   3.128   7.698  0.7078 -1.9286  0.4152
 5639SOL     OW28552   1.373   0.857   6.154 -0.2115 -0.0679  0.1900
 5639SOL    HW128553   1.316   0.915   6.102 -1.3471  0.6147  2.1691
 5639SOL    HW228554   1.457   0.872   6.111 -0.3391  0.9949  0.2941
 5640SOL     OW28555   2.260   1.179   2.593  0.2389 -0.6257  0.4970
 5640SOL    HW128556   2.353   1.179   2.614  0.8757 -0.7131 -2.2734
 5640SOL    HW228557   2.238   1.270   2.572  1.3543 -0.8957 -1.8727
 5641SOL     OW28558   2.851   0.369   5.370  0.1188 -0.6313 -0.3449
 5641SOL    HW128559   2.842   0.357   5.276 -0.9408 -0.8464 -0.2152
 5641SOL    HW228560   2.816   0.457   5.384 -0.7648 -1.2004  1.0135
 5642SOL     OW28561   4.596   0.910   5.040 -0.2837  0.1541  0.6017
 5642SOL    HW128562   4.680   0.867   5.058  0.5723  0.7006 -2.0307
 5642SOL    HW228563   4.592   0.961   5.121  1.0775  0.7722  0.2839
 5643SOL     OW28564   1.607   1.599  14.009  0.2108  0.0852 -0.7036
 5643SOL    HW128565   1.590   1.647  13.927 -0.2340  3.6462  1.4893
 5643SOL    HW228566   1.539   1.531  14.003 -1.0495  1.3201 -0.3176
 5644SOL     OW28567   0.021   0.889  12.706  0.3372 -0.1194  0.5919
 5644SOL    HW128568   0.109   0.889  12.668  0.2265 -0.6458  0.3294
 5644SOL    HW228569   4.735   0.968  12.658  0.0259 -1.1932 -1.0242
 5645SOL     OW28570   2.783   4.422  14.939  0.6650  0.3496  0.2968
 5645SOL    HW128571   2.731   4.470  14.875 -0.0024 -1.6086 -0.6180
 5645SOL    HW228572   2.849   4.486  14.966 -0.2662  1.2820  0.3406
 5646SOL     OW28573   3.379   0.230   3.325  0.5054 -0.2074 -0.5153
 5646SOL    HW128574   3.284   0.240   3.335  0.4989 -1.3601  0.6639
 5646SOL    HW228575   3.385   0.243   3.231  1.6240  3.1846  0.0276
 5647SOL     OW28576   0.512   2.087  11.679 -0.1884 -0.7999 -0.1562
 5647SOL    HW128577   0.565   2.164  11.699  0.1306 -0.7486 -1.2465
 5647SOL    HW228578   0.427   2.116  11.713  0.3943  1.9267 -1.0539
 5648SOL     OW28579   0.841   1.297   7.617 -0.2993  0.0144 -0.4445
 5648SOL    HW128580   0.748   1.313   7.603 -0.1804  0.7079 -0.4364
 5648SOL    HW228581   0.839   1.205   7.643  0.1395 -0.6410 -2.7298
 5649SOL     OW28582   4.586   2.187   1.214  0.3507 -0.5367  0.5571
 5649SOL    HW128583   4.650   2.229   1.271 -1.9035  3.0975  0.3582
 5649SOL    HW228584   4.541   2.258   1.169 -0.2818  0.4452  2.7490
 5650SOL     OW28585   2.263   2.203   7.962 -0.4852 -0.0118 -0.3353
 5650SOL    HW128586   2.353   2.176   7.944 -0.4163 -0.8150  1.2432
 5650SOL    HW228587   2.276   2.294   7.990  1.2827 -0.1772 -0.5982
 5651SOL     OW28588   4.199   2.381   3.293  0.2966 -0.1233  0.3679
 5651SOL    HW128589   4.140   2.382   3.368 -1.6092  0.8330 -1.1414
 5651SOL    HW228590   4.196   2.467   3.251 -1.3614 -0.1703  0.4177
 5652SOL     OW28591   3.486   2.981   7.637 -0.2687  0.1584 -0.9076
 5652SOL    HW128592   3.474   3.013   7.547 -1.3497  1.4353 -0.3094
 5652SOL    HW228593   3.403   2.937   7.657 -0.0751  0.3379  0.3091
 5653SOL     OW28594   1.954   0.418  16.720  0.0073 -0.4607 -0.1116
 5653SOL    HW128595   2.002   0.473  16.658 -0.5230 -0.1702 -0.2566
 5653SOL    HW228596   1.882   0.472  16.751 -0.2627 -0.3085 -1.0346
 5654SOL     OW28597   1.227   4.287   8.291  0.1547 -0.3900 -0.0753
 5654SOL    HW128598   1.305   4.264   8.341  1.0230  0.1338 -1.1936
 5654SOL    HW228599   1.271   4.320   8.213  0.3744  1.3918  0.8072
 5655SOL     OW28600   1.799   2.455  16.204  0.1169  0.7731 -0.5335
 5655SOL    HW128601   1.779   2.439  16.296  1.6600 -3.5642 -0.9494
 5655SOL    HW228602   1.717   2.497  16.176  0.7805  0.5290 -2.8479
 5656SOL     OW28603   4.456   0.322  12.535  0.3657 -0.0786  0.2563
 5656SOL    HW128604   4.508   0.289  12.609  0.0942 -0.7195  0.1617
 5656SOL    HW228605   4.413   0.241  12.509 -1.9212  1.0509  0.5437
 5657SOL     OW28606   3.807   2.401   3.196 -0.3150 -0.5382 -0.3450
 5657SOL    HW128607   3.769   2.452   3.124  2.1108  0.5316 -0.8751
 5657SOL    HW228608   3.868   2.346   3.148 -0.5205  0.0879 -1.3285
 5658SOL     OW28609   2.192   3.259   2.570 -0.6184  0.1451  0.3896
 5658SOL    HW128610   2.242   3.333   2.605  1.2055 -1.3368  0.9150
 5658SOL    HW228611   2.223   3.178   2.609 -1.6516 -1.7781 -2.8257
 5659SOL     OW28612   3.504   1.101   1.066 -0.2706  0.2474  0.0544
 5659SOL    HW128613   3.559   1.040   1.017 -1.2474 -0.3847 -0.2497
 5659SOL    HW228614   3.569   1.140   1.125  0.2309 -2.6926  1.4269
 5660SOL     OW28615   1.760   0.047   1.464  0.0927  0.2488  0.6228
 5660SOL    HW128616   1.728   4.708   1.509  0.7134  1.7555  3.7344
 5660SOL    HW228617   1.689   0.107   1.488  0.2174  1.4275 -1.9732
 5661SOL     OW28618   2.417   3.688   7.200  0.1712 -0.2983 -0.0193
 5661SOL    HW128619   2.364   3.658   7.126 -1.4615  3.2683 -0.2865
 5661SOL    HW228620   2.353   3.740   7.248  0.0289 -0.0290 -0.4975
 5662SOL     OW28621   0.987   0.499   9.715 -0.4847  0.5149 -0.1350
 5662SOL    HW128622   0.970   0.586   9.751 -3.4017  0.0244 -0.3124
 5662SOL    HW228623   1.026   0.450   9.787 -0.0088  1.1706  0.0447
 5663SOL     OW28624   4.294   1.047   1.130 -0.2834  0.1345 -0.4208
 5663SOL    HW128625   4.363   1.098   1.173  0.4782  0.2253 -1.7368
 5663SOL    HW228626   4.220   1.107   1.129  0.5777  1.2312  2.4211
 5664SOL     OW28627   0.605   1.120  14.027 -0.3214 -0.4350 -0.1622
 5664SOL    HW128628   0.642   1.200  13.990  1.7981 -1.3197  0.0916
 5664SOL    HW228629   0.605   1.064  13.949  1.0214 -0.7649  0.0752
 5665SOL     OW28630   2.491   0.142   4.218 -0.2694 -0.1428  0.3881
 5665SOL    HW128631   2.414   0.177   4.174 -0.0478  0.4597  0.4836
 5665SOL    HW228632   2.482   0.048   4.202  0.8327  0.2122 -2.3578
 5666SOL     OW28633   1.308   1.519   3.974 -0.2669 -0.3833  0.2768
 5666SOL    HW128634   1.269   1.607   3.968  0.5594  0.0707  1.6240
 5666SOL    HW228635   1.260   1.479   4.047  1.1116  0.0164  1.4132
 5667SOL     OW28636   4.038   2.444   5.895  0.3341 -0.4101 -0.7434
 5667SOL    HW128637   4.000   2.380   5.834  3.0014 -1.3656 -1.3873
 5667SOL    HW228638   4.126   2.406   5.888  1.5327  1.6517  3.6398
 5668SOL     OW28639   0.521   4.163  15.949 -0.7770 -0.4003  0.4190
 5668SOL    HW128640   0.563   4.192  16.029 -1.5799  1.0328  0.3081
 5668SOL    HW228641   0.439   4.123  15.981 -0.6303  0.5893  2.0011
 5669SOL     OW28642   3.316   3.596   5.401 -0.4182  0.2540  0.5379
 5669SOL    HW128643   3.293   3.646   5.479  0.8246  1.4639  0.1294
 5669SOL    HW228644   3.387   3.649   5.364  0.4200 -1.3146 -0.0843
 5670SOL     OW28645   0.003   0.463   2.741  0.0767 -0.1026 -0.2091
 5670SOL    HW128646   4.719   0.527   2.809  1.6811  1.0958 -0.7548
 5670SOL    HW228647   0.031   0.530   2.678  0.2129 -0.9828 -1.0661
 5671SOL     OW28648   0.555   4.129   8.878 -0.4891 -0.1042  0.2139
 5671SOL    HW128649   0.550   4.221   8.851  3.5551 -0.1112 -0.6062
 5671SOL    HW228650   0.532   4.136   8.970 -0.3280  1.1166  0.1632
 5672SOL     OW28651   1.244   3.336   4.442 -0.9951  0.2842 -0.7844
 5672SOL    HW128652   1.206   3.282   4.511 -0.0018 -0.0265 -0.4772
 5672SOL    HW228653   1.302   3.278   4.393 -2.5167 -1.6504 -0.2948
 5673SOL     OW28654   0.598   2.110   7.508  0.1720  0.3039 -0.3353
 5673SOL    HW128655   0.531   2.159   7.556  0.3555  1.5402 -1.3559
 5673SOL    HW228656   0.657   2.179   7.479  1.0831 -1.3128 -2.2966
 5674SOL     OW28657   2.958   2.626   6.523 -0.3007  0.0723  0.1005
 5674SOL    HW128658   2.970   2.721   6.530 -4.0865  0.4755  1.1084
 5674SOL    HW228659   2.924   2.625   6.433  1.0070  1.0112 -0.4027
 5675SOL     OW28660   0.505   1.806   4.045  0.4324  0.0609  0.6620
 5675SOL    HW128661   0.512   1.808   4.141 -0.5414 -2.3110  0.7690
 5675SOL    HW228662   0.418   1.844   4.035  0.8363  1.0285  0.7434
 5676SOL     OW28663   0.981   0.070  17.141 -0.4756  0.0994  0.4822
 5676SOL    HW128664   1.072   0.086  17.117 -1.0557  0.4513 -1.4550
 5676SOL    HW228665   0.979   0.135  17.212  2.3301 -1.0188  1.5823
 5677SOL     OW28666   4.250   2.772  15.342 -0.0926  0.5430 -0.3538
 5677SOL    HW128667   4.195   2.706  15.300  1.1949  0.8205 -2.4657
 5677SOL    HW228668   4.312   2.718  15.390  0.1005  0.8791 -0.2227
 5678SOL     OW28669   2.815   4.004   4.993 -0.3999 -0.1973 -0.3680
 5678SOL    HW128670   2.824   4.074   5.058 -0.9147  0.5935 -1.1487
 5678SOL    HW228671   2.730   4.026   4.956 -1.2376  0.9727  2.2808
 5679SOL     OW28672   4.144   3.905  15.582 -0.6271  0.3247  0.8050
 5679SOL    HW128673   4.128   3.999  15.578 -1.0495  0.1239 -2.3959
 5679SOL    HW228674   4.154   3.899  15.677  1.5718  1.1097  0.6299
 5680SOL     OW28675   4.431   2.555  16.383 -0.0201 -0.4596 -0.0167
 5680SOL    HW128676   4.454   2.516  16.468 -1.9861 -0.3467  0.5630
 5680SOL    HW228677   4.370   2.625  16.404  0.2273 -0.2874  0.1334
 5681SOL     OW28678   0.577   2.465   8.634  0.0861  0.2177 -0.3258
 5681SOL    HW128679   0.603   2.485   8.544  0.5294 -1.0282 -0.4861
 5681SOL    HW228680   0.661   2.434   8.669 -0.3237  1.2768  1.5553
 5682SOL     OW28681   1.384   0.482  12.042 -0.5323  0.0474  0.4208
 5682SOL    HW128682   1.366   0.570  12.075  0.7991  0.9331 -1.2570
 5682SOL    HW228683   1.469   0.504  12.005  0.2462 -0.7138  1.7524
 5683SOL     OW28684   2.051   4.146   1.723  0.4891 -0.1227  0.6089
 5683SOL    HW128685   2.077   4.071   1.776  1.3524  0.4296  0.9697
 5683SOL    HW228686   1.965   4.161   1.762  0.6733  1.7773  0.3066
 5684SOL     OW28687   2.281   1.991   5.113  0.5746  0.5483  0.0099
 5684SOL    HW128688   2.194   1.971   5.080  0.2480  2.4550 -0.2927
 5684SOL    HW228689   2.270   2.083   5.135  0.7284  0.6076 -0.1667
 5685SOL     OW28690   0.497   3.496   1.318  0.2221  0.0824 -0.1383
 5685SOL    HW128691   0.472   3.548   1.394 -0.8801 -0.5882 -0.0498
 5685SOL    HW228692   0.416   3.472   1.274  0.7697  1.2487 -1.7630
 5686SOL     OW28693   3.970   0.846   0.768 -0.0580 -0.1509  0.4382
 5686SOL    HW128694   3.953   0.882   0.681 -0.5303 -1.3521  0.0431
 5686SOL    HW228695   4.065   0.859   0.776  0.1369 -1.9559  0.9997
 5687SOL     OW28696   1.083   1.023   2.479  0.0876  0.2522  0.2771
 5687SOL    HW128697   1.132   1.079   2.539 -0.5545  0.2568  0.7958
 5687SOL    HW228698   1.073   1.074   2.398  0.0397  1.6946  1.1947
 5688SOL     OW28699   3.277   0.914   7.693 -0.3773 -0.5365  0.2815
 5688SOL    HW128700   3.270   0.925   7.598 -1.8290 -0.9666  0.3382
 5688SOL    HW228701   3.252   1.002   7.718  1.7311  0.8031 -2.2533
 5689SOL     OW28702   2.524   1.047   3.544 -0.6635  0.7129  0.2413
 5689SOL    HW128703   2.504   1.139   3.565  0.3903  0.8557  0.6204
 5689SOL    HW228704   2.453   1.013   3.490 -1.3862  0.3042  1.4388
 5690SOL     OW28705   3.981   0.133   9.415  0.5142 -0.5478  0.4934
 5690SOL    HW128706   3.896   0.117   9.372 -0.0788  1.1905  1.0365
 5690SOL    HW228707   4.041   0.140   9.341 -0.8531 -1.5679 -0.7223
 5691SOL     OW28708   1.749   4.325   7.560  0.5660  0.4639  0.2008
 5691SOL    HW128709   1.818   4.263   7.584 -0.3681 -1.1706 -1.3166
 5691SOL    HW228710   1.694   4.326   7.639 -0.8329 -1.4642 -0.7668
 5692SOL     OW28711   0.815   2.200   6.778  0.1345  0.4417  0.2564
 5692SOL    HW128712   0.871   2.205   6.855  2.6447 -0.9124 -1.4699
 5692SOL    HW228713   0.731   2.164   6.808 -0.1544 -0.3306 -1.4483
 5693SOL     OW28714   1.560   2.440   2.594 -0.0038 -0.1631 -0.3874
 5693SOL    HW128715   1.615   2.467   2.668  0.0877 -1.8963  0.1807
 5693SOL    HW228716   1.554   2.345   2.608 -1.0027 -0.2159 -1.2284
 5694SOL     OW28717   3.046   3.361   1.288  0.1975  0.3853 -0.4531
 5694SOL    HW128718   2.974   3.362   1.351  0.2737 -1.8033 -0.3419
 5694SOL    HW228719   3.095   3.436   1.324 -1.7070  0.7758  1.3769
 5695SOL     OW28720   3.812   2.969   4.101 -0.5363 -0.1117  0.3891
 5695SOL    HW128721   3.773   3.044   4.146  0.6886 -0.2581  1.6870
 5695SOL    HW228722   3.844   2.922   4.179 -0.3860 -1.5530 -0.5460
 5696SOL     OW28723   2.310   0.910   6.088 -0.2010  0.0733  0.3611
 5696SOL    HW128724   2.302   0.852   6.013 -1.3057 -0.9365  1.2593
 5696SOL    HW228725   2.399   0.895   6.120 -0.1151 -2.5141 -1.1127
 5697SOL     OW28726   2.852   2.074  13.552  0.0208  0.0252  0.4072
 5697SOL    HW128727   2.870   2.134  13.624 -0.9412 -0.1444  0.7944
 5697SOL    HW228728   2.934   2.025  13.556  1.2458  1.7911 -3.4712
 5698SOL     OW28729   3.144   2.609  10.615 -0.0669 -0.1392  0.0566
 5698SOL    HW128730   3.162   2.563  10.697 -1.9996 -0.6912  0.1750
 5698SOL    HW228731   3.097   2.687  10.647  0.6820  0.3040  0.0789
 5699SOL     OW28732   4.601   3.711   3.410 -0.2242  0.3008 -0.2043
 5699SOL    HW128733   4.599   3.739   3.319 -1.7585 -0.6356 -0.4508
 5699SOL    HW228734   4.513   3.683   3.434  0.4368 -2.4740 -1.0292
 5700SOL     OW28735   0.706   3.572  16.799  0.1990 -0.5632  0.4853
 5700SOL    HW128736   0.767   3.622  16.854 -0.4439 -0.1707  0.8393
 5700SOL    HW228737   0.757   3.549  16.721  0.3016  1.5751 -0.0767
 5701SOL     OW28738   3.535   4.669  14.107 -0.3129  0.2880  0.8463
 5701SOL    HW128739   3.593   0.002  14.129 -0.1254  0.4482 -0.1964
 5701SOL    HW228740   3.587   4.593  14.134  1.3920  1.3739  0.6388
 5702SOL     OW28741   4.245   3.814   7.459 -0.5786 -0.7621 -0.3718
 5702SOL    HW128742   4.276   3.903   7.471 -2.2160 -0.0062 -1.7908
 5702SOL    HW228743   4.234   3.791   7.552 -2.4583 -0.2267 -0.4612
 5703SOL     OW28744   0.139   1.516   7.836 -0.0884 -0.0542  0.1477
 5703SOL    HW128745   0.170   1.456   7.904 -0.5358 -1.5771 -0.9958
 5703SOL    HW228746   0.225   1.550   7.812 -0.4096 -0.5103 -1.6402
 5704SOL     OW28747   0.564   0.245  16.078  0.4095  0.1734  0.2999
 5704SOL    HW128748   0.482   0.269  16.120 -1.0368 -1.5496 -1.5674
 5704SOL    HW228749   0.615   0.324  16.098  1.1481 -0.2903  0.2486
 5705SOL     OW28750   3.022   1.502   3.148  0.4183  0.3611  0.9433
 5705SOL    HW128751   3.010   1.486   3.242 -0.2695  0.7442  0.9245
 5705SOL    HW228752   2.933   1.504   3.112  0.5010  0.4698  0.7448
 5706SOL     OW28753   3.378   1.296  14.999  0.1372  0.1821  0.2663
 5706SOL    HW128754   3.403   1.248  15.077 -1.8453  2.8044  2.5215
 5706SOL    HW228755   3.458   1.285  14.948 -1.1536 -0.8234 -1.5588
 5707SOL     OW28756   3.538   1.226  15.397  0.7404 -0.2056  0.6544
 5707SOL    HW128757   3.518   1.182  15.315  1.1521 -1.7529  1.3922
 5707SOL    HW228758   3.448   1.230  15.431 -0.2259 -1.5112 -1.7900
 5708SOL     OW28759   1.879   2.924   6.547 -0.1630  0.0992  0.9194
 5708SOL    HW128760   1.868   3.017   6.567  1.4572 -0.1450  2.8363
 5708SOL    HW228761   1.932   2.901   6.622 -1.3054 -2.3302  0.9768
 5709SOL     OW28762   1.992   1.622  12.072  0.4327  0.0111 -0.1499
 5709SOL    HW128763   1.937   1.693  12.105  0.1074 -0.8643  1.1669
 5709SOL    HW228764   2.071   1.640  12.123  0.8244  1.2767 -1.1745
 5710SOL     OW28765   0.880   4.129   9.547  0.1327  0.0942  0.5177
 5710SOL    HW128766   0.854   4.038   9.530 -0.5171  0.1567  1.2047
 5710SOL    HW228767   0.943   4.114   9.616  1.1152  1.1793 -0.1468
 5711SOL     OW28768   1.281   4.078  16.168  0.1789 -0.3060  0.3751
 5711SOL    HW128769   1.316   3.989  16.160 -0.7408 -0.7420  1.2877
 5711SOL    HW228770   1.200   4.054  16.212 -0.0370 -0.7011 -0.2455
 5712SOL     OW28771   0.549   0.983   0.713 -0.2468 -0.0377 -0.1063
 5712SOL    HW128772   0.576   1.026   0.633  1.5537 -0.7845  0.0812
 5712SOL    HW228773   0.460   0.956   0.692 -0.8017  0.6947  1.2929
 5713SOL     OW28774   2.157   2.386  15.955  0.0281  0.5761 -0.3483
 5713SOL    HW128775   2.081   2.436  15.924  0.1918  0.8567 -0.2951
 5713SOL    HW228776   2.239   2.433  15.942  0.1902  0.6405  0.9711
 5714SOL     OW28777   2.125   2.394   4.712 -0.3901 -0.4373 -0.1740
 5714SOL    HW128778   2.072   2.474   4.717  2.8824  1.5917  2.0424
 5714SOL    HW228779   2.173   2.410   4.631 -2.4207 -0.7487 -1.4461
 5715SOL     OW28780   1.271   4.624   3.567  0.0776 -0.2586  0.0204
 5715SOL    HW128781   1.341   4.661   3.622  0.3985  0.9316 -1.1743
 5715SOL    HW228782   1.217   4.701   3.548 -0.8416 -1.0785 -0.6164
 5716SOL     OW28783   2.428   0.234   6.642 -0.3484 -0.0893 -0.3732
 5716SOL    HW128784   2.409   0.148   6.680  0.0309  1.2521  2.8663
 5716SOL    HW228785   2.346   0.261   6.601  0.4563 -0.6387 -2.3091
 5717SOL     OW28786   2.196   1.361   0.030 -0.3430  0.0866 -0.1426
 5717SOL    HW128787   2.202   1.396   0.119  0.5028  0.6128 -0.4118
 5717SOL    HW228788   2.103   1.343   0.018 -0.6659  0.0466  2.2610
 5718SOL     OW28789   1.361   0.623   1.708 -0.4033  0.1142 -0.3625
 5718SOL    HW128790   1.288   0.684   1.723  0.3396 -0.0585  4.0442
 5718SOL    HW228791   1.407   0.685   1.652  1.1627  0.4985  1.3343
 5719SOL     OW28792   3.265   1.866  13.313 -0.2380  0.5343 -0.0384
 5719SOL    HW128793   3.350   1.891  13.277 -0.9119  1.1638 -1.1931
 5719SOL    HW228794   3.238   1.798  13.251  0.1418  0.0878  0.2855
 5720SOL     OW28795   3.459   1.444   4.437  0.3711 -0.1448 -0.4775
 5720SOL    HW128796   3.457   1.351   4.458  1.8864  0.1742  1.0630
 5720SOL    HW228797   3.502   1.474   4.518  2.8341  0.9257 -2.1951
 5721SOL     OW28798   2.642   1.457  16.036 -0.4194 -0.1815 -0.2152
 5721SOL    HW128799   2.671   1.367  16.026  0.4813 -0.0046  0.8254
 5721SOL    HW228800   2.669   1.478  16.125  2.2999  3.0089 -1.7697
 5722SOL     OW28801   0.966   1.950  11.814  0.1226  0.1091 -0.1984
 5722SOL    HW128802   0.883   1.913  11.782 -2.2008  4.7901  0.4664
 5722SOL    HW228803   1.001   1.978  11.730  1.5869 -0.4865  0.2097
 5723SOL     OW28804   0.049   0.212   2.231 -0.3170  0.9543 -0.0261
 5723SOL    HW128805   4.720   0.256   2.182 -0.1852  0.8364 -0.3201
 5723SOL    HW228806   0.003   0.132   2.256  0.7449 -0.0444 -1.2601
 5724SOL     OW28807   2.819   1.608   6.820  0.1139  0.2374 -0.2190
 5724SOL    HW128808   2.826   1.625   6.726  2.6769  1.3446  0.1766
 5724SOL    HW228809   2.910   1.616   6.848  0.7117  0.7255 -2.3357
 5725SOL     OW28810   1.287   1.948   6.288 -0.6778 -0.3385  0.2285
 5725SOL    HW128811   1.210   1.896   6.310  0.2100 -1.4705  0.6740
 5725SOL    HW228812   1.244   2.032   6.305  0.0616 -0.5799  3.3965
 5726SOL     OW28813   2.112   2.343   4.265 -0.0540 -0.2831 -0.1060
 5726SOL    HW128814   2.146   2.318   4.179  0.8529 -1.1807  0.5153
 5726SOL    HW228815   2.193   2.353   4.315 -2.0973  0.9319  2.9278
 5727SOL     OW28816   2.807   2.533   5.166 -0.0067  0.3080  0.2854
 5727SOL    HW128817   2.896   2.549   5.135 -0.4851  1.8167 -0.3059
 5727SOL    HW228818   2.770   2.489   5.090  0.3602  0.9841 -0.2812
 5728SOL     OW28819   4.281   3.045  15.310 -0.1366  0.5122  0.0794
 5728SOL    HW128820   4.272   2.950  15.306 -0.6301  0.5088  1.0770
 5728SOL    HW228821   4.227   3.073  15.237  0.3727  0.7967 -0.1878
 5729SOL     OW28822   0.391   2.230   6.606  0.2817  0.1355 -0.5903
 5729SOL    HW128823   0.393   2.250   6.700 -1.9399 -0.4309 -0.4139
 5729SOL    HW228824   0.313   2.177   6.587 -0.3067  0.7003  0.2456
 5730SOL     OW28825   1.911   1.015   5.495  0.5596 -0.1395 -0.6178
 5730SOL    HW128826   1.921   0.990   5.403  0.4478  0.4467 -0.7921
 5730SOL    HW228827   1.815   1.014   5.498  0.5895  1.4976  0.9388
 5731SOL     OW28828   4.556   1.064   9.966  0.1774 -0.2954 -0.0901
 5731SOL    HW128829   4.517   1.138  10.013  0.3415  0.9719 -1.9573
 5731SOL    HW228830   4.629   1.111   9.926 -0.7172 -1.3845 -2.9895
 5732SOL     OW28831   1.888   1.684  16.237  0.4439  0.0463 -0.1213
 5732SOL    HW128832   1.812   1.637  16.203 -0.7794  1.7900  0.2137
 5732SOL    HW228833   1.886   1.761  16.181 -1.0983  0.7631  0.9129
 5733SOL     OW28834   3.636   4.730   5.639  0.1426  0.2299 -0.5681
 5733SOL    HW128835   3.578   4.701   5.569  0.1549 -0.2311 -0.3872
 5733SOL    HW228836   3.657   0.081   5.616 -0.7448  0.7402  0.6390
 5734SOL     OW28837   4.381   3.236  14.512 -0.0208 -0.2819  0.4436
 5734SOL    HW128838   4.316   3.176  14.476 -1.4324  2.2360 -1.2179
 5734SOL    HW228839   4.332   3.303  14.562  2.0669  1.3462  0.3145
 5735SOL     OW28840   4.305   2.803  16.486  0.2606 -0.0669 -0.1730
 5735SOL    HW128841   4.215   2.836  16.490 -0.5468 -2.1096 -1.7660
 5735SOL    HW228842   4.340   2.829  16.572 -0.0498 -2.8848  0.7924
 5736SOL     OW28843   3.485   4.275  12.320 -0.0148  0.0386  0.2137
 5736SOL    HW128844   3.509   4.292  12.229 -2.0560 -2.2711 -0.7789
 5736SOL    HW228845   3.390   4.260  12.318  0.3510 -2.6421  2.5290
 5737SOL     OW28846   3.693   1.527   4.601  0.1464 -0.3371  0.6431
 5737SOL    HW128847   3.722   1.474   4.675 -0.4166 -1.1958  0.2528
 5737SOL    HW228848   3.617   1.567   4.644 -0.2455 -1.5664  1.1041
 5738SOL     OW28849   3.413   3.933   6.907 -0.6807 -0.2254  0.4012
 5738SOL    HW128850   3.408   3.991   6.984  2.2814 -1.3852  1.4699
 5738SOL    HW228851   3.507   3.912   6.909 -1.1787 -2.6176 -3.0075
 5739SOL     OW28852   1.632   2.876   2.274  0.3736 -0.5599 -0.5404
 5739SOL    HW128853   1.724   2.867   2.248  0.3444  0.0194 -0.8556
 5739SOL    HW228854   1.589   2.806   2.225  0.7357 -0.7362 -0.6021
 5740SOL     OW28855   4.234   0.434   7.304 -0.3815  0.0731  0.7946
 5740SOL    HW128856   4.162   0.378   7.334 -0.8121  0.9123  1.3043
 5740SOL    HW228857   4.194   0.462   7.222  0.5858  2.1363  1.0330
 5741SOL     OW28858   3.986   1.737   5.376  0.2283  0.1613  0.1567
 5741SOL    HW128859   4.002   1.726   5.470 -0.3311 -1.4424  0.0506
 5741SOL    HW228860   3.892   1.729   5.367  0.4424  0.8381 -2.5509
 5742SOL     OW28861   0.034   4.499   8.033  0.0645 -0.1876 -0.0399
 5742SOL    HW128862   0.086   4.429   8.074  1.8503  1.1382 -0.0233
 5742SOL    HW228863   4.711   4.511   8.104  0.8863  0.4553  0.5834
 5743SOL     OW28864   1.427   4.567  11.921 -0.2738  0.7733 -0.0394
 5743SOL    HW128865   1.399   4.528  12.003 -1.4228  0.5720 -0.5292
 5743SOL    HW228866   1.442   4.486  11.871  0.6134  2.4143 -2.4735
 5744SOL     OW28867   2.522   3.527   9.442  0.2546 -0.0397 -0.3101
 5744SOL    HW128868   2.548   3.499   9.354  0.9449 -0.4815  0.0332
 5744SOL    HW228869   2.438   3.572   9.429  0.9064  1.1004 -0.5649
 5745SOL     OW28870   1.164   4.470  12.619  0.1307 -0.1525  0.2953
 5745SOL    HW128871   1.127   4.557  12.606  0.1567 -0.4329 -1.5969
 5745SOL    HW228872   1.221   4.490  12.694 -1.8311  2.5024  1.0971
 5746SOL     OW28873   3.933   4.585  16.325  0.2069  0.1301  0.6487
 5746SOL    HW128874   4.011   4.603  16.377 -0.3959  2.1073  0.8995
 5746SOL    HW228875   3.891   4.515  16.376  0.1582  1.0180  1.8406
 5747SOL     OW28876   1.776   2.712   4.444 -0.2450 -0.6721  0.2949
 5747SOL    HW128877   1.863   2.675   4.427  1.1209  2.8873 -0.5156
 5747SOL    HW228878   1.778   2.783   4.379 -0.4964  0.0728  1.0975
 5748SOL     OW28879   3.430   0.083   6.603 -0.0617  0.1443 -0.3700
 5748SOL    HW128880   3.359   0.125   6.554  0.4210  1.1579 -0.2113
 5748SOL    HW228881   3.503   0.129   6.560  0.6074  1.6837  2.3904
 5749SOL     OW28882   1.386   0.924   7.984 -0.0607  0.0613 -0.4427
 5749SOL    HW128883   1.454   0.859   8.003  0.6598  1.3511  1.3716
 5749SOL    HW228884   1.323   0.911   8.054  1.1566 -1.1253  0.4413
 5750SOL     OW28885   4.662   0.826   7.763 -0.2681 -0.2506  0.2053
 5750SOL    HW128886   4.731   0.880   7.802  0.3351  0.4237 -1.8185
 5750SOL    HW228887   4.578   0.869   7.781 -0.4357 -1.1016  1.4635
 5751SOL     OW28888   1.072   3.725   2.588  0.0396  0.3077 -0.2905
 5751SOL    HW128889   1.014   3.737   2.664  1.2399  1.1227  0.4843
 5751SOL    HW228890   1.124   3.803   2.604  1.2228 -0.8970  1.7985
 5752SOL     OW28891   0.384   4.019   4.644 -0.2065 -0.6445 -0.6569
 5752SOL    HW128892   0.313   4.053   4.698  0.0152  3.7038 -3.0713
 5752SOL    HW228893   0.410   3.949   4.703 -0.2801 -1.2915 -1.3972
 5753SOL     OW28894   3.772   1.605   5.611  0.3986 -0.4078  0.0410
 5753SOL    HW128895   3.736   1.635   5.527 -0.2628 -1.0790  0.0804
 5753SOL    HW228896   3.699   1.641   5.661  0.6393  0.9382 -0.5759
 5754SOL     OW28897   2.910   0.214   2.202  0.2713  0.4821 -0.1879
 5754SOL    HW128898   2.891   0.307   2.198  0.2206  0.5494  1.3425
 5754SOL    HW228899   2.989   0.217   2.256 -0.3044 -0.9556  0.7538
 5755SOL     OW28900   3.787   4.622   8.685 -0.5883  0.1501 -0.4855
 5755SOL    HW128901   3.845   4.657   8.753 -1.1135  2.2390 -1.1033
 5755SOL    HW228902   3.801   4.528   8.688 -0.8944  0.1018 -0.5679
 5756SOL     OW28903   1.426   3.375   2.153 -0.3900  0.1811  0.2443
 5756SOL    HW128904   1.436   3.399   2.245  0.2165 -1.6246  0.6532
 5756SOL    HW228905   1.358   3.310   2.173 -0.2997 -0.0324 -0.1272
 5757SOL     OW28906   0.034   2.781   2.145 -0.0924  0.1733 -0.3670
 5757SOL    HW128907   4.689   2.813   2.114 -2.3673 -2.3506  3.3126
 5757SOL    HW228908   0.018   2.784   2.239  2.1523  2.1643 -0.0434
 5758SOL     OW28909   0.303   2.183   1.493 -0.0924 -1.2435 -0.5688
 5758SOL    HW128910   0.284   2.258   1.437 -0.2808 -2.2800 -1.9182
 5758SOL    HW228911   0.350   2.127   1.431  2.3336 -2.8099  2.6914
 5759SOL     OW28912   3.182   0.397  11.173  0.0747  0.0447  0.1105
 5759SOL    HW128913   3.257   0.339  11.184 -0.1386 -0.3728 -0.6951
 5759SOL    HW228914   3.139   0.390  11.258  0.4463  0.9635  0.3820
 5760SOL     OW28915   0.758   3.502   3.923  0.5552  0.3500 -0.0661
 5760SOL    HW128916   0.715   3.424   3.957  1.8026 -0.1797  0.2693
 5760SOL    HW228917   0.693   3.568   3.948 -0.8326 -1.5716  1.4067
 5761SOL     OW28918   3.387   0.789   0.742 -0.1151 -0.1392 -0.6989
 5761SOL    HW128919   3.471   0.835   0.733 -0.2358  0.2162 -0.0093
 5761SOL    HW228920   3.320   0.847   0.779 -0.0900 -1.5327  1.4969
 5762SOL     OW28921   4.498   3.170  15.103 -0.1334  0.2222 -0.4909
 5762SOL    HW128922   4.418   3.178  15.051 -0.1071 -1.9789 -0.8828
 5762SOL    HW228923   4.507   3.254  15.148  0.8321 -0.3202  0.3422
 5763SOL     OW28924   3.951   4.611   7.009 -0.8279  0.2886  0.5155
 5763SOL    HW128925   3.907   4.594   7.092 -1.3561 -0.7478  0.0291
 5763SOL    HW228926   4.002   4.529   7.010 -1.2603  0.0126  0.1311
 5764SOL     OW28927   1.676   3.414  16.428 -0.0939  0.0730 -0.4449
 5764SOL    HW128928   1.711   3.402  16.340 -0.2632 -0.1570 -0.4800
 5764SOL    HW228929   1.587   3.444  16.411 -0.2328  0.3747  0.8197
 5765SOL     OW28930   4.491   4.683   6.710 -0.6899  0.1140 -0.1196
 5765SOL    HW128931   4.482   4.662   6.617 -0.1657  1.1386 -0.4127
 5765SOL    HW228932   4.472   4.597   6.748 -2.1188  0.9642  1.0769
 5766SOL     OW28933   4.523   2.312  16.577  0.4219 -0.0067  0.3541
 5766SOL    HW128934   4.587   2.246  16.602  1.8510  0.2626 -2.5968
 5766SOL    HW228935   4.508   2.285  16.487 -0.1621  3.3101 -0.5475
 5767SOL     OW28936   1.826   3.293   6.373 -0.6676 -0.5922  0.0135
 5767SOL    HW128937   1.789   3.250   6.450 -0.3838  0.7627  0.9057
 5767SOL    HW228938   1.872   3.216   6.341  0.1648 -0.4400  0.8325
 5768SOL     OW28939   1.239   0.559   8.091 -0.2828  0.3593  0.3098
 5768SOL    HW128940   1.219   0.479   8.140 -0.3432 -0.1398 -0.5341
 5768SOL    HW228941   1.177   0.625   8.121 -0.5554  0.7197 -1.0590
 5769SOL     OW28942   0.479   3.461  16.540 -0.3093 -0.0388 -0.7446
 5769SOL    HW128943   0.550   3.406  16.506  1.0085  0.6172  0.9506
 5769SOL    HW228944   0.411   3.394  16.543  0.4614 -0.7814  0.0803
 5770SOL     OW28945   1.192   2.812  10.082 -0.2695 -0.2358 -0.8443
 5770SOL    HW128946   1.182   2.850  10.169  1.9389 -2.8715  0.5843
 5770SOL    HW228947   1.238   2.728  10.094  0.4885  0.2940 -0.0171
 5771SOL     OW28948   0.544   1.762  16.233  0.2397  0.0317  0.0233
 5771SOL    HW128949   0.618   1.822  16.233  0.7030 -0.5502 -1.2739
 5771SOL    HW228950   0.581   1.674  16.236  0.2597  0.1095  1.7576
 5772SOL     OW28951   0.738   0.916   2.244 -0.1761 -0.4922 -0.4737
 5772SOL    HW128952   0.732   0.987   2.180  2.8731  0.8019  0.6784
 5772SOL    HW228953   0.751   0.963   2.327  1.3007 -2.1817  0.2501
 5773SOL     OW28954   4.345   1.555   3.101 -0.1263 -0.2904 -0.3911
 5773SOL    HW128955   4.252   1.545   3.121  0.4971 -1.0490  2.0519
 5773SOL    HW228956   4.349   1.646   3.071  0.1275 -1.2855 -3.4076
 5774SOL     OW28957   0.304   4.699   4.694  0.1883  0.1215  0.2376
 5774SOL    HW128958   0.261   0.040   4.720  1.1858  0.1247  1.8779
 5774SOL    HW228959   0.283   4.650   4.774 -1.6333  0.8658  0.2123
 5775SOL     OW28960   3.781   3.157   2.238  0.0430  0.0760 -0.1190
 5775SOL    HW128961   3.758   3.118   2.322 -2.1904 -0.3236 -0.9387
 5775SOL    HW228962   3.779   3.252   2.253 -1.4506  0.3233 -1.9585
 5776SOL     OW28963   2.000   0.813  11.712  0.0304 -0.1497  0.3662
 5776SOL    HW128964   2.066   0.831  11.644 -0.2869  1.4207  0.4600
 5776SOL    HW228965   1.926   0.859  11.673 -0.5379 -0.6145  0.9211
 5777SOL     OW28966   0.456   3.926   6.787 -0.2699 -0.2204  0.3935
 5777SOL    HW128967   0.454   3.830   6.789 -0.9350 -0.2497 -1.4758
 5777SOL    HW228968   0.455   3.941   6.882 -3.0390  0.9389  0.1957
 5778SOL     OW28969   3.012   2.552   9.453  0.2452 -0.3225 -0.2395
 5778SOL    HW128970   2.925   2.592   9.464  0.7948  0.0592  2.6114
 5778SOL    HW228971   3.058   2.611   9.394 -0.4815 -1.1551 -1.6362
 5779SOL     OW28972   1.486   2.157   4.876  0.3433 -0.1365  0.2828
 5779SOL    HW128973   1.492   2.213   4.799 -0.7119 -1.8312 -1.0489
 5779SOL    HW228974   1.509   2.074   4.833  2.0496  0.4655  0.0386
 5780SOL     OW28975   4.611   0.614   7.583  0.5901  0.1243  0.2475
 5780SOL    HW128976   4.590   0.706   7.604 -0.2866  0.2061 -1.0321
 5780SOL    HW228977   4.659   0.604   7.666  2.2859 -1.0192 -0.8747
 5781SOL     OW28978   4.051   3.927   2.760  0.3935  0.2687  0.2642
 5781SOL    HW128979   4.030   4.019   2.774  0.3740  0.0223  1.8460
 5781SOL    HW228980   4.058   3.922   2.665 -0.6285 -0.2015  0.2234
 5782SOL     OW28981   0.585   2.156   4.588  0.4019 -0.1278  0.4982
 5782SOL    HW128982   0.536   2.191   4.663  0.1910  0.0590  0.2727
 5782SOL    HW228983   0.648   2.227   4.578  0.9453 -0.5889  0.7015
 5783SOL     OW28984   4.541   1.861  12.872  0.3619  0.2928 -0.3366
 5783SOL    HW128985   4.565   1.939  12.923 -1.1667  1.2033 -1.0239
 5783SOL    HW228986   4.564   1.783  12.922 -0.7655  1.0119  1.3078
 5784SOL     OW28987   4.732   2.161   7.028  0.0433 -0.0069 -0.0368
 5784SOL    HW128988   4.681   2.209   7.092  0.8075  0.1793  0.4406
 5784SOL    HW228989   0.058   2.228   7.009 -0.8963  0.7028 -0.7655
 5785SOL     OW28990   1.165   2.872   6.792 -0.0481 -0.1466  0.2636
 5785SOL    HW128991   1.120   2.898   6.872  1.8564  1.6537  0.7542
 5785SOL    HW228992   1.091   2.859   6.733  0.0528 -0.4030  0.1937
 5786SOL     OW28993   4.270   1.188   3.116 -0.3948  0.0921 -0.0402
 5786SOL    HW128994   4.225   1.214   3.036 -0.0237 -1.5947 -0.7911
 5786SOL    HW228995   4.346   1.247   3.116  1.4366 -2.2853  0.8363
 5787SOL     OW28996   3.742   0.753   8.581 -0.1010  0.1044  0.0786
 5787SOL    HW128997   3.720   0.725   8.670  0.0678 -0.4692 -0.0605
 5787SOL    HW228998   3.665   0.802   8.550  0.0812  1.7135  2.1412
 5788SOL     OW28999   2.384   0.547   9.534  0.1321 -0.1899  0.1512
 5788SOL    HW129000   2.410   0.477   9.475  0.7197 -0.9405  1.2942
 5788SOL    HW229001   2.349   0.619   9.481 -1.6288 -0.8814  0.3857
 5789SOL     OW29002   3.356   0.000   6.093  0.6087  0.6305  0.4310
 5789SOL    HW129003   3.421   0.071   6.097  0.1941  1.1742 -2.3761
 5789SOL    HW229004   3.410   4.662   6.102  1.0933  0.6972 -2.1806
 5790SOL     OW29005   1.176   0.844   8.167  0.4754 -0.2578 -0.0842
 5790SOL    HW129006   1.098   0.822   8.117  0.7743 -1.1889 -0.1380
 5790SOL    HW229007   1.146   0.926   8.208  1.2895  0.7283 -1.4531
 5791SOL     OW29008   1.317   0.853   7.733 -0.0816 -0.2589 -0.2575
 5791SOL    HW129009   1.374   0.777   7.723  1.9800  1.1407  0.9043
 5791SOL    HW229010   1.319   0.871   7.827 -0.2491  0.4396 -0.3889
 5792SOL     OW29011   3.624   3.302  17.697  0.1090  0.1481 -0.9351
 5792SOL    HW129012   3.553   3.365  17.688 -2.7846 -2.8450  0.8210
 5792SOL    HW229013   3.595   3.245   0.011  0.3796  0.3607 -0.6581
 5793SOL     OW29014   3.710   4.410   1.235 -0.3711  0.4695 -0.4068
 5793SOL    HW129015   3.797   4.412   1.274 -0.2535 -0.7176 -0.6063
 5793SOL    HW229016   3.682   4.481   1.294 -0.5354 -0.2585  0.3949
 5794SOL     OW29017   4.371   0.074  13.938 -0.5308 -0.4728  0.5622
 5794SOL    HW129018   4.324   0.096  14.019 -0.0113 -1.0245  1.0066
 5794SOL    HW229019   4.455   0.045  13.972  0.5556  2.1899  0.1842
 5795SOL     OW29020   1.718   2.771   7.385  0.1025  0.3200 -0.3355
 5795SOL    HW129021   1.668   2.706   7.336  0.4937 -0.2847  0.0783
 5795SOL    HW229022   1.653   2.789   7.453  0.5637  1.2697 -0.1418
 5796SOL     OW29023   3.879   3.413   4.115  0.1171 -0.1940  0.0390
 5796SOL    HW129024   3.833   3.338   4.152 -0.8688 -0.0764 -0.9423
 5796SOL    HW229025   3.972   3.397   4.127 -0.2381 -1.2937  1.2701
 5797SOL     OW29026   1.723   4.497   3.540 -0.0906 -0.2215 -0.1896
 5797SOL    HW129027   1.699   4.515   3.449 -2.8122  0.3411  0.6404
 5797SOL    HW229028   1.755   4.586   3.560  0.9314 -0.4506 -0.8123
 5798SOL     OW29029   0.431   1.232   2.002  0.0514  0.2388 -0.3654
 5798SOL    HW129030   0.380   1.151   2.006  2.5886 -1.3287 -0.0221
 5798SOL    HW229031   0.378   1.299   1.958 -0.2207  0.8916  0.9607
 5799SOL     OW29032   2.565   4.678   2.608  0.1383  0.0992 -0.5215
 5799SOL    HW129033   2.585   4.691   2.515 -0.1830  0.9699 -0.4729
 5799SOL    HW229034   2.632   4.612   2.625  2.6432  2.6582 -0.4106
 5800SOL     OW29035   2.027   2.524   4.010  0.4556  0.0749 -0.3434
 5800SOL    HW129036   1.987   2.609   3.992 -0.6877 -0.6721 -1.3036
 5800SOL    HW229037   1.972   2.460   3.965  2.0064 -1.9725  0.6775
 5801SOL     OW29038   4.187   1.378   7.151 -0.1800  0.3536  0.4636
 5801SOL    HW129039   4.116   1.345   7.096 -2.2319  0.9308  2.7108
 5801SOL    HW229040   4.254   1.381   7.084 -0.1431  0.8630  0.5172
 5802SOL     OW29041   1.675   4.267  16.510  0.2607  0.0446 -0.5854
 5802SOL    HW129042   1.751   4.231  16.556 -1.0420 -0.8510  0.8868
 5802SOL    HW229043   1.710   4.348  16.473  1.0121  0.2569  0.6079
 5803SOL     OW29044   0.544   1.567   8.149 -0.1526 -0.2536  0.5197
 5803SOL    HW129045   0.486   1.628   8.194 -0.2160  0.8512 -1.0672
 5803SOL    HW229046   0.575   1.617   8.073 -1.7212  0.1108  0.1157
 5804SOL     OW29047   1.359   1.746  11.922  0.5809  0.3070  0.2312
 5804SOL    HW129048   1.387   1.726  12.011  0.2310 -0.1054  0.2500
 5804SOL    HW229049   1.323   1.661  11.897  1.9754 -0.1700 -0.1893
 5805SOL     OW29050   0.565   4.182   2.752 -0.0091 -0.3134 -0.2933
 5805SOL    HW129051   0.597   4.144   2.834 -2.1496 -3.3112 -0.8444
 5805SOL    HW229052   0.487   4.224   2.788  0.2569 -0.6797  0.7124
 5806SOL     OW29053   3.097   4.608   7.837 -0.5193  0.5171  0.1658
 5806SOL    HW129054   3.022   4.599   7.895 -0.3385  2.2257  0.6656
 5806SOL    HW229055   3.128   4.691   7.872  1.2484 -0.3683  0.6894
 5807SOL     OW29056   1.829   2.712   3.337 -0.0367  0.2359  0.4832
 5807SOL    HW129057   1.902   2.761   3.375 -1.2075  0.2426  2.7523
 5807SOL    HW229058   1.770   2.712   3.412  0.6845 -2.0896  1.0256
 5808SOL     OW29059   0.639   3.294   8.237  0.3595  0.8891 -0.6795
 5808SOL    HW129060   0.682   3.345   8.306 -0.7526  0.7170  0.1355
 5808SOL    HW229061   0.715   3.242   8.210 -0.8001 -1.3805  0.3899
 5809SOL     OW29062   4.129   4.382   5.676 -0.3724  0.1837 -0.3276
 5809SOL    HW129063   4.067   4.450   5.650 -1.0797  0.4134  1.9671
 5809SOL    HW229064   4.141   4.331   5.596 -2.8382  0.2098 -0.7052
 5810SOL     OW29065   1.983   4.402  13.086  0.1705 -0.0127  0.4115
 5810SOL    HW129066   2.001   4.484  13.040 -0.1324 -0.9811 -1.4316
 5810SOL    HW229067   1.891   4.413  13.108  0.0631  0.5432 -0.3625
 5811SOL     OW29068   0.150   4.686   6.785  0.9070  0.5230 -0.4641
 5811SOL    HW129069   0.059   4.716   6.787  1.2092  1.3765  0.3421
 5811SOL    HW229070   0.142   4.596   6.818 -1.7427  0.2696 -1.7887
 5812SOL     OW29071   0.808   2.970   5.569  0.3830 -0.1864 -0.6254
 5812SOL    HW129072   0.807   3.062   5.598 -0.9964 -0.2598 -0.4270
 5812SOL    HW229073   0.849   2.924   5.643  1.4323  0.6668 -0.6797
 5813SOL     OW29074   0.850   0.418   9.460 -0.2224  0.2302 -0.2220
 5813SOL    HW129075   0.926   0.369   9.429  1.7606  3.8209 -1.1025
 5813SOL    HW229076   0.891   0.483   9.517  0.9154 -1.5859  1.0468
 5814SOL     OW29077   1.952   2.579   7.592 -0.3645  0.0078 -0.0249
 5814SOL    HW129078   1.890   2.526   7.543  2.5353 -0.9253 -2.6855
 5814SOL    HW229079   1.967   2.659   7.543 -2.9732  1.3540  1.3775
 5815SOL     OW29080   1.540   2.738  14.543 -0.2843  0.7932  0.7419
 5815SOL    HW129081   1.563   2.719  14.452  0.9176 -2.0064  1.6208
 5815SOL    HW229082   1.468   2.800  14.534 -1.0926 -0.1609  0.6080
 5816SOL     OW29083   2.975   0.703   7.380 -0.2382  0.3574  0.1949
 5816SOL    HW129084   2.897   0.719   7.432 -0.5030 -1.2987  0.2837
 5816SOL    HW229085   3.001   0.624   7.427 -0.2655  1.7188  2.4980
 5817SOL     OW29086   1.972   2.524   6.346  0.3435 -0.4766 -0.4118
 5817SOL    HW129087   1.947   2.536   6.438  0.9738 -0.3709 -0.2570
 5817SOL    HW229088   1.888   2.527   6.299 -0.1244 -1.3361  0.3879
 5818SOL     OW29089   1.689   0.982   7.365 -0.2917 -0.0096 -0.2051
 5818SOL    HW129090   1.648   0.971   7.451  1.9623  1.2757  1.0266
 5818SOL    HW229091   1.768   1.033   7.382 -0.9680  0.7031  0.7827
 5819SOL     OW29092   2.038   0.137  12.999 -0.2542 -0.1025  0.3846
 5819SOL    HW129093   1.974   0.152  13.068  1.0008  0.5660  1.3868
 5819SOL    HW229094   2.054   0.042  13.003 -0.0103 -0.0050  1.5325
 5820SOL     OW29095   4.562   0.952   4.477  0.0251 -0.6758  0.3820
 5820SOL    HW129096   4.495   1.008   4.438 -0.8275 -2.0092 -0.0980
 5820SOL    HW229097   4.609   1.024   4.518  1.7449  0.0612 -2.8410
 5821SOL     OW29098   1.498   0.595   5.592  0.5883 -0.1278  0.1037
 5821SOL    HW129099   1.483   0.520   5.534 -1.3804  0.2867  0.0927
 5821SOL    HW229100   1.463   0.556   5.672 -0.8459 -1.4680 -1.1641
 5822SOL     OW29101   2.300   0.568   1.408  0.3320  0.1070  0.2626
 5822SOL    HW129102   2.277   0.487   1.453 -0.0517 -1.1004 -2.1033
 5822SOL    HW229103   2.252   0.546   1.328 -1.3874  1.8936  0.7920
 5823SOL     OW29104   2.771   1.783   8.709  0.0134  0.3744  0.1337
 5823SOL    HW129105   2.776   1.694   8.742 -0.3227 -0.4861 -2.1472
 5823SOL    HW229106   2.772   1.765   8.615 -0.5273 -0.3866  0.2755
 5824SOL     OW29107   2.185   2.107   4.054 -0.4298  0.3843 -0.1108
 5824SOL    HW129108   2.206   2.150   3.971  3.7190  0.2164  0.8547
 5824SOL    HW229109   2.196   2.014   4.033  0.1227  0.6539 -1.0298
 5825SOL     OW29110   1.789   4.599  10.745  0.4745  0.1076  0.1014
 5825SOL    HW129111   1.743   4.517  10.730  0.7954 -0.1345  0.4416
 5825SOL    HW229112   1.879   4.569  10.730 -0.2015 -2.3745  1.1584
 5826SOL     OW29113   1.370   0.412   7.896 -0.0329  0.1644 -0.0675
 5826SOL    HW129114   1.326   0.470   7.959  0.6472 -0.5757  1.0929
 5826SOL    HW229115   1.291   0.380   7.852 -1.4237  2.3033  0.8556
 5827SOL     OW29116   1.496   2.000   4.350  0.1451 -0.0413  0.1592
 5827SOL    HW129117   1.416   1.961   4.388  1.3361  0.3301  3.0847
 5827SOL    HW229118   1.484   2.083   4.395  0.3134  1.5591 -2.8170
 5828SOL     OW29119   1.047   3.219   1.533 -0.1687  0.6049  0.0393
 5828SOL    HW129120   1.058   3.296   1.477 -0.2057  1.3451  1.0689
 5828SOL    HW229121   0.952   3.219   1.543  0.0747  1.2612  2.1986
 5829SOL     OW29122   2.523   3.558   1.870  0.0405 -0.2400  0.0237
 5829SOL    HW129123   2.519   3.625   1.803  0.0678 -0.0267  0.2368
 5829SOL    HW229124   2.547   3.613   1.945 -0.4761 -2.6069  1.9448
 5830SOL     OW29125   4.207   1.583   0.571  0.7861 -0.1779 -0.2793
 5830SOL    HW129126   4.141   1.651   0.572 -1.5705 -2.4630  0.6029
 5830SOL    HW229127   4.290   1.628   0.585  1.0129 -1.2384  1.7987
 5831SOL     OW29128   3.565   2.793  12.694  0.0684 -0.1855 -0.2296
 5831SOL    HW129129   3.635   2.858  12.685  0.4351 -0.5200  0.1917
 5831SOL    HW229130   3.618   2.722  12.657  0.6120 -1.0537  2.2097
 5832SOL     OW29131   4.255   1.810  17.581 -0.2281 -0.2287  0.3326
 5832SOL    HW129132   4.188   1.847  17.638  0.5708 -1.4667  2.0713
 5832SOL    HW229133   4.212   1.730  17.550 -0.5367  0.3126 -0.6725
 5833SOL     OW29134   4.155   3.843  16.451 -0.0178 -0.4891 -0.0189
 5833SOL    HW129135   4.157   3.886  16.366 -1.0534  1.9595  1.1777
 5833SOL    HW229136   4.243   3.806  16.445  0.2479 -0.0638  1.2635
 5834SOL     OW29137   2.054   1.761   3.409 -0.0645  0.2235 -0.3675
 5834SOL    HW129138   2.051   1.851   3.375 -3.1171  0.3919  0.3490
 5834SOL    HW229139   2.052   1.713   3.326  0.9335  0.8956 -0.7870
 5835SOL     OW29140   2.045   3.857   8.961 -0.0664 -0.0544  0.5360
 5835SOL    HW129141   2.058   3.886   8.871 -1.4741 -1.0518  0.0052
 5835SOL    HW229142   1.954   3.826   8.957 -0.3070  0.6155  0.8213
 5836SOL     OW29143   1.070   2.660  12.599  0.0193  0.3207 -0.1050
 5836SOL    HW129144   1.097   2.610  12.521  0.0541 -1.0005  0.7536
 5836SOL    HW229145   1.002   2.603  12.634  0.4828 -0.2206 -0.0824
 5837SOL     OW29146   3.115   2.708   8.278 -0.4144 -0.5519  0.0618
 5837SOL    HW129147   3.200   2.705   8.235 -1.4869 -2.3353 -1.8887
 5837SOL    HW229148   3.066   2.761   8.216  0.4876  0.7997  0.5059
 5838SOL     OW29149   1.248   0.325   6.174 -0.1410 -1.2191  0.7218
 5838SOL    HW129150   1.282   0.414   6.171  0.4208 -1.4828 -0.8778
 5838SOL    HW229151   1.295   0.294   6.251 -0.3888  1.5148  1.9405
 5839SOL     OW29152   1.127   3.186   6.652  0.4936 -0.1793 -0.2770
 5839SOL    HW129153   1.158   3.206   6.740 -2.4255 -0.8329  0.8984
 5839SOL    HW229154   1.166   3.100   6.635  0.7266  0.4647 -2.9708
 5840SOL     OW29155   3.841   0.041  13.152  0.2911 -0.0025  0.2251
 5840SOL    HW129156   3.885   0.072  13.231  0.2492  2.0019 -0.5286
 5840SOL    HW229157   3.894   0.087  13.087 -0.0897 -1.8862 -1.3976
 5841SOL     OW29158   1.864   0.915   3.904  0.1655 -0.2441 -0.6526
 5841SOL    HW129159   1.769   0.930   3.905  0.3968  1.2295  0.3604
 5841SOL    HW229160   1.881   0.940   3.813  2.7701 -1.4758 -0.5056
 5842SOL     OW29161   3.303   2.930   9.066  0.1479  0.0045 -0.1450
 5842SOL    HW129162   3.325   2.856   9.010 -0.6318  0.1949 -0.7109
 5842SOL    HW229163   3.306   2.993   8.993 -0.0498  0.3909  0.1803
 5843SOL     OW29164   3.296   3.424   0.130 -0.1069  0.3026 -0.8429
 5843SOL    HW129165   3.207   3.456   0.116  0.2566  1.0507 -1.3869
 5843SOL    HW229166   3.319   3.477   0.206 -1.1022  1.2079 -1.1850
 5844SOL     OW29167   2.315   4.344  11.358  0.5687  0.0498  0.5065
 5844SOL    HW129168   2.270   4.318  11.279  0.6397  0.2189  0.4107
 5844SOL    HW229169   2.236   4.352  11.412 -0.7711 -2.7683 -1.0647
 5845SOL     OW29170   2.603   2.298   8.516  0.3958 -0.4087  0.1189
 5845SOL    HW129171   2.680   2.343   8.551 -0.2733 -0.1589  1.2687
 5845SOL    HW229172   2.571   2.255   8.595 -0.0532  2.9059  1.7627
 5846SOL     OW29173   0.828   1.379   2.873 -0.1344 -0.4144 -0.2273
 5846SOL    HW129174   0.742   1.358   2.836 -0.3544  0.2389 -0.0829
 5846SOL    HW229175   0.814   1.365   2.966 -1.8214  3.6877  0.1294
 5847SOL     OW29176   4.474   3.725   1.081  0.1088 -0.0598  0.1296
 5847SOL    HW129177   4.558   3.726   1.126  0.0793  0.5642  0.1662
 5847SOL    HW229178   4.500   3.709   0.991 -0.7373  1.7849 -0.4385
 5848SOL     OW29179   1.517   0.734   6.778 -0.4078 -0.3612  0.2768
 5848SOL    HW129180   1.546   0.667   6.840 -1.3140 -1.2971 -0.3078
 5848SOL    HW229181   1.479   0.792   6.844 -1.3043 -0.6318  0.0022
 5849SOL     OW29182   3.970   2.208   5.726 -0.0873  0.2169  0.1500
 5849SOL    HW129183   3.943   2.142   5.789 -1.1530  2.3768  1.9568
 5849SOL    HW229184   3.885   2.219   5.682  0.4129  3.0121 -0.1329
 5850SOL     OW29185   2.620   2.767   7.817  0.1218  0.4770  0.2129
 5850SOL    HW129186   2.643   2.752   7.909  1.8483  2.1344  0.0616
 5850SOL    HW229187   2.647   2.684   7.779 -0.2175  0.8513 -0.8505
 5851SOL     OW29188   4.246   3.382   4.471 -0.1934  0.3175 -0.4378
 5851SOL    HW129189   4.161   3.397   4.512 -0.3473 -0.2328 -0.5504
 5851SOL    HW229190   4.282   3.468   4.492 -2.0585  1.0737 -0.4066
 5852SOL     OW29191   0.392   0.317   3.265 -0.0449  0.3106 -0.1264
 5852SOL    HW129192   0.448   0.391   3.291  2.0728 -0.9454 -1.0901
 5852SOL    HW229193   0.463   0.253   3.261 -0.3135  0.1515 -2.0422
 5853SOL     OW29194   2.807   3.345   2.680  0.1045 -0.5664  0.5852
 5853SOL    HW129195   2.886   3.398   2.696 -0.5328  0.7431 -0.5462
 5853SOL    HW229196   2.803   3.329   2.585 -1.2348 -1.2093  0.7624
 5854SOL     OW29197   0.154   2.935   8.821 -0.0039 -0.9331 -0.2189
 5854SOL    HW129198   0.245   2.946   8.794  0.0583  0.7100  0.7121
 5854SOL    HW229199   0.131   3.027   8.815  0.8112 -0.4913  3.6055
 5855SOL     OW29200   3.021   2.381  14.624 -0.1352  0.2221 -0.7445
 5855SOL    HW129201   3.025   2.304  14.680  0.9164  0.0041 -1.1175
 5855SOL    HW229202   2.997   2.351  14.537  0.1297 -0.0793 -0.7147
 5856SOL     OW29203   1.856   4.118   5.670 -0.2985 -0.0963 -0.2532
 5856SOL    HW129204   1.895   4.181   5.608 -0.6161 -1.0827 -1.4502
 5856SOL    HW229205   1.769   4.126   5.632 -0.1654  0.2798 -0.4782
 5857SOL     OW29206   3.318   3.236   3.746 -0.2767 -0.0912 -0.1007
 5857SOL    HW129207   3.403   3.207   3.713  0.0476  1.4751 -0.6450
 5857SOL    HW229208   3.273   3.251   3.663  2.4718 -0.2191 -1.6139
 5858SOL     OW29209   0.734   0.417  13.724  0.1122  0.0836  0.3770
 5858SOL    HW129210   0.806   0.452  13.777 -0.6612 -0.6877  1.9276
 5858SOL    HW229211   0.780   0.410  13.640  0.3714 -0.8920  0.6050
 5859SOL     OW29212   3.498   4.561   0.445 -0.7110 -0.4036  0.2431
 5859SOL    HW129213   3.506   4.471   0.477  1.1188 -0.8954 -1.5829
 5859SOL    HW229214   3.578   4.599   0.482  0.0600 -0.5708 -1.2521
 5860SOL     OW29215   3.988   4.040  10.203  0.1860 -0.5789  0.4734
 5860SOL    HW129216   4.002   4.134  10.212  0.5183 -0.5630 -0.1899
 5860SOL    HW229217   3.930   4.027  10.277 -1.0608  0.7154 -0.2806
 5861SOL     OW29218   4.315   3.063   4.719 -0.7304 -0.5346 -0.3737
 5861SOL    HW129219   4.389   3.004   4.730 -1.6706 -1.9947 -1.8468
 5861SOL    HW229220   4.358   3.133   4.670  0.7538  0.2263  2.0118
 5862SOL     OW29221   0.133   0.004   5.468  0.0371  0.4898  0.0498
 5862SOL    HW129222   0.147   0.035   5.378  1.6266 -0.0902  0.1121
 5862SOL    HW229223   0.130   0.083   5.520 -1.9214  0.2168  0.3682
 5863SOL     OW29224   3.330   2.786   6.153  0.2060  0.1638 -0.4522
 5863SOL    HW129225   3.389   2.812   6.083 -1.3563  0.8500 -1.5283
 5863SOL    HW229226   3.367   2.843   6.220  1.0373 -0.5124 -0.3434
 5864SOL     OW29227   4.286   2.578   6.682  0.5523  0.0324  0.1559
 5864SOL    HW129228   4.274   2.615   6.595  1.2135  1.3264  0.6258
 5864SOL    HW229229   4.194   2.566   6.707  0.8783 -1.4815  0.6523
 5865SOL     OW29230   2.695   0.294  13.182 -0.3695 -0.2730  0.1653
 5865SOL    HW129231   2.707   0.327  13.094  1.9502 -0.6641  0.3316
 5865SOL    HW229232   2.600   0.296  13.186 -0.4509 -2.4007 -0.8406
 5866SOL     OW29233   1.973   0.398  17.005 -0.0801  0.0814 -0.3350
 5866SOL    HW129234   1.993   0.421  16.914  0.9894 -0.0549 -0.1364
 5866SOL    HW229235   2.054   0.348  17.016  0.1927  1.0403  1.9259
 5867SOL     OW29236   3.054   1.717   8.094  0.6460 -0.2526  0.0758
 5867SOL    HW129237   3.099   1.794   8.060  0.9066 -0.3184  0.2652
 5867SOL    HW229238   3.113   1.655   8.050  1.7254  0.6088  0.3189
 5868SOL     OW29239   0.954   1.312   3.378  0.0630 -0.5396 -0.3141
 5868SOL    HW129240   0.904   1.304   3.460  0.4382 -1.7245 -0.2023
 5868SOL    HW229241   1.033   1.354   3.411  0.5191 -0.1803 -1.8958
 5869SOL     OW29242   2.633   2.694   8.546 -0.9603 -0.3172  0.1127
 5869SOL    HW129243   2.563   2.653   8.496  0.3529 -2.1361 -0.2306
 5869SOL    HW229244   2.700   2.694   8.478  0.8855  1.2849  1.9309
 5870SOL     OW29245   0.550   0.201  13.607 -1.0179  0.5531 -0.2118
 5870SOL    HW129246   0.586   0.121  13.568  0.5729  1.9005 -1.4652
 5870SOL    HW229247   0.613   0.268  13.581 -1.5039  1.1170  0.0865
 5871SOL     OW29248   0.914   3.536   8.932  0.3253 -0.3772 -0.3479
 5871SOL    HW129249   0.856   3.509   8.860  0.0016  0.4878 -0.4160
 5871SOL    HW229250   0.873   3.622   8.941  0.6910  0.0814 -2.8965
 5872SOL     OW29251   2.796   3.891  14.590 -0.2001  0.2183  0.0275
 5872SOL    HW129252   2.826   3.944  14.664 -0.2594 -0.8644  0.8283
 5872SOL    HW229253   2.703   3.911  14.595 -0.3076 -0.3154  0.1542
 5873SOL     OW29254   2.705   3.385   8.480  0.0502  0.1773  0.0975
 5873SOL    HW129255   2.708   3.451   8.549 -3.4171  0.9257 -0.4667
 5873SOL    HW229256   2.682   3.444   8.409  1.2367  0.9792  0.3857
 5874SOL     OW29257   1.971   3.134   1.676  0.2418  0.3538 -0.0896
 5874SOL    HW129258   2.013   3.111   1.593 -0.5954 -0.2030 -0.3592
 5874SOL    HW229259   1.878   3.120   1.655  0.4817 -1.4569  0.0594
 5875SOL     OW29260   3.467   4.536   8.230 -0.4407 -0.0273 -0.5047
 5875SOL    HW129261   3.393   4.592   8.252  1.1464  2.4832 -1.5595
 5875SOL    HW229262   3.488   4.533   8.323 -2.4282  1.8423  0.0022
 5876SOL     OW29263   4.397   3.009  12.114  0.0454 -0.5754  0.3729
 5876SOL    HW129264   4.477   2.961  12.091 -1.3132 -3.0311  0.8328
 5876SOL    HW229265   4.338   2.982  12.043 -0.7307 -2.1134  1.6140
 5877SOL     OW29266   4.518   4.600   8.676 -0.0829 -0.0538  1.3934
 5877SOL    HW129267   4.496   4.685   8.714 -0.3677  0.0266  1.0420
 5877SOL    HW229268   4.589   4.616   8.614 -1.3004 -1.6728 -0.4159
 5878SOL     OW29269   1.711   4.679   6.544  0.0333 -0.1485  0.1478
 5878SOL    HW129270   1.637   4.621   6.530 -1.4348  1.4852  1.0351
 5878SOL    HW229271   1.680   0.000   6.611 -2.3563 -0.4821 -0.6755
 5879SOL     OW29272   1.794   2.253  10.248  0.3030 -0.0256  0.1024
 5879SOL    HW129273   1.763   2.337  10.285  2.9972  1.4208 -0.9767
 5879SOL    HW229274   1.824   2.287  10.164 -1.3552 -0.0061 -0.4801
 5880SOL     OW29275   0.557   1.537  11.572  0.7596  0.3590 -0.7109
 5880SOL    HW129276   0.626   1.579  11.521 -0.1978  2.3852 -0.3482
 5880SOL    HW229277   0.524   1.468  11.514 -1.7646 -0.4127  1.6336
 5881SOL     OW29278   0.324   2.902   8.109  0.2193 -0.0049 -0.1934
 5881SOL    HW129279   0.338   2.905   8.015 -1.9909  1.2650 -0.4687
 5881SOL    HW229280   0.401   2.955   8.131  0.3004 -0.2797  0.1945
 5882SOL     OW29281   2.818   2.129   3.334 -0.2146 -0.7588  0.1608
 5882SOL    HW129282   2.756   2.121   3.407 -0.1732  1.6147  0.4614
 5882SOL    HW229283   2.791   2.205   3.282  1.5903 -0.0636  0.2459
 5883SOL     OW29284   1.228   4.528   5.457  0.1371 -0.1604  0.0298
 5883SOL    HW129285   1.319   4.539   5.429 -0.2516 -0.0578 -1.1982
 5883SOL    HW229286   1.234   4.603   5.517 -3.2031 -0.0177  0.1413
 5884SOL     OW29287   1.158   2.091  15.176 -0.0480  0.0329 -0.7807
 5884SOL    HW129288   1.127   2.019  15.231 -0.0320  1.2838  0.8747
 5884SOL    HW229289   1.187   2.153  15.243  0.1762 -0.7552 -0.1447
 5885SOL     OW29290   0.786   1.323  11.681 -0.5838  0.2731 -0.9660
 5885SOL    HW129291   0.824   1.252  11.733 -1.2748  1.5642  1.3141
 5885SOL    HW229292   0.724   1.279  11.623 -1.5677  0.5500 -0.1130
 5886SOL     OW29293   2.412   0.655   7.492 -0.3204  0.0051 -0.1833
 5886SOL    HW129294   2.337   0.712   7.479  1.3042  2.5361  1.5103
 5886SOL    HW229295   2.400   0.631   7.584  0.5058 -2.1548 -0.6271
 5887SOL     OW29296   3.466   4.383   4.976 -0.4562 -0.1932  0.0017
 5887SOL    HW129297   3.393   4.405   5.034 -0.3391  0.9871 -0.2827
 5887SOL    HW229298   3.464   4.464   4.925  1.6424 -0.9568 -1.2858
 5888SOL     OW29299   3.010   1.689   2.422 -0.4294 -0.5698  0.2140
 5888SOL    HW129300   2.928   1.643   2.409  0.3214 -1.2906 -1.9558
 5888SOL    HW229301   2.998   1.768   2.368 -0.0898 -1.5508 -1.3010
 5889SOL     OW29302   3.367   4.549   2.020  0.4922 -0.0021  0.1816
 5889SOL    HW129303   3.343   4.457   2.016 -2.6458  0.9894 -3.3149
 5889SOL    HW229304   3.283   4.592   2.032 -0.8425 -1.8017 -2.9635
 5890SOL     OW29305   1.787   0.753  10.366  0.7284  0.1601 -0.5635
 5890SOL    HW129306   1.764   0.802  10.445 -0.1958 -1.9494  0.4534
 5890SOL    HW229307   1.755   0.822  10.308  0.8150  0.5170 -0.1877
 5891SOL     OW29308   0.202   4.513   5.275 -0.2254 -0.1758 -0.4968
 5891SOL    HW129309   0.187   4.590   5.330 -1.2312 -0.2491 -0.6576
 5891SOL    HW229310   0.242   4.553   5.198  1.2584 -0.2368  0.2438
 5892SOL     OW29311   0.119   1.081  15.798  0.0865  0.1567 -0.7676
 5892SOL    HW129312   0.115   1.112  15.707 -1.3706  0.6824 -0.5206
 5892SOL    HW229313   0.130   1.161  15.850 -2.4107 -0.7373  1.1240
 5893SOL     OW29314   0.662   1.758   4.556  0.3123  0.0614 -0.1347
 5893SOL    HW129315   0.595   1.772   4.622  1.3755 -0.0791  0.9861
 5893SOL    HW229316   0.737   1.748   4.615 -0.7233  1.0571  1.3417
 5894SOL     OW29317   4.723   1.721   7.522 -0.1773  0.0177  0.0078
 5894SOL    HW129318   0.041   1.705   7.447 -0.6208  0.7983 -0.5042
 5894SOL    HW229319   4.670   1.787   7.478 -0.4825 -0.6932 -0.7010
 5895SOL     OW29320   4.566   4.524   2.215 -0.2579 -0.9940 -0.1286
 5895SOL    HW129321   4.645   4.487   2.177 -0.0363 -0.6359 -0.0196
 5895SOL    HW229322   4.565   4.487   2.303  3.3493  1.3719  0.8976
 5896SOL     OW29323   4.593   2.434   2.762 -0.1014 -0.1600 -0.2459
 5896SOL    HW129324   4.622   2.525   2.758 -2.3961  0.5030 -1.3010
 5896SOL    HW229325   4.677   2.393   2.743  1.4533  1.7745  2.5150
 5897SOL     OW29326   3.504   4.603   5.416  0.4102 -0.4048 -0.6972
 5897SOL    HW129327   3.515   4.634   5.326 -1.5662 -0.8201 -1.0721
 5897SOL    HW229328   3.431   4.543   5.407  0.7506 -1.0595  0.8663
 5898SOL     OW29329   4.729   0.797   7.240 -0.2713  0.6849 -0.2475
 5898SOL    HW129330   4.645   0.842   7.229 -0.1638  0.8044 -0.5678
 5898SOL    HW229331   0.011   0.822   7.330  1.2170  1.1974 -0.7473
 5899SOL     OW29332   2.643   4.621   3.901 -0.1530 -0.6760 -0.3222
 5899SOL    HW129333   2.674   4.587   3.985 -0.5574  0.1327  0.1582
 5899SOL    HW229334   2.705   4.690   3.880  1.8897 -2.2796  0.4989
 5900SOL     OW29335   3.039   3.259   4.726 -0.2962  0.0364 -0.2133
 5900SOL    HW129336   2.989   3.195   4.776  0.8754  0.4591  1.4917
 5900SOL    HW229337   2.965   3.297   4.677  1.1165  0.9082 -1.6894
 5901SOL     OW29338   0.627   2.117   8.303  0.7473  0.3802 -0.3742
 5901SOL    HW129339   0.594   2.114   8.393 -2.9017  0.3699 -1.7101
 5901SOL    HW229340   0.649   2.024   8.298 -0.3648  0.0128  1.7066
 5902SOL     OW29341   2.644   0.536  14.206 -0.0417 -0.1875 -0.0206
 5902SOL    HW129342   2.650   0.441  14.220  0.9166 -0.1975 -0.4823
 5902SOL    HW229343   2.549   0.544  14.201 -0.0237 -0.2918 -0.5824
 5903SOL     OW29344   1.355   2.844   0.102 -0.0234 -0.1801  0.4773
 5903SOL    HW129345   1.424   2.814   0.042 -0.5558  2.8749 -1.7080
 5903SOL    HW229346   1.396   2.930   0.119  1.0515 -0.4019 -0.9465
 5904SOL     OW29347   1.312   2.462   7.475 -0.7204  0.3846 -0.2123
 5904SOL    HW129348   1.238   2.522   7.480  0.7776  2.2247 -0.1278
 5904SOL    HW229349   1.347   2.465   7.564  0.4726 -0.8611 -0.6418
 5905SOL     OW29350   0.418   1.333   9.014  0.1045 -0.0719 -0.0480
 5905SOL    HW129351   0.479   1.307   8.946  1.0374  4.9197 -1.1552
 5905SOL    HW229352   0.366   1.254   9.017  1.8817 -1.2347  0.1509
 5906SOL     OW29353   3.758   1.241   2.625 -0.6254 -0.1710 -0.0054
 5906SOL    HW129354   3.804   1.300   2.685  1.6345 -1.2099 -0.7306
 5906SOL    HW229355   3.697   1.201   2.687 -1.2034 -0.6628 -0.8902
 5907SOL     OW29356   1.759   0.627   3.831  0.3112 -0.1039  0.3064
 5907SOL    HW129357   1.827   0.691   3.850  1.0455 -0.8341  0.1652
 5907SOL    HW229358   1.819   0.552   3.839  1.4518  0.7480 -0.3953
 5908SOL     OW29359   0.302   3.606   1.700  0.3695  0.5292  0.1339
 5908SOL    HW129360   0.324   3.645   1.616  0.9756 -1.7720 -0.7815
 5908SOL    HW229361   0.314   3.683   1.755  0.0255 -0.2673  1.3232
 5909SOL     OW29362   2.372   3.686  12.744 -0.5521 -0.8106  0.0073
 5909SOL    HW129363   2.318   3.610  12.769  1.8055 -3.1355 -1.9176
 5909SOL    HW229364   2.356   3.739  12.822  0.8844 -0.4553  0.0668
 5910SOL     OW29365   1.327   4.178   2.299 -0.5025 -0.1132  0.2981
 5910SOL    HW129366   1.332   4.272   2.281  1.8042 -0.0200  1.3363
 5910SOL    HW229367   1.415   4.143   2.283 -0.8202 -0.2186 -1.2056
 5911SOL     OW29368   4.677   4.170   2.024  0.2526  0.2872 -0.2275
 5911SOL    HW129369   0.016   4.125   1.994  0.8862  0.7850  0.7109
 5911SOL    HW229370   4.718   4.243   2.070  0.0813  1.2547 -1.6082
 5912SOL     OW29371   3.679   3.690   0.369 -0.5285 -0.0642 -0.6944
 5912SOL    HW129372   3.587   3.685   0.393 -0.0684  0.7352  1.2461
 5912SOL    HW229373   3.691   3.775   0.327  1.1492  0.1781  0.2574
 5913SOL     OW29374   0.823   0.288   9.884  0.0203  0.0650  0.1560
 5913SOL    HW129375   0.917   0.275   9.889 -0.1378 -0.8587  0.7348
 5913SOL    HW229376   0.804   0.201   9.848 -0.8131  0.9019 -1.4295
 5914SOL     OW29377   3.944   3.860   5.870 -0.0872  0.4600 -0.0281
 5914SOL    HW129378   4.014   3.909   5.914  0.9679 -0.2501 -0.9272
 5914SOL    HW229379   3.989   3.819   5.797  0.3741  0.3851  0.2943
 5915SOL     OW29380   0.655   1.039  15.297 -0.7491 -0.3305  0.3133
 5915SOL    HW129381   0.687   1.094  15.225 -0.3513 -2.2130 -0.9520
 5915SOL    HW229382   0.727   0.976  15.302  0.9534  1.5700 -0.4753
 5916SOL     OW29383   2.219   4.240   1.366  0.2019 -0.3739  0.4071
 5916SOL    HW129384   2.263   4.319   1.333 -0.2849 -1.7314 -3.4602
 5916SOL    HW229385   2.161   4.209   1.296 -1.2173  2.6117  0.2866
 5917SOL     OW29386   3.095   2.459   4.453  0.2628 -0.8254 -1.1356
 5917SOL    HW129387   3.097   2.450   4.548 -2.0774 -0.5629 -1.0631
 5917SOL    HW229388   3.094   2.366   4.430 -0.6835 -0.7343 -1.4895
 5918SOL     OW29389   0.171   2.053   1.193 -0.1590  0.0255 -0.0167
 5918SOL    HW129390   0.167   2.135   1.142 -0.6004  0.9960  1.5919
 5918SOL    HW229391   0.263   2.063   1.219 -0.6304  1.1043  1.1834
 5919SOL     OW29392   1.373   2.763  12.297 -0.1228 -0.4755 -0.1383
 5919SOL    HW129393   1.407   2.682  12.260  0.4710 -0.2550 -0.0905
 5919SOL    HW229394   1.394   2.816  12.220 -0.0451  1.7989  1.4487
 5920SOL     OW29395   2.892   0.335   3.907 -0.4828 -0.0225  0.0986
 5920SOL    HW129396   2.947   0.401   3.949  1.5298 -1.7957  0.2614
 5920SOL    HW229397   2.823   0.385   3.863  0.6880  0.5717 -1.0713
 5921SOL     OW29398   1.908   4.134  16.593  0.6871  0.0903 -0.3447
 5921SOL    HW129399   1.913   4.102  16.503 -0.4707  1.7124 -0.9786
 5921SOL    HW229400   1.995   4.117  16.631  0.8139  0.5879 -0.4208
 5922SOL     OW29401   2.185   4.392   7.836 -0.6754  0.0189 -0.3560
 5922SOL    HW129402   2.098   4.425   7.813  0.1186  1.7761 -0.8443
 5922SOL    HW229403   2.157   4.305   7.865  1.5806 -0.7280 -0.4484
 5923SOL     OW29404   3.613   2.781   4.660  0.4346  0.1240  0.4695
 5923SOL    HW129405   3.647   2.692   4.659 -1.5055 -0.6243  0.1738
 5923SOL    HW229406   3.621   2.807   4.568  2.5499 -1.4617  0.2175
 5924SOL     OW29407   1.701   1.754  17.078  0.1547  0.5927  1.0311
 5924SOL    HW129408   1.664   1.750  17.166 -0.2423  0.8402  0.8729
 5924SOL    HW229409   1.627   1.726  17.024 -0.4377 -1.6840  3.0249
 5925SOL     OW29410   3.476   1.887   2.851 -0.1458 -0.1429  0.2694
 5925SOL    HW129411   3.497   1.837   2.772  0.4516 -0.0432  0.3595
 5925SOL    HW229412   3.561   1.926   2.871  0.5306 -1.0612 -0.7799
 5926SOL     OW29413   0.127   2.157   8.104  0.0527 -0.3841 -0.2402
 5926SOL    HW129414   0.095   2.068   8.094  0.1399 -0.8317  3.3461
 5926SOL    HW229415   0.182   2.140   8.181 -4.4174 -0.9893  2.8451
 5927SOL     OW29416   1.237   1.097   4.822  0.1068  0.1725  0.2082
 5927SOL    HW129417   1.252   1.055   4.737  2.6894  1.0402  0.2301
 5927SOL    HW229418   1.279   1.181   4.803  1.8472 -0.8179 -0.3030
 5928SOL     OW29419   0.749   2.546   8.977  0.9660 -0.4239 -0.2089
 5928SOL    HW129420   0.731   2.635   8.949 -0.0080 -0.2503  0.9500
 5928SOL    HW229421   0.661   2.517   9.002  1.1973  0.2743  1.4170
 5929SOL     OW29422   1.555   0.006  12.140 -0.0295  0.2697  0.2964
 5929SOL    HW129423   1.484   4.700  12.183  0.3479  0.1055  0.7433
 5929SOL    HW229424   1.624   0.016  12.206  2.4702 -2.4381 -1.8734
 5930SOL     OW29425   2.021   3.376   4.615 -0.0569  0.4965  0.1427
 5930SOL    HW129426   2.082   3.337   4.553  0.6797 -1.5623  2.1812
 5930SOL    HW229427   1.946   3.411   4.566 -0.6215  1.0082  1.3840
 5931SOL     OW29428   1.103   1.374   5.866 -0.5216 -0.3249 -0.3867
 5931SOL    HW129429   1.191   1.374   5.905 -0.6208  1.5224 -0.1694
 5931SOL    HW229430   1.117   1.337   5.779  0.2425 -2.2855  0.5768
 5932SOL     OW29431   4.310   3.801   6.660 -0.2160 -0.3595  0.4172
 5932SOL    HW129432   4.386   3.743   6.660 -0.7127 -1.0214  0.9222
 5932SOL    HW229433   4.239   3.737   6.671 -0.7367  0.0036 -0.8017
 5933SOL     OW29434   3.849   0.612   0.745  0.4536 -0.0575 -0.8826
 5933SOL    HW129435   3.889   0.694   0.774  1.4927 -1.4895  1.6840
 5933SOL    HW229436   3.914   0.547   0.770  0.5896  0.6381  0.5655
 5934SOL     OW29437   3.551   1.202   4.547  0.3365  0.0650  0.1734
 5934SOL    HW129438   3.600   1.176   4.625 -0.2346  0.1945  0.5766
 5934SOL    HW229439   3.597   1.168   4.470 -0.5786  2.1608 -1.3045
 5935SOL     OW29440   2.400   2.928   7.777  0.3392  0.0187  0.4027
 5935SOL    HW129441   2.342   2.858   7.747  0.7977  0.1307 -0.7332
 5935SOL    HW229442   2.485   2.883   7.772  0.4795  0.6012 -2.4810
 5936SOL     OW29443   4.429   0.083   8.263 -0.1933  0.0765 -0.2162
 5936SOL    HW129444   4.399   4.732   8.258 -1.8834  0.6777 -1.3014
 5936SOL    HW229445   4.507   0.078   8.318 -0.9098 -2.1798  0.6381
 5937SOL     OW29446   2.736   3.679   4.228  0.2542 -0.2096  0.3037
 5937SOL    HW129447   2.773   3.698   4.142  1.5573  0.5461  1.0347
 5937SOL    HW229448   2.718   3.763   4.270 -0.1445 -0.3353  0.3872
 5938SOL     OW29449   3.361   2.033  16.894  0.3858  0.2046 -0.1039
 5938SOL    HW129450   3.347   1.939  16.908 -0.1087  0.2149 -0.5434
 5938SOL    HW229451   3.289   2.043  16.831  1.2881 -0.3787 -1.2363
 5939SOL     OW29452   2.050   4.464  14.138  0.5879  0.2135 -0.0453
 5939SOL    HW129453   1.992   4.403  14.093  0.0225  0.0311  0.9412
 5939SOL    HW229454   2.129   4.457  14.083  1.1583  0.6935  0.7119
 5940SOL     OW29455   3.322   1.682  17.294  0.0359  0.0784  0.5755
 5940SOL    HW129456   3.404   1.715  17.257  1.0408 -1.6439  1.2787
 5940SOL    HW229457   3.347   1.693  17.385 -3.6468  2.2576  1.2869
 5941SOL     OW29458   0.588   4.394   9.171  0.2095 -0.0326  0.4680
 5941SOL    HW129459   0.520   4.327   9.175  0.9940 -0.8039  0.8534
 5941SOL    HW229460   0.554   4.466   9.118 -0.3773  0.7434  1.9066
 5942SOL     OW29461   4.463   0.828   8.644 -0.4452  0.6785  0.0245
 5942SOL    HW129462   4.409   0.860   8.571  1.1313  1.6708 -0.7060
 5942SOL    HW229463   4.404   0.837   8.719 -0.2856  2.1944 -0.0315
 5943SOL     OW29464   3.702   0.385   0.972 -0.2023  0.4107  0.1080
 5943SOL    HW129465   3.790   0.410   0.943  0.4742 -1.1680  0.8163
 5943SOL    HW229466   3.710   0.385   1.067  0.6284  3.0406  0.0417
 5944SOL     OW29467   0.723   1.178   0.208 -0.3887  0.0265  0.8733
 5944SOL    HW129468   0.793   1.243   0.215  1.8344 -2.3208  0.3919
 5944SOL    HW229469   0.652   1.237   0.182 -2.2922 -0.7273  4.4891
 5945SOL     OW29470   1.639   0.335  15.687  0.3659 -0.0297 -0.1276
 5945SOL    HW129471   1.571   0.384  15.733  0.6812  0.0389  0.2672
 5945SOL    HW229472   1.693   0.302  15.758  1.2623 -0.2789 -0.9108
 5946SOL     OW29473   4.434   0.370   0.687  0.1197  0.7674  0.3425
 5946SOL    HW129474   4.485   0.432   0.635 -1.2671 -0.2096 -2.1846
 5946SOL    HW229475   4.499   0.311   0.725 -0.2698  0.4785  0.5631
 5947SOL     OW29476   4.172   4.708   5.588 -0.2238  0.3560  0.3041
 5947SOL    HW129477   4.107   4.638   5.590 -1.1070  1.2137  1.6404
 5947SOL    HW229478   4.133   0.034   5.645  0.2842 -0.4867  1.6286
 5948SOL     OW29479   1.065   4.403   5.954 -0.3100  0.0781 -0.4753
 5948SOL    HW129480   1.149   4.427   5.992 -0.5425 -0.0929  0.1572
 5948SOL    HW229481   1.006   4.454   6.010 -0.4985 -2.9552  2.1305
 5949SOL     OW29482   2.276   0.348   2.733  0.2434 -0.2474  0.6221
 5949SOL    HW129483   2.335   0.421   2.718 -0.4199  0.2718  0.5355
 5949SOL    HW229484   2.307   0.278   2.677  0.0703  0.9602 -0.9627
 5950SOL     OW29485   3.433   0.839  15.276 -0.2197 -0.3148  0.8580
 5950SOL    HW129486   3.449   0.796  15.360  1.4996 -0.3257  0.5388
 5950SOL    HW229487   3.451   0.762  15.221  1.8687  0.6051  0.2665
 5951SOL     OW29488   3.299   2.635   5.832 -0.5155 -0.0891  0.0356
 5951SOL    HW129489   3.375   2.585   5.860 -1.2732 -0.9566  0.5276
 5951SOL    HW229490   3.302   2.712   5.889  3.2420  0.2217 -0.5649
 5952SOL     OW29491   2.198   0.520   4.209  0.0605 -0.4026 -0.2162
 5952SOL    HW129492   2.126   0.464   4.238  0.1881 -0.6145 -0.3076
 5952SOL    HW229493   2.166   0.556   4.127  1.6640 -1.1512 -1.1781
 5953SOL     OW29494   0.746   1.999  10.553 -0.5681  0.7018 -0.0380
 5953SOL    HW129495   0.768   2.040  10.637 -0.5294  0.9382 -0.1628
 5953SOL    HW229496   0.797   1.918  10.544 -0.2786  0.8308  0.4693
 5954SOL     OW29497   4.543   0.018   9.767 -0.0160 -0.3518 -0.3271
 5954SOL    HW129498   4.510   4.668   9.757  2.5704 -1.5139  1.7692
 5954SOL    HW229499   4.489   0.036   9.843  0.1434  0.3370 -0.3790
 5955SOL     OW29500   0.411   2.639   8.748  0.0307 -0.2845 -0.4511
 5955SOL    HW129501   0.454   2.566   8.703  0.5701  0.4568 -1.1178
 5955SOL    HW229502   0.481   2.663   8.808 -0.9550 -0.6852  0.8650
 5956SOL     OW29503   2.583   2.389   8.257 -0.5253  0.2914  0.0206
 5956SOL    HW129504   2.512   2.348   8.208 -0.9064  0.9398  0.0213
 5956SOL    HW229505   2.586   2.332   8.334  1.5721 -1.5266 -1.4307
 5957SOL     OW29506   0.540   0.208   4.259 -0.3667 -0.4913  0.1731
 5957SOL    HW129507   0.449   0.229   4.242 -0.3525 -0.3237  0.3037
 5957SOL    HW229508   0.571   0.294   4.228  0.8613 -1.4492 -1.2272
 5958SOL     OW29509   0.797   3.144   1.971  0.1933  0.5314  0.2968
 5958SOL    HW129510   0.800   3.180   2.060 -1.2263  3.6108 -0.9169
 5958SOL    HW229511   0.799   3.222   1.916 -1.3922  0.9997  0.9108
 5959SOL     OW29512   0.654   1.564   1.230  0.1161  0.1618  0.6010
 5959SOL    HW129513   0.651   1.518   1.146  0.7002  0.8554  0.1996
 5959SOL    HW229514   0.606   1.502   1.285  0.0621  0.0748  0.4547
 5960SOL     OW29515   0.733   4.720  11.117 -0.1988  0.1081  0.0489
 5960SOL    HW129516   0.812   4.692  11.163 -1.8593 -0.2608  2.6457
 5960SOL    HW229517   0.746   0.075  11.115  1.6090 -0.1422 -1.2713
 5961SOL     OW29518   0.395   1.600   7.838  0.2332 -0.1756 -0.4739
 5961SOL    HW129519   0.436   1.518   7.811  0.2592  0.2088 -1.5845
 5961SOL    HW229520   0.451   1.662   7.790 -1.2546  0.3214 -1.5578
 5962SOL     OW29521   0.590   1.418   0.551  0.1430 -0.4160  0.1325
 5962SOL    HW129522   0.514   1.464   0.517  0.6602 -0.4040 -1.0000
 5962SOL    HW229523   0.662   1.447   0.495  0.5386  1.4974  1.6302
 5963SOL     OW29524   0.117   3.211   8.793  0.0280  0.0927  0.0520
 5963SOL    HW129525   0.059   3.168   8.731 -0.8334  0.8254  0.3391
 5963SOL    HW229526   0.115   3.303   8.765  1.0588  0.0411 -0.1756
 5964SOL     OW29527   2.012   0.637   4.475  0.0323 -0.4105 -0.1140
 5964SOL    HW129528   1.950   0.689   4.526  1.9546  2.0123 -0.2621
 5964SOL    HW229529   1.954   0.562   4.458 -1.3124  0.1528  1.9768
 5965SOL     OW29530   4.197   1.974  17.371 -0.0818 -0.0805 -0.2099
 5965SOL    HW129531   4.177   1.941  17.458 -1.7324  1.0302 -0.1614
 5965SOL    HW229532   4.212   2.068  17.385  0.0588 -0.2467  0.7309
 5966SOL     OW29533   1.101   2.527   2.453  0.6289 -0.7363  0.0157
 5966SOL    HW129534   1.057   2.603   2.415 -0.1144 -2.3937 -2.4243
 5966SOL    HW229535   1.191   2.558   2.458 -0.1853  1.5260  0.5181
 5967SOL     OW29536   3.359   3.353   4.017 -0.8652 -0.2357 -0.0661
 5967SOL    HW129537   3.447   3.368   3.984 -0.0365 -1.1464  1.7212
 5967SOL    HW229538   3.306   3.400   3.953 -1.0223  0.7047  0.7424
 5968SOL     OW29539   3.484   1.163   0.520 -0.8161 -0.3098  0.3999
 5968SOL    HW129540   3.482   1.202   0.608 -0.8042 -0.2557  0.3766
 5968SOL    HW229541   3.530   1.227   0.466  0.3478 -1.6980 -0.2192
 5969SOL     OW29542   2.175   4.641   2.506 -0.1050 -0.1812 -0.1878
 5969SOL    HW129543   2.147   4.730   2.483  1.3214  0.6999  1.4671
 5969SOL    HW229544   2.204   4.612   2.420 -1.0557 -0.7622 -0.3163
 5970SOL     OW29545   0.950   4.655   3.262 -0.0682 -0.6545  0.1532
 5970SOL    HW129546   0.900   4.642   3.343 -0.6291 -1.0018 -0.2500
 5970SOL    HW229547   0.926   0.007   3.248  2.5869 -0.2061 -1.4057
 5971SOL     OW29548   1.976   4.536   5.534 -0.3066 -0.8519  0.3629
 5971SOL    HW129549   1.998   4.531   5.627  0.0084 -1.2266  0.2691
 5971SOL    HW229550   1.892   4.579   5.548 -0.0681 -0.3343  0.1730
 5972SOL     OW29551   4.311   0.546   4.479  0.6351 -0.3566 -0.4275
 5972SOL    HW129552   4.280   0.547   4.569 -0.6672 -4.1092 -0.8380
 5972SOL    HW229553   4.400   0.576   4.496 -0.7639  3.3471  0.2799
 5973SOL     OW29554   0.235   3.307  16.262 -0.0125 -0.0557 -0.3061
 5973SOL    HW129555   0.151   3.321  16.219 -0.2395 -2.1806 -0.5725
 5973SOL    HW229556   0.233   3.387  16.314  1.5111 -0.2964  0.1414
 5974SOL     OW29557   4.145   2.849  12.019  0.0877 -0.0957 -0.3885
 5974SOL    HW129558   4.087   2.883  11.951  0.3371  1.0223 -0.0349
 5974SOL    HW229559   4.149   2.758  11.989  0.5856 -0.1855 -0.0469
 5975SOL     OW29560   0.064   3.896   7.773  0.3428  0.0774  0.1128
 5975SOL    HW129561   4.726   3.899   7.718 -0.8258  1.1090  1.8011
 5975SOL    HW229562   0.123   3.851   7.713 -2.5593 -0.7516 -2.1062
 5976SOL     OW29563   2.051   2.706   8.526 -0.2432 -0.6507 -0.0850
 5976SOL    HW129564   1.999   2.732   8.602 -1.3269 -0.2271 -0.9895
 5976SOL    HW229565   1.993   2.681   8.455 -2.2799 -0.7989  1.6245
 5977SOL     OW29566   4.011   4.349  16.462 -0.0197  0.2565  0.1520
 5977SOL    HW129567   4.057   4.383  16.539  0.7543 -1.6098  0.5156
 5977SOL    HW229568   3.919   4.339  16.483  0.2277  0.8106  1.4846
 5978SOL     OW29569   4.683   4.309   8.935  0.0254 -0.5397 -0.1059
 5978SOL    HW129570   4.652   4.384   8.986 -0.4233 -0.2580 -0.7933
 5978SOL    HW229571   4.635   4.245   8.988 -2.6365  1.9900  0.5639
 5979SOL     OW29572   3.450   2.577   3.471 -0.5864 -0.2212  0.0279
 5979SOL    HW129573   3.452   2.542   3.382 -1.1349  3.4527 -1.4275
 5979SOL    HW229574   3.544   2.588   3.483 -0.8251  0.7321  1.0414
 5980SOL     OW29575   4.007   0.036   8.072 -0.4285  0.1088 -0.3693
 5980SOL    HW129576   4.074   0.069   8.132 -0.4016 -0.2805 -0.1852
 5980SOL    HW229577   4.063   0.010   7.999 -1.5787  1.2088 -1.6471
 5981SOL     OW29578   0.457   1.136   6.231 -0.7212  0.2066  0.2822
 5981SOL    HW129579   0.392   1.206   6.226  0.4479  1.4042  1.7627
 5981SOL    HW229580   0.435   1.103   6.318  0.6236 -0.0419  0.5365
 5982SOL     OW29581   0.546   2.766   6.335  0.2321 -0.0179 -0.2339
 5982SOL    HW129582   0.456   2.738   6.354  0.9383 -2.4406 -0.4716
 5982SOL    HW229583   0.594   2.746   6.415  0.7849 -1.3187 -0.8905
 5983SOL     OW29584   2.242   3.385   9.530  0.1110  0.1620 -0.0796
 5983SOL    HW129585   2.278   3.314   9.477 -3.4786  1.4819 -4.2818
 5983SOL    HW229586   2.240   3.456   9.467 -1.1978  0.7554  0.6232
 5984SOL     OW29587   3.785   0.270   4.270 -0.5331  0.5248 -0.4522
 5984SOL    HW129588   3.853   0.286   4.335 -0.9461 -0.4430  0.2172
 5984SOL    HW229589   3.814   0.338   4.209 -0.6315  0.2927 -0.7576
 5985SOL     OW29590   3.972   2.787   6.989  0.2756  0.3801  0.1753
 5985SOL    HW129591   4.033   2.815   7.057 -0.5238  0.6912  0.7588
 5985SOL    HW229592   3.887   2.823   7.014  0.6252  1.7224 -0.5865
 5986SOL     OW29593   0.441   2.933   2.203 -0.1200  0.7242  0.1876
 5986SOL    HW129594   0.360   2.965   2.243 -1.9306 -1.2697 -1.8353
 5986SOL    HW229595   0.506   2.926   2.273  0.4731 -0.2789 -0.4647
 5987SOL     OW29596   3.435   2.125   3.932 -0.2889  0.1350  0.0919
 5987SOL    HW129597   3.509   2.075   3.966  0.9029 -0.3452 -3.1949
 5987SOL    HW229598   3.402   2.146   4.020  2.4001  1.1370  0.8498
 5988SOL     OW29599   4.001   1.125  16.144 -0.0961 -0.1573  0.0430
 5988SOL    HW129600   4.041   1.068  16.209  1.4696 -0.0120 -0.7913
 5988SOL    HW229601   3.907   1.115  16.160 -0.0601 -1.1005 -0.3313
 5989SOL     OW29602   1.979   2.603   7.876 -0.2766 -0.2290  0.2681
 5989SOL    HW129603   1.954   2.689   7.910 -1.9148 -0.3926 -0.4765
 5989SOL    HW229604   1.968   2.610   7.781  0.2373 -1.5704  0.1223
 5990SOL     OW29605   2.771   1.372   3.966  0.6497  0.7679 -0.3067
 5990SOL    HW129606   2.799   1.335   4.050  1.0551  0.0186 -0.7752
 5990SOL    HW229607   2.699   1.312   3.948  0.6442  1.3630 -2.2425
 5991SOL     OW29608   3.702   1.721  10.439 -0.0625  0.5663  0.1453
 5991SOL    HW129609   3.759   1.644  10.448 -0.8173  0.0207  0.2235
 5991SOL    HW229610   3.681   1.709  10.347  1.2941 -0.2960 -0.0528
 5992SOL     OW29611   3.144   4.258  14.689 -0.2912  0.0440  0.0836
 5992SOL    HW129612   3.237   4.267  14.666  0.4432 -2.4945  2.0233
 5992SOL    HW229613   3.147   4.165  14.710  1.3614 -0.3407 -1.8414
 5993SOL     OW29614   3.843   1.001   9.366 -0.2029 -1.0167  0.4273
 5993SOL    HW129615   3.785   0.956   9.427 -1.8035 -1.5677 -1.4884
 5993SOL    HW229616   3.823   0.946   9.290  1.1677  1.5390 -1.8079
 5994SOL     OW29617   1.877   0.838   6.059  0.0547 -0.4816 -0.0357
 5994SOL    HW129618   1.933   0.912   6.079 -0.1624 -0.5267  0.7263
 5994SOL    HW229619   1.922   0.756   6.078  1.4474 -0.0706 -1.5226
 5995SOL     OW29620   0.676   3.178   4.255 -0.7666 -0.2764  0.0315
 5995SOL    HW129621   0.666   3.241   4.183  0.5720 -0.4160 -0.2672
 5995SOL    HW229622   0.759   3.208   4.291  1.0015 -0.9730 -3.4957
 5996SOL     OW29623   1.963   3.581   8.505  0.2255 -0.1617  0.4164
 5996SOL    HW129624   1.976   3.529   8.425  1.3089  2.5081 -1.1548
 5996SOL    HW229625   2.040   3.549   8.552 -0.5869 -2.1849  0.3839
 5997SOL     OW29626   1.575   1.910   4.090 -0.2856  0.0078  0.2090
 5997SOL    HW129627   1.657   1.900   4.139  1.3837  1.7541 -2.2217
 5997SOL    HW229628   1.522   1.955   4.155 -0.8569  2.2983 -1.8063
 5998SOL     OW29629   2.714   3.790   1.835  0.1878 -0.0708  0.5495
 5998SOL    HW129630   2.780   3.721   1.845  0.0250 -0.3856 -0.4371
 5998SOL    HW229631   2.672   3.763   1.753  1.1075  1.9793 -0.5930
 5999SOL     OW29632   3.512   0.593   2.373 -0.0708 -0.2720 -0.7022
 5999SOL    HW129633   3.421   0.607   2.346 -0.7384 -2.2805  0.5047
 5999SOL    HW229634   3.550   0.680   2.380 -0.1102 -0.2772 -0.4290
 6000SOL     OW29635   0.862   0.245   4.906  0.1591 -0.0938  0.0146
 6000SOL    HW129636   0.906   0.165   4.935 -0.6443 -0.5119  0.0631
 6000SOL    HW229637   0.813   0.270   4.984  1.6361  0.7083  0.6807
 6001SOL     OW29638   2.222   1.331  15.989  0.2863  0.2851  0.3068
 6001SOL    HW129639   2.150   1.331  15.926 -1.7197  1.0536  2.5644
 6001SOL    HW229640   2.267   1.407  15.952 -1.4336  0.4870 -1.3467
 6002SOL     OW29641   0.782   3.482   5.507  0.6466 -0.3824  0.7349
 6002SOL    HW129642   0.763   3.420   5.436  0.7368 -2.0105  2.1436
 6002SOL    HW229643   0.875   3.476   5.527  0.4466 -2.6851  1.0276
 6003SOL     OW29644   1.095   3.499   3.152 -0.7113 -0.0056 -0.0173
 6003SOL    HW129645   1.082   3.548   3.234  0.7454 -0.9668  0.7951
 6003SOL    HW229646   1.186   3.470   3.158 -0.9752 -0.7295  0.5605
 6004SOL     OW29647   4.008   3.702   7.388  0.1430  0.4194  0.2913
 6004SOL    HW129648   4.079   3.765   7.398  0.5877  0.0589 -0.6501
 6004SOL    HW229649   4.041   3.640   7.454  0.1234 -0.7582 -0.8077
 6005SOL     OW29650   0.301   1.682   3.136  0.0645  0.2076  0.1456
 6005SOL    HW129651   0.369   1.641   3.189  0.4872 -0.1485 -0.6793
 6005SOL    HW229652   0.288   1.760   3.190 -1.7118 -0.5294  0.8152
 6006SOL     OW29653   0.326   4.046  16.159 -0.8641  0.5866  0.3469
 6006SOL    HW129654   0.296   4.133  16.131 -2.5601  0.6380  2.2951
 6006SOL    HW229655   0.300   4.059  16.251 -1.8965 -0.3480  0.1792
 6007SOL     OW29656   3.565   0.236   2.981  0.0744 -0.2148  0.1745
 6007SOL    HW129657   3.532   0.161   3.031  1.9143 -1.1631 -0.0543
 6007SOL    HW229658   3.486   0.289   2.992  2.0249  2.8391 -0.4009
 6008SOL     OW29659   0.416   4.320   9.447  0.8412  0.0001 -0.0553
 6008SOL    HW129660   0.396   4.291   9.358 -1.2378  1.5139 -0.0741
 6008SOL    HW229661   0.339   4.316   9.504  0.7944  0.6733 -0.0694
 6009SOL     OW29662   0.345   2.455   1.123 -0.2590 -0.3231 -0.2452
 6009SOL    HW129663   0.367   2.449   1.215 -1.8040 -0.8276  0.0970
 6009SOL    HW229664   0.250   2.464   1.114  0.1052  2.1775 -1.8739
 6010SOL     OW29665   4.345   1.602  15.098 -0.0229  0.0420 -0.0252
 6010SOL    HW129666   4.434   1.638  15.103 -0.0613 -0.0175  1.0987
 6010SOL    HW229667   4.348   1.543  15.173 -1.4830 -0.1424 -0.1178
 6011SOL     OW29668   3.843   1.973  17.648  0.0787  0.4459  0.0432
 6011SOL    HW129669   3.867   2.042  17.586 -0.4440 -0.7831 -1.5275
 6011SOL    HW229670   3.918   1.975  17.708 -0.4941 -1.0292  0.8240
 6012SOL     OW29671   1.091   3.211   2.938  0.1295 -0.7197  0.1809
 6012SOL    HW129672   1.062   3.280   2.998  0.7372  0.3888 -0.7866
 6012SOL    HW229673   1.086   3.256   2.853 -0.2819 -2.0832 -0.5050
 6013SOL     OW29674   3.154   4.275   3.016  0.0739 -0.4007  0.1806
 6013SOL    HW129675   3.233   4.309   2.973  1.8256 -1.9253  2.1430
 6013SOL    HW229676   3.176   4.267   3.109  0.9926  0.2339  0.0204
 6014SOL     OW29677   2.090   2.198  14.773 -0.0101  0.2477  0.3620
 6014SOL    HW129678   2.134   2.212  14.689 -0.2293 -2.1203 -0.1363
 6014SOL    HW229679   2.008   2.246  14.755 -0.0459  1.4572  3.7741
 6015SOL     OW29680   0.209   4.082   4.853 -0.0681  0.1023 -0.3859
 6015SOL    HW129681   0.170   3.997   4.870  1.3978 -0.4306  0.3487
 6015SOL    HW229682   0.223   4.110   4.943  0.9992 -0.3548 -0.4021
 6016SOL     OW29683   0.238   1.006  10.299 -0.5204  0.3388 -0.1312
 6016SOL    HW129684   0.169   1.069  10.320  0.6511  1.6948 -0.3717
 6016SOL    HW229685   0.236   1.016  10.203 -2.4908  1.4483  0.0326
 6017SOL     OW29686   2.906   1.821  14.926 -0.1227  0.1214  0.1277
 6017SOL    HW129687   2.931   1.866  14.845 -0.3389 -0.3951 -0.2248
 6017SOL    HW229688   2.878   1.894  14.981 -2.7029 -0.6773 -0.1459
 6018SOL     OW29689   0.733   3.008   6.079  0.3493 -0.4218 -0.4301
 6018SOL    HW129690   0.756   2.915   6.070 -0.7754 -0.7486  0.0586
 6018SOL    HW229691   0.816   3.042   6.111 -0.2110 -0.8618  1.4907
 6019SOL     OW29692   1.027   2.557   4.830 -0.2571 -0.1411 -0.1663
 6019SOL    HW129693   0.942   2.600   4.819 -0.3640 -0.4368 -0.5008
 6019SOL    HW229694   1.070   2.621   4.886  1.0290 -2.0991  1.0583
 6020SOL     OW29695   1.427   3.926   5.409 -0.5842  0.5954 -0.2633
 6020SOL    HW129696   1.332   3.936   5.417 -0.9432 -0.5264 -3.0603
 6020SOL    HW229697   1.455   3.933   5.500  0.1400 -3.2772 -0.1969
 6021SOL     OW29698   3.699   4.630   6.366  0.4718 -0.4635 -0.6897
 6021SOL    HW129699   3.715   4.712   6.412  2.2428 -0.3753 -1.4583
 6021SOL    HW229700   3.666   4.580   6.441  1.4055 -2.3800 -1.5445
 6022SOL     OW29701   3.568   1.265   5.028 -0.3103 -0.5592  0.2431
 6022SOL    HW129702   3.513   1.248   5.104 -0.4914 -0.3388  0.1606
 6022SOL    HW229703   3.595   1.174   5.013  2.5428  0.9137 -3.9132
 6023SOL     OW29704   2.353   0.123  14.628  0.6358 -0.3605 -0.3164
 6023SOL    HW129705   2.298   0.103  14.703 -0.2740  0.9330 -0.6279
 6023SOL    HW229706   2.293   0.142  14.555  1.6393  2.5064 -0.4325
 6024SOL     OW29707   0.887   0.824   2.010  0.2067  0.2747  0.1600
 6024SOL    HW129708   0.818   0.773   1.968  0.6734  0.3105 -0.6384
 6024SOL    HW229709   0.863   0.834   2.103 -0.3580 -0.1781  0.0646
 6025SOL     OW29710   3.308   0.776   1.647  0.0890 -0.2398  0.3160
 6025SOL    HW129711   3.395   0.808   1.626 -1.0348  1.1977 -2.0613
 6025SOL    HW229712   3.261   0.850   1.610 -1.6065  0.6963  4.3118
 6026SOL     OW29713   1.338   1.286   4.359  0.1316 -0.0320  0.3205
 6026SOL    HW129714   1.280   1.311   4.287 -1.4973 -0.5721  1.4254
 6026SOL    HW229715   1.283   1.301   4.437 -1.1784  2.5244 -1.1089
 6027SOL     OW29716   0.409   4.570  14.879  0.3642 -0.1713  0.3889
 6027SOL    HW129717   0.494   4.591  14.839  0.0458 -0.8842 -0.6729
 6027SOL    HW229718   0.426   4.481  14.909  2.8452  0.4914  0.9702
 6028SOL     OW29719   3.341   3.775   2.320 -0.0405 -0.1102  0.6715
 6028SOL    HW129720   3.259   3.796   2.275  1.8639  0.9401 -2.2953
 6028SOL    HW229721   3.350   3.851   2.378 -1.4817 -0.8661  1.8799
 6029SOL     OW29722   3.978   3.615   8.422 -0.3334 -0.1402 -0.4718
 6029SOL    HW129723   3.943   3.602   8.511  0.0607 -2.9358 -0.7208
 6029SOL    HW229724   3.899   3.633   8.370  0.5217 -2.6722 -2.6134
 6030SOL     OW29725   0.257   2.760   7.393  0.2956 -0.0516 -0.3333
 6030SOL    HW129726   0.257   2.832   7.456  1.9700  0.1737 -0.5903
 6030SOL    HW229727   0.222   2.799   7.313  0.9318  1.1907 -0.0126
 6031SOL     OW29728   3.237   4.077   8.315  0.0181 -0.0558  0.5930
 6031SOL    HW129729   3.328   4.102   8.329  0.7318 -1.2206 -2.0770
 6031SOL    HW229730   3.204   4.111   8.398 -0.2552 -0.6060  0.7077
 6032SOL     OW29731   3.525   1.174  10.814  0.6414 -0.3468 -0.4424
 6032SOL    HW129732   3.616   1.203  10.811  0.8612 -0.9393  0.6887
 6032SOL    HW229733   3.496   1.246  10.871  0.8241  0.4721 -1.3827
 6033SOL     OW29734   4.195   0.158   5.373  0.3270 -0.3258 -0.3651
 6033SOL    HW129735   4.154   0.087   5.323 -4.1235  0.5662  2.0224
 6033SOL    HW229736   4.190   0.116   5.459 -0.7435  1.9828  0.6964
 6034SOL     OW29737   1.976   2.884  17.330  0.8690 -0.0402  0.1281
 6034SOL    HW129738   1.997   2.967  17.288  1.6752 -0.2594  0.1074
 6034SOL    HW229739   1.883   2.878  17.307  1.1391 -0.5386 -0.7940
 6035SOL     OW29740   0.548   2.985   5.459 -0.0928 -0.0705 -0.2654
 6035SOL    HW129741   0.638   2.969   5.485 -0.2863 -1.2184 -0.2873
 6035SOL    HW229742   0.521   2.911   5.405 -1.9395  2.9643 -3.4929
 6036SOL     OW29743   1.493   0.516   8.196  0.0289  1.0554  0.4367
 6036SOL    HW129744   1.409   0.521   8.151  0.2006 -0.5559 -0.0571
 6036SOL    HW229745   1.537   0.591   8.156 -0.4931  0.8057 -0.6046
 6037SOL     OW29746   0.054   4.322   4.987  0.8715 -0.3331  0.0953
 6037SOL    HW129747   0.023   4.360   4.905 -1.2765 -2.7856 -0.1911
 6037SOL    HW229748   0.136   4.372   4.986 -0.0229  1.1498  0.9108
 6038SOL     OW29749   0.323   2.045   4.786 -0.2980  0.2293  0.4930
 6038SOL    HW129750   0.374   1.975   4.744  0.6439 -0.6997  3.1258
 6038SOL    HW229751   0.368   2.035   4.870  1.5130  1.2197 -0.3648
 6039SOL     OW29752   4.581   2.434   6.152 -0.2071  0.4340 -0.0806
 6039SOL    HW129753   4.555   2.442   6.061 -0.3371  0.0020 -0.0807
 6039SOL    HW229754   4.626   2.517   6.171  3.1535 -1.2300 -0.8260
 6040SOL     OW29755   2.891   4.431   8.451 -0.0511  0.1602 -0.0004
 6040SOL    HW129756   2.829   4.409   8.520 -1.0273  0.9306 -0.6368
 6040SOL    HW229757   2.940   4.507   8.485  1.3293 -0.7949  0.1436
 6041SOL     OW29758   1.624   4.151  12.459  0.2164  0.8343  0.3250
 6041SOL    HW129759   1.636   4.154  12.554 -0.6110 -2.1771  0.5148
 6041SOL    HW229760   1.678   4.226  12.432 -1.6865  2.3534  0.7512
 6042SOL     OW29761   2.107   4.420   4.274 -0.3830 -0.0003  0.3661
 6042SOL    HW129762   2.140   4.397   4.187 -2.1663 -1.6699  0.1435
 6042SOL    HW229763   2.130   4.346   4.330 -1.1288  0.2116  0.9572
 6043SOL     OW29764   3.701   3.489   2.932 -0.3074 -0.5565 -0.3149
 6043SOL    HW129765   3.795   3.504   2.940 -0.5691 -0.3320  2.0748
 6043SOL    HW229766   3.680   3.579   2.906  0.0769  0.8075  4.1319
 6044SOL     OW29767   3.681   0.082   0.292  0.1282  0.4000 -0.1554
 6044SOL    HW129768   3.767   0.124   0.288  0.8930 -1.0643  0.9172
 6044SOL    HW229769   3.677   0.035   0.376 -4.1905 -1.3374 -1.3488
 6045SOL     OW29770   2.243   3.236   7.770  0.3571  0.7604  0.0164
 6045SOL    HW129771   2.255   3.170   7.838 -1.8866 -1.5447 -1.7889
 6045SOL    HW229772   2.298   3.208   7.697  1.5165  1.2763  0.7025
 6046SOL     OW29773   0.340   1.974   3.520  0.0346  0.1209  0.3642
 6046SOL    HW129774   0.371   2.052   3.566 -2.6725  1.2876  0.2661
 6046SOL    HW229775   0.246   1.986   3.535  0.2139 -0.5824  2.1217
 6047SOL     OW29776   3.162   1.935   3.111 -0.9043  0.5675 -0.5308
 6047SOL    HW129777   3.171   2.014   3.058  0.8410  0.7030 -0.0309
 6047SOL    HW229778   3.144   1.969   3.198  2.5742  1.8362 -0.3158
 6048SOL     OW29779   3.187   2.391  12.798  0.6882 -0.5035 -0.5975
 6048SOL    HW129780   3.195   2.347  12.714 -3.2756 -0.5433 -0.9788
 6048SOL    HW229781   3.276   2.401  12.831  0.2831 -1.3109  0.7724
 6049SOL     OW29782   0.645   4.555   2.176 -0.1216  0.3779  0.1387
 6049SOL    HW129783   0.699   4.634   2.183  2.7236 -1.5167 -0.6113
 6049SOL    HW229784   0.700   4.483   2.146 -1.4293 -0.8201  0.5942
 6050SOL     OW29785   0.212   3.109   2.289 -0.0708 -1.1410 -0.2071
 6050SOL    HW129786   0.124   3.099   2.251  0.3630  0.4214 -1.6503
 6050SOL    HW229787   0.239   3.191   2.249  2.2950 -1.0944  1.4857
 6051SOL     OW29788   3.024   4.525   5.535  0.1924 -0.0212 -0.5059
 6051SOL    HW129789   3.026   4.579   5.614 -0.9751  1.7629 -1.6956
 6051SOL    HW229790   3.041   4.589   5.466 -1.6873  0.5090 -0.4733
 6052SOL     OW29791   1.636   1.799   8.967  0.1922  0.2272 -0.3626
 6052SOL    HW129792   1.685   1.842   8.896 -1.7047  1.8299 -0.7366
 6052SOL    HW229793   1.640   1.707   8.940  0.3614  0.2764 -0.5088
 6053SOL     OW29794   3.342   0.472   9.280  0.0684 -0.2269 -0.1137
 6053SOL    HW129795   3.301   0.545   9.325  2.7096 -1.8116  4.9695
 6053SOL    HW229796   3.389   0.425   9.349  0.4735 -2.0177 -1.5987
 6054SOL     OW29797   1.755   0.276   7.622  0.1630 -0.0387  0.1979
 6054SOL    HW129798   1.779   0.214   7.554 -0.4446  3.0642 -2.8738
 6054SOL    HW229799   1.666   0.253   7.647 -0.2460 -1.4764 -2.5626
 6055SOL     OW29800   1.354   2.168   8.861 -0.1338 -0.2223  0.1016
 6055SOL    HW129801   1.368   2.074   8.866 -0.2975 -0.1331  2.3213
 6055SOL    HW229802   1.282   2.185   8.922  0.3722 -1.3690  1.0123
 6056SOL     OW29803   1.484   0.630   7.741 -0.2245  0.8862 -0.2458
 6056SOL    HW129804   1.574   0.618   7.773  0.0965  0.5119 -1.2718
 6056SOL    HW229805   1.440   0.558   7.786 -0.7817 -0.0061 -2.1874
 6057SOL     OW29806   0.800   2.441  15.861 -0.3223  0.1399  0.3519
 6057SOL    HW129807   0.848   2.416  15.940  1.0865  0.2343 -0.4745
 6057SOL    HW229808   0.757   2.522  15.890 -0.5369 -0.2207  1.0378
 6058SOL     OW29809   4.058   3.829   3.096  0.2170  0.2756  0.9789
 6058SOL    HW129810   4.008   3.748   3.093  0.7172 -0.0379  1.1828
 6058SOL    HW229811   3.997   3.887   3.050 -1.3557  0.0669  2.7911
 6059SOL     OW29812   1.910   3.169   5.284  0.5029 -0.1610 -0.1465
 6059SOL    HW129813   1.873   3.164   5.372  1.8044 -0.1046  0.4086
 6059SOL    HW229814   2.003   3.188   5.296 -0.0858  1.6873  1.3799
 6060SOL     OW29815   1.329   2.601   7.941 -0.1169  0.8003 -0.1852
 6060SOL    HW129816   1.371   2.620   7.857 -0.2693  0.2360 -0.3943
 6060SOL    HW229817   1.325   2.505   7.942 -2.9442  0.9145 -2.2603
 6061SOL     OW29818   3.695   3.496  13.563 -0.5686 -0.1006 -0.5975
 6061SOL    HW129819   3.682   3.526  13.653  0.6219  0.9320 -0.7700
 6061SOL    HW229820   3.696   3.402  13.581  4.7501 -0.0018 -0.4129
 6062SOL     OW29821   0.804   1.877  10.093  0.3079 -0.2167  0.3117
 6062SOL    HW129822   0.848   1.957  10.065  0.4870 -0.6879 -0.7642
 6062SOL    HW229823   0.824   1.826  10.014  1.0370  1.9297 -0.8676
 6063SOL     OW29824   1.529   2.230  14.387 -0.2556 -0.4325 -0.4366
 6063SOL    HW129825   1.519   2.190  14.301 -0.2493  1.0778 -1.1442
 6063SOL    HW229826   1.618   2.265  14.385 -0.0835 -0.7195  1.6823
 6064SOL     OW29827   1.063   1.788   6.276  0.1783  0.4163 -0.1684
 6064SOL    HW129828   0.975   1.824   6.271 -1.3178 -3.2911 -0.6735
 6064SOL    HW229829   1.069   1.764   6.183  0.1590 -0.8103  0.1482
 6065SOL     OW29830   4.179   4.680  13.764  0.0350  0.3539  0.4767
 6065SOL    HW129831   4.241   4.688  13.837 -0.7919  1.2274  1.0701
 6065SOL    HW229832   4.177   0.029  13.728 -2.2837  0.8244  1.7680
 6066SOL     OW29833   2.081   1.719   5.905 -0.3349  0.2351 -0.6593
 6066SOL    HW129834   2.159   1.676   5.871 -0.3620  1.4727 -2.2803
 6066SOL    HW229835   2.016   1.651   5.884 -1.3805  0.8759  0.4242
 6067SOL     OW29836   2.845   1.983   4.888  0.6258 -0.2119  0.1569
 6067SOL    HW129837   2.806   1.897   4.874 -2.0182  0.5395  2.9553
 6067SOL    HW229838   2.788   2.021   4.956 -1.0843  1.5423 -2.2322
 6068SOL     OW29839   3.072   2.826   2.498  0.3215 -0.2616  0.3209
 6068SOL    HW129840   3.078   2.734   2.474  0.4647  0.2190 -1.4566
 6068SOL    HW229841   3.127   2.814   2.576  0.2067  0.2307  0.4769
 6069SOL     OW29842   2.364   4.235   5.552 -0.7682  0.1273  0.5960
 6069SOL    HW129843   2.449   4.190   5.549 -0.6870  0.2053  2.1095
 6069SOL    HW229844   2.372   4.312   5.495 -0.6702 -0.5752 -0.3501
 6070SOL     OW29845   0.719   1.624  10.376 -0.2598  0.5376  0.3244
 6070SOL    HW129846   0.702   1.631  10.470 -0.2481 -0.6669  0.4051
 6070SOL    HW229847   0.684   1.708  10.344 -1.1279  0.4706  1.0816
 6071SOL     OW29848   4.636   3.332   6.005 -0.1920  0.2810 -0.6565
 6071SOL    HW129849   4.646   3.273   5.931 -1.2201 -1.0951  0.3088
 6071SOL    HW229850   4.661   3.274   6.077  0.6376  1.6639  0.1651
 6072SOL     OW29851   4.472   2.347   3.259  0.0230 -0.1576 -0.3554
 6072SOL    HW129852   4.426   2.430   3.250 -0.4520 -0.3377  0.3833
 6072SOL    HW229853   4.412   2.309   3.323  2.2734  1.0750  2.5071
 6073SOL     OW29854   3.385   2.457  11.286 -0.4727 -0.0789  0.0741
 6073SOL    HW129855   3.398   2.417  11.372  0.4015  0.5983  0.2666
 6073SOL    HW229856   3.407   2.386  11.227  0.4644 -0.8206  1.3034
 6074SOL     OW29857   2.213   0.915  17.734 -0.2018  0.0074  0.4046
 6074SOL    HW129858   2.235   0.854  17.663 -0.5347  1.3138 -0.8330
 6074SOL    HW229859   2.118   0.917  17.718 -0.4614  3.9234  2.5285
 6075SOL     OW29860   1.363   2.706   6.976  0.1718  0.0780 -0.4496
 6075SOL    HW129861   1.446   2.741   7.007 -0.0144 -0.4103  0.5806
 6075SOL    HW229862   1.315   2.783   6.947  0.2825  0.9116  1.6113
 6076SOL     OW29863   2.206   3.835   7.298  0.2565 -0.2173 -0.2330
 6076SOL    HW129864   2.130   3.826   7.355 -1.2374  0.9182 -2.0355
 6076SOL    HW229865   2.172   3.902   7.240  1.2000  2.2613  2.0974
 6077SOL     OW29866   3.851   2.395   4.922  0.4867  0.1262 -0.0729
 6077SOL    HW129867   3.934   2.397   4.874  0.8461  2.0282  0.6214
 6077SOL    HW229868   3.843   2.300   4.930  0.1950  0.2990  1.7587
 6078SOL     OW29869   4.695   3.475  12.963 -0.2083  0.5254  0.1379
 6078SOL    HW129870   0.015   3.550  12.959 -0.3995  0.7911  2.1449
 6078SOL    HW229871   0.018   3.412  12.927 -2.9466 -3.3655  2.1253
 6079SOL     OW29872   1.510   2.455   4.935  0.0416 -0.4416 -0.5144
 6079SOL    HW129873   1.514   2.384   4.999 -1.1724 -0.2538 -0.2446
 6079SOL    HW229874   1.546   2.408   4.859  0.7185 -0.3148 -0.2781
 6080SOL     OW29875   0.929   1.522   6.260  0.4965  0.0824 -0.0555
 6080SOL    HW129876   1.022   1.517   6.237  0.4659 -0.4136 -0.0715
 6080SOL    HW229877   0.917   1.608   6.221 -2.6646 -0.1288  0.4313
 6081SOL     OW29878   4.563   0.100  11.812 -0.2939 -0.2424 -0.9160
 6081SOL    HW129879   4.481   0.133  11.773  0.8753  0.5423 -2.7060
 6081SOL    HW229880   4.537   0.009  11.826 -0.3736  0.0724  0.9858
 6082SOL     OW29881   3.359   2.518   3.201  0.0229 -0.1517 -0.0737
 6082SOL    HW129882   3.270   2.549   3.182 -0.7308  0.6876  4.9345
 6082SOL    HW229883   3.337   2.426   3.190  0.7933 -0.5914  2.1775
 6083SOL     OW29884   0.468   2.425   1.357 -0.0501 -0.4825  0.2712
 6083SOL    HW129885   0.528   2.445   1.286 -2.1638  2.2420 -0.7218
 6083SOL    HW229886   0.522   2.376   1.420  0.1632  0.0924  0.5369
 6084SOL     OW29887   2.164   3.005   0.326  0.2386 -0.2765  0.1059
 6084SOL    HW129888   2.149   2.916   0.292 -0.4368 -0.5163  1.0373
 6084SOL    HW229889   2.255   3.004   0.296  0.8070  1.0218  1.8012
 6085SOL     OW29890   1.915   1.940   8.196  0.0751 -0.0509  0.4576
 6085SOL    HW129891   1.900   2.034   8.203 -0.8564  0.0018 -2.1734
 6085SOL    HW229892   1.825   1.906   8.198  0.8630 -2.2159 -1.0799
 6086SOL     OW29893   4.134   2.507   7.803 -0.7176  0.0417  0.2336
 6086SOL    HW129894   4.134   2.594   7.841 -2.5626 -0.2791  0.9870
 6086SOL    HW229895   4.180   2.531   7.722 -0.1980 -0.7965  0.2756
 6087SOL     OW29896   0.359   0.087  17.407  0.2381  0.2324  0.4634
 6087SOL    HW129897   0.451   0.074  17.386  0.4976 -1.3896  2.6662
 6087SOL    HW229898   0.325   4.739  17.393  1.2302  0.2776 -2.3907
 6088SOL     OW29899   1.766   0.368  13.712 -0.0864  0.1726 -0.2263
 6088SOL    HW129900   1.725   0.455  13.717  1.7626  0.9191  1.5486
 6088SOL    HW229901   1.860   0.380  13.703 -0.1317  0.1760 -0.7299
 6089SOL     OW29902   2.841   4.454   3.296 -0.1948 -0.3636 -0.0989
 6089SOL    HW129903   2.860   4.422   3.208  2.8479  2.2590 -0.4054
 6089SOL    HW229904   2.934   4.476   3.300 -1.0921  3.2366  1.0911
 6090SOL     OW29905   3.483   4.298   5.721 -0.3559  0.5131 -0.0839
 6090SOL    HW129906   3.462   4.374   5.775 -0.8401 -0.0570  0.5368
 6090SOL    HW229907   3.566   4.324   5.681  0.2136  2.0746  2.1024
 6091SOL     OW29908   1.479   3.046  17.036  0.2193  0.1094  0.1394
 6091SOL    HW129909   1.569   3.020  17.017  0.8906  3.4777 -1.1989
 6091SOL    HW229910   1.450   3.078  16.950 -2.3118  1.8704  1.6720
 6092SOL     OW29911   3.834   2.488  12.900  0.1629 -0.3796 -0.3483
 6092SOL    HW129912   3.836   2.394  12.919 -2.6190 -0.3049  0.2645
 6092SOL    HW229913   3.928   2.507  12.891 -0.3028  1.0470 -2.1219
 6093SOL     OW29914   2.110   0.568   6.965  0.2216  0.0933  0.1788
 6093SOL    HW129915   2.027   0.612   6.981  0.0248 -0.2208  0.0373
 6093SOL    HW229916   2.168   0.588   7.038  1.1698  0.9329 -0.7909
 6094SOL     OW29917   3.090   3.840  16.401 -0.0256 -0.3418 -0.0024
 6094SOL    HW129918   3.060   3.795  16.481  0.4069  0.0923  0.4055
 6094SOL    HW229919   3.033   3.916  16.410 -1.4578 -1.3077 -1.1034
 6095SOL     OW29920   0.375   4.460   4.327 -1.0505 -0.5346  0.0038
 6095SOL    HW129921   0.382   4.525   4.257  1.5459 -2.7360 -1.7989
 6095SOL    HW229922   0.408   4.507   4.404  0.4664 -1.3921 -0.1163
 6096SOL     OW29923   3.478   3.790   4.866  0.1670 -0.3221  0.4748
 6096SOL    HW129924   3.394   3.766   4.904 -0.0266 -2.9502 -1.6315
 6096SOL    HW229925   3.507   3.705   4.833 -0.0096 -0.1236 -0.1826
 6097SOL     OW29926   0.737   0.142   0.479 -0.5199 -0.0349  0.8719
 6097SOL    HW129927   0.662   0.199   0.465 -0.2008  0.3392  0.6790
 6097SOL    HW229928   0.763   0.120   0.390 -1.3837 -0.6543  0.7761
 6098SOL     OW29929   4.445   0.920   7.514 -0.1162 -0.0912 -0.9900
 6098SOL    HW129930   4.444   0.934   7.608 -0.1152 -0.3073 -0.9568
 6098SOL    HW229931   4.358   0.883   7.499 -0.1476  0.0238 -1.0960
 6099SOL     OW29932   1.814   2.643   0.079 -0.2158  0.7844  0.0375
 6099SOL    HW129933   1.806   2.694   0.159 -1.5266  0.2897  0.2252
 6099SOL    HW229934   1.833   2.558   0.120 -0.5221 -0.2365 -1.9225
 6100SOL     OW29935   3.923   3.768   7.911 -0.2176  0.4223  0.7771
 6100SOL    HW129936   3.940   3.851   7.867  2.6428  0.4258  1.9145
 6100SOL    HW229937   3.844   3.790   7.960 -1.4934 -0.3189 -0.9293
 6101SOL     OW29938   2.224   0.768  17.520  0.0030 -1.0997  0.0683
 6101SOL    HW129939   2.237   0.673  17.531  1.5218 -0.7308  1.4205
 6101SOL    HW229940   2.142   0.781  17.474 -0.9926 -1.0779  1.8204
 6102SOL     OW29941   2.552   4.609  14.868  0.4935  0.3154 -0.1655
 6102SOL    HW129942   2.598   4.682  14.910 -2.2985  1.4252  0.9772
 6102SOL    HW229943   2.503   4.574  14.943  0.4837 -0.1553 -0.3909
 6103SOL     OW29944   4.289   0.982   4.657 -0.1219 -0.2669  0.1678
 6103SOL    HW129945   4.314   1.010   4.569 -1.0459  0.7528  0.2292
 6103SOL    HW229946   4.290   1.066   4.703  1.0738  0.2728 -0.8513
 6104SOL     OW29947   3.544   2.799   5.603  0.3399  0.7155 -0.3138
 6104SOL    HW129948   3.450   2.816   5.608  0.1748 -0.7581  1.8774
 6104SOL    HW229949   3.547   2.706   5.580 -1.8933  0.9541 -1.5579
 6105SOL     OW29950   3.424   1.308   2.287 -0.0957 -0.1961  0.1341
 6105SOL    HW129951   3.507   1.320   2.333 -0.5093  1.9829  0.3019
 6105SOL    HW229952   3.365   1.337   2.357  0.0158  1.3601 -0.4229
 6106SOL     OW29953   2.898   3.578  10.463 -0.2151  0.7263 -0.2152
 6106SOL    HW129954   2.930   3.537  10.382 -2.0800 -0.2270 -0.4649
 6106SOL    HW229955   2.922   3.666  10.437  1.3189  0.3400 -0.1028
 6107SOL     OW29956   2.001   3.481  16.487  0.0762 -0.1227 -0.1266
 6107SOL    HW129957   2.046   3.436  16.416 -0.4861  3.1432 -2.5333
 6107SOL    HW229958   1.972   3.564  16.451  0.7059  0.2251  0.1815
 6108SOL     OW29959   1.920   4.068   8.325  0.1596  0.7912 -0.1674
 6108SOL    HW129960   1.898   4.095   8.414 -0.6284 -0.4522  0.0239
 6108SOL    HW229961   1.952   3.978   8.338 -2.0719 -0.0633 -0.5474
 6109SOL     OW29962   0.697   0.686   1.888  0.4398  0.1027 -0.9421
 6109SOL    HW129963   0.720   0.720   1.802 -1.2749  1.5897 -0.8015
 6109SOL    HW229964   0.725   0.595   1.880  1.4297  0.2272  0.9790
 6110SOL     OW29965   1.463   1.514   6.346  0.4335 -0.1491 -0.5387
 6110SOL    HW129966   1.520   1.545   6.276 -0.9086  2.9571 -0.2600
 6110SOL    HW229967   1.471   1.591   6.402  2.5315 -0.7331 -0.0450
 6111SOL     OW29968   4.274   2.036   3.624 -0.7276  0.6003 -0.5884
 6111SOL    HW129969   4.228   2.114   3.654  0.2951  1.1588 -0.4903
 6111SOL    HW229970   4.248   1.975   3.693 -0.3585  2.7464  1.4288
 6112SOL     OW29971   2.323   2.513  15.338 -0.0840  0.5852  0.3643
 6112SOL    HW129972   2.360   2.562  15.265  1.7206 -0.9916  0.2048
 6112SOL    HW229973   2.381   2.557  15.401  1.1729 -0.4229 -0.0748
 6113SOL     OW29974   3.436   3.270  10.787 -0.3359 -0.5086 -0.0593
 6113SOL    HW129975   3.372   3.338  10.804 -0.4589 -0.9805  1.4402
 6113SOL    HW229976   3.445   3.272  10.692  1.7078 -0.6293  0.1333
 6114SOL     OW29977   4.075   4.444  10.099  0.2274  0.1749  0.4024
 6114SOL    HW129978   4.119   4.366  10.131  0.8585 -0.2979 -1.6215
 6114SOL    HW229979   4.072   4.483  10.187 -1.4226  0.7850  0.0789
 6115SOL     OW29980   1.199   4.724   2.636 -0.3211 -0.0635  0.3660
 6115SOL    HW129981   1.199   4.687   2.724 -2.2909  1.4599  1.0001
 6115SOL    HW229982   1.192   4.642   2.588  0.2918  0.6842 -1.0259
 6116SOL     OW29983   3.145   1.393  12.247 -0.3486  0.4659 -0.1890
 6116SOL    HW129984   3.192   1.353  12.320  1.3329  2.3614 -0.2275
 6116SOL    HW229985   3.133   1.318  12.189  0.3411  1.0777 -1.1394
 6117SOL     OW29986   3.402   1.301  15.914 -0.3755  0.4680 -0.1491
 6117SOL    HW129987   3.339   1.229  15.922 -2.1473  1.9107 -1.1887
 6117SOL    HW229988   3.459   1.264  15.847  0.9295  0.0521  1.1633
 6118SOL     OW29989   1.059   1.172  12.246 -0.3323 -0.0450 -0.3614
 6118SOL    HW129990   1.137   1.119  12.228 -0.5366 -0.1718 -0.8840
 6118SOL    HW229991   1.033   1.132  12.329  0.3772  0.4947  0.1267
 6119SOL     OW29992   3.476   3.637   9.391  0.3960 -0.0524 -0.0108
 6119SOL    HW129993   3.472   3.716   9.446  1.3375  0.3875 -0.5682
 6119SOL    HW229994   3.551   3.585   9.421  1.6837  2.0982  0.5430
 6120SOL     OW29995   0.857   4.218  15.966  0.1707  0.1139  0.6553
 6120SOL    HW129996   0.879   4.173  16.048  0.0329 -0.0619  0.5935
 6120SOL    HW229997   0.911   4.297  15.978 -1.8518  1.2764  2.2657
 6121SOL     OW29998   3.344   2.799  10.607 -0.1557  0.0119 -0.2189
 6121SOL    HW129999   3.294   2.869  10.565 -0.7180 -0.0731  0.3030
 6121SOL    HW230000   3.273   2.750  10.649  0.3188 -0.3268  0.1948
 6122SOL     OW30001   3.211   1.778   4.597  0.0903 -0.0029  0.2657
 6122SOL    HW130002   3.148   1.749   4.662 -1.7202 -1.3643 -2.0947
 6122SOL    HW230003   3.184   1.727   4.521 -0.2388 -0.8461  0.9549
 6123SOL     OW30004   3.552   3.626   0.795 -0.0918  0.3888 -0.2076
 6123SOL    HW130005   3.576   3.700   0.739 -2.6172  0.2914 -1.3990
 6123SOL    HW230006   3.622   3.634   0.861 -0.7633 -1.8769  0.7790
 6124SOL     OW30007   1.113   0.868   6.787 -0.0418 -0.1971  0.4126
 6124SOL    HW130008   1.185   0.837   6.842 -0.2594 -1.7572 -0.1621
 6124SOL    HW230009   1.143   0.957   6.767 -0.1071  0.1483  1.8377
 6125SOL     OW30010   4.541   0.844   6.276  0.0226 -0.3371 -0.5579
 6125SOL    HW130011   4.598   0.772   6.302 -0.5105 -0.5134  0.1322
 6125SOL    HW230012   4.589   0.921   6.304 -0.9694 -0.0551  0.3739
 6126SOL     OW30013   0.605   4.591   7.937  0.3783  0.1327  0.1234
 6126SOL    HW130014   0.621   4.525   8.005  0.5658  0.6354  0.5632
 6126SOL    HW230015   0.510   4.601   7.938 -0.0327 -2.8264 -5.9797
 6127SOL     OW30016   3.929   0.085   5.263 -0.0881  0.7075  0.2835
 6127SOL    HW130017   3.864   0.075   5.332 -0.0625  0.0662  0.2152
 6127SOL    HW230018   3.903   0.171   5.232  0.1548  1.1834  1.4121
 6128SOL     OW30019   1.201   3.881  15.036  0.0907 -0.4249 -0.5214
 6128SOL    HW130020   1.176   3.868  15.128 -1.4065  0.9214 -0.7497
 6128SOL    HW230021   1.296   3.884  15.036  0.0685  0.2727 -0.0409
 6129SOL     OW30022   2.215   1.166   2.977 -0.6914 -0.3124 -0.7405
 6129SOL    HW130023   2.299   1.145   2.936 -0.3309 -2.1098  0.9167
 6129SOL    HW230024   2.178   1.078   2.976 -2.2763  0.3507 -0.1321
 6130SOL     OW30025   3.943   4.477   1.321  0.4671  0.3677 -0.0421
 6130SOL    HW130026   3.954   4.564   1.360 -2.0223  1.4164 -1.7097
 6130SOL    HW230027   4.018   4.468   1.263 -0.9719 -0.2501 -1.8155
 6131SOL     OW30028   2.071   1.941   2.760 -0.2421 -0.5170 -0.0701
 6131SOL    HW130029   2.033   1.914   2.844  2.9826 -1.2384  1.1764
 6131SOL    HW230030   2.003   1.998   2.724 -0.1723 -0.5494 -0.2550
 6132SOL     OW30031   3.683   1.087   6.369 -0.1902 -0.7714  0.3760
 6132SOL    HW130032   3.765   1.132   6.390 -0.3432  0.0261 -0.7356
 6132SOL    HW230033   3.713   1.045   6.289 -0.2010 -2.8725  1.4731
 6133SOL     OW30034   0.778   1.138  12.120 -0.0541 -0.6258  0.1032
 6133SOL    HW130035   0.713   1.170  12.182  1.5895 -1.1115  2.0454
 6133SOL    HW230036   0.841   1.096  12.178 -2.0551  1.0665  3.4989
 6134SOL     OW30037   1.395   3.486  16.364  0.1283 -0.2588  0.4869
 6134SOL    HW130038   1.412   3.414  16.303 -0.7200  0.9632 -1.2001
 6134SOL    HW230039   1.342   3.543  16.309 -0.6673  0.7598  2.3198
 6135SOL     OW30040   2.594   2.744   2.378 -0.1006 -0.3845 -0.0099
 6135SOL    HW130041   2.630   2.784   2.299 -0.5807  2.5334  1.2591
 6135SOL    HW230042   2.523   2.806   2.397  0.6722  0.2473  0.8316
 6136SOL     OW30043   0.837   1.033   7.660 -0.4622  0.5356 -0.4445
 6136SOL    HW130044   0.812   0.963   7.599  3.7108  0.0226 -1.6103
 6136SOL    HW230045   0.930   1.010   7.658 -0.4777  0.3617  1.4763
 6137SOL     OW30046   3.476   0.084   1.586 -0.1114  0.1542  0.1018
 6137SOL    HW130047   3.411   0.055   1.522 -0.2579  0.8506 -0.0737
 6137SOL    HW230048   3.434   0.046   1.663 -1.5565 -2.3732 -1.9555
 6138SOL     OW30049   2.754   0.656  17.094 -0.1310  0.2334  0.3969
 6138SOL    HW130050   2.707   0.590  17.144 -0.4228 -0.2309 -0.4915
 6138SOL    HW230051   2.683   0.720  17.098 -0.8572 -0.6130  1.0718
 6139SOL     OW30052   2.304   1.727   2.018  0.0638  0.0948  0.3913
 6139SOL    HW130053   2.352   1.736   1.935  0.3238  0.4889  0.5853
 6139SOL    HW230054   2.232   1.669   1.991  0.3198 -0.5724  1.1591
 6140SOL     OW30055   4.662   2.474  14.931 -0.1441  0.1654  0.9856
 6140SOL    HW130056   4.639   2.520  15.011 -0.1382  0.6054  0.7314
 6140SOL    HW230057   0.014   2.463  14.956 -0.3627 -0.8877  1.3560
 6141SOL     OW30058   2.273   3.157   8.309  0.3005  0.3332 -0.3394
 6141SOL    HW130059   2.235   3.072   8.331  0.2822  0.1853 -0.9463
 6141SOL    HW230060   2.339   3.138   8.243  0.4212 -2.2017  0.5173
 6142SOL     OW30061   2.813   4.231   5.206 -0.3432  0.5257 -0.4352
 6142SOL    HW130062   2.733   4.283   5.198 -1.2977 -0.8268  0.4734
 6142SOL    HW230063   2.779   4.155   5.252  1.8412 -1.2795 -1.7460
 6143SOL     OW30064   0.456   0.892   4.431 -0.1923 -0.8854  0.1225
 6143SOL    HW130065   0.370   0.896   4.389  0.0785 -2.2965 -0.5444
 6143SOL    HW230066   0.450   0.808   4.477 -3.2756  0.1694  1.6587
 6144SOL     OW30067   2.149   1.309   8.884  0.2501 -0.2451 -0.4574
 6144SOL    HW130068   2.193   1.235   8.927 -1.0565 -1.8676 -1.9269
 6144SOL    HW230069   2.068   1.290   8.932  1.0740  0.3688  1.1693
 6145SOL     OW30070   0.651   1.849   5.001 -0.5781 -0.6112  0.2141
 6145SOL    HW130071   0.732   1.850   4.950 -0.6316  3.7946  0.2077
 6145SOL    HW230072   0.674   1.883   5.087 -1.6696 -0.6652  0.5244
 6146SOL     OW30073   1.594   1.807  17.325 -0.4886 -0.1498  0.5543
 6146SOL    HW130074   1.514   1.778  17.371 -0.6079 -3.1030 -1.5455
 6146SOL    HW230075   1.572   1.898  17.308 -1.3439 -0.3023  0.8129
 6147SOL     OW30076   1.158   0.302   8.175 -0.0069 -0.0373 -0.6466
 6147SOL    HW130077   1.072   0.278   8.211 -0.1725  0.8242 -0.4717
 6147SOL    HW230078   1.165   0.248   8.097  0.3311 -1.4695  0.3799
 6148SOL     OW30079   1.066   2.137   2.209  0.1931 -0.0077 -0.6388
 6148SOL    HW130080   1.037   2.195   2.138  2.2969  1.2963 -0.4009
 6148SOL    HW230081   1.045   2.187   2.287  1.6589 -0.9483  0.3673
 6149SOL     OW30082   1.418   0.965   3.244 -0.5131  0.4638 -0.1382
 6149SOL    HW130083   1.355   0.926   3.304 -0.2746  0.4469  0.0993
 6149SOL    HW230084   1.437   0.891   3.187 -2.1258 -1.2160  1.5260
 6150SOL     OW30085   1.300   0.073   9.560  0.1031 -0.1164  0.2647
 6150SOL    HW130086   1.339   0.125   9.489  0.4343 -0.7841 -0.0357
 6150SOL    HW230087   1.330   0.127   9.633  0.2786 -0.2358  0.2789
 6151SOL     OW30088   0.756   1.007   7.924  0.1712 -0.4864  0.0296
 6151SOL    HW130089   0.781   1.011   7.831  1.1389 -1.6047  0.2338
 6151SOL    HW230090   0.661   0.993   7.923  0.0408  0.3381  3.8720
 6152SOL     OW30091   3.012   3.221  11.766 -0.3111 -0.8068  0.4714
 6152SOL    HW130092   2.950   3.292  11.782  1.7793  0.4262  3.0417
 6152SOL    HW230093   2.957   3.143  11.762  1.0192 -1.6800 -1.1015
 6153SOL     OW30094   0.259   1.928   4.053  0.7253 -0.3507  0.4598
 6153SOL    HW130095   0.173   1.940   4.092  0.4634  1.2031 -0.5870
 6153SOL    HW230096   0.285   2.021   4.055  3.2839 -1.0236 -2.1198
 6154SOL     OW30097   3.200   1.611   7.876 -0.3876 -0.0154  0.6445
 6154SOL    HW130098   3.270   1.661   7.918 -1.4803  1.6906  0.4181
 6154SOL    HW230099   3.218   1.622   7.782  0.4184  0.4364  0.8550
 6155SOL     OW30100   3.647   0.994  16.946 -0.1228  0.1027  0.2761
 6155SOL    HW130101   3.630   0.901  16.957  2.6357 -0.2387  1.6515
 6155SOL    HW230102   3.735   1.003  16.907 -0.8098  1.9641 -0.8729
 6156SOL     OW30103   4.707   1.610  13.387 -0.4485 -0.1972  0.6167
 6156SOL    HW130104   0.009   1.607  13.301  0.7869 -1.4914  1.2680
 6156SOL    HW230105   0.043   1.610  13.444  1.4471  0.7151 -1.8994
 6157SOL     OW30106   0.750   1.001   3.058 -0.1031 -0.0819 -0.4966
 6157SOL    HW130107   0.665   1.038   3.035 -0.3528 -0.2483  0.1429
 6157SOL    HW230108   0.812   1.051   3.005  1.3754  0.8707  2.1149
 6158SOL     OW30109   2.664   2.963   5.908 -0.0821  0.3842  0.0074
 6158SOL    HW130110   2.626   2.951   5.821  0.9154  0.0163 -0.3829
 6158SOL    HW230111   2.713   2.881   5.911 -3.4356 -1.4801  2.6333
 6159SOL     OW30112   3.343   1.706  10.841 -0.3864 -0.1995  0.3582
 6159SOL    HW130113   3.346   1.696  10.936  1.2591 -0.4466  0.2689
 6159SOL    HW230114   3.318   1.798  10.829  0.7710  0.2330  1.2834
 6160SOL     OW30115   2.385   1.660   5.402 -0.3766  0.3600 -0.3995
 6160SOL    HW130116   2.326   1.594   5.439 -1.9269  0.8358 -2.0367
 6160SOL    HW230117   2.337   1.741   5.419 -0.8275 -0.1927  0.9125
 6161SOL     OW30118   0.270   3.322   4.235 -0.6853  0.4587 -0.2521
 6161SOL    HW130119   0.330   3.276   4.177  0.5419  0.0234  1.3573
 6161SOL    HW230120   0.251   3.259   4.304  0.7136 -2.2206 -2.3481
 6162SOL     OW30121   4.396   3.976   9.271  0.1301  0.0748  0.7452
 6162SOL    HW130122   4.364   3.995   9.359 -0.3044  1.2483  0.3453
 6162SOL    HW230123   4.332   3.916   9.233  0.5913  0.0229  0.0565
 6163SOL     OW30124   4.007   4.593  15.233 -0.3655  0.3316 -0.0178
 6163SOL    HW130125   4.015   4.688  15.230  3.7490  0.0229  0.1286
 6163SOL    HW230126   3.920   4.580  15.196 -0.6538 -1.1645  1.1899
 6164SOL     OW30127   1.110   1.425  16.723 -0.3525 -0.3633 -0.3830
 6164SOL    HW130128   1.181   1.378  16.680  0.2464  1.0515 -0.9279
 6164SOL    HW230129   1.156   1.504  16.752 -2.3648  1.4754 -2.1864
 6165SOL     OW30130   3.045   3.656   7.069  0.1262 -0.0611  0.5151
 6165SOL    HW130131   2.950   3.669   7.067  0.4194  1.5221 -2.9441
 6165SOL    HW230132   3.073   3.724   7.008  1.6745  0.0749  1.3855
 6166SOL     OW30133   3.505   0.457  11.223 -0.1538 -0.2046 -0.0788
 6166SOL    HW130134   3.432   0.395  11.237  0.1652 -0.7545 -0.8195
 6166SOL    HW230135   3.474   0.514  11.152 -0.3899 -0.3947 -0.1312
 6167SOL     OW30136   3.597   1.853   1.416  0.3052 -0.5611  0.2361
 6167SOL    HW130137   3.603   1.894   1.329 -0.1104 -4.3567 -1.6102
 6167SOL    HW230138   3.580   1.763   1.387  1.5788 -0.0847 -1.9706
 6168SOL     OW30139   4.202   2.858  13.294 -0.3096  0.2700 -0.0813
 6168SOL    HW130140   4.129   2.887  13.348  0.6928 -0.6752  1.7825
 6168SOL    HW230141   4.271   2.913  13.331  0.2193 -1.3166  1.2975
 6169SOL     OW30142   3.480   4.188   8.360 -0.0778 -0.2321  0.2612
 6169SOL    HW130143   3.532   4.111   8.384 -0.0779 -0.1396  0.5646
 6169SOL    HW230144   3.530   4.205   8.280 -1.7452  1.4911 -0.3981
 6170SOL     OW30145   0.722   1.367  10.530 -0.0043 -0.3316  1.0286
 6170SOL    HW130146   0.816   1.365  10.550 -0.1095 -2.3736  1.3083
 6170SOL    HW230147   0.714   1.440  10.469 -1.0250 -1.1342  0.1843
 6171SOL     OW30148   2.430   4.531   1.759  0.0524  0.2546  0.2607
 6171SOL    HW130149   2.493   4.464   1.735 -0.7838 -0.3830 -0.1410
 6171SOL    HW230150   2.402   4.491   1.842 -0.8160 -3.0556 -1.6700
 6172SOL     OW30151   0.090   0.776   2.672  0.1608  0.0188 -0.1156
 6172SOL    HW130152   0.086   0.769   2.577 -0.4887 -2.8803  0.1220
 6172SOL    HW230153   0.049   0.861   2.690 -0.5097 -0.4849  0.7604
 6173SOL     OW30154   0.041   2.245   4.937 -0.2726 -0.2850  0.2203
 6173SOL    HW130155   0.036   2.161   4.982  0.5875 -0.8878 -0.8216
 6173SOL    HW230156   0.084   2.208   4.859  0.5130 -0.2562  0.6401
 6174SOL     OW30157   2.109   0.887  16.496  0.1273  0.1512  0.2991
 6174SOL    HW130158   2.103   0.942  16.417  0.6619  0.4945  0.4980
 6174SOL    HW230159   2.086   0.954  16.561  0.6415 -0.4769  1.1215
 6175SOL     OW30160   3.688   3.404   4.677 -0.3828  0.4938 -0.5681
 6175SOL    HW130161   3.773   3.429   4.712 -1.1763 -0.4232  2.0703
 6175SOL    HW230162   3.700   3.426   4.585 -3.2471  1.7190 -0.6570
 6176SOL     OW30163   0.068   1.009   7.903  0.1833 -0.0300 -0.2337
 6176SOL    HW130164   0.161   0.997   7.921  1.1967 -1.2026 -6.2750
 6176SOL    HW230165   0.031   0.958   7.975  0.1717  0.7621  0.3228
 6177SOL     OW30166   3.243   3.887   9.170  0.6140  0.1191  0.3000
 6177SOL    HW130167   3.323   3.910   9.216  0.2561 -0.9088  1.4471
 6177SOL    HW230168   3.262   3.794   9.168 -2.2870 -0.4590 -0.7747
 6178SOL     OW30169   3.401   2.703  15.796  0.3382 -0.0497 -0.2213
 6178SOL    HW130170   3.357   2.786  15.815 -1.2234 -1.6671  3.1000
 6178SOL    HW230171   3.483   2.748  15.776  0.5033 -0.3749 -0.2754
 6179SOL     OW30172   2.434   2.190   5.968 -0.0434  0.0319 -0.0178
 6179SOL    HW130173   2.412   2.145   6.050 -1.5148  0.4251 -0.1871
 6179SOL    HW230174   2.364   2.255   5.977 -0.7770 -0.3648 -3.0656
 6180SOL     OW30175   1.654   0.995   3.704  0.2228 -0.4565 -0.3336
 6180SOL    HW130176   1.607   0.912   3.710 -0.5425  0.1318  1.6331
 6180SOL    HW230177   1.588   1.041   3.652 -0.1002 -1.7049 -1.0221
 6181SOL     OW30178   3.406   1.213   9.059 -0.6499 -0.3882 -0.0994
 6181SOL    HW130179   3.495   1.224   9.024  0.2628  0.1494  2.3648
 6181SOL    HW230180   3.359   1.278   9.007  1.0260  1.1187  0.2415
 6182SOL     OW30181   0.019   1.145   7.409  0.2647  0.2026  0.1906
 6182SOL    HW130182   0.092   1.105   7.456 -0.3829 -0.5574  0.5440
 6182SOL    HW230183   4.721   1.062   7.382  2.8301 -1.1588  0.7612
 6183SOL     OW30184   4.221   2.991   3.537 -0.2667  0.3232  0.0391
 6183SOL    HW130185   4.235   2.984   3.631 -1.4656  1.3370  0.2943
 6183SOL    HW230186   4.226   3.086   3.523 -0.6036 -0.2088 -3.8733
 6184SOL     OW30187   0.107   2.115   1.681  0.5398  0.3995  0.1993
 6184SOL    HW130188   0.167   2.157   1.619 -0.5524  1.8098  0.1100
 6184SOL    HW230189   0.023   2.148   1.650  1.6968  1.4157 -1.8310
 6185SOL     OW30190   0.225   2.358   3.579 -0.0294 -0.0843  0.1535
 6185SOL    HW130191   0.142   2.335   3.536 -0.0176  1.6738 -0.7739
 6185SOL    HW230192   0.234   2.449   3.553  0.7000 -0.5121 -1.0926
 6186SOL     OW30193   2.100   2.129   6.927  0.2412  0.0745 -0.0714
 6186SOL    HW130194   2.061   2.155   7.010 -0.1859 -1.9510  0.3477
 6186SOL    HW230195   2.046   2.184   6.870  1.7243  0.6039 -0.9717
 6187SOL     OW30196   3.591   3.056   5.810 -0.4625  0.3490 -0.4172
 6187SOL    HW130197   3.681   3.026   5.811 -0.5995 -0.1174 -2.0039
 6187SOL    HW230198   3.586   3.105   5.729 -1.4888 -0.4531 -0.8436
 6188SOL     OW30199   4.316   3.882   5.658  0.4939  0.2472  0.2377
 6188SOL    HW130200   4.329   3.977   5.658  0.2295  0.2852 -1.3507
 6188SOL    HW230201   4.392   3.841   5.698 -1.2124 -1.6531  1.5584
 6189SOL     OW30202   1.778   3.500   2.140 -0.6935 -0.6062 -0.2636
 6189SOL    HW130203   1.817   3.414   2.126  2.1885  0.3105  1.8968
 6189SOL    HW230204   1.715   3.476   2.208 -0.0118 -0.7172  0.3337
 6190SOL     OW30205   4.404   0.901   5.558  0.3073 -0.6250 -0.0292
 6190SOL    HW130206   4.381   0.991   5.579 -0.1996 -0.5053 -1.1013
 6190SOL    HW230207   4.345   0.894   5.482  0.4929 -0.6273 -0.1726
 6191SOL     OW30208   0.550   1.437   4.848 -0.3856  0.1136 -0.1650
 6191SOL    HW130209   0.620   1.495   4.817 -0.2234  0.8132  1.4548
 6191SOL    HW230210   0.471   1.491   4.848 -0.4944 -0.0162  3.3749
 6192SOL     OW30211   3.414   1.592   4.680 -0.6165 -0.6182  0.1691
 6192SOL    HW130212   3.427   1.666   4.740 -1.6676  1.4454 -2.1351
 6192SOL    HW230213   3.334   1.607   4.629 -1.6545  2.0194  2.5784
 6193SOL     OW30214   3.873   1.519  10.427  0.0121 -0.3874 -0.0089
 6193SOL    HW130215   3.962   1.554  10.425 -0.1463  0.1160  1.6284
 6193SOL    HW230216   3.871   1.458  10.500 -0.5167  0.8030  0.9682
 6194SOL     OW30217   0.500   0.744   6.738 -0.8152 -0.3554  0.7281
 6194SOL    HW130218   0.578   0.718   6.788 -0.2063 -1.4853 -0.7987
 6194SOL    HW230219   0.452   0.663   6.720  0.2102  0.0733 -3.9252
 6195SOL     OW30220   1.623   4.574  14.887 -0.8544 -0.4837 -0.5605
 6195SOL    HW130221   1.644   4.644  14.826  0.0795 -0.8955 -0.7183
 6195SOL    HW230222   1.666   4.498  14.847 -1.1455 -0.3281 -1.1651
 6196SOL     OW30223   4.248   4.642  11.884 -0.3032  0.2510  0.1330
 6196SOL    HW130224   4.156   4.664  11.902 -0.1548  1.4727 -0.6199
 6196SOL    HW230225   4.302   4.692  11.944 -1.4270  0.8554  0.6276
 6197SOL     OW30226   3.127   0.911   1.865 -0.3702 -0.0853 -0.5530
 6197SOL    HW130227   3.057   0.866   1.911  0.7900 -1.0095  0.3065
 6197SOL    HW230228   3.161   0.852   1.798  2.1997  0.1154  0.5626
 6198SOL     OW30229   4.560   2.634   2.504  0.5453  0.1867 -0.5467
 6198SOL    HW130230   4.525   2.553   2.468 -2.7588  0.8601  1.1501
 6198SOL    HW230231   4.495   2.700   2.480 -0.4807 -1.0637 -1.1902
 6199SOL     OW30232   3.020   2.232   8.817  0.2305 -0.4523 -0.1082
 6199SOL    HW130233   2.925   2.214   8.816  0.3502 -0.9827 -1.9775
 6199SOL    HW230234   3.016   2.297   8.886 -0.8700 -1.6625  0.9726
 6200SOL     OW30235   0.517   1.069   7.098 -0.3391 -0.1772 -0.1479
 6200SOL    HW130236   0.536   1.062   7.192 -0.2518  1.4038 -0.0486
 6200SOL    HW230237   0.506   0.975   7.084 -1.2123  0.1896 -1.9161
 6201SOL     OW30238   4.723   3.451   4.196 -0.0837 -0.4900  0.2415
 6201SOL    HW130239   0.072   3.420   4.212  0.5478  0.9708 -0.3934
 6201SOL    HW230240   0.001   3.497   4.114 -2.4239 -0.0095 -0.0114
 6202SOL     OW30241   2.701   1.156  12.319 -0.4162  0.1331  0.6392
 6202SOL    HW130242   2.738   1.069  12.306  0.0757  0.1790  1.7681
 6202SOL    HW230243   2.765   1.209  12.273 -0.1786 -0.2528  0.5262
 6203SOL     OW30244   0.289   4.334   5.802 -0.0471  0.1345 -0.0768
 6203SOL    HW130245   0.281   4.240   5.788 -1.3695  0.2330  0.0124
 6203SOL    HW230246   0.331   4.362   5.721  1.1624  1.1657  0.9039
 6204SOL     OW30247   1.145   3.102   5.174 -0.1570  0.1867  0.2116
 6204SOL    HW130248   1.197   3.022   5.175  0.0801  0.3861  3.5448
 6204SOL    HW230249   1.148   3.115   5.269 -2.0748  0.2015  0.2746
 6205SOL     OW30250   1.714   3.288   9.488  0.1245 -0.0585  0.2315
 6205SOL    HW130251   1.639   3.312   9.433 -1.1053 -1.6385  1.1970
 6205SOL    HW230252   1.784   3.315   9.428  0.2386  1.0301  0.8723
 6206SOL     OW30253   1.181   2.328   4.850  0.1932 -0.3171 -0.4956
 6206SOL    HW130254   1.217   2.313   4.937  0.4775 -3.1642 -1.1156
 6206SOL    HW230255   1.120   2.400   4.866 -2.4292 -2.7544  0.5398
 6207SOL     OW30256   3.513   3.394  10.555 -0.1197 -0.1713 -0.2581
 6207SOL    HW130257   3.527   3.488  10.543  0.6864 -0.2076  0.3741
 6207SOL    HW230258   3.598   3.351  10.546 -0.0077  0.0943 -0.4974
 6208SOL     OW30259   2.629   0.044   6.886  0.0723  0.0183  0.0427
 6208SOL    HW130260   2.677   0.127   6.889 -1.0460  0.6708  0.1247
 6208SOL    HW230261   2.693   4.724   6.848 -0.5867 -0.6727  0.0315
 6209SOL     OW30262   4.253   4.443  13.971 -0.3029  0.0002 -0.2401
 6209SOL    HW130263   4.167   4.449  13.929 -0.9620 -0.1227  1.0740
 6209SOL    HW230264   4.258   4.349  13.987 -1.2826  0.1514  1.0079
 6210SOL     OW30265   2.063   2.105   4.672  0.4484 -0.0764  0.1330
 6210SOL    HW130266   2.107   2.190   4.675  1.9262 -0.7801 -1.7668
 6210SOL    HW230267   1.978   2.128   4.635 -0.2381 -0.6428  1.3745
 6211SOL     OW30268   1.743   1.364   6.172 -0.8304  0.3715  0.3120
 6211SOL    HW130269   1.782   1.305   6.237 -1.1187 -0.3559 -0.1775
 6211SOL    HW230270   1.680   1.309   6.126  0.0434 -1.3467  1.1323
 6212SOL     OW30271   2.656   4.041   5.821  0.2632 -0.4839 -0.3311
 6212SOL    HW130272   2.749   4.021   5.821  0.8841  2.2448  3.0215
 6212SOL    HW230273   2.643   4.099   5.746 -0.9836  0.2680  0.4615
 6213SOL     OW30274   3.975   3.000  12.200 -0.2685  0.2121  0.3820
 6213SOL    HW130275   4.044   2.950  12.155 -0.5155 -0.9569  1.2860
 6213SOL    HW230276   4.040   3.033  12.262 -0.5235  0.9377  0.2607
 6214SOL     OW30277   1.720   1.683   5.466  0.1592 -0.1371  0.4484
 6214SOL    HW130278   1.678   1.726   5.540  0.8828 -0.7753  1.2386
 6214SOL    HW230279   1.648   1.641   5.419  1.0441 -1.0212 -0.1453
 6215SOL     OW30280   3.689   3.941   9.479  0.2297 -0.3574 -0.4351
 6215SOL    HW130281   3.614   3.888   9.506 -0.6990  1.5288  0.7258
 6215SOL    HW230282   3.709   3.973   9.567 -0.8968  1.5842 -0.9052
 6216SOL     OW30283   4.595   0.604   0.707  0.1622  0.3375 -0.4879
 6216SOL    HW130284   4.675   0.601   0.654 -0.5565  0.9252 -1.6162
 6216SOL    HW230285   4.594   0.538   0.776 -1.1570  1.3932  0.5106
 6217SOL     OW30286   3.914   0.265  12.245 -0.1187  0.1114 -0.0143
 6217SOL    HW130287   3.991   0.214  12.221  0.2129  0.7053 -0.1978
 6217SOL    HW230288   3.852   0.246  12.174  2.6147  0.1266 -2.4039
 6218SOL     OW30289   0.090   4.118   8.325 -0.5794 -0.5431 -0.2626
 6218SOL    HW130290   0.030   4.127   8.400  0.1184 -0.8110  0.3215
 6218SOL    HW230291   0.163   4.071   8.364 -0.9784 -0.5280  0.5095
 6219SOL     OW30292   4.521   4.394   3.282  0.3328  0.1767  0.0900
 6219SOL    HW130293   4.481   4.411   3.197 -1.3340  0.5437  0.9519
 6219SOL    HW230294   4.467   4.431   3.351 -0.0729  0.9126 -0.6243
 6220SOL     OW30295   1.955   1.113   1.549 -0.1769  0.1535  0.4407
 6220SOL    HW130296   1.960   1.089   1.457  3.6743 -0.4775  0.8300
 6220SOL    HW230297   1.861   1.101   1.565 -0.2027  1.4350  1.3050
 6221SOL     OW30298   2.015   1.985  16.259  0.3751 -0.1767 -0.2290
 6221SOL    HW130299   2.002   2.080  16.259 -0.1541 -0.2527  0.5635
 6221SOL    HW230300   2.001   1.971  16.353 -0.1421  2.2647  0.0577
 6222SOL     OW30301   0.128   0.469   7.545  0.2282  0.2493  0.4500
 6222SOL    HW130302   0.063   0.526   7.504 -1.2477 -2.2479 -0.6700
 6222SOL    HW230303   0.204   0.483   7.489 -0.3187 -1.9766 -0.8385
 6223SOL     OW30304   1.104   3.057   4.283 -0.6371  0.2296 -0.6709
 6223SOL    HW130305   1.188   3.022   4.311 -0.0973 -0.7752 -3.5373
 6223SOL    HW230306   1.117   3.062   4.188  0.1693  0.9077 -0.5278
 6224SOL     OW30307   4.603   1.643   6.754 -0.0030 -0.1106 -0.1310
 6224SOL    HW130308   4.581   1.556   6.788  0.4436  1.1542  3.3925
 6224SOL    HW230309   4.554   1.640   6.671  1.2785  2.0670 -0.9844
 6225SOL     OW30310   0.609   4.707   6.498 -0.1683 -0.0497  0.3210
 6225SOL    HW130311   0.614   0.026   6.574 -1.4727 -0.7117  0.9104
 6225SOL    HW230312   0.625   0.035   6.433 -0.7741  0.7777  1.0339
 6226SOL     OW30313   1.051   3.440   5.503 -0.0592 -0.7327 -0.3924
 6226SOL    HW130314   1.095   3.400   5.428 -1.7785  0.1992 -1.9119
 6226SOL    HW230315   1.077   3.375   5.568 -1.0526 -0.7283  0.0182
 6227SOL     OW30316   1.035   1.995   0.144 -0.1987  0.0310 -0.1111
 6227SOL    HW130317   1.014   2.080   0.183  0.1003 -0.2236  0.6065
 6227SOL    HW230318   0.968   1.937   0.180 -0.0779  0.4681  0.8155
 6228SOL     OW30319   0.079   1.053   3.492  0.5773 -0.1509 -0.2281
 6228SOL    HW130320   0.019   1.039   3.566  0.2157  1.0986 -0.2782
 6228SOL    HW230321   0.032   1.010   3.421 -0.1822 -0.1337  0.2686
 6229SOL     OW30322   0.562   1.235  12.432 -0.6472 -0.4639  0.2382
 6229SOL    HW130323   0.513   1.190  12.363 -0.7701 -1.2210  0.8247
 6229SOL    HW230324   0.619   1.289  12.377  1.9556 -0.1537  3.2646
 6230SOL     OW30325   1.181   2.304   4.187  0.2393 -0.2033  0.0167
 6230SOL    HW130326   1.249   2.285   4.252  0.7186 -2.5028 -1.1684
 6230SOL    HW230327   1.201   2.394   4.162 -1.5929  0.0237 -0.6259
 6231SOL     OW30328   0.918   3.151   8.418 -0.5360 -0.9868  0.6305
 6231SOL    HW130329   0.943   3.223   8.476  1.4281 -0.1649 -1.2374
 6231SOL    HW230330   0.985   3.088   8.444  1.5092  1.6677  1.8137
 6232SOL     OW30331   1.550   3.607   6.094  0.1787 -0.6676 -0.0743
 6232SOL    HW130332   1.551   3.653   6.178  0.0765 -0.4621 -0.1856
 6232SOL    HW230333   1.594   3.530   6.130 -1.3739 -1.5821 -0.1394
 6233SOL     OW30334   0.327   1.368   3.997 -0.4532 -0.3320  0.0930
 6233SOL    HW130335   0.334   1.272   3.992 -0.6023 -0.4176  1.3675
 6233SOL    HW230336   0.398   1.390   4.058  2.2052 -0.3693 -3.0183
 6234SOL     OW30337   3.360   2.188   4.178  0.4052  0.5132 -0.5860
 6234SOL    HW130338   3.405   2.229   4.252 -2.9303 -0.0609  1.7515
 6234SOL    HW230339   3.287   2.245   4.153  1.3053  1.0803 -1.9087
 6235SOL     OW30340   3.468   0.449   4.181 -0.4273  0.4579  0.1169
 6235SOL    HW130341   3.564   0.448   4.177 -0.3298  0.5407  2.0429
 6235SOL    HW230342   3.454   0.399   4.261  0.1779  1.6900  0.9964
 6236SOL     OW30343   2.142   2.785  14.999 -0.5788 -0.1107  0.2450
 6236SOL    HW130344   2.161   2.698  15.033 -0.2306  0.8022  2.3945
 6236SOL    HW230345   2.076   2.812  15.063 -1.0279 -1.8490  0.5163
 6237SOL     OW30346   4.192   2.550   8.806 -0.0143  0.3619 -0.1240
 6237SOL    HW130347   4.175   2.636   8.768  1.2879  0.5619 -0.2537
 6237SOL    HW230348   4.229   2.572   8.892 -1.2850  5.0777 -0.7895
 6238SOL     OW30349   3.437   1.117   4.125 -0.2161  0.4525 -0.0871
 6238SOL    HW130350   3.341   1.110   4.120 -0.1197 -0.8024  0.0055
 6238SOL    HW230351   3.463   1.026   4.114  1.0371  0.9699 -1.3210
 6239SOL     OW30352   0.387   4.241  13.432  0.1897  0.3291 -0.4861
 6239SOL    HW130353   0.329   4.191  13.489 -1.3860  1.4108 -1.1066
 6239SOL    HW230354   0.439   4.173  13.390  0.9899  0.5686  0.1077
 6240SOL     OW30355   1.954   1.582   7.142  0.1987  0.2504 -0.0902
 6240SOL    HW130356   1.995   1.504   7.181 -0.3392 -0.1433 -0.3016
 6240SOL    HW230357   1.876   1.542   7.103  0.5649 -1.2753  0.7412
 6241SOL     OW30358   3.082   1.680  16.897 -0.0848 -0.4340  0.3987
 6241SOL    HW130359   3.000   1.710  16.936 -0.0534  0.7684 -0.4458
 6241SOL    HW230360   3.077   1.585  16.906 -1.6926 -0.4695 -1.0298
 6242SOL     OW30361   1.138   2.177   6.399 -0.0288 -0.0916 -0.0687
 6242SOL    HW130362   1.074   2.123   6.446 -0.7080 -0.2203 -1.1464
 6242SOL    HW230363   1.083   2.254   6.388  0.1719 -0.0927 -1.1108
 6243SOL     OW30364   2.765   3.606   9.547  0.0949 -0.2580  0.2230
 6243SOL    HW130365   2.763   3.695   9.512 -1.3816  0.3335  1.8176
 6243SOL    HW230366   2.675   3.579   9.531  0.0137  0.9765 -1.3708
 6244SOL     OW30367   4.531   4.626   1.333 -0.2011 -0.0053 -0.5788
 6244SOL    HW130368   4.542   4.610   1.239  1.0937  0.9146 -0.5937
 6244SOL    HW230369   4.617   4.659   1.359 -0.4752  0.7008 -0.5591
 6245SOL     OW30370   4.709   1.468   2.487 -0.3995  0.0807  0.4972
 6245SOL    HW130371   4.716   1.561   2.466  3.1205 -0.6301 -1.4180
 6245SOL    HW230372   4.629   1.458   2.539 -0.5252  1.3698  0.5430
 6246SOL     OW30373   1.689   0.593  12.809 -0.3798 -0.6393  0.6422
 6246SOL    HW130374   1.774   0.559  12.782 -0.1871 -0.3738  0.9116
 6246SOL    HW230375   1.708   0.649  12.884  0.5209 -0.3297  0.1829
 6247SOL     OW30376   1.536   1.113   2.569  0.2997  0.2597  0.1395
 6247SOL    HW130377   1.534   1.189   2.627 -1.3075 -0.0066  0.4382
 6247SOL    HW230378   1.553   1.045   2.634  0.2939 -0.6907 -0.8570
 6248SOL     OW30379   3.281   1.834  14.383  0.5873 -0.4775  0.0026
 6248SOL    HW130380   3.330   1.769  14.434 -3.1675 -2.6807  0.7847
 6248SOL    HW230381   3.220   1.869  14.449  0.4307  0.0834 -0.4440
 6249SOL     OW30382   2.116   0.840   4.338  0.3994  0.0031  0.2199
 6249SOL    HW130383   2.065   0.901   4.392 -0.5896  0.3277 -1.0663
 6249SOL    HW230384   2.081   0.763   4.384  2.0186 -0.5207  0.5558
 6250SOL     OW30385   4.287   0.251   8.006  0.1338  0.8638 -0.2649
 6250SOL    HW130386   4.361   0.257   7.946 -0.7356 -1.9186 -1.6033
 6250SOL    HW230387   4.285   0.157   8.024  0.3696  0.7884 -0.6248
 6251SOL     OW30388   0.586   1.456  12.759 -0.0744  0.1722 -0.0976
 6251SOL    HW130389   0.569   1.388  12.824  2.6095 -1.7275 -1.3851
 6251SOL    HW230390   0.609   1.406  12.680  1.8975 -1.9562  1.8202
 6252SOL     OW30391   0.524   2.158   5.393  0.1487  0.2454  0.0784
 6252SOL    HW130392   0.437   2.123   5.371 -0.0811  0.5714  0.4631
 6252SOL    HW230393   0.506   2.199   5.478 -0.4960  0.8628 -0.3535
 6253SOL     OW30394   4.656   1.682   4.617 -0.0629 -0.0191 -0.0179
 6253SOL    HW130395   4.625   1.662   4.706  0.2036 -0.6208 -0.0606
 6253SOL    HW230396   4.590   1.752   4.609 -3.5543 -3.2104  0.8156
 6254SOL     OW30397   3.774   2.273   4.576 -0.0651 -0.9801  0.0777
 6254SOL    HW130398   3.688   2.282   4.617 -0.9714  0.0350 -2.0184
 6254SOL    HW230399   3.806   2.185   4.593 -0.0461 -0.5531  2.1796
 6255SOL     OW30400   1.292   0.806   2.145  0.6321  0.4686 -0.7504
 6255SOL    HW130401   1.216   0.815   2.202  1.0597 -1.8039  0.1862
 6255SOL    HW230402   1.288   0.880   2.084  1.3037  0.9763 -0.1825
 6256SOL     OW30403   1.302   1.298   7.060 -0.0193 -0.1231  0.1083
 6256SOL    HW130404   1.265   1.382   7.083 -1.6616 -0.8301  0.0261
 6256SOL    HW230405   1.280   1.246   7.137 -0.4018  0.6054  0.4851
 6257SOL     OW30406   1.420   4.212   3.518  0.3094  0.1917 -0.2841
 6257SOL    HW130407   1.364   4.274   3.564 -0.0545 -0.0299 -0.4301
 6257SOL    HW230408   1.461   4.172   3.595  1.8171  1.9039 -0.2002
 6258SOL     OW30409   3.671   3.071  15.074  0.1236 -0.0601 -0.3914
 6258SOL    HW130410   3.587   3.026  15.081 -0.1767  0.4077 -0.9348
 6258SOL    HW230411   3.686   3.093  15.166  0.4194 -1.3207 -0.1377
 6259SOL     OW30412   3.616   1.981   2.069  0.2601 -0.4186 -0.0358
 6259SOL    HW130413   3.652   1.989   2.157  0.5536 -0.8852 -0.1159
 6259SOL    HW230414   3.659   2.055   2.026  1.4958 -0.4394  1.1487
 6260SOL     OW30415   0.590   4.484   1.462  0.1714  0.2300  0.2319
 6260SOL    HW130416   0.659   4.429   1.500  1.6242  0.5083 -1.9908
 6260SOL    HW230417   0.544   4.518   1.538 -1.4836 -2.2800  0.3685
 6261SOL     OW30418   4.024   1.492   2.079  0.5494 -0.6109 -0.0915
 6261SOL    HW130419   4.010   1.571   2.027 -0.2305  0.1150  1.2262
 6261SOL    HW230420   3.945   1.480   2.132  0.2009 -1.4962 -0.8118
 6262SOL     OW30421   1.366   1.988   2.929 -0.5226 -0.4086 -0.3579
 6262SOL    HW130422   1.318   2.068   2.908  1.7567  1.0269 -0.0597
 6262SOL    HW230423   1.299   1.924   2.954  0.9162 -0.4849  3.1664
 6263SOL     OW30424   3.220   1.098  16.007  0.1850  0.1634  0.4699
 6263SOL    HW130425   3.178   1.074  15.924 -1.6689 -0.4906  1.6231
 6263SOL    HW230426   3.152   1.141  16.058  0.0659  2.6656 -1.7743
 6264SOL     OW30427   0.054   2.642   7.775 -0.2315 -0.6353 -0.0815
 6264SOL    HW130428   0.074   2.709   7.841 -4.4179  0.7213 -0.2297
 6264SOL    HW230429   4.722   2.598   7.820  0.1915 -0.5412  0.6997
 6265SOL     OW30430   0.719   0.993   4.784  0.4731 -0.4735  0.2692
 6265SOL    HW130431   0.684   1.024   4.868  1.2156 -1.7873  1.0728
 6265SOL    HW230432   0.804   0.958   4.809  2.0317  2.2546 -1.1390
 6266SOL     OW30433   3.591   1.012  13.933  0.0674  0.5115  0.4246
 6266SOL    HW130434   3.612   1.042  13.845  2.3172  0.9669  1.1292
 6266SOL    HW230435   3.659   1.065  13.974  1.4006 -1.4610  0.7891
 6267SOL     OW30436   2.394   3.445   7.353  0.5803 -0.1772 -0.1454
 6267SOL    HW130437   2.343   3.391   7.293  2.2371  0.3378 -2.0352
 6267SOL    HW230438   2.421   3.521   7.302  0.0304  0.7930  1.0074
 6268SOL     OW30439   2.121   1.192  17.395  0.2867  0.1910 -0.0287
 6268SOL    HW130440   2.159   1.182  17.482  1.8626 -3.6505 -1.2012
 6268SOL    HW230441   2.144   1.284  17.381  3.3853 -0.5295  0.5401
 6269SOL     OW30442   1.793   4.021   4.918  0.1403  0.5733  0.2778
 6269SOL    HW130443   1.802   4.112   4.889  1.8417 -0.1170 -1.4069
 6269SOL    HW230444   1.886   3.995   4.917 -0.0340 -0.0482  0.0299
 6270SOL     OW30445   3.867   2.948  16.503 -0.2623  0.0203  0.4544
 6270SOL    HW130446   3.815   3.026  16.524 -0.5864 -0.3189  0.9046
 6270SOL    HW230447   3.873   2.964  16.409 -0.3069  0.9296  0.6032
 6271SOL     OW30448   4.389   1.364  16.664  0.4026 -0.2945  0.1516
 6271SOL    HW130449   4.338   1.332  16.589 -0.6191  1.9135 -0.0897
 6271SOL    HW230450   4.359   1.453  16.680  2.3185  0.5877 -1.1686
 6272SOL     OW30451   1.448   1.693   3.234 -0.3863  0.1241 -0.2069
 6272SOL    HW130452   1.450   1.710   3.328 -1.8560  0.3939 -0.2296
 6272SOL    HW230453   1.505   1.756   3.190  1.2107 -2.4689 -1.8764
 6273SOL     OW30454   3.572   0.702  12.778 -0.1186 -0.3511 -0.6573
 6273SOL    HW130455   3.581   0.619  12.731  0.6935  0.2222 -1.4979
 6273SOL    HW230456   3.477   0.700  12.793 -0.2789 -1.6492 -1.8454
 6274SOL     OW30457   1.196   2.180  17.051  0.4707 -0.0725 -0.0908
 6274SOL    HW130458   1.152   2.099  17.076  3.7110 -0.9722  2.6335
 6274SOL    HW230459   1.134   2.201  16.980 -0.7749 -0.6885  0.8252
 6275SOL     OW30460   3.387   3.614   7.160  0.1084  0.3364 -0.3013
 6275SOL    HW130461   3.367   3.655   7.076  0.1450 -0.8870 -0.9024
 6275SOL    HW230462   3.337   3.534   7.147  0.1273  0.0229  1.6219
 6276SOL     OW30463   1.900   2.842  12.674  0.9684  0.2697 -0.0844
 6276SOL    HW130464   1.854   2.926  12.665 -3.0386 -1.8424  0.7586
 6276SOL    HW230465   1.995   2.851  12.670  0.9824  1.1138  2.4066
 6277SOL     OW30466   4.177   2.620   4.865  0.4246 -1.0780  0.1044
 6277SOL    HW130467   4.113   2.633   4.935 -2.1690 -1.5696 -2.1871
 6277SOL    HW230468   4.254   2.604   4.920  2.4721  0.1295 -2.4121
 6278SOL     OW30469   1.102   0.269   9.937 -0.1539 -0.0146 -0.8626
 6278SOL    HW130470   1.127   0.243  10.026  2.1985 -0.3861 -1.6518
 6278SOL    HW230471   1.172   0.262   9.873  1.9544 -1.7981  1.6142
 6279SOL     OW30472   3.953   0.668   2.761  0.1357 -0.0160  0.4522
 6279SOL    HW130473   3.985   0.578   2.754  0.2499  0.0304  0.3690
 6279SOL    HW230474   4.037   0.713   2.769  0.6569 -1.1168  1.2170
 6280SOL     OW30475   4.201   0.324   9.012 -0.7259  0.5079  0.2632
 6280SOL    HW130476   4.292   0.323   8.980 -0.6734  1.3409  0.3991
 6280SOL    HW230477   4.222   0.360   9.098 -2.4685  1.5374  0.2506
 6281SOL     OW30478   3.152   2.232  13.458  0.0310 -0.4555  0.2270
 6281SOL    HW130479   3.144   2.141  13.488 -0.4571 -0.5631 -0.2066
 6281SOL    HW230480   3.235   2.245  13.503  0.6966 -0.0860 -1.1106
 6282SOL     OW30481   3.677   0.102  14.717 -0.3461 -0.4159 -0.4453
 6282SOL    HW130482   3.720   0.046  14.652 -0.7369  0.3919 -1.3896
 6282SOL    HW230483   3.659   0.179  14.663 -2.3700 -0.8421 -0.3652
 6283SOL     OW30484   4.308   1.459  14.503  0.5782  0.2862 -0.0381
 6283SOL    HW130485   4.395   1.419  14.506  0.1013 -0.7881 -0.6925
 6283SOL    HW230486   4.331   1.551  14.492  0.4188  0.2488 -0.6657
 6284SOL     OW30487   3.515   2.713   8.593 -0.4514 -0.5474  0.3278
 6284SOL    HW130488   3.450   2.774   8.559 -1.2192 -0.1339  2.5380
 6284SOL    HW230489   3.550   2.763   8.666  2.7186 -1.3104 -0.6397
 6285SOL     OW30490   0.051   4.092   8.600 -0.7200 -0.8617  0.2754
 6285SOL    HW130491   0.105   4.111   8.677 -2.7211 -1.4515  1.8128
 6285SOL    HW230492   4.717   4.150   8.621  0.1842 -0.6296  2.8917
 6286SOL     OW30493   0.099   0.476   5.445 -0.6850  0.2328  0.1658
 6286SOL    HW130494   0.073   0.408   5.507  1.1904  0.8691  1.6289
 6286SOL    HW230495   0.132   0.547   5.500 -2.0742 -0.3877  1.8055
 6287SOL     OW30496   1.300   1.505   8.771  0.1531  0.0732  0.2195
 6287SOL    HW130497   1.309   1.416   8.735 -2.1841 -0.6773  1.5100
 6287SOL    HW230498   1.386   1.527   8.806 -0.8803  4.1405  0.1616
 6288SOL     OW30499   2.802   0.399   8.205  0.3253  0.0256 -0.1554
 6288SOL    HW130500   2.779   0.361   8.289 -0.2592 -0.7208 -0.6585
 6288SOL    HW230501   2.802   0.317   8.156  2.2747 -0.2881  0.3649
 6289SOL     OW30502   3.000   2.838   6.006  0.6588  0.5212  1.1256
 6289SOL    HW130503   3.028   2.906   6.066  0.5440  0.9926  0.6412
 6289SOL    HW230504   3.067   2.849   5.938 -0.1726  0.2478  0.2509
 6290SOL     OW30505   2.576   4.360   5.287 -0.2915  0.3681  0.5457
 6290SOL    HW130506   2.647   4.406   5.332 -0.9276  1.0937  0.8197
 6290SOL    HW230507   2.497   4.407   5.316 -0.3755  1.9845 -2.3048
 6291SOL     OW30508   1.914   1.727   5.275 -0.5203 -0.6383 -0.1105
 6291SOL    HW130509   1.844   1.702   5.336  0.1459 -2.7923 -0.2403
 6291SOL    HW230510   1.882   1.684   5.195  3.5867  0.9300 -2.6137
 6292SOL     OW30511   1.871   1.821  15.812 -0.2475  0.1804  0.3299
 6292SOL    HW130512   1.825   1.858  15.887 -1.9407  0.3619 -0.8013
 6292SOL    HW230513   1.932   1.894  15.807 -0.2929  0.1733 -0.3799
 6293SOL     OW30514   4.305   3.629   7.065 -0.2943 -0.1955  0.1849
 6293SOL    HW130515   4.346   3.669   7.141 -2.2397  1.1930  0.4981
 6293SOL    HW230516   4.376   3.640   7.001  0.3866 -1.4294  0.7414
 6294SOL     OW30517   2.775   4.680   5.739  0.4670  0.8095 -0.0821
 6294SOL    HW130518   2.774   0.025   5.694  0.5563  0.6293 -0.4240
 6294SOL    HW230519   2.870   4.673   5.745  0.4847 -1.4558 -3.1378
 6295SOL     OW30520   0.170   1.196   3.761 -0.0129  0.3264  0.6033
 6295SOL    HW130521   0.262   1.213   3.782 -0.3649  1.4094  1.2400
 6295SOL    HW230522   0.191   1.140   3.686  0.1865  0.5208  0.5150
 6296SOL     OW30523   1.435   2.149   3.525  0.0833  0.3192  0.3444
 6296SOL    HW130524   1.469   2.215   3.465  0.6265 -1.0104 -0.8321
 6296SOL    HW230525   1.515   2.100   3.546 -0.4822 -0.5013  0.5714
 6297SOL     OW30526   1.646   0.872  13.816  0.0427 -0.0784  0.1744
 6297SOL    HW130527   1.739   0.859  13.795 -0.2434 -1.0665 -0.4525
 6297SOL    HW230528   1.644   0.824  13.899 -2.3456  1.5482  1.0426
 6298SOL     OW30529   3.381   4.204   6.218 -0.0676  0.0338  0.1780
 6298SOL    HW130530   3.453   4.232   6.275 -0.4682  1.0851  0.1507
 6298SOL    HW230531   3.408   4.117   6.187 -1.4554 -0.1016 -0.6310
 6299SOL     OW30532   3.699   2.276   7.364  0.0892  0.4558 -0.0093
 6299SOL    HW130533   3.621   2.251   7.413  0.4862  0.8948  0.8487
 6299SOL    HW230534   3.669   2.263   7.274  1.2206 -3.3956  0.1743
 6300SOL     OW30535   4.535   3.459   7.375 -0.0733 -0.2301 -0.7154
 6300SOL    HW130536   4.567   3.396   7.310 -0.9024 -0.2600 -1.1001
 6300SOL    HW230537   4.459   3.410   7.407 -1.9844  1.6508 -2.3450
 6301SOL     OW30538   3.330   1.378   2.526 -0.1512  0.8176 -0.3490
 6301SOL    HW130539   3.359   1.327   2.603 -0.8078 -0.8477 -1.2076
 6301SOL    HW230540   3.346   1.466   2.560 -2.3318 -0.3611  3.7419
 6302SOL     OW30541   0.847   1.096  14.809 -0.5198  0.2832 -0.2456
 6302SOL    HW130542   0.851   1.191  14.798  2.3353 -0.0973 -2.4065
 6302SOL    HW230543   0.903   1.065  14.737  2.8977 -1.4105  3.1549
 6303SOL     OW30544   0.587   1.313   9.254  0.2303 -0.4049 -0.1163
 6303SOL    HW130545   0.552   1.344   9.171 -1.2306 -0.2687  0.5458
 6303SOL    HW230546   0.511   1.344   9.304 -0.4065 -0.9959 -0.7270
 6304SOL     OW30547   4.176   2.993   6.311  0.3365  0.0886  0.6729
 6304SOL    HW130548   4.113   2.922   6.301  2.2493 -1.1239 -2.9460
 6304SOL    HW230549   4.133   3.074   6.283 -1.3711 -0.5387  1.4619
 6305SOL     OW30550   3.418   3.247   9.402  0.2868  0.1264 -0.2104
 6305SOL    HW130551   3.367   3.200   9.337 -0.5621  0.1921  0.4070
 6305SOL    HW230552   3.357   3.243   9.475  0.3022  0.9576 -0.1486
 6306SOL     OW30553   2.563   1.094   7.830 -0.1568  0.2624 -0.1132
 6306SOL    HW130554   2.586   1.087   7.738 -0.4729 -0.7132 -0.1093
 6306SOL    HW230555   2.637   1.149   7.854 -1.9130  2.2617  0.7590
 6307SOL     OW30556   1.619   1.194   4.037 -0.8887 -0.8870 -0.3518
 6307SOL    HW130557   1.592   1.283   4.013 -0.5261 -0.8790 -0.7227
 6307SOL    HW230558   1.654   1.151   3.959 -1.7618  1.2344 -1.9010
 6308SOL     OW30559   0.689   0.019  15.957 -0.0847 -0.2447  0.3571
 6308SOL    HW130560   0.639   4.682  15.981  0.6425 -1.4543 -1.9366
 6308SOL    HW230561   0.642   0.091  16.000  0.1127  0.5428 -0.7335
 6309SOL     OW30562   3.576   1.818  15.498  0.3229 -0.0555  0.5712
 6309SOL    HW130563   3.643   1.819  15.430  1.0343  0.3475  1.2758
 6309SOL    HW230564   3.569   1.724  15.517  3.1714 -0.6056 -0.9804
 6310SOL     OW30565   0.185   2.674   5.154  0.6732 -0.0832 -0.8598
 6310SOL    HW130566   0.125   2.617   5.106 -0.4296  1.0912 -0.8863
 6310SOL    HW230567   0.246   2.621   5.205 -2.0692 -0.2161  2.3014
 6311SOL     OW30568   0.593   1.965   3.789  0.3457  0.1622  0.0171
 6311SOL    HW130569   0.586   2.003   3.877  0.1464  0.7593 -0.2540
 6311SOL    HW230570   0.533   2.018   3.736 -0.8135 -0.5233  0.6515
 6312SOL     OW30571   0.944   2.637  11.126  0.8112  0.4772 -0.0227
 6312SOL    HW130572   1.025   2.591  11.107 -0.1909 -1.6749  0.8040
 6312SOL    HW230573   0.907   2.577  11.191  0.3718 -1.5268 -2.1228
 6313SOL     OW30574   0.615   3.607   3.024 -0.5032  0.0654 -0.8517
 6313SOL    HW130575   0.599   3.528   3.076 -4.0085  1.9072  0.7854
 6313SOL    HW230576   0.711   3.607   3.029 -0.6017 -2.7169  1.2894
 6314SOL     OW30577   3.180   2.047   8.464 -0.6438  0.3156 -0.4644
 6314SOL    HW130578   3.095   2.086   8.483  0.0986  2.1216 -0.7682
 6314SOL    HW230579   3.230   2.093   8.532  0.3943 -0.2482 -0.8500
 6315SOL     OW30580   0.496   1.557   3.323 -0.2496 -0.3575  0.3466
 6315SOL    HW130581   0.586   1.580   3.345 -0.0453 -0.3145 -0.5382
 6315SOL    HW230582   0.449   1.606   3.390 -1.6268 -0.4234 -0.5809
 6316SOL     OW30583   2.346   1.798  15.779  0.2886 -0.2493 -0.3570
 6316SOL    HW130584   2.337   1.883  15.820  0.6734 -0.6053  0.4685
 6316SOL    HW230585   2.362   1.739  15.853  0.1731  0.4030  0.1847
 6317SOL     OW30586   2.603   2.089   2.254 -0.6406  0.0031 -0.0258
 6317SOL    HW130587   2.549   2.013   2.275 -0.6121 -0.0268 -0.0594
 6317SOL    HW230588   2.560   2.139   2.185 -1.2243  0.8231  0.9480
 6318SOL     OW30589   3.640   1.008   5.830  0.0978  0.2136  0.0708
 6318SOL    HW130590   3.587   0.983   5.755 -1.2839  0.9869  0.7909
 6318SOL    HW230591   3.584   0.998   5.907 -1.8469 -0.3579 -1.4262
 6319SOL     OW30592   3.228   3.042   6.647  0.2261 -0.0788 -0.2335
 6319SOL    HW130593   3.309   2.994   6.630 -0.4930 -1.1707 -0.6098
 6319SOL    HW230594   3.158   2.979   6.629  0.4583 -0.0656 -1.1806
 6320SOL     OW30595   2.684   0.270   6.529  0.0827  0.2104  0.2089
 6320SOL    HW130596   2.612   0.270   6.591  0.5197 -0.7923  0.7112
 6320SOL    HW230597   2.728   0.351   6.556 -0.5376  0.3273  0.8745
 6321SOL     OW30598   3.730   2.197   1.908 -0.1834 -0.3264 -0.0047
 6321SOL    HW130599   3.681   2.273   1.940 -0.2594 -1.0271  1.5449
 6321SOL    HW230600   3.690   2.196   1.821  0.2311 -0.8988 -0.1898
 6322SOL     OW30601   3.610   3.240   8.041  0.6604 -0.3150  0.1536
 6322SOL    HW130602   3.603   3.298   8.116 -1.6325 -3.2617  2.2344
 6322SOL    HW230603   3.558   3.161   8.056 -0.7827  0.4330 -0.8838
 6323SOL     OW30604   4.425   2.459   6.906 -0.4995 -0.2051  0.4629
 6323SOL    HW130605   4.392   2.370   6.910 -0.5750 -0.1950  0.1203
 6323SOL    HW230606   4.394   2.484   6.818 -2.0032 -0.8400  0.8079
 6324SOL     OW30607   0.973   1.973   3.664 -0.0239 -0.2163 -0.5468
 6324SOL    HW130608   1.057   1.941   3.696  0.8620  1.2397 -1.3988
 6324SOL    HW230609   0.979   2.067   3.684  3.8886 -0.2959 -1.3682
 6325SOL     OW30610   3.469   3.881   4.217 -0.1788  0.2650  0.0705
 6325SOL    HW130611   3.375   3.867   4.228 -0.5898  1.0024 -2.5140
 6325SOL    HW230612   3.462   3.942   4.143 -2.7415  1.4365  1.2906
 6326SOL     OW30613   2.428   1.908   7.744  0.0865 -0.1231  0.1245
 6326SOL    HW130614   2.422   1.981   7.682  0.5337 -1.0297 -0.9848
 6326SOL    HW230615   2.507   1.928   7.794 -0.3009 -2.3825  1.6518
 6327SOL     OW30616   0.693   3.087   6.822 -0.0286 -0.2970  0.5439
 6327SOL    HW130617   0.644   3.025   6.768  1.3677 -0.6700 -0.2737
 6327SOL    HW230618   0.715   3.162   6.768 -1.2544 -0.5013 -0.2410
 6328SOL     OW30619   2.059   1.655  14.026  0.6676 -0.0216 -0.4165
 6328SOL    HW130620   2.020   1.664  14.113  1.1613  1.4843 -0.3533
 6328SOL    HW230621   2.009   1.721  13.978 -1.7400 -0.8548  0.9169
 6329SOL     OW30622   3.773   3.456   6.858 -0.3998 -0.0426  0.3303
 6329SOL    HW130623   3.740   3.543   6.882 -1.7831  0.0674 -1.9844
 6329SOL    HW230624   3.831   3.431   6.930 -1.5258 -2.1540  0.4982
 6330SOL     OW30625   3.161   2.668   2.082  0.1820 -0.5531 -0.3109
 6330SOL    HW130626   3.225   2.698   2.147  1.2955 -1.8138 -0.8229
 6330SOL    HW230627   3.187   2.721   2.006 -1.1807  2.7088  1.4853
 6331SOL     OW30628   3.467   1.606   8.374  0.0389 -0.1954 -0.6777
 6331SOL    HW130629   3.433   1.695   8.388  1.5044 -0.1184  2.5345
 6331SOL    HW230630   3.463   1.555   8.455 -0.1213  1.0562  0.1023
 6332SOL     OW30631   4.474   2.835   8.666  0.4603 -0.4461  0.2817
 6332SOL    HW130632   4.461   2.788   8.585  1.2012 -1.4582  0.7469
 6332SOL    HW230633   4.565   2.811   8.687  0.9362  0.5535 -0.6209
 6333SOL     OW30634   3.419   1.578   4.983  0.6004 -0.5035 -0.2716
 6333SOL    HW130635   3.401   1.671   4.970 -0.9480 -1.0317 -1.9316
 6333SOL    HW230636   3.332   1.547   4.957  1.7714 -2.2167 -2.2132
 6334SOL     OW30637   4.381   4.033   7.529  0.0241  0.0768 -0.2839
 6334SOL    HW130638   4.408   4.124   7.519 -0.0870  0.2182  0.6425
 6334SOL    HW230639   4.444   3.992   7.589 -0.9014 -1.1771 -0.1563
 6335SOL     OW30640   2.448   1.223   9.749 -0.1048  0.1702 -0.1355
 6335SOL    HW130641   2.504   1.258   9.818  0.3605 -1.9763  0.5415
 6335SOL    HW230642   2.439   1.297   9.689  0.9586 -0.8182 -1.5149
 6336SOL     OW30643   0.595   4.209   4.723  0.0727 -0.0407  0.5573
 6336SOL    HW130644   0.591   4.121   4.760 -1.6836 -0.3226 -0.3378
 6336SOL    HW230645   0.505   4.227   4.695  0.2364 -0.2529 -0.1087
 6337SOL     OW30646   2.377   2.891   2.430 -0.5191  0.8302 -0.5093
 6337SOL    HW130647   2.302   2.937   2.393 -0.3938  0.9106 -0.6636
 6337SOL    HW230648   2.438   2.964   2.439  1.7152 -1.0298 -0.6294
 6338SOL     OW30649   2.075   4.507   8.065 -0.9020  0.0389 -0.3108
 6338SOL    HW130650   2.169   4.519   8.048 -0.9895  0.2684 -0.6381
 6338SOL    HW230651   2.043   4.595   8.081  0.3518  0.9318 -2.7055
 6339SOL     OW30652   2.197   0.824   3.575 -0.1569  0.5640  0.4319
 6339SOL    HW130653   2.204   0.729   3.573  0.9737  0.7105 -2.6413
 6339SOL    HW230654   2.254   0.833   3.651  0.3606 -1.1200  0.2309
 6340SOL     OW30655   1.150   3.053   7.462 -0.6114 -0.2670  0.8323
 6340SOL    HW130656   1.069   3.015   7.497 -1.6236 -0.6257 -1.8643
 6340SOL    HW230657   1.191   3.096   7.536  1.4490  0.3674 -0.6588
 6341SOL     OW30658   0.624   0.316  16.485  0.0248  0.2668  0.7382
 6341SOL    HW130659   0.677   0.236  16.492 -0.4263 -0.1546 -0.6222
 6341SOL    HW230660   0.538   0.274  16.488  1.1338 -1.6880  4.8189
 6342SOL     OW30661   3.068   1.734   6.923  0.1539 -0.2007  0.3525
 6342SOL    HW130662   3.156   1.746   6.887 -0.8298  0.8027 -1.6412
 6342SOL    HW230663   3.040   1.823   6.941  2.0245  0.2717  0.9670
 6343SOL     OW30664   1.336   0.689  11.557 -0.0561 -0.2180  0.0533
 6343SOL    HW130665   1.334   0.698  11.652 -3.0716 -4.0768  0.3310
 6343SOL    HW230666   1.388   0.763  11.526 -0.2727 -0.8111 -1.7190
 6344SOL     OW30667   3.114   3.888   7.267 -0.0368  0.6326  0.5828
 6344SOL    HW130668   3.022   3.913   7.276 -1.0616 -2.6710 -0.8071
 6344SOL    HW230669   3.119   3.842   7.184  1.6773  1.5369  0.1650
 6345SOL     OW30670   1.376   1.112   8.913 -0.4589  0.0525 -0.4911
 6345SOL    HW130671   1.355   1.163   8.992  1.1771  1.7344 -1.1576
 6345SOL    HW230672   1.368   1.182   8.848 -2.5767  3.1332  3.0439
 6346SOL     OW30673   1.675   3.803  14.523 -0.2121 -0.3823 -0.1565
 6346SOL    HW130674   1.672   3.891  14.485 -1.2591 -0.0554  0.6811
 6346SOL    HW230675   1.679   3.754  14.441  1.0955 -1.7435  0.7210
 6347SOL     OW30676   1.874   0.820   9.413 -0.9384 -1.1258  0.6087
 6347SOL    HW130677   1.874   0.914   9.393 -1.1700 -1.3880 -0.5773
 6347SOL    HW230678   1.940   0.821   9.482 -1.1959  2.4069  0.8204
 6348SOL     OW30679   2.483   0.802   6.368 -0.0999 -0.1946 -0.5235
 6348SOL    HW130680   2.484   0.763   6.455  0.2997 -2.8044 -1.6949
 6348SOL    HW230681   2.483   0.720   6.317  0.2364 -1.1690  1.0525
 6349SOL     OW30682   2.496   4.122  17.276 -0.4772  0.2895  0.1994
 6349SOL    HW130683   2.417   4.156  17.234 -2.5470 -3.2074  1.3197
 6349SOL    HW230684   2.479   4.142  17.368  2.8241  3.1677  0.2037
 6350SOL     OW30685   1.329   1.152  11.809 -0.4021  0.0034 -0.4999
 6350SOL    HW130686   1.266   1.200  11.755 -0.5371  2.7237  2.0886
 6350SOL    HW230687   1.409   1.169  11.758 -2.0080  1.5023 -2.5389
 6351SOL     OW30688   4.010   1.905   8.686  0.6166 -0.2410 -0.2818
 6351SOL    HW130689   4.054   1.955   8.618 -0.7632  1.6642  0.2135
 6351SOL    HW230690   4.023   1.957   8.765 -1.6767 -0.3794  0.2042
 6352SOL     OW30691   2.895   0.098   1.944  0.0254 -0.2068  0.3084
 6352SOL    HW130692   2.865   0.167   1.885  0.6916 -1.0598 -1.0073
 6352SOL    HW230693   2.891   0.137   2.032 -0.4252  0.4026  0.0191
 6353SOL     OW30694   1.341   2.345  16.568  0.1012 -0.5512  0.4523
 6353SOL    HW130695   1.262   2.310  16.611 -0.8980  0.8255 -0.2391
 6353SOL    HW230696   1.381   2.389  16.643 -0.2389  0.5400 -0.0081
 6354SOL     OW30697   3.700   0.246   5.597  0.0713 -0.1109  0.1870
 6354SOL    HW130698   3.627   0.307   5.588  0.0981  0.2550  2.5293
 6354SOL    HW230699   3.779   0.301   5.594 -0.6732  0.8093 -3.2954
 6355SOL     OW30700   2.302   3.099  13.271  0.1664 -0.2784 -0.9306
 6355SOL    HW130701   2.310   3.009  13.302 -0.5229  0.2955  0.9151
 6355SOL    HW230702   2.387   3.123  13.232  0.5993 -0.7165 -0.2695
 6356SOL     OW30703   4.152   3.114  14.467 -0.4772  0.1910  0.5957
 6356SOL    HW130704   4.110   3.106  14.381  1.6237  0.0400 -0.4377
 6356SOL    HW230705   4.077   3.093  14.522 -0.6072 -1.3378 -0.1449
 6357SOL     OW30706   1.467   3.777   7.153  0.0662  0.1457 -0.4014
 6357SOL    HW130707   1.524   3.853   7.167 -1.1228  0.8005  0.8416
 6357SOL    HW230708   1.445   3.756   7.244  1.4676 -1.1634 -0.3638
 6358SOL     OW30709   0.133   2.986  12.793 -0.1203  0.4900 -0.4740
 6358SOL    HW130710   0.148   3.079  12.805  1.9424 -0.1782  2.2963
 6358SOL    HW230711   0.044   2.968  12.825 -0.2078  1.0561 -0.4085
 6359SOL     OW30712   2.314   0.092   5.043  0.0784 -0.1008 -0.1086
 6359SOL    HW130713   2.344   0.130   4.960 -1.1569  0.1293 -0.4415
 6359SOL    HW230714   2.348   0.003   5.031  1.6610  0.6728 -1.4604
 6360SOL     OW30715   4.070   2.495   4.653 -0.0954  0.5075  0.2657
 6360SOL    HW130716   4.097   2.555   4.723  2.0028  0.8693 -0.8498
 6360SOL    HW230717   4.002   2.546   4.610  1.3751  1.1869 -1.2526
 6361SOL     OW30718   0.813   4.203   0.914 -0.1314 -0.5458  0.2083
 6361SOL    HW130719   0.870   4.140   0.958 -0.4281 -0.8777  0.1185
 6361SOL    HW230720   0.767   4.259   0.976 -0.0875 -0.0808 -0.1749
 6362SOL     OW30721   4.638   4.366   1.086  0.2718  0.7965  0.2924
 6362SOL    HW130722   4.544   4.382   1.082  0.0309 -0.8564 -0.6034
 6362SOL    HW230723   4.643   4.318   1.003  0.4428  0.6799  0.3712
 6363SOL     OW30724   2.098   1.724   9.417  0.2382 -0.1683  0.7555
 6363SOL    HW130725   2.171   1.769   9.373 -0.8174  2.8901  2.0946
 6363SOL    HW230726   2.135   1.642   9.450 -1.0280 -2.2154 -2.9267
 6364SOL     OW30727   2.848   4.222  13.537  0.5142 -0.3693 -0.2455
 6364SOL    HW130728   2.823   4.308  13.570 -1.9119 -0.5091 -1.8028
 6364SOL    HW230729   2.765   4.175  13.534  1.3254 -2.0423  2.8427
 6365SOL     OW30730   3.133   0.854  14.628 -0.1698  0.3204  0.7482
 6365SOL    HW130731   3.083   0.839  14.548 -2.0055  0.0412  1.9462
 6365SOL    HW230732   3.107   0.939  14.662 -0.3580  0.6416 -0.1968
 6366SOL     OW30733   2.452   3.372   8.670  0.3874  0.2879  0.1789
 6366SOL    HW130734   2.454   3.296   8.611  1.3271  0.6124 -0.2208
 6366SOL    HW230735   2.527   3.354   8.727  0.3836 -2.9915 -0.8496
 6367SOL     OW30736   2.033   2.372   8.594 -0.4572 -0.5669 -0.2055
 6367SOL    HW130737   1.947   2.394   8.630  0.4440  1.2431  0.8804
 6367SOL    HW230738   2.077   2.328   8.667 -0.2797  1.3379  0.8345
 6368SOL     OW30739   1.565   3.183  13.901 -0.3278  0.2633  0.2522
 6368SOL    HW130740   1.557   3.129  13.823 -0.4311 -0.3892  0.7146
 6368SOL    HW230741   1.611   3.263  13.874 -1.8164  1.1912  0.5190
 6369SOL     OW30742   0.056   4.492  10.424 -0.2000  0.0143  0.5322
 6369SOL    HW130743   0.136   4.545  10.420 -0.4996  0.4604  0.4319
 6369SOL    HW230744   0.045   4.484  10.518 -0.8716  1.0862  0.5420
 6370SOL     OW30745   2.975   1.245  16.928  0.0775 -0.8332  0.1279
 6370SOL    HW130746   2.939   1.285  17.006  3.1302 -3.2208  2.7826
 6370SOL    HW230747   3.058   1.292  16.937 -0.7878  0.8186 -0.6562
 6371SOL     OW30748   4.079   3.297   7.573  0.0251 -0.6875  0.0834
 6371SOL    HW130749   4.001   3.245   7.590  0.8853 -1.8865  0.3933
 6371SOL    HW230750   4.080   3.334   7.662  0.2028  0.7154 -0.4967
 6372SOL     OW30751   2.753   4.023  13.949 -0.0161 -0.5724  0.3978
 6372SOL    HW130752   2.733   4.012  13.856  0.5498 -1.2523  0.3589
 6372SOL    HW230753   2.816   3.953  13.966  0.4674  0.0482  1.1647
 6373SOL     OW30754   3.953   0.442  10.154  0.8888 -0.0738  0.3219
 6373SOL    HW130755   3.951   0.510  10.221  4.2076  0.4662 -0.1373
 6373SOL    HW230756   3.952   0.500  10.078 -2.3416  0.0778  0.4797
 6374SOL     OW30757   2.903   0.013   3.355  0.1709  0.2245  0.4075
 6374SOL    HW130758   2.905   4.663   3.322  1.4954  0.2446  0.4464
 6374SOL    HW230759   2.973   0.003   3.420  1.3162 -2.7957 -1.2965
 6375SOL     OW30760   0.052   1.384   4.046 -0.1916  0.2355 -0.3692
 6375SOL    HW130761   0.144   1.410   4.035  0.1616 -0.7953  0.1624
 6375SOL    HW230762   0.042   1.417   4.136 -0.4919  0.7917 -0.6062
 6376SOL     OW30763   2.159   2.184   2.228 -0.2690  0.1798  0.2871
 6376SOL    HW130764   2.182   2.225   2.311 -2.3869  2.8326 -0.4402
 6376SOL    HW230765   2.209   2.102   2.230  1.4756  1.2018 -1.6223
 6377SOL     OW30766   4.408   2.561   8.403  0.1859 -0.9814  0.8301
 6377SOL    HW130767   4.455   2.644   8.410 -1.4448 -0.0055  0.3491
 6377SOL    HW230768   4.315   2.579   8.417  0.6014  0.7299  1.3620
 6378SOL     OW30769   3.077   3.559  15.593  0.1969  0.1420  0.4011
 6378SOL    HW130770   3.149   3.612  15.628  0.6501 -0.4053  0.2947
 6378SOL    HW230771   3.039   3.606  15.519  0.5546  0.4073  0.3836
 6379SOL     OW30772   1.223   1.707   8.267 -0.2421  0.4198  0.0799
 6379SOL    HW130773   1.164   1.701   8.343  0.0043  1.4377  0.3587
 6379SOL    HW230774   1.181   1.640   8.214  0.0344 -0.2529  0.6998
 6380SOL     OW30775   1.772   1.756  15.546  0.6528 -0.2726 -0.6728
 6380SOL    HW130776   1.722   1.675  15.556 -1.8650  1.1072 -1.9239
 6380SOL    HW230777   1.808   1.772  15.633  0.4226  0.4656 -0.7050
 6381SOL     OW30778   0.846   3.233   4.707 -0.3108  1.3415  0.0700
 6381SOL    HW130779   0.819   3.325   4.711 -0.4720  1.2365  1.6104
 6381SOL    HW230780   0.761   3.199   4.677  0.4024 -0.2501 -0.1559
 6382SOL     OW30781   0.964   0.277   8.719  0.1349  0.3390 -0.2137
 6382SOL    HW130782   0.954   0.324   8.637  1.0589  2.7885  1.0677
 6382SOL    HW230783   0.923   0.194   8.694 -0.0724  0.2512  0.3952
 6383SOL     OW30784   3.127   1.974   3.622 -0.3347  0.2451 -0.2551
 6383SOL    HW130785   3.090   2.001   3.706 -0.8932  0.6759 -0.6379
 6383SOL    HW230786   3.212   1.947   3.655  0.4456  1.6645 -1.1076
 6384SOL     OW30787   4.315   2.103   5.418 -0.6004  0.4322  0.0765
 6384SOL    HW130788   4.240   2.067   5.465 -2.1447  0.9806 -1.9311
 6384SOL    HW230789   4.307   2.192   5.451 -0.6042  0.4377  0.0611
 6385SOL     OW30790   0.288   1.191   9.669  0.0539 -0.3765  0.2947
 6385SOL    HW130791   0.264   1.232   9.752 -4.2107 -1.6132 -0.3233
 6385SOL    HW230792   0.366   1.144   9.698  1.4190  0.2584 -2.2913
 6386SOL     OW30793   4.366   2.772   2.322  0.0472  1.0705  0.2405
 6386SOL    HW130794   4.276   2.789   2.295  0.1931  0.2780 -0.7304
 6386SOL    HW230795   4.412   2.732   2.248 -3.4200 -0.2432 -1.2208
 6387SOL     OW30796   4.386   3.618   3.589  0.2235  0.2743  0.3780
 6387SOL    HW130797   4.302   3.632   3.633 -0.9366  1.3389 -2.1995
 6387SOL    HW230798   4.446   3.603   3.662 -1.2010  1.6084  1.8316
 6388SOL     OW30799   3.600   0.696  16.640  0.4349 -0.3283  0.3261
 6388SOL    HW130800   3.623   0.666  16.552  0.5392  0.9450 -0.0838
 6388SOL    HW230801   3.515   0.652  16.647  0.7473 -0.8075  1.1955
 6389SOL     OW30802   3.159   3.666   6.333 -0.4239  0.4952  0.0332
 6389SOL    HW130803   3.226   3.681   6.266 -1.8574  3.1819 -0.7993
 6389SOL    HW230804   3.083   3.683   6.278 -0.1982  0.9197 -0.1505
 6390SOL     OW30805   1.946   4.568  11.607  0.0530  0.1072  0.0658
 6390SOL    HW130806   1.911   4.561  11.696 -0.7268 -0.0621 -0.2517
 6390SOL    HW230807   1.863   4.602  11.574  0.6419 -0.2227 -1.7483
 6391SOL     OW30808   2.415   1.168   6.919 -0.2081  0.1855  0.2532
 6391SOL    HW130809   2.360   1.101   6.960 -0.9562  0.9316  0.4595
 6391SOL    HW230810   2.483   1.182   6.986  0.2259 -0.0845 -0.1346
 6392SOL     OW30811   3.392   1.429  17.644 -0.0228 -0.1682 -0.5375
 6392SOL    HW130812   3.313   1.377  17.660 -1.4993  2.0579 -0.6196
 6392SOL    HW230813   3.461   1.363  17.655 -1.4659 -1.1894  2.3409
 6393SOL     OW30814   0.628   3.637   7.671  0.0541  0.0463  0.0558
 6393SOL    HW130815   0.562   3.568   7.678  1.0275 -1.0353 -1.2628
 6393SOL    HW230816   0.683   3.625   7.749 -0.5669 -0.3011  0.4376
 6394SOL     OW30817   0.420   3.955   0.729  0.0202 -0.0136  0.0849
 6394SOL    HW130818   0.370   4.036   0.738  1.0250  0.4699  1.2745
 6394SOL    HW230819   0.503   3.984   0.693  0.2943 -0.7509  0.1097
 6395SOL     OW30820   0.717   1.945   8.919 -0.6983 -0.0800 -0.3801
 6395SOL    HW130821   0.694   1.904   9.002 -0.0095 -2.1315 -1.2042
 6395SOL    HW230822   0.783   2.004   8.955 -3.7206  2.9342  0.2494
 6396SOL     OW30823   3.857   1.114   5.518  0.4966  0.2206 -0.4711
 6396SOL    HW130824   3.789   1.164   5.565  0.9554  0.8373 -0.4637
 6396SOL    HW230825   3.828   1.115   5.427 -0.3051 -2.4047 -0.2557
 6397SOL     OW30826   3.416   3.113   1.250  0.1036 -0.3312  0.5556
 6397SOL    HW130827   3.473   3.169   1.197  1.6993 -0.6301  1.9510
 6397SOL    HW230828   3.411   3.162   1.332 -1.3352 -0.4339  0.5355
 6398SOL     OW30829   3.477   1.840   8.698 -0.0623  0.4571  0.6855
 6398SOL    HW130830   3.434   1.898   8.634 -1.0445  0.1256  1.0448
 6398SOL    HW230831   3.525   1.894   8.760 -1.0015  0.4434  1.4357
 6399SOL     OW30832   4.215   0.934   2.015  0.2952 -0.2772  0.0626
 6399SOL    HW130833   4.267   0.914   1.937  0.3377  1.6046 -0.4016
 6399SOL    HW230834   4.207   1.029   2.025 -0.4959 -0.2645 -0.6534
 6400SOL     OW30835   2.419   2.715   8.846 -0.2420  0.2309  0.1334
 6400SOL    HW130836   2.451   2.667   8.923  0.1924 -1.8566 -1.3193
 6400SOL    HW230837   2.482   2.783   8.824  0.0721  0.5021  1.8968
 6401SOL     OW30838   3.226   1.182  12.051  0.2944 -0.2238 -0.1411
 6401SOL    HW130839   3.203   1.089  12.051  0.9576 -0.3904  1.8840
 6401SOL    HW230840   3.184   1.198  11.966 -0.8362 -1.9475  0.0962
 6402SOL     OW30841   4.191   0.733   9.761  0.1167 -0.2389 -0.0138
 6402SOL    HW130842   4.280   0.713   9.790  0.7395  2.1487 -0.2593
 6402SOL    HW230843   4.182   0.671   9.689  0.6536 -1.1955  0.7431
 6403SOL     OW30844   3.141   3.452   6.723  0.4511  0.0003  0.4866
 6403SOL    HW130845   3.066   3.415   6.678  0.1736  1.0684  0.0581
 6403SOL    HW230846   3.102   3.538   6.740  0.4012  0.6704 -2.9486
 6404SOL     OW30847   0.467   0.692   5.767 -0.1831  0.3057  0.1549
 6404SOL    HW130848   0.468   0.788   5.771  2.3882  0.2965  0.0219
 6404SOL    HW230849   0.378   0.669   5.741 -0.1619 -0.6976  0.9835
 6405SOL     OW30850   2.473   4.145   2.037  0.0900 -0.1632  0.6765
 6405SOL    HW130851   2.493   4.235   2.064 -1.8938  1.0456 -1.8403
 6405SOL    HW230852   2.434   4.167   1.952  1.4056 -1.4591 -0.2727
 6406SOL     OW30853   2.835   1.655   4.475  0.0293  0.2109  0.1571
 6406SOL    HW130854   2.805   1.568   4.501  0.1850  0.0437 -0.2187
 6406SOL    HW230855   2.930   1.641   4.476  0.1976  1.3859  0.0967
 6407SOL     OW30856   3.623   3.837   3.178 -0.7420  0.0164  0.0235
 6407SOL    HW130857   3.607   3.762   3.236 -3.6045  0.2602 -0.4448
 6407SOL    HW230858   3.659   3.898   3.242  0.0466 -0.4754  0.0387
 6408SOL     OW30859   0.934   4.397   5.675 -0.6169 -0.3652 -0.0008
 6408SOL    HW130860   0.981   4.420   5.755  1.7147  0.3060 -1.5583
 6408SOL    HW230861   0.912   4.305   5.692  1.1873 -0.3437  2.5787
 6409SOL     OW30862   3.297   4.282   3.718  0.1080 -0.6725 -0.3227
 6409SOL    HW130863   3.370   4.255   3.663  1.4304  0.1833  1.0060
 6409SOL    HW230864   3.227   4.220   3.698 -0.4146 -0.4992  0.9175
 6410SOL     OW30865   1.877   4.266   7.090 -0.1060  0.0049  0.0886
 6410SOL    HW130866   1.943   4.331   7.117 -0.4393  0.2172  0.3807
 6410SOL    HW230867   1.804   4.301   7.140 -0.7044  0.9372 -1.4643
 6411SOL     OW30868   0.620   2.920   1.888 -0.3257  0.5674 -0.0376
 6411SOL    HW130869   0.687   2.960   1.943  0.4021  0.0430 -0.5445
 6411SOL    HW230870   0.542   2.973   1.908 -0.7347 -0.5084  1.1851
 6412SOL     OW30871   3.193   1.740   7.607 -0.0588  0.2702 -0.5804
 6412SOL    HW130872   3.280   1.700   7.597 -0.1720  0.0150 -0.5412
 6412SOL    HW230873   3.149   1.725   7.524  2.6357  1.1493 -2.1833
 6413SOL     OW30874   3.219   4.296   7.451  0.1362 -0.7402 -0.1879
 6413SOL    HW130875   3.259   4.209   7.450 -1.3003 -1.4380  2.3458
 6413SOL    HW230876   3.236   4.314   7.543  1.6618 -0.1005 -0.5852
 6414SOL     OW30877   3.383   1.698  17.554 -0.1274  0.0900  0.1061
 6414SOL    HW130878   3.433   1.740  17.624  0.2229  0.4062 -0.3390
 6414SOL    HW230879   3.395   1.606  17.578 -0.9609 -0.2040 -0.5666
 6415SOL     OW30880   0.717   3.758   3.752 -0.8359 -0.7454 -0.5984
 6415SOL    HW130881   0.663   3.782   3.827 -0.0748  0.5657 -0.4634
 6415SOL    HW230882   0.800   3.758   3.799 -1.6024  1.6199  0.7620
 6416SOL     OW30883   3.248   3.264   3.464  0.2654  0.3003  0.4090
 6416SOL    HW130884   3.153   3.270   3.470  0.2068  0.3174 -0.5431
 6416SOL    HW230885   3.256   3.266   3.369  0.3037  0.4284  0.4140
 6417SOL     OW30886   0.623   3.641   4.595  0.4366 -0.0215  0.2502
 6417SOL    HW130887   0.603   3.706   4.663 -1.3865 -0.7967  0.4477
 6417SOL    HW230888   0.687   3.684   4.539  1.0002 -0.1391  0.7947
 6418SOL     OW30889   0.722   1.319  11.034  0.5103  0.3166 -0.2244
 6418SOL    HW130890   0.788   1.316  10.964 -1.6327  0.2055 -2.2357
 6418SOL    HW230891   0.656   1.378  10.996  1.6450  1.6481 -0.1440
 6419SOL     OW30892   1.212   4.192   2.712 -0.1796 -0.6090 -0.0260
 6419SOL    HW130893   1.209   4.215   2.805  1.0258  0.7058 -0.3013
 6419SOL    HW230894   1.209   4.097   2.711 -0.2865 -0.6191  0.8861
 6420SOL     OW30895   0.432   1.579   9.410 -0.1858  0.7108  0.3684
 6420SOL    HW130896   0.418   1.584   9.316  2.9897  3.8830  0.0590
 6420SOL    HW230897   0.417   1.486   9.426  1.4805  0.4049  0.1668
 6421SOL     OW30898   1.902   0.753   4.180 -0.8578  0.4839 -0.5794
 6421SOL    HW130899   1.900   0.797   4.095  1.8207 -3.0550 -2.4731
 6421SOL    HW230900   1.977   0.797   4.220  0.5540 -0.5189 -2.1476
 6422SOL     OW30901   1.075   2.324   3.348 -0.0788 -0.3716  0.1736
 6422SOL    HW130902   0.992   2.278   3.354 -0.6576  0.2594 -2.7190
 6422SOL    HW230903   1.118   2.289   3.426 -0.3842 -0.9011  0.1000
 6423SOL     OW30904   1.502   1.208   6.654  0.3321  0.4249  0.2062
 6423SOL    HW130905   1.578   1.262   6.631  0.2139  1.0234  1.2277
 6423SOL    HW230906   1.545   1.122   6.654 -1.9713 -0.7179 -0.9774
 6424SOL     OW30907   3.616   2.837  10.357  0.0686 -0.4638 -0.1286
 6424SOL    HW130908   3.529   2.807  10.384 -0.1137 -0.3399 -0.5882
 6424SOL    HW230909   3.627   2.925  10.392  0.9673 -1.1219  1.2527
 6425SOL     OW30910   0.818   1.289   1.437 -0.0398  0.4926  0.2985
 6425SOL    HW130911   0.862   1.372   1.454 -0.2819 -0.1850  4.1790
 6425SOL    HW230912   0.852   1.242   1.513 -0.9520  1.8106  1.5137
 6426SOL     OW30913   2.960   0.978  16.846  0.2472 -0.2579 -0.4981
 6426SOL    HW130914   2.938   0.984  16.753 -0.9657  0.5763 -0.1542
 6426SOL    HW230915   2.948   1.070  16.868 -1.9663 -0.8862  0.9247
 6427SOL     OW30916   1.508   1.963   7.526  0.4021  0.4261  0.4756
 6427SOL    HW130917   1.571   1.914   7.473 -1.5792 -1.5299 -0.1116
 6427SOL    HW230918   1.556   1.969   7.608 -1.6375  0.5851  1.6518
 6428SOL     OW30919   2.639   4.040   3.315 -0.1621  0.8023 -0.1466
 6428SOL    HW130920   2.629   4.122   3.268  1.1215  0.3542 -1.2050
 6428SOL    HW230921   2.603   3.984   3.247 -0.7578 -2.1701  2.5974
 6429SOL     OW30922   4.554   2.281   9.205 -0.3026  0.5701  0.0370
 6429SOL    HW130923   4.458   2.278   9.205 -0.2734 -0.6747 -1.1402
 6429SOL    HW230924   4.572   2.374   9.189 -0.1394  0.7592  1.3521
 6430SOL     OW30925   0.568   0.379   5.826  0.3014  0.4670 -0.3033
 6430SOL    HW130926   0.568   0.453   5.887  0.2415 -0.2506  0.5584
 6430SOL    HW230927   0.479   0.392   5.792 -1.1740 -2.2524  2.6041
 6431SOL     OW30928   4.715   1.425  10.921 -0.0588 -0.2472 -0.3247
 6431SOL    HW130929   4.666   1.350  10.889 -1.9716  0.5818  0.6875
 6431SOL    HW230930   0.000   1.401  11.010 -2.4353  1.0925  0.7186
 6432SOL     OW30931   0.296   0.858   0.605  0.3568 -0.2647  0.0589
 6432SOL    HW130932   0.331   0.785   0.554 -4.0009 -1.2790 -1.4397
 6432SOL    HW230933   0.236   0.899   0.543  0.0853  0.6874  0.9383
 6433SOL     OW30934   1.354   3.189   2.852 -0.1212  0.4045 -0.8827
 6433SOL    HW130935   1.402   3.213   2.931 -1.5361  0.6538 -0.0952
 6433SOL    HW230936   1.277   3.153   2.898  0.0292 -1.5412 -2.1553
 6434SOL     OW30937   1.153   1.376   4.877 -0.1386  0.0832  0.1141
 6434SOL    HW130938   1.085   1.317   4.847 -1.2180  1.0359  0.6836
 6434SOL    HW230939   1.106   1.411   4.952 -0.1621  0.2194  0.0379
 6435SOL     OW30940   3.308   1.799   5.398  0.6388 -0.5359 -0.4709
 6435SOL    HW130941   3.312   1.703   5.391 -1.9852 -0.6809  0.0172
 6435SOL    HW230942   3.280   1.832   5.483 -1.9813 -2.9722 -0.3658
 6436SOL     OW30943   2.850   0.547   5.769 -0.8394  0.1274  0.1864
 6436SOL    HW130944   2.758   0.539   5.792 -1.3096  2.0434 -1.0459
 6436SOL    HW230945   2.887   0.488   5.835  2.6296  2.8392  0.7049
 6437SOL     OW30946   2.970   2.173   1.974 -0.7201 -0.4425  0.7769
 6437SOL    HW130947   2.881   2.139   1.961 -0.0694 -1.1614 -1.8508
 6437SOL    HW230948   2.959   2.266   1.995  0.3593  0.0287 -0.7259
 6438SOL     OW30949   3.946   3.060   7.258  0.2674  0.6062 -0.1726
 6438SOL    HW130950   4.020   3.002   7.239 -0.4919 -0.5834  0.4913
 6438SOL    HW230951   3.943   3.064   7.353  0.0416  3.0717 -0.2755
 6439SOL     OW30952   1.141   4.042   8.420  0.0433  0.9493  0.2035
 6439SOL    HW130953   1.173   4.119   8.374 -0.0416 -0.3255 -2.0133
 6439SOL    HW230954   1.071   4.086   8.468 -0.6508 -0.3119  0.3666
 6440SOL     OW30955   4.649   4.333   8.678 -1.0130  0.5052 -0.4328
 6440SOL    HW130956   4.606   4.416   8.656 -1.6093  0.3640  0.1921
 6440SOL    HW230957   4.638   4.319   8.772 -1.5094  1.2142 -0.3801
 6441SOL     OW30958   4.563   1.342  16.933 -0.6890 -0.3060  0.0057
 6441SOL    HW130959   4.608   1.405  16.876  0.7255 -0.1977  1.2255
 6441SOL    HW230960   4.472   1.371  16.932  0.2095  2.6604  1.4996
 6442SOL     OW30961   0.089   3.970   5.441 -0.2946 -0.6319 -0.0515
 6442SOL    HW130962   0.087   4.062   5.414 -0.2184 -0.4510  0.5596
 6442SOL    HW230963   0.181   3.966   5.467 -0.1485  3.2532  0.0284
 6443SOL     OW30964   2.678   1.326  16.909 -0.4411 -0.1386 -0.1274
 6443SOL    HW130965   2.711   1.287  16.989  0.6975  1.3357  0.1191
 6443SOL    HW230966   2.689   1.421  16.912  0.2736 -0.1810 -1.3090
 6444SOL     OW30967   1.792   4.709   2.668 -0.3809 -0.2355 -0.1329
 6444SOL    HW130968   1.726   4.648   2.635 -0.9729  0.3889 -0.0959
 6444SOL    HW230969   1.769   4.719   2.760  2.2569 -0.6135  0.5485
 6445SOL     OW30970   0.938   2.212   4.723 -0.1435 -0.4898  0.6941
 6445SOL    HW130971   0.915   2.295   4.680  0.7552 -0.8993 -0.5586
 6445SOL    HW230972   1.027   2.232   4.752  0.3592  0.0406 -1.2066
 6446SOL     OW30973   0.502   4.631   4.535 -0.1374  0.0689  0.2076
 6446SOL    HW130974   0.427   4.656   4.588 -0.8003 -1.1497 -0.1479
 6446SOL    HW230975   0.533   4.571   4.602  2.0159  4.0515  2.7908
 6447SOL     OW30976   3.647   1.230   8.623 -0.0962  0.3177  0.3754
 6447SOL    HW130977   3.589   1.298   8.658  0.2587  0.8456 -0.0750
 6447SOL    HW230978   3.688   1.278   8.551 -1.6665  0.0612 -0.7156
 6448SOL     OW30979   2.482   0.535   8.164  0.5119 -0.0491 -0.0109
 6448SOL    HW130980   2.400   0.554   8.210 -0.2197 -0.5601 -1.0941
 6448SOL    HW230981   2.537   0.496   8.231  3.1735  2.7599 -0.5387
 6449SOL     OW30982   2.067   2.169   5.390 -0.7311  0.2239 -0.6761
 6449SOL    HW130983   2.000   2.201   5.329 -0.3438 -0.5974 -1.5411
 6449SOL    HW230984   2.145   2.155   5.336  0.2163 -1.5685  1.1574
 6450SOL     OW30985   3.222   0.423  12.440 -0.2037  0.1005 -0.6177
 6450SOL    HW130986   3.219   0.516  12.416 -0.8286 -0.1505 -1.5312
 6450SOL    HW230987   3.208   0.385  12.353 -0.1762  1.8044 -1.3691
 6451SOL     OW30988   0.153   1.673   6.393  0.5486 -0.0733  0.3699
 6451SOL    HW130989   0.136   1.582   6.417 -1.4995  0.0054 -0.7026
 6451SOL    HW230990   0.184   1.703   6.478 -1.0923  0.6135  0.7397
 6452SOL     OW30991   1.967   0.542  15.668 -0.5261  0.1862 -0.0804
 6452SOL    HW130992   1.963   0.474  15.601 -3.3668  0.3019 -0.0127
 6452SOL    HW230993   1.993   0.616  15.613  1.5175 -1.9874 -2.0300
 6453SOL     OW30994   1.494   4.471   5.628 -0.7265  0.3007  0.2431
 6453SOL    HW130995   1.514   4.466   5.721  0.7720 -2.5727 -0.2213
 6453SOL    HW230996   1.575   4.515   5.603  0.6025 -1.7752  0.8753
 6454SOL     OW30997   1.627   4.160   2.525  0.4503 -0.2114 -0.1330
 6454SOL    HW130998   1.628   4.234   2.586 -0.0103 -2.0693  2.1189
 6454SOL    HW230999   1.575   4.098   2.577  0.2437 -0.1807 -0.3049
 6455SOL     OW31000   0.224   3.217   7.203 -0.1418  0.5469  0.1178
 6455SOL    HW131001   0.294   3.242   7.263 -1.0594  0.0336  1.3936
 6455SOL    HW231002   0.277   3.155   7.152  1.6958  0.1431  2.4908
 6456SOL     OW31003   1.831   4.047   1.042  0.1096  0.7447 -0.2509
 6456SOL    HW131004   1.804   3.974   1.097  0.3135 -0.6851 -2.0838
 6456SOL    HW231005   1.746   4.072   1.005 -1.0813 -1.6615  0.8798
 6457SOL     OW31006   1.371   3.986   1.606  0.3974 -0.0210  0.3771
 6457SOL    HW131007   1.394   3.900   1.640  2.0289  0.9997  1.8000
 6457SOL    HW231008   1.437   3.993   1.538 -0.5456  1.1526 -0.4272
 6458SOL     OW31009   2.935   3.689   3.721  0.0341 -0.3816 -0.0822
 6458SOL    HW131010   3.011   3.656   3.674 -0.3264  0.5503 -1.3220
 6458SOL    HW231011   2.966   3.775   3.752 -2.1590  0.6429 -0.7066
 6459SOL     OW31012   0.543   3.223  11.649  0.0341 -0.0755 -0.2367
 6459SOL    HW131013   0.490   3.203  11.726  1.2780  0.6807  0.8096
 6459SOL    HW231014   0.614   3.160  11.663  1.6499  2.1513  1.5503
 6460SOL     OW31015   2.381   1.141  15.760 -0.2383  0.5148 -0.2604
 6460SOL    HW131016   2.320   1.146  15.687 -0.2123  1.3559 -0.2179
 6460SOL    HW231017   2.330   1.171  15.835  1.7806 -0.2124  1.4289
 6461SOL     OW31018   2.089   2.776   0.182  0.1292 -0.3674 -0.1546
 6461SOL    HW131019   2.131   2.690   0.174 -0.3784 -0.6395  0.1403
 6461SOL    HW231020   2.010   2.755   0.132  0.4744 -2.4227  0.1584
 6462SOL     OW31021   2.537   1.621  13.748  0.0121  0.2830  0.0276
 6462SOL    HW131022   2.449   1.599  13.781 -0.2234  0.8796 -0.1984
 6462SOL    HW231023   2.585   1.549  13.789  1.2548  0.8580 -0.4181
 6463SOL     OW31024   3.980   2.860   1.032 -0.6378 -0.1944  0.2379
 6463SOL    HW131025   3.889   2.846   1.060 -0.4338 -2.0974 -0.0583
 6463SOL    HW231026   4.005   2.771   1.009  1.2360  0.4019  0.0025
 6464SOL     OW31027   1.411   1.585   2.463  0.1847 -0.3323  0.0054
 6464SOL    HW131028   1.427   1.496   2.431 -1.5248 -0.8540  0.5423
 6464SOL    HW231029   1.445   1.588   2.553  2.2745  0.8884 -0.8369
 6465SOL     OW31030   3.988   0.073  15.636 -0.6347 -0.5803  0.6007
 6465SOL    HW131031   3.932   0.041  15.706 -2.1074 -1.2554 -0.8915
 6465SOL    HW231032   4.066   0.102  15.683 -1.1776  0.5683  0.8123
 6466SOL     OW31033   0.409   0.068   8.254 -0.4585 -0.4888  0.1049
 6466SOL    HW131034   0.396   0.102   8.342 -1.4953 -0.8137  0.0850
 6466SOL    HW231035   0.328   0.016   8.253 -1.1516  0.5768  0.1756
 6467SOL     OW31036   0.320   0.167  16.620  0.2854  0.4973  0.0627
 6467SOL    HW131037   0.256   0.237  16.630 -0.0102  0.7214 -3.5482
 6467SOL    HW231038   0.276   0.095  16.667  1.9565 -0.6483 -0.1166
 6468SOL     OW31039   1.630   2.307   3.056  0.0578  0.4403  0.0926
 6468SOL    HW131040   1.544   2.314   3.013 -0.3683  0.6433  0.9708
 6468SOL    HW231041   1.611   2.323   3.148 -0.0063  0.4120  0.0843
 6469SOL     OW31042   0.661   0.880   5.462 -0.5173 -0.3192 -0.7002
 6469SOL    HW131043   0.751   0.898   5.434  1.2029 -4.4658  2.3049
 6469SOL    HW231044   0.653   0.939   5.537  1.8157 -0.5453 -0.2726
 6470SOL     OW31045   4.732   3.594   2.845 -0.2008  0.2618  0.2351
 6470SOL    HW131046   0.087   3.610   2.839 -0.3139  0.6430 -0.5286
 6470SOL    HW231047   4.698   3.652   2.777 -0.7409  1.8761  1.9099
 6471SOL     OW31048   1.945   1.396  12.244  0.4442 -0.7462  0.4959
 6471SOL    HW131049   1.939   1.463  12.312 -2.7470  0.3975 -0.8875
 6471SOL    HW231050   1.954   1.442  12.160 -1.2565 -0.4966  0.4432
 6472SOL     OW31051   2.452   0.832  11.769 -0.3487  0.1731 -0.3030
 6472SOL    HW131052   2.369   0.850  11.813  0.3700  0.2467  1.0127
 6472SOL    HW231053   2.422   0.745  11.741 -1.5709  0.6228 -0.4208
 6473SOL     OW31054   1.672   2.398  17.688 -0.2911 -0.3174 -0.0433
 6473SOL    HW131055   1.729   2.440  17.622 -0.1628  0.1573  0.3692
 6473SOL    HW231056   1.598   2.457  17.698 -0.5997 -0.7897  0.4350
 6474SOL     OW31057   2.385   1.243   4.138  0.3863  0.3934  0.6832
 6474SOL    HW131058   2.370   1.332   4.168 -1.3652  1.9479 -4.7922
 6474SOL    HW231059   2.297   1.206   4.142 -0.0119  1.2503 -0.2601
 6475SOL     OW31060   3.176   2.206   2.347 -0.2876  0.2084  0.4468
 6475SOL    HW131061   3.146   2.191   2.437  1.5169  3.6247  1.6277
 6475SOL    HW231062   3.099   2.246   2.307  0.6260 -1.4393 -2.9714
 6476SOL     OW31063   3.514   4.608   7.482  0.0703 -0.2822 -0.1394
 6476SOL    HW131064   3.430   4.625   7.524  0.7030 -1.6069  1.6966
 6476SOL    HW231065   3.543   4.524   7.519  0.1259  0.0296  0.5270
 6477SOL     OW31066   3.637   0.987   7.587  0.6217 -0.2896 -0.0693
 6477SOL    HW131067   3.611   0.895   7.594 -0.3850  0.0640  0.7702
 6477SOL    HW231068   3.659   0.986   7.494  0.3794 -1.0670 -0.1216
 6478SOL     OW31069   3.653   3.557   4.934 -0.3269  0.1028  0.1520
 6478SOL    HW131070   3.655   3.510   4.850  2.1403  0.1584  0.1939
 6478SOL    HW231071   3.745   3.581   4.943 -0.4880  0.2867  1.2573
 6479SOL     OW31072   4.000   0.131   1.672 -0.1651 -0.6042  0.5273
 6479SOL    HW131073   4.064   0.194   1.703 -1.1832  0.2117  0.9748
 6479SOL    HW231074   3.938   0.125   1.745 -1.1504  2.2151 -0.0872
 6480SOL     OW31075   0.709   0.578   9.011 -0.5407 -0.1935  0.2249
 6480SOL    HW131076   0.790   0.609   9.052 -0.0662  1.3968 -1.9555
 6480SOL    HW231077   0.650   0.652   9.009 -1.2363 -0.8357 -2.0238
 6481SOL     OW31078   1.796   2.959   8.396 -0.4740  0.1427  0.8976
 6481SOL    HW131079   1.843   2.895   8.342 -1.5620  1.3513 -1.4993
 6481SOL    HW231080   1.759   3.014   8.326  0.4896 -0.0346  0.2431
 6482SOL     OW31081   0.900   4.672   1.036 -0.1483 -0.2954 -0.2181
 6482SOL    HW131082   0.836   4.641   1.101 -0.1120 -1.0647 -0.5390
 6482SOL    HW231083   0.975   4.625   1.071 -0.5636 -1.6022 -1.0581
 6483SOL     OW31084   4.610   0.198   7.302 -0.2579 -0.1288 -0.1547
 6483SOL    HW131085   4.691   0.230   7.262  0.3938  0.8799  1.9820
 6483SOL    HW231086   4.553   0.264   7.263 -0.9394 -0.3408  0.4799
 6484SOL     OW31087   2.522   2.484   7.012  0.3877  0.0417 -0.5864
 6484SOL    HW131088   2.442   2.461   6.964  1.2831 -0.9773 -1.5763
 6484SOL    HW231089   2.482   2.563   7.050  2.1071  0.2376  0.8038
 6485SOL     OW31090   4.140   0.887   2.841  0.1019 -1.0175 -0.0531
 6485SOL    HW131091   4.060   0.880   2.892  1.3097  2.3796  2.3283
 6485SOL    HW231092   4.198   0.916   2.911  1.9551 -1.5003 -1.3869
 6486SOL     OW31093   2.119   3.663  13.018  0.2645  0.0204 -0.2553
 6486SOL    HW131094   2.104   3.593  12.955  2.6994  1.3376 -2.2640
 6486SOL    HW231095   2.191   3.716  12.985  1.0739 -0.4266  0.7873
 6487SOL     OW31096   2.779   0.945   6.357  0.1804  0.6880 -0.1041
 6487SOL    HW131097   2.735   1.002   6.421 -1.4001 -1.3967  0.6693
 6487SOL    HW231098   2.829   0.998   6.296  2.3190 -0.8507  0.3082
 6488SOL     OW31099   0.554   3.244   3.568 -0.0739  0.0602 -0.6788
 6488SOL    HW131100   0.493   3.226   3.496  0.1614  0.9865 -1.1258
 6488SOL    HW231101   0.618   3.174   3.554  2.2884  1.9214  0.6858
 6489SOL     OW31102   0.945   1.355  10.878 -0.4695 -0.2945  0.2196
 6489SOL    HW131103   0.973   1.357  10.787 -1.0750  1.7726  0.0833
 6489SOL    HW231104   1.000   1.420  10.920 -1.4831  0.4049  0.4829
 6490SOL     OW31105   4.549   2.873   4.769 -0.1372 -0.0105 -0.6073
 6490SOL    HW131106   4.578   2.807   4.831 -0.1667  1.1571  0.6635
 6490SOL    HW231107   4.607   2.854   4.695 -0.6801 -2.7156 -0.3466
 6491SOL     OW31108   1.836   1.367   3.781  0.1556 -0.7061  0.7100
 6491SOL    HW131109   1.766   1.304   3.770  0.6124 -1.6698  3.3988
 6491SOL    HW231110   1.887   1.356   3.700 -1.9899  1.1015 -0.8945
 6492SOL     OW31111   4.725   1.937   4.072 -0.4961  0.2696 -0.4916
 6492SOL    HW131112   4.656   1.870   4.076  0.2966 -0.4163  1.3730
 6492SOL    HW231113   4.680   2.018   4.095 -2.4160 -1.3812  1.6057
 6493SOL     OW31114   1.354   0.638  15.103  0.1066 -0.4495  0.5425
 6493SOL    HW131115   1.446   0.639  15.080 -0.3456  2.1305 -1.1332
 6493SOL    HW231116   1.355   0.587  15.184  1.3526 -3.1822 -1.1821
 6494SOL     OW31117   0.542   0.415   0.642  0.0407  0.4986  0.6591
 6494SOL    HW131118   0.466   0.370   0.679  1.3844 -0.7824  1.8551
 6494SOL    HW231119   0.527   0.413   0.548 -0.5001 -0.8170  0.7842
 6495SOL     OW31120   2.961   1.042   7.794  0.4501 -0.5027 -0.2394
 6495SOL    HW131121   2.866   1.053   7.807  0.4888  0.7969 -1.0696
 6495SOL    HW231122   2.966   0.948   7.806  2.3719 -0.4279 -0.4872
 6496SOL     OW31123   2.212   4.064   6.829 -0.0107 -0.3324 -0.2919
 6496SOL    HW131124   2.258   3.982   6.810  2.7073  0.9181  0.9794
 6496SOL    HW231125   2.133   4.052   6.776 -0.3899 -0.4092  0.2873
 6497SOL     OW31126   2.942   0.215  14.146 -0.2280 -0.5172  0.0015
 6497SOL    HW131127   2.890   0.236  14.224  2.4556  1.6945  1.1783
 6497SOL    HW231128   2.912   0.129  14.118 -1.3375 -0.5489  1.2520
 6498SOL     OW31129   3.846   1.741  11.831  0.0682 -0.9033  0.0053
 6498SOL    HW131130   3.888   1.661  11.798  2.4147 -1.0628  3.4831
 6498SOL    HW231131   3.912   1.776  11.890 -1.2126 -0.9052  1.4343
 6499SOL     OW31132   1.882   1.259   8.420 -0.0592  0.3884  0.4474
 6499SOL    HW131133   1.854   1.178   8.377 -1.5720  0.1884  1.8072
 6499SOL    HW231134   1.977   1.261   8.406 -0.1239 -1.7998 -0.2107
 6500SOL     OW31135   1.650   2.288   4.706  0.0205  0.7418 -0.1363
 6500SOL    HW131136   1.658   2.378   4.676  4.5107  0.1641 -0.7088
 6500SOL    HW231137   1.737   2.263   4.675 -0.8694 -2.7851  0.2096
 6501SOL     OW31138   1.189   4.579   3.130 -0.1683 -0.3018 -0.4847
 6501SOL    HW131139   1.238   4.552   3.208 -0.1506  0.3514 -0.2734
 6501SOL    HW231140   1.107   4.617   3.161  0.5717  0.0384  1.0573
 6502SOL     OW31141   3.198   1.241   5.917 -0.7407  0.4058  0.5093
 6502SOL    HW131142   3.212   1.146   5.927  1.4425  0.4788 -1.9834
 6502SOL    HW231143   3.102   1.236   5.911 -0.6732  0.5056 -0.5552
 6503SOL     OW31144   3.055   3.250  10.761  0.5225  0.3503  0.8256
 6503SOL    HW131145   3.105   3.321  10.801 -0.2920  1.1851  0.3870
 6503SOL    HW231146   2.985   3.292  10.710 -0.5290 -0.7607  1.3768
 6504SOL     OW31147   0.808   0.303   4.653 -0.3513  0.0916  0.6345
 6504SOL    HW131148   0.856   0.385   4.642  0.2432 -0.3793 -0.3118
 6504SOL    HW231149   0.831   0.293   4.745  0.8403  0.8194  0.4264
 6505SOL     OW31150   0.846   0.208  12.539  0.3788  0.5530  0.5177
 6505SOL    HW131151   0.793   0.204  12.459  1.8809 -2.4166 -0.3178
 6505SOL    HW231152   0.833   0.119  12.569  2.3355  0.1065  0.0709
 6506SOL     OW31153   4.311   0.628  13.019 -0.4766  0.1951  0.4839
 6506SOL    HW131154   4.385   0.687  13.032 -0.2655 -0.5782  2.7521
 6506SOL    HW231155   4.243   0.672  13.071 -2.0411  0.7718 -2.0341
 6507SOL     OW31156   3.798   2.597  11.049 -0.6938 -0.1609 -0.6351
 6507SOL    HW131157   3.714   2.612  11.092 -1.4556  0.2767 -2.2695
 6507SOL    HW231158   3.775   2.512  11.012 -2.0217 -0.3623  0.6911
 6508SOL     OW31159   0.038   3.206  10.712  0.5602 -0.5787 -0.0807
 6508SOL    HW131160   4.734   3.257  10.644  1.2642  0.1393 -0.0037
 6508SOL    HW231161   4.724   3.225  10.788  0.0276 -2.7990  0.0940
 6509SOL     OW31162   3.146   3.812  10.043 -0.1692 -0.8523 -0.6102
 6509SOL    HW131163   3.134   3.906  10.055 -0.0752 -0.7919 -0.9965
 6509SOL    HW231164   3.073   3.775   9.994 -1.5683  2.0414 -0.7576
 6510SOL     OW31165   3.569   4.131   2.383  0.3727  0.2737 -0.0594
 6510SOL    HW131166   3.508   4.200   2.357 -0.0336  0.0941  0.4197
 6510SOL    HW231167   3.507   4.063   2.410 -1.2607  1.4549 -0.8336
 6511SOL     OW31168   3.011   1.014   3.740 -0.0345  0.6437  0.7542
 6511SOL    HW131169   2.934   0.974   3.698 -0.0977 -1.4294  2.8641
 6511SOL    HW231170   3.006   1.107   3.716 -1.4327  0.5748  0.7817
 6512SOL     OW31171   3.857   4.100   4.766 -0.3586  0.1716 -0.2726
 6512SOL    HW131172   3.799   4.149   4.824 -0.2128 -1.1065  0.9509
 6512SOL    HW231173   3.937   4.080   4.815  0.1442  1.8866 -0.3839
 6513SOL     OW31174   1.988   1.270   3.544 -0.5238 -0.5517  0.1018
 6513SOL    HW131175   2.027   1.199   3.595  1.1769 -1.2057 -2.1495
 6513SOL    HW231176   2.025   1.250   3.458 -0.8886  1.5893 -0.5401
 6514SOL     OW31177   0.970   1.437   6.534 -0.2474 -0.0663  0.5396
 6514SOL    HW131178   0.937   1.465   6.449 -2.3278  0.1295  1.4184
 6514SOL    HW231179   1.034   1.374   6.502 -0.9172 -1.3610  1.7401
 6515SOL     OW31180   0.580   2.033  10.933  0.9600 -0.1771 -0.0673
 6515SOL    HW131181   0.668   2.058  10.906  0.8203  0.1666 -0.2089
 6515SOL    HW231182   0.584   2.058  11.026  0.4152 -1.8846  0.4149
 6516SOL     OW31183   1.006   1.239   2.671 -0.0767  0.8634 -0.2424
 6516SOL    HW131184   0.958   1.300   2.727 -3.0418 -1.5876 -0.1201
 6516SOL    HW231185   0.980   1.278   2.588 -0.0603 -0.0361 -0.6675
 6517SOL     OW31186   0.812   2.488   1.735 -0.0612  0.4018 -0.1850
 6517SOL    HW131187   0.901   2.493   1.701 -0.6085 -1.7976 -1.9551
 6517SOL    HW231188   0.811   2.572   1.781 -1.6782  1.4105 -2.0335
 6518SOL     OW31189   2.880   3.497   8.225  0.0338  0.0579 -0.0642
 6518SOL    HW131190   2.918   3.577   8.262  0.0271  0.9725 -2.0272
 6518SOL    HW231191   2.786   3.517   8.227 -0.1354 -0.7958  0.7397
 6519SOL     OW31192   0.105   2.970   5.840  0.7834  0.2468 -0.8540
 6519SOL    HW131193   0.037   3.037   5.833 -1.4193 -1.7891  1.1987
 6519SOL    HW231194   0.066   2.916   5.909  0.0225  0.8222 -0.8326
 6520SOL     OW31195   1.731   4.609   2.172 -0.2932  0.3434  0.0700
 6520SOL    HW131196   1.796   4.660   2.219  0.3403  0.4883 -0.9530
 6520SOL    HW231197   1.691   4.557   2.241  1.3870 -0.7852  0.1925
 6521SOL     OW31198   0.920   1.668   6.679  0.6428 -0.5274  0.3187
 6521SOL    HW131199   1.016   1.671   6.672  0.6033 -2.3769 -1.1142
 6521SOL    HW231200   0.907   1.579   6.646  0.7659 -0.5593  0.3527
 6522SOL     OW31201   4.513   4.012   7.971 -0.2077  0.0071  0.3314
 6522SOL    HW131202   4.590   4.063   7.998  0.9920 -1.0606 -1.1015
 6522SOL    HW231203   4.528   4.004   7.877 -2.7432  1.3877 -0.1936
 6523SOL     OW31204   1.826   4.136  14.604 -0.5512  0.4525 -0.0225
 6523SOL    HW131205   1.781   4.176  14.529 -2.0697 -3.0492 -0.9646
 6523SOL    HW231206   1.891   4.085  14.556 -0.3318  1.6334 -0.9804
 6524SOL     OW31207   0.242   2.925  16.665  0.0500  0.2714 -0.0813
 6524SOL    HW131208   0.286   2.852  16.709 -1.1431  0.1158  0.8267
 6524SOL    HW231209   0.296   3.001  16.687 -1.9842  0.7033  3.3673
 6525SOL     OW31210   1.153   3.732  17.009  0.5897  0.0085 -0.3701
 6525SOL    HW131211   1.223   3.750  17.071 -0.8022  1.3070  0.8069
 6525SOL    HW231212   1.216   3.681  16.959  1.1646 -0.3346  0.7024
 6526SOL     OW31213   3.653   3.127   9.524 -0.0554 -0.1226  0.5361
 6526SOL    HW131214   3.634   3.033   9.526  0.3463 -0.1942  0.9306
 6526SOL    HW231215   3.567   3.158   9.498  0.4927  0.3264 -0.7719
 6527SOL     OW31216   2.256   1.487   4.253  0.3866 -0.0538  0.3492
 6527SOL    HW131217   2.163   1.466   4.254 -0.0745  1.8841 -1.3284
 6527SOL    HW231218   2.264   1.537   4.172  0.9408 -1.2479 -0.3266
 6528SOL     OW31219   3.493   3.111   2.994 -0.1678 -0.4827 -0.4668
 6528SOL    HW131220   3.452   3.197   2.985  1.7653  0.8790  3.5385
 6528SOL    HW231221   3.535   3.112   2.909  1.2293  1.1741  0.2428
 6529SOL     OW31222   1.064   4.565   1.514 -0.2800 -0.0487 -0.2504
 6529SOL    HW131223   1.045   4.472   1.497 -1.2413 -0.5618  3.6476
 6529SOL    HW231224   1.046   4.582   1.606 -0.9270 -1.5580 -0.0870
 6530SOL     OW31225   4.275   3.045  15.582  0.3656  0.1095 -0.3776
 6530SOL    HW131226   4.278   3.056  15.487  0.3597  3.7368  0.0052
 6530SOL    HW231227   4.340   2.977  15.592  0.6605  0.4972  0.3777
 6531SOL     OW31228   2.641   1.297   5.985  0.9804 -0.4640 -0.1267
 6531SOL    HW131229   2.610   1.291   6.075  2.4399 -0.3399  0.3952
 6531SOL    HW231230   2.563   1.332   5.943  2.1241  2.0004 -0.1924
 6532SOL     OW31231   3.270   3.771   5.937  0.2323 -0.0869  0.1021
 6532SOL    HW131232   3.280   3.766   6.032 -2.6267 -0.4470  0.3911
 6532SOL    HW231233   3.226   3.856   5.931 -0.1599 -0.3058 -0.1190
 6533SOL     OW31234   4.263   1.461  11.451 -0.4019  0.1147 -0.3253
 6533SOL    HW131235   4.269   1.387  11.390  1.0043 -1.7809  2.1273
 6533SOL    HW231236   4.355   1.483  11.466 -0.0207 -0.2355 -2.1776
 6534SOL     OW31237   3.859   2.820   2.805  0.0893  0.2715  0.2088
 6534SOL    HW131238   3.842   2.914   2.814 -0.8371  0.2251 -1.0425
 6534SOL    HW231239   3.947   2.813   2.766 -0.6477  1.5064 -1.6677
 6535SOL     OW31240   1.496   0.823  10.789 -0.0280 -0.0984  0.5492
 6535SOL    HW131241   1.587   0.794  10.802  0.6102  2.2447  1.2249
 6535SOL    HW231242   1.502   0.914  10.762 -0.0696 -0.7936 -1.8118
 6536SOL     OW31243   2.547   3.700   2.137 -0.0731  0.0829 -0.1634
 6536SOL    HW131244   2.583   3.788   2.130 -0.7078  0.4479  1.2764
 6536SOL    HW231245   2.585   3.670   2.220  0.3420  0.6159 -0.1626
 6537SOL     OW31246   2.987   3.712   8.361  0.3736 -0.7228 -0.7609
 6537SOL    HW131247   2.978   3.789   8.417  0.6636 -0.7202 -0.7195
 6537SOL    HW231248   3.017   3.762   8.285 -1.0275 -0.1013 -0.9140
 6538SOL     OW31249   4.438   2.909   9.801  0.3038  0.1531  0.3147
 6538SOL    HW131250   4.375   2.837   9.805 -1.4948  1.7925  1.8360
 6538SOL    HW231251   4.424   2.959   9.721 -2.0447 -1.9537 -0.5934
 6539SOL     OW31252   3.139   3.890   0.489 -0.3395  0.7678 -0.1175
 6539SOL    HW131253   3.089   3.961   0.530 -0.0672  1.1007 -0.3608
 6539SOL    HW231254   3.177   3.844   0.564 -1.3415 -0.7928 -0.5691
 6540SOL     OW31255   2.901   0.960  13.633  0.1507  0.3707  0.1491
 6540SOL    HW131256   2.929   1.043  13.671  2.4547 -0.5558  0.4420
 6540SOL    HW231257   2.862   0.929  13.714 -0.1810 -1.8793 -0.8510
 6541SOL     OW31258   2.467   0.208   4.505  0.1739 -0.2405 -0.3390
 6541SOL    HW131259   2.550   0.247   4.480  0.6327 -1.5730 -0.8863
 6541SOL    HW231260   2.455   0.170   4.418 -0.0985  1.0786 -0.8721
 6542SOL     OW31261   2.235   2.672   4.284 -0.0238  0.5290  0.9553
 6542SOL    HW131262   2.234   2.766   4.264 -1.0093  0.6770  1.7309
 6542SOL    HW231263   2.273   2.656   4.197  1.7488  2.7588  1.2934
 6543SOL     OW31264   3.832   0.195   7.214  0.8365 -0.2452  0.5466
 6543SOL    HW131265   3.781   0.140   7.273 -1.3006  1.6183  0.4488
 6543SOL    HW231266   3.783   0.188   7.132  0.0618  1.3595  0.8605
 6544SOL     OW31267   2.484   2.812   3.584  0.3498 -0.4445  0.8398
 6544SOL    HW131268   2.546   2.770   3.524  1.9602  2.0990  0.6950
 6544SOL    HW231269   2.513   2.902   3.567 -1.2040  0.0649  0.9091
 6545SOL     OW31270   4.596   2.077  13.017  0.4855  0.0761 -0.0684
 6545SOL    HW131271   4.566   2.068  13.108  0.1397  2.3926  0.0513
 6545SOL    HW231272   4.647   2.156  13.035  0.0621  0.1577  0.7962
 6546SOL     OW31273   4.179   4.353   1.841 -0.0008 -0.0432 -0.1106
 6546SOL    HW131274   4.207   4.433   1.886 -3.0036  1.6566 -1.3059
 6546SOL    HW231275   4.090   4.376   1.814  0.5313  1.9913 -0.0937
 6547SOL     OW31276   4.581   2.522   1.519  0.0866  0.0799  0.0486
 6547SOL    HW131277   4.582   2.618   1.513  1.5836  0.0678 -0.0457
 6547SOL    HW231278   4.500   2.496   1.477 -0.9491  1.0228  1.4430
 6548SOL     OW31279   4.719   1.123   3.944 -0.1803  0.4256 -0.8513
 6548SOL    HW131280   4.719   1.202   3.997  1.5874 -0.0288 -0.1674
 6548SOL    HW231281   0.044   1.158   3.883  0.4616  0.7587  0.0271
 6549SOL     OW31282   2.431   4.116  12.043 -0.0905  0.1835 -0.3291
 6549SOL    HW131283   2.501   4.180  12.034  0.9153 -0.9972 -0.8593
 6549SOL    HW231284   2.421   4.085  11.953  1.0766 -0.0648 -0.3766
 6550SOL     OW31285   1.860   3.884   2.939  0.1037  0.0896  0.6021
 6550SOL    HW131286   1.943   3.910   2.899 -0.5689 -0.5250 -1.1854
 6550SOL    HW231287   1.844   3.798   2.900 -0.3411  0.2966  0.3204
 6551SOL     OW31288   3.636   2.750   6.458  0.2242 -0.5464  0.0492
 6551SOL    HW131289   3.556   2.783   6.500 -0.1733  0.9581 -1.8965
 6551SOL    HW231290   3.592   2.710   6.383  2.1389 -3.0002  0.2403
 6552SOL     OW31291   1.040   2.053  14.485 -0.3123  0.4200 -0.3829
 6552SOL    HW131292   1.097   2.129  14.496  0.1765 -0.2233  1.5961
 6552SOL    HW231293   0.949   2.081  14.494 -0.4153 -0.6956  2.0360
 6553SOL     OW31294   1.178   1.242  14.718 -0.6132 -0.1666 -0.2979
 6553SOL    HW131295   1.089   1.238  14.755 -0.9381 -0.4411 -1.1073
 6553SOL    HW231296   1.184   1.152  14.686 -2.9034  0.3930 -2.3268
 6554SOL     OW31297   2.427   3.067   3.946 -0.4547  0.1151 -0.0870
 6554SOL    HW131298   2.388   3.110   4.022 -1.4230  1.9811 -1.6584
 6554SOL    HW231299   2.475   3.136   3.901  1.9133 -1.0794  0.5596
 6555SOL     OW31300   0.802   0.143  14.549  0.3778 -0.1939  0.2917
 6555SOL    HW131301   0.748   0.213  14.514 -1.7170 -0.6829  2.5210
 6555SOL    HW231302   0.812   0.090  14.470  2.1027 -0.0046  0.3691
 6556SOL     OW31303   2.140   1.769  12.546  0.5864 -0.0217  0.3589
 6556SOL    HW131304   2.223   1.818  12.542  0.4646  0.2773  1.6584
 6556SOL    HW231305   2.086   1.833  12.499  0.2776  0.0106  0.7650
 6557SOL     OW31306   2.939   4.669   5.293 -0.3052  0.3841 -0.1048
 6557SOL    HW131307   2.916   4.734   5.226  0.7993  1.9838  1.0782
 6557SOL    HW231308   2.849   4.641   5.311 -0.7744  0.5994 -2.0862
 6558SOL     OW31309   0.791   4.576  16.383  0.1639  0.1654  0.3779
 6558SOL    HW131310   0.702   4.551  16.357 -1.0300  3.2196  1.5751
 6558SOL    HW231311   0.833   4.513  16.325 -1.2881 -1.4561  1.0902
 6559SOL     OW31312   3.503   0.989   6.060 -0.3054  0.0907 -0.0548
 6559SOL    HW131313   3.432   0.982   5.997  0.9170 -0.0319 -1.4081
 6559SOL    HW231314   3.478   0.938   6.137 -0.5216  1.2812  0.6705
 6560SOL     OW31315   2.978   1.722   3.865 -0.1116  0.0535  0.0935
 6560SOL    HW131316   3.062   1.699   3.825 -1.0787  0.1943 -1.9946
 6560SOL    HW231317   2.993   1.673   3.946 -1.8060 -2.4303 -1.0799
 6561SOL     OW31318   4.227   2.241   9.479 -0.0757 -0.3624 -0.0810
 6561SOL    HW131319   4.154   2.227   9.419 -1.0481  3.6471  0.1617
 6561SOL    HW231320   4.206   2.313   9.539 -1.0449  1.8497 -3.1152
 6562SOL     OW31321   3.960   0.186   8.819  0.0564 -0.3185 -0.2035
 6562SOL    HW131322   3.871   0.182   8.854 -0.8409 -0.9773 -2.5290
 6562SOL    HW231323   3.953   0.258   8.756 -0.0105 -0.8223 -0.7709
 6563SOL     OW31324   0.784   3.768  13.761  0.3131 -0.3945 -0.1578
 6563SOL    HW131325   0.733   3.774  13.842 -0.4483 -0.1829 -0.6564
 6563SOL    HW231326   0.800   3.674  13.754 -1.1090 -0.7027  0.7219
 6564SOL     OW31327   0.383   3.497   4.618 -0.4997  0.0502 -0.4488
 6564SOL    HW131328   0.457   3.551   4.591  1.4721 -2.2799  0.2680
 6564SOL    HW231329   0.410   3.485   4.709  0.4800  1.3967 -0.5463
 6565SOL     OW31330   4.126   3.615   6.676  0.3629  0.2641  0.0813
 6565SOL    HW131331   4.132   3.579   6.764 -1.1677 -1.1773 -0.4002
 6565SOL    HW231332   4.052   3.566   6.640  0.9007 -0.4646 -0.0503
 6566SOL     OW31333   3.568   1.068   1.967 -0.0623  0.5015  0.2497
 6566SOL    HW131334   3.619   1.062   2.047  1.2747 -0.5080 -0.6866
 6566SOL    HW231335   3.522   0.984   1.959 -1.2696  0.9765  2.0902
 6567SOL     OW31336   2.752   2.419  10.559  0.1312  0.2091  0.1702
 6567SOL    HW131337   2.707   2.335  10.552  1.3642 -0.5372  1.0220
 6567SOL    HW231338   2.772   2.427  10.652  2.1636  1.2989 -0.3498
 6568SOL     OW31339   4.554   0.479   8.329 -0.5405 -0.2113  0.2160
 6568SOL    HW131340   4.572   0.433   8.246  3.5639 -2.0132  2.1270
 6568SOL    HW231341   4.458   0.470   8.336 -0.9208  1.6994 -2.4868
 6569SOL     OW31342   3.179   1.996  16.382 -0.0718  0.0469 -0.1761
 6569SOL    HW131343   3.209   2.086  16.371  0.8101 -0.2630 -0.3427
 6569SOL    HW231344   3.108   1.984  16.320  0.2615 -0.2185 -0.5104
 6570SOL     OW31345   2.330   3.709   3.626 -0.1316 -0.4787  0.1472
 6570SOL    HW131346   2.319   3.733   3.718  2.1016  0.7523  0.0931
 6570SOL    HW231347   2.425   3.718   3.620 -0.2090 -2.3290 -4.0722
 6571SOL     OW31348   4.201   0.388  17.427  0.0934 -0.4457  0.1152
 6571SOL    HW131349   4.262   0.450  17.467  0.1623 -0.5362  0.1498
 6571SOL    HW231350   4.163   0.343  17.503 -1.5535  0.1185 -0.3683
 6572SOL     OW31351   0.732   4.007  15.843 -0.0638  0.1122 -0.1832
 6572SOL    HW131352   0.780   4.088  15.859 -0.7967  0.0663  2.2175
 6572SOL    HW231353   0.642   4.031  15.865 -0.5268 -1.7787  0.0356
 6573SOL     OW31354   2.107   3.878   5.239  0.8318 -0.3925 -0.1836
 6573SOL    HW131355   2.082   3.847   5.326 -1.4317  5.2574  1.1979
 6573SOL    HW231356   2.083   3.971   5.233  2.0149 -0.1404 -0.9606
 6574SOL     OW31357   3.192   3.034   4.904  0.1409 -0.0013 -0.2025
 6574SOL    HW131358   3.126   2.987   4.955  0.5954 -0.7941 -0.3415
 6574SOL    HW231359   3.180   3.006   4.814 -0.6881  0.2042 -0.1622
 6575SOL     OW31360   2.238   0.083  16.024 -0.2812 -0.1024 -0.2600
 6575SOL    HW131361   2.301   0.153  16.041 -1.8877  0.9243  1.5441
 6575SOL    HW231362   2.295   0.005  16.029 -1.1080 -0.5765  1.7580
 6576SOL     OW31363   2.933   2.684  17.507  0.0290  0.1437 -0.7262
 6576SOL    HW131364   3.000   2.620  17.484  0.9953  1.8371 -2.7515
 6576SOL    HW231365   2.998   2.734  17.557  0.2026 -0.7042 -0.1091
 6577SOL     OW31366   2.687   4.357   8.614 -0.6194  0.8302 -0.0962
 6577SOL    HW131367   2.684   4.262   8.624  0.9413  0.8232  0.2265
 6577SOL    HW231368   2.604   4.381   8.655 -0.4552  0.8869  0.2027
 6578SOL     OW31369   0.440   0.646   7.025 -0.0245 -0.1582 -0.5705
 6578SOL    HW131370   0.433   0.700   7.103  1.0521 -1.6566  0.5475
 6578SOL    HW231371   0.523   0.680   6.991  0.1208  0.8679  0.8052
 6579SOL     OW31372   3.611   2.178   6.704  0.1391 -0.6319 -0.1163
 6579SOL    HW131373   3.551   2.151   6.634 -2.6133 -0.2587  2.0785
 6579SOL    HW231374   3.681   2.218   6.653  0.5809  0.3053  1.2079
 6580SOL     OW31375   3.413   3.394   4.294 -0.2791  0.0738  0.2977
 6580SOL    HW131376   3.340   3.348   4.337 -0.3399 -0.0578  0.0544
 6580SOL    HW231377   3.404   3.360   4.205 -1.4062  0.6171  0.2099
 6581SOL     OW31378   4.133   1.231  17.723  0.2722  0.6437  0.4903
 6581SOL    HW131379   4.201   1.227   0.034 -0.1332 -2.4365  0.7231
 6581SOL    HW231380   4.116   1.324  17.716  0.2443  0.4362 -2.1980
 6582SOL     OW31381   0.914   1.057   8.987  0.2246 -0.2010  0.2936
 6582SOL    HW131382   0.978   1.112   9.032  1.1099  0.6830 -2.0187
 6582SOL    HW231383   0.842   1.068   9.049 -0.2781 -0.4538 -0.2436
 6583SOL     OW31384   0.846   3.552   5.187 -0.4852  0.0201  0.6741
 6583SOL    HW131385   0.931   3.596   5.184  0.0394 -0.9074  1.6393
 6583SOL    HW231386   0.883   3.471   5.151  0.9157  1.1364 -0.3830
 6584SOL     OW31387   4.673   3.916   4.606 -0.2720 -0.1670 -0.7172
 6584SOL    HW131388   4.691   3.958   4.522  2.4987 -0.1180 -0.0825
 6584SOL    HW231389   4.724   3.836   4.596  1.3076  0.3265  3.5481
 6585SOL     OW31390   0.685   3.285   5.346 -0.0036  0.0598  0.5088
 6585SOL    HW131391   0.663   3.341   5.272  0.5192  0.5259  0.6961
 6585SOL    HW231392   0.691   3.199   5.306  1.4063 -1.2214  3.4310
 6586SOL     OW31393   3.087   0.220   1.139 -0.1071 -0.4430  0.0989
 6586SOL    HW131394   3.012   0.162   1.125 -2.2978  2.3054  0.4146
 6586SOL    HW231395   3.117   0.237   1.050  1.3223  0.1833  0.6958
 6587SOL     OW31396   0.790   1.821   8.223  0.2699 -0.1004  0.4243
 6587SOL    HW131397   0.868   1.866   8.189 -0.5918  1.1985  0.1879
 6587SOL    HW231398   0.771   1.750   8.162 -2.4751 -0.2881  1.5089
 6588SOL     OW31399   4.543   0.567   1.874  0.2818  0.4370 -0.5298
 6588SOL    HW131400   4.452   0.565   1.904  0.6313  0.5477  0.5645
 6588SOL    HW231401   4.583   0.480   1.876  0.2382  0.3846 -1.9157
 6589SOL     OW31402   1.939   0.496   8.245 -0.2593  0.0277  0.5536
 6589SOL    HW131403   1.940   0.405   8.275  1.0596  0.1372  0.8373
 6589SOL    HW231404   1.865   0.536   8.291 -2.0051 -2.1343 -0.3753
 6590SOL     OW31405   0.832   4.420   3.130 -0.5502 -0.2359  0.1882
 6590SOL    HW131406   0.895   4.461   3.189  1.8736 -1.5337 -1.4933
 6590SOL    HW231407   0.800   4.501   3.091 -0.1854 -0.2154 -0.0627
 6591SOL     OW31408   4.313   2.978   0.003  0.2672 -0.3978 -0.1629
 6591SOL    HW131409   4.404   3.003   0.021  0.4183 -0.1559 -1.2434
 6591SOL    HW231410   4.265   3.035   0.064  1.6615  2.1094 -1.4009
 6592SOL     OW31411   1.166   0.298   2.646  0.1131  0.1616  0.3656
 6592SOL    HW131412   1.153   0.208   2.677 -1.1372 -0.4856 -2.0866
 6592SOL    HW231413   1.185   0.344   2.728  0.1296 -0.3989  0.6770
 6593SOL     OW31414   2.756   4.502   5.429 -0.0253  0.0797 -0.1876
 6593SOL    HW131415   2.848   4.483   5.451 -0.6942 -1.2632  1.4897
 6593SOL    HW231416   2.727   4.521   5.518  0.8918 -1.2799  0.4122
 6594SOL     OW31417   4.201   0.104  15.804  0.3621 -0.2755 -0.1847
 6594SOL    HW131418   4.292   0.098  15.830  0.2984 -0.7243 -0.0631
 6594SOL    HW231419   4.202   0.009  15.788  0.6823 -0.6663  2.1813
 6595SOL     OW31420   1.262   4.525   5.106 -0.0995 -0.0251  0.5849
 6595SOL    HW131421   1.311   4.533   5.188 -0.1740  1.6255  0.4725
 6595SOL    HW231422   1.190   4.587   5.112  0.9841  1.3020 -0.3200
 6596SOL     OW31423   0.455   4.081   9.674  0.3475 -0.0597 -0.1791
 6596SOL    HW131424   0.498   4.089   9.589 -1.7959  1.0777 -1.1387
 6596SOL    HW231425   0.521   4.121   9.731  0.6118  1.4763 -1.5645
 6597SOL     OW31426   4.673   0.478   5.161  0.8021 -0.4135 -0.3190
 6597SOL    HW131427   4.677   0.454   5.254 -0.0148  0.7333  0.0021
 6597SOL    HW231428   4.605   0.545   5.159  2.0628  0.8540 -0.5676
 6598SOL     OW31429   3.943   3.120   0.975 -0.8132 -0.0288  0.0239
 6598SOL    HW131430   3.872   3.059   0.990 -2.3447  1.7757  0.1406
 6598SOL    HW231431   4.003   3.045   0.980  2.7792  2.7768 -0.8264
 6599SOL     OW31432   4.476   4.354   6.026 -0.5536  0.4851 -0.1829
 6599SOL    HW131433   4.418   4.331   5.953  1.7737  1.7943 -2.4442
 6599SOL    HW231434   4.550   4.398   5.984  0.0336 -0.3379 -0.0043
 6600SOL     OW31435   1.025   4.677  12.209 -0.2165  0.5304  0.2429
 6600SOL    HW131436   0.943   4.703  12.168 -1.7491 -2.8162  1.2573
 6600SOL    HW231437   0.996   4.599  12.255 -2.6894  0.7492 -0.9586
 6601SOL     OW31438   1.482   3.902   6.769 -0.6720  0.2231 -0.0772
 6601SOL    HW131439   1.548   3.958   6.811 -0.9449  1.5995 -1.4853
 6601SOL    HW231440   1.452   3.965   6.704  0.6673  0.5010 -0.4215
 6602SOL     OW31441   0.134   2.174   4.158  0.1354  0.2001  0.2141
 6602SOL    HW131442   0.148   2.150   4.249 -2.6483  0.4088  0.7125
 6602SOL    HW231443   0.078   2.247   4.185  1.3741  0.9437  0.7875
 6603SOL     OW31444   4.418   1.560   8.456 -0.3422  0.2641 -0.0263
 6603SOL    HW131445   4.464   1.644   8.465  1.6047 -0.6543 -1.3693
 6603SOL    HW231446   4.329   1.595   8.455 -0.7741 -0.7905  1.4658
 6604SOL     OW31447   3.731   0.509   7.819  0.3458 -0.4525  0.4862
 6604SOL    HW131448   3.774   0.444   7.875  0.6064  1.5786  2.6560
 6604SOL    HW231449   3.766   0.482   7.734  2.1877 -0.8948  1.3769
 6605SOL     OW31450   0.641   0.890   1.344 -0.5682  0.5462  0.6029
 6605SOL    HW131451   0.639   0.796   1.357 -1.8269  0.8490  2.7135
 6605SOL    HW231452   0.647   0.935   1.429 -1.0178  2.0576 -0.1546
 6606SOL     OW31453   3.260   1.846   0.688 -0.3805  0.1214  0.0007
 6606SOL    HW131454   3.285   1.885   0.772  1.6425 -3.1432  0.9137
 6606SOL    HW231455   3.282   1.756   0.710 -1.0885 -0.9161 -3.5226
 6607SOL     OW31456   0.873   1.968   7.227  0.0735 -0.7208 -0.1978
 6607SOL    HW131457   0.896   1.934   7.141  0.9320 -2.9287  0.9007
 6607SOL    HW231458   0.957   1.949   7.270  0.6185  3.1675  0.5050
 6608SOL     OW31459   0.607   4.085   9.443 -0.2334  0.1419  0.2053
 6608SOL    HW131460   0.627   4.050   9.356  0.2376  2.7575 -0.7436
 6608SOL    HW231461   0.674   4.029   9.483 -0.7975  0.9272  2.2432
 6609SOL     OW31462   0.700   4.580  14.839 -0.0067  0.2392  0.0543
 6609SOL    HW131463   0.706   4.675  14.830 -0.9328 -0.0484 -3.4546
 6609SOL    HW231464   0.780   4.558  14.791 -0.4472 -1.1990 -0.0269
 6610SOL     OW31465   1.356   0.081  11.829 -0.3722 -0.0936 -0.2573
 6610SOL    HW131466   1.390   4.733  11.845 -1.9829 -0.3824  1.5044
 6610SOL    HW231467   1.331   0.116  11.914  0.7943 -0.9081  0.4221
 6611SOL     OW31468   1.177   1.531   5.589  0.2894  0.1321  0.0873
 6611SOL    HW131469   1.227   1.601   5.546  0.3655  0.2315  0.3382
 6611SOL    HW231470   1.218   1.448   5.564  1.3059  0.6202  0.1254
 6612SOL     OW31471   0.212   0.309  15.337 -0.0753  0.0782  0.2236
 6612SOL    HW131472   0.121   0.335  15.323  0.4727  0.9054 -1.8372
 6612SOL    HW231473   0.256   0.376  15.283 -0.9709  0.2690 -0.2652
 6613SOL     OW31474   1.670   4.640   4.161 -0.0654 -0.2505  0.0341
 6613SOL    HW131475   1.738   4.584   4.200  0.8429  1.6923  1.2656
 6613SOL    HW231476   1.591   4.598   4.195 -1.1388  0.7911 -1.2167
 6614SOL     OW31477   3.510   0.817   9.133 -0.2867  0.0031  0.2152
 6614SOL    HW131478   3.481   0.727   9.146  3.5210 -1.4347 -1.0664
 6614SOL    HW231479   3.542   0.839   9.220  1.1277 -1.3719  0.0366
 6615SOL     OW31480   2.780   0.697   4.530  0.1813  0.5580 -0.3557
 6615SOL    HW131481   2.822   0.613   4.511 -1.8434 -0.6475  0.4381
 6615SOL    HW231482   2.692   0.667   4.507 -0.0389  0.3734  0.7159
 6616SOL     OW31483   4.081   1.291  10.607  0.1428 -0.5818 -0.3550
 6616SOL    HW131484   4.035   1.237  10.542 -1.7227 -0.9039  1.2373
 6616SOL    HW231485   4.155   1.324  10.556 -0.2880  0.2423 -0.4468
 6617SOL     OW31486   1.341   0.037   0.892 -0.2656  0.0609  0.5096
 6617SOL    HW131487   1.257   0.071   0.923 -0.7897  0.0530 -0.8756
 6617SOL    HW231488   1.389   0.120   0.890 -0.2700  0.0516 -0.2174
 6618SOL     OW31489   3.524   0.864   2.358 -0.3079  0.5176  0.1071
 6618SOL    HW131490   3.470   0.939   2.382 -0.0618  0.1087  1.9241
 6618SOL    HW231491   3.609   0.908   2.353  0.6337 -1.0303  2.7333
 6619SOL     OW31492   0.320   1.534   3.789  0.2540 -0.0208  0.7045
 6619SOL    HW131493   0.316   1.485   3.872  1.5652  0.0452  0.8118
 6619SOL    HW231494   0.413   1.539   3.768  0.2979 -3.4974  0.0134
 6620SOL     OW31495   0.734   0.479   8.736 -0.4644 -0.3231  0.3583
 6620SOL    HW131496   0.764   0.471   8.826  0.7978 -0.7238 -0.1031
 6620SOL    HW231497   0.685   0.560   8.750 -1.5362 -0.7380 -0.9447
 6621SOL     OW31498   2.554   2.478   7.824 -0.5183  0.4109  0.2949
 6621SOL    HW131499   2.498   2.458   7.748  0.5422 -2.6548  0.2963
 6621SOL    HW231500   2.565   2.388   7.855  1.1976 -0.2724 -2.2905
 6622SOL     OW31501   2.448   2.477   1.788  0.0634 -0.1097  0.3215
 6622SOL    HW131502   2.494   2.454   1.707 -1.5282 -0.4380 -0.4942
 6622SOL    HW231503   2.492   2.559   1.812 -0.9974 -0.4311  3.3393
 6623SOL     OW31504   1.460   1.010   1.204 -0.4703  0.0249  0.1234
 6623SOL    HW131505   1.540   1.063   1.201 -0.5056  0.0907  0.3389
 6623SOL    HW231506   1.416   1.010   1.119 -1.7688  0.0472  0.8009
 6624SOL     OW31507   4.553   0.203   4.931  0.4812 -0.0497 -0.2007
 6624SOL    HW131508   4.615   0.191   5.003  0.6168  0.6370 -0.2000
 6624SOL    HW231509   4.470   0.221   4.974  2.2748  1.8379  2.4915
 6625SOL     OW31510   2.968   1.468   7.822  0.3207 -0.5779  0.7972
 6625SOL    HW131511   2.893   1.523   7.843  0.2776  0.4504 -2.0405
 6625SOL    HW231512   3.044   1.520   7.847  0.3548 -0.0272 -0.4289
 6626SOL     OW31513   2.131   2.627  16.574  0.1842 -0.4197  0.1024
 6626SOL    HW131514   2.209   2.682  16.578 -1.2881  1.5548  1.3911
 6626SOL    HW231515   2.160   2.551  16.523 -2.0132  0.4446 -2.4374
 6627SOL     OW31516   0.943   0.577   3.280  0.5370 -0.3073 -0.2779
 6627SOL    HW131517   0.997   0.634   3.224 -1.2500  0.9707 -0.6825
 6627SOL    HW231518   0.876   0.546   3.220  1.8461 -2.6610 -0.5208
 6628SOL     OW31519   0.213   4.586   8.895  0.0427 -0.0447 -0.2828
 6628SOL    HW131520   0.126   4.590   8.935  1.2599 -2.4476  2.6530
 6628SOL    HW231521   0.211   4.497   8.859  0.5917  0.6907 -2.1259
 6629SOL     OW31522   1.409   4.538   8.771  0.2945  0.3269 -0.6550
 6629SOL    HW131523   1.385   4.621   8.812 -1.7423 -0.1109 -0.9604
 6629SOL    HW231524   1.499   4.547   8.740  0.4306  0.8752 -0.0948
 6630SOL     OW31525   0.434   2.034   5.022 -0.3365 -0.1764  0.3905
 6630SOL    HW131526   0.481   1.952   5.007  0.6703  0.8742 -2.2104
 6630SOL    HW231527   0.464   2.037   5.113 -1.5726 -1.6839  0.8378
 6631SOL     OW31528   3.304   3.295   5.224  0.1827 -0.0851  0.1603
 6631SOL    HW131529   3.358   3.367   5.194 -1.7031  0.5697 -1.6686
 6631SOL    HW231530   3.366   3.223   5.223  0.3258  0.0360  0.3819
 6632SOL     OW31531   1.594   2.909  16.397 -0.1887  0.0849 -0.2571
 6632SOL    HW131532   1.664   2.848  16.374  0.6733 -0.2669  3.3436
 6632SOL    HW231533   1.517   2.853  16.395  0.1751 -0.4444  1.0228
 6633SOL     OW31534   1.166   1.390  16.153  0.4434 -0.5935  0.5717
 6633SOL    HW131535   1.178   1.319  16.215 -2.8324 -2.9758 -1.4970
 6633SOL    HW231536   1.171   1.475  16.197  1.9802 -0.7079  0.6348
 6634SOL     OW31537   2.370   4.628  12.961 -0.2476 -0.4984 -0.3494
 6634SOL    HW131538   2.329   4.624  13.047 -1.0896 -0.9354 -0.7728
 6634SOL    HW231539   2.409   4.716  12.959  1.2830 -1.1263  1.9226
 6635SOL     OW31540   4.482   4.422   1.517  0.1699  0.0981  0.0974
 6635SOL    HW131541   4.515   4.495   1.464 -1.2949  0.6751 -0.0314
 6635SOL    HW231542   4.394   4.455   1.538  0.7152  0.4116  1.8924
 6636SOL     OW31543   0.346   0.150  15.896 -0.0017 -0.4519 -0.4841
 6636SOL    HW131544   0.411   0.181  15.834  0.1764  0.5940  0.2372
 6636SOL    HW231545   0.375   0.171  15.985 -0.5287  0.7464 -0.6010
 6637SOL     OW31546   0.454   4.538   3.292 -0.1496  0.7732 -0.0905
 6637SOL    HW131547   0.450   4.475   3.364  1.5284  1.2522  0.4277
 6637SOL    HW231548   0.447   4.624   3.333  0.1496  1.2053 -0.9345
 6638SOL     OW31549   4.516   3.457   8.687 -0.0766 -0.6547  0.1132
 6638SOL    HW131550   4.488   3.371   8.718  0.5048 -0.4062  1.3488
 6638SOL    HW231551   4.458   3.462   8.611  0.5704  1.1098 -0.2545
 6639SOL     OW31552   4.676   0.414   3.844  0.0273 -0.2842  0.1983
 6639SOL    HW131553   4.731   0.489   3.866 -1.5443  0.4591  1.5993
 6639SOL    HW231554   4.598   0.470   3.834 -0.7474 -1.4211 -0.0657
 6640SOL     OW31555   4.214   4.280   1.484  0.1247  0.3741  0.1666
 6640SOL    HW131556   4.174   4.242   1.405 -1.4783 -0.1843  1.2487
 6640SOL    HW231557   4.148   4.344   1.511  2.3801  3.4118 -1.4007
 6641SOL     OW31558   2.680   4.664   8.215  0.2651 -0.2133  0.1619
 6641SOL    HW131559   2.640   4.686   8.131 -0.3864  1.5064  0.9279
 6641SOL    HW231560   2.606   4.691   8.269  1.7763  3.5050  0.4033
 6642SOL     OW31561   3.457   2.197  13.849 -0.0919 -0.2845  0.2446
 6642SOL    HW131562   3.467   2.253  13.772 -0.6535 -0.2963  0.1621
 6642SOL    HW231563   3.541   2.206  13.895  0.3661  0.5882 -0.7625
 6643SOL     OW31564   1.517   4.309   4.878  0.1843 -0.1209  0.5126
 6643SOL    HW131565   1.498   4.284   4.788  1.5942  0.9385 -0.0798
 6643SOL    HW231566   1.613   4.312   4.873  0.2313 -1.7061  0.5168
 6644SOL     OW31567   3.718   1.348   2.128  0.8329  0.4610  0.3527
 6644SOL    HW131568   3.683   1.352   2.218 -1.5658  1.0011 -0.5928
 6644SOL    HW231569   3.637   1.361   2.078 -0.9059  1.5136  3.4154
 6645SOL     OW31570   4.205   0.994  10.029 -0.7850 -0.8950 -0.2215
 6645SOL    HW131571   4.199   1.062   9.962 -3.0874 -0.1919  0.6918
 6645SOL    HW231572   4.113   0.971  10.016 -1.4217  1.8290 -0.4520
 6646SOL     OW31573   0.002   3.138   6.179  0.3728  0.0881 -0.2415
 6646SOL    HW131574   0.013   3.104   6.268 -1.6976  1.4144  0.5201
 6646SOL    HW231575   0.073   3.095   6.132 -0.6261 -2.1125  0.2636
 6647SOL     OW31576   3.315   0.719   9.441 -0.0902  0.3941 -0.1572
 6647SOL    HW131577   3.228   0.744   9.471  0.5390  3.2613 -0.7730
 6647SOL    HW231578   3.369   0.797   9.446  1.2347 -0.6223  1.3412
 6648SOL     OW31579   3.185   2.993   2.284 -0.1110 -0.7168 -0.2424
 6648SOL    HW131580   3.188   2.913   2.336  1.2934  0.5501  1.6218
 6648SOL    HW231581   3.188   3.055   2.357  1.4966  0.0482 -0.9493
 6649SOL     OW31582   0.610   2.363   1.574  0.3109 -0.0831  0.0838
 6649SOL    HW131583   0.649   2.276   1.574 -0.1997 -0.3129  2.6181
 6649SOL    HW231584   0.670   2.408   1.634  1.1017 -1.2042  0.1200
 6650SOL     OW31585   0.155   3.124  15.986  0.8176  0.1141  0.3595
 6650SOL    HW131586   0.205   3.204  15.969 -1.1719  1.3204  0.2990
 6650SOL    HW231587   0.070   3.150  15.953  0.5992  0.0886  0.9000
 6651SOL     OW31588   3.341   3.481  11.129 -0.1483  0.1863 -0.2085
 6651SOL    HW131589   3.407   3.429  11.177 -1.0487  0.0098  0.8364
 6651SOL    HW231590   3.265   3.423  11.136  1.9405 -2.6079 -0.3564
 6652SOL     OW31591   2.698   4.573  15.546 -0.3606  0.0254  0.1424
 6652SOL    HW131592   2.711   4.577  15.452 -1.4579  0.6315  0.0115
 6652SOL    HW231593   2.783   4.594  15.585  0.7151 -1.2727 -1.4885
 6653SOL     OW31594   3.293   4.042   7.386 -0.1535  0.4304 -0.0160
 6653SOL    HW131595   3.230   3.975   7.361 -0.3905 -0.6260  3.3779
 6653SOL    HW231596   3.377   4.010   7.352  0.4582  3.1076 -1.0375
 6654SOL     OW31597   3.873   3.314   8.751 -0.4991  0.0317  0.4569
 6654SOL    HW131598   3.922   3.272   8.822 -0.6228  1.1513  1.2179
 6654SOL    HW231599   3.943   3.362   8.707 -0.1449 -0.8264  0.0941
 6655SOL     OW31600   1.376   0.276   4.249 -0.0041 -0.8622 -0.1694
 6655SOL    HW131601   1.405   0.222   4.175  0.4113 -0.0143 -0.6265
 6655SOL    HW231602   1.346   0.212   4.313 -1.1458 -0.2515 -0.1081
 6656SOL     OW31603   0.736   1.867   3.585  0.2714 -0.2269 -0.0215
 6656SOL    HW131604   0.826   1.898   3.597 -0.1565 -0.5103  3.9233
 6656SOL    HW231605   0.696   1.884   3.670 -3.3516  1.2375 -2.0337
 6657SOL     OW31606   3.742   2.080   3.638  0.0214 -0.0630 -0.1757
 6657SOL    HW131607   3.746   1.993   3.598  0.1239 -0.7558  1.3390
 6657SOL    HW231608   3.725   2.133   3.560 -2.0419 -0.5578 -0.0549
 6658SOL     OW31609   3.463   1.571   6.293 -0.3301 -0.1917 -0.2583
 6658SOL    HW131610   3.423   1.499   6.245 -1.6803 -0.3845  1.1649
 6658SOL    HW231611   3.485   1.528   6.376  1.5984  1.0416 -0.1262
 6659SOL     OW31612   0.661   3.268  12.234 -0.3427  0.1500  0.0093
 6659SOL    HW131613   0.599   3.340  12.227 -0.2655  0.2099 -0.0443
 6659SOL    HW231614   0.736   3.305  12.188 -1.4020 -1.6479 -3.1820
 6660SOL     OW31615   2.197   1.418   6.645  1.3261 -0.2357 -0.2489
 6660SOL    HW131616   2.262   1.416   6.576  1.0305  0.2809 -0.5405
 6660SOL    HW231617   2.238   1.469   6.715  0.6258 -1.8883  1.3836
 6661SOL     OW31618   2.004   3.980  14.461  0.0624 -0.4305  0.3708
 6661SOL    HW131619   1.988   3.889  14.483 -0.8517 -0.7762 -1.6944
 6661SOL    HW231620   2.005   3.978  14.365  1.8933 -1.6527  0.4211
 6662SOL     OW31621   2.442   4.339   9.064  0.7868  0.0474 -0.3827
 6662SOL    HW131622   2.511   4.316   9.127 -0.4413 -1.4708  0.3948
 6662SOL    HW231623   2.408   4.257   9.029 -0.8869  1.5184 -2.1525
 6663SOL     OW31624   1.549   0.734   2.163 -0.0353  0.1461  0.4419
 6663SOL    HW131625   1.556   0.785   2.243  1.3026  2.0362 -0.8815
 6663SOL    HW231626   1.455   0.746   2.151 -0.0636  0.0389  0.5608
 6664SOL     OW31627   1.907   3.788  15.417 -0.5180 -0.1480 -0.3114
 6664SOL    HW131628   1.966   3.797  15.342  1.0577 -0.3077  0.9120
 6664SOL    HW231629   1.876   3.698  15.414  0.4727 -0.5571  1.7840
 6665SOL     OW31630   3.217   3.413   7.895 -0.0290 -0.1110 -0.4718
 6665SOL    HW131631   3.224   3.376   7.807  1.2212  1.3731 -0.9854
 6665SOL    HW231632   3.182   3.496   7.862  1.7095  0.7391 -0.1448
 6666SOL     OW31633   3.738   0.017   7.396  0.1975  0.0099 -0.6143
 6666SOL    HW131634   3.652   4.715   7.405 -0.1872  0.4240 -2.4198
 6666SOL    HW231635   3.752   0.038   7.489 -1.6705  0.1991 -0.3680
 6667SOL     OW31636   3.020   4.522   6.575  0.2669  0.0743  0.3881
 6667SOL    HW131637   2.927   4.508   6.595  0.2287 -0.8671 -0.4542
 6667SOL    HW231638   3.047   4.527   6.667 -3.7297 -2.3834  1.7223
 6668SOL     OW31639   4.652   2.102   6.709  0.2303  0.1017 -0.3391
 6668SOL    HW131640   4.673   2.012   6.685 -1.0854 -0.1881 -0.4119
 6668SOL    HW231641   4.581   2.092   6.773  0.7703 -0.7981  0.1172
 6669SOL     OW31642   1.450   1.864  13.341  1.0751  0.5122 -0.1475
 6669SOL    HW131643   1.539   1.830  13.351  1.1003 -0.2549 -3.1983
 6669SOL    HW231644   1.454   1.877  13.247  0.5582  1.4410 -0.0350
 6670SOL     OW31645   2.780   3.064   1.965  0.0858  0.5104 -0.0949
 6670SOL    HW131646   2.829   3.006   1.906  1.4998 -0.0038  1.6060
 6670SOL    HW231647   2.718   3.110   1.908  1.5788  0.0455 -2.1121
 6671SOL     OW31648   1.045   2.637   3.709  0.3581 -0.6977 -0.0226
 6671SOL    HW131649   0.961   2.602   3.680 -0.9205  1.7033  0.7390
 6671SOL    HW231650   1.067   2.672   3.623  1.0898 -0.3956  0.2924
 6672SOL     OW31651   2.226   1.906   0.105  0.1008  0.4146  0.3980
 6672SOL    HW131652   2.132   1.920   0.117 -0.6712 -3.5437 -1.2497
 6672SOL    HW231653   2.244   1.846   0.033  1.6707  0.1082  1.0576
 6673SOL     OW31654   0.439   1.055  17.527 -0.5785 -0.4320  0.2352
 6673SOL    HW131655   0.401   0.991  17.467 -0.3196 -1.8169  1.5639
 6673SOL    HW231656   0.441   1.129  17.467 -0.4913 -1.0733 -0.5450
 6674SOL     OW31657   3.523   3.108   3.633 -0.2143  0.3106  0.0400
 6674SOL    HW131658   3.521   3.028   3.685 -1.7106  0.1878 -0.1894
 6674SOL    HW231659   3.499   3.086   3.543 -0.6580 -0.5920  0.3780
 6675SOL     OW31660   1.015   1.466   5.158  0.7327 -0.3292 -0.3824
 6675SOL    HW131661   1.037   1.543   5.210  0.7738  0.1156 -1.0533
 6675SOL    HW231662   0.920   1.456   5.168  1.0820 -2.0365  1.1573
 6676SOL     OW31663   1.570   2.698  15.444  0.0402 -0.5285 -0.1848
 6676SOL    HW131664   1.593   2.768  15.383  1.7403 -0.8212  0.1325
 6676SOL    HW231665   1.653   2.667  15.480 -0.9963 -2.9772  0.0738
 6677SOL     OW31666   3.662   3.243   5.230  0.0222  0.1585 -1.0720
 6677SOL    HW131667   3.732   3.300   5.263  1.3589 -1.0664 -1.8328
 6677SOL    HW231668   3.620   3.289   5.157  0.2521 -0.4896 -1.6073
 6678SOL     OW31669   0.845   3.003   4.021 -0.2363 -0.0094 -0.0276
 6678SOL    HW131670   0.855   3.040   3.933 -0.4144 -0.4510 -0.2314
 6678SOL    HW231671   0.906   3.060   4.068  0.9604 -1.2936 -0.0272
 6679SOL     OW31672   4.009   4.661   6.356  0.5148 -0.0065  0.4970
 6679SOL    HW131673   3.969   4.589   6.308  1.3815  1.9769 -3.2099
 6679SOL    HW231674   3.990   4.643   6.448  2.0565 -0.5182  0.7065
 6680SOL     OW31675   2.312   3.182   9.372 -0.1781  0.2263 -0.0476
 6680SOL    HW131676   2.392   3.167   9.321 -1.4638 -1.5673 -1.5396
 6680SOL    HW231677   2.299   3.090   9.395 -3.6909  0.5475 -0.7880
 6681SOL     OW31678   3.291   1.709   9.628 -0.0696 -0.5911  0.3407
 6681SOL    HW131679   3.295   1.780   9.564 -0.1387  0.1214  1.1289
 6681SOL    HW231680   3.205   1.734   9.663 -0.7351 -0.0109 -1.7225
 6682SOL     OW31681   0.361   4.378   2.546  0.3054  0.8729 -0.4735
 6682SOL    HW131682   0.442   4.417   2.516 -1.2619  2.5659 -2.4631
 6682SOL    HW231683   0.375   4.352   2.637  1.3270 -0.8591 -1.1314
 6683SOL     OW31684   2.757   3.004  16.407  0.3810 -0.3254  0.3071
 6683SOL    HW131685   2.819   3.068  16.441  0.1942 -0.0987  0.2219
 6683SOL    HW231686   2.810   2.952  16.347  0.6945  0.6862 -0.3075
 6684SOL     OW31687   2.432   3.922   8.833 -0.2469  0.3330 -0.2909
 6684SOL    HW131688   2.375   3.861   8.787 -0.1674  0.0170  0.0280
 6684SOL    HW231689   2.488   3.851   8.865  0.1798  1.3281  1.2034
 6685SOL     OW31690   1.795   4.638   9.533 -0.6610  0.0648  0.1596
 6685SOL    HW131691   1.721   4.622   9.476 -1.0669  2.9819 -0.1198
 6685SOL    HW231692   1.752   4.628   9.618 -2.9650 -2.0796 -1.2886
 6686SOL     OW31693   4.243   3.250   6.196 -0.5243 -0.3204 -0.0502
 6686SOL    HW131694   4.172   3.287   6.248  1.7684  2.6670  0.9611
 6686SOL    HW231695   4.293   3.332   6.196  0.8508 -1.1512  0.4706
 6687SOL     OW31696   3.753   3.953  17.343  0.2213 -0.1133 -0.1889
 6687SOL    HW131697   3.768   3.907  17.261  4.7302 -0.6988  0.9513
 6687SOL    HW231698   3.768   4.040  17.306 -0.0642  0.7424  1.7112
 6688SOL     OW31699   0.373   3.533   5.499 -0.0593  0.2328  0.3709
 6688SOL    HW131700   0.331   3.580   5.571  3.1335  0.5366  2.0786
 6688SOL    HW231701   0.436   3.474   5.541  0.3910  0.4026 -0.0684
 6689SOL     OW31702   4.620   4.683  16.133  0.0972 -0.2620 -0.4502
 6689SOL    HW131703   4.601   0.036  16.145  0.4098  0.0437 -2.3485
 6689SOL    HW231704   4.547   4.651  16.080 -1.9898  0.4219  2.0184
 6690SOL     OW31705   4.074   3.968   4.916  0.3813  0.5084  0.1666
 6690SOL    HW131706   4.067   3.879   4.952  1.1739 -0.2236 -1.5065
 6690SOL    HW231707   4.125   4.018   4.979  0.6381  0.0488  0.3239
 6691SOL     OW31708   4.626   0.517   6.375  0.9448 -0.6834  0.1672
 6691SOL    HW131709   4.712   0.561   6.371  0.2341  0.4439 -2.8431
 6691SOL    HW231710   4.642   0.441   6.430  1.1550 -1.3718 -0.8578
 6692SOL     OW31711   1.978   1.011  10.621  0.7678 -0.2633  0.0264
 6692SOL    HW131712   2.060   0.976  10.656  0.8684  1.2324  1.2935
 6692SOL    HW231713   2.006   1.085  10.566 -1.1993 -0.3095 -1.0399
 6693SOL     OW31714   0.831   1.487  15.157 -0.2327 -0.3116 -0.6310
 6693SOL    HW131715   0.910   1.531  15.189  0.2849 -1.8055  0.0988
 6693SOL    HW231716   0.827   1.420  15.224 -2.0629  0.9841  0.5737
 6694SOL     OW31717   0.041   4.663   3.269 -0.2530 -0.2798 -0.8549
 6694SOL    HW131718   4.726   4.733   3.233 -0.3224  0.2331  0.2732
 6694SOL    HW231719   0.128   4.700   3.286  0.2929 -1.5801 -0.7737
 6695SOL     OW31720   0.736   2.968   4.875 -0.0969 -0.3316  0.0652
 6695SOL    HW131721   0.728   2.873   4.879 -0.8343 -0.2646  0.3181
 6695SOL    HW231722   0.811   2.968   4.815 -1.7944 -1.0496 -2.0780
 6696SOL     OW31723   3.272   1.082   8.316  0.5321  0.7816  0.4417
 6696SOL    HW131724   3.223   1.156   8.279  1.1639  1.6658  1.3910
 6696SOL    HW231725   3.269   1.021   8.242 -0.6604 -0.1909  1.2813
 6697SOL     OW31726   0.310   0.387   5.801 -0.0425  0.7327  0.0003
 6697SOL    HW131727   0.311   0.300   5.841 -1.5015  0.3509 -0.8013
 6697SOL    HW231728   0.330   0.435   5.881  0.0438  2.0918 -0.8428
 6698SOL     OW31729   4.406   3.329   3.731 -0.2312  0.1333  0.5231
 6698SOL    HW131730   4.487   3.278   3.726 -0.8769 -1.1749  3.4409
 6698SOL    HW231731   4.364   3.285   3.805  0.0281  0.1608  0.6860
 6699SOL     OW31732   2.218   3.085   7.277  0.2067  0.3456  0.0022
 6699SOL    HW131733   2.188   3.068   7.367  2.1672 -0.9325  0.4154
 6699SOL    HW231734   2.180   3.007   7.237  0.4430 -0.2061  0.8411
 6700SOL     OW31735   4.293   4.281   8.388 -0.0827 -0.0701  0.9325
 6700SOL    HW131736   4.337   4.264   8.472  1.0633 -0.3332  0.2834
 6700SOL    HW231737   4.201   4.275   8.415 -1.2333  0.7017 -2.9261
 6701SOL     OW31738   2.887   1.190   8.398 -0.1485  0.6463 -0.0325
 6701SOL    HW131739   2.923   1.106   8.368 -1.5374 -0.1240  0.4675
 6701SOL    HW231740   2.812   1.148   8.440 -0.4322  0.1961 -0.9840
 6702SOL     OW31741   0.773   4.103   1.983 -0.6128 -0.5840 -0.2323
 6702SOL    HW131742   0.845   4.061   1.937 -0.3454 -0.6232  0.2252
 6702SOL    HW231743   0.701   4.040   1.991 -3.5874  2.4617 -2.9454
 6703SOL     OW31744   3.256   3.220   4.521  0.5679  0.0911 -0.0430
 6703SOL    HW131745   3.266   3.218   4.616  0.7742  1.1662 -0.0455
 6703SOL    HW231746   3.197   3.294   4.503  1.0085 -0.1928 -2.7181
 6704SOL     OW31747   0.053   3.201   6.499 -0.0459  0.1481 -0.2408
 6704SOL    HW131748   0.019   3.182   6.586 -0.8880 -2.9664 -1.2678
 6704SOL    HW231749   4.713   3.232   6.458 -1.8099 -0.0735  3.0624
 6705SOL     OW31750   1.559   2.042   5.148 -0.5198 -0.4460  0.1963
 6705SOL    HW131751   1.563   2.120   5.203  0.8097  1.6631 -2.8186
 6705SOL    HW231752   1.570   2.078   5.060  0.8152  1.3386  1.0842
 6706SOL     OW31753   2.002   1.524  17.529 -0.1394  0.1642 -0.3768
 6706SOL    HW131754   1.990   1.465  17.604 -1.4451  2.5852  1.3412
 6706SOL    HW231755   1.913   1.540  17.498  0.0078  0.8211 -0.4643
 6707SOL     OW31756   3.372   1.305  16.183  0.2160  0.2569  0.5757
 6707SOL    HW131757   3.311   1.233  16.168 -0.0098  0.7392 -0.9020
 6707SOL    HW231758   3.388   1.336  16.093  0.0028 -0.4199  0.3073
 6708SOL     OW31759   2.529   0.192   6.022  0.2323 -0.1991 -0.4254
 6708SOL    HW131760   2.487   0.202   5.937 -0.0920 -1.8387 -0.4618
 6708SOL    HW231761   2.580   0.111   6.015 -0.4503 -0.6541 -0.0586
 6709SOL     OW31762   2.695   0.423   9.012 -0.2664 -0.1128 -0.3145
 6709SOL    HW131763   2.741   0.412   8.928  1.6249  1.3685  0.5380
 6709SOL    HW231764   2.762   0.471   9.060  1.3242 -0.4713 -2.1715
 6710SOL     OW31765   0.609   1.886   4.319  0.1137 -0.1910 -0.6254
 6710SOL    HW131766   0.648   1.968   4.287 -0.6778  1.4659  2.6143
 6710SOL    HW231767   0.637   1.892   4.411  1.4576 -1.1159 -0.9739
 6711SOL     OW31768   1.835   1.211  12.404 -0.4496  0.4953  0.2016
 6711SOL    HW131769   1.874   1.204  12.491  2.3944 -2.1499 -1.2970
 6711SOL    HW231770   1.876   1.290  12.370  1.0534  0.6581  2.3755
 6712SOL     OW31771   1.041   1.555   8.082  0.7557 -0.6159  0.8742
 6712SOL    HW131772   0.946   1.554   8.068  0.3351 -0.3519  3.5590
 6712SOL    HW231773   1.065   1.577   7.992 -2.5239  2.8272  0.8127
 6713SOL     OW31774   2.964   4.158   4.160 -0.0452  0.0954 -0.0014
 6713SOL    HW131775   2.882   4.198   4.131  0.5805  1.0664 -0.4442
 6713SOL    HW231776   2.999   4.231   4.211  1.7846  0.3747 -1.6219
 6714SOL     OW31777   4.558   1.805   8.478  1.0874 -0.2080  0.2069
 6714SOL    HW131778   4.534   1.848   8.560 -0.0155 -1.4791  0.5486
 6714SOL    HW231779   4.630   1.749   8.506  1.4213  1.0360  1.8660
 6715SOL     OW31780   2.856   4.285  17.753 -0.1692  0.3501 -0.0063
 6715SOL    HW131781   2.865   4.374  17.720 -2.1714  0.6773  0.3033
 6715SOL    HW231782   2.766   4.273   0.026 -0.2416  1.3074  0.1577
 6716SOL     OW31783   1.316   0.441  17.537  0.2111 -0.3950 -0.5053
 6716SOL    HW131784   1.315   0.346  17.548  0.1172 -0.4942 -1.3998
 6716SOL    HW231785   1.296   0.446  17.444 -1.1819  1.1246 -0.1347
 6717SOL     OW31786   0.118   3.035   4.753  0.3279  0.0065  0.1329
 6717SOL    HW131787   0.082   2.949   4.730  1.1109 -0.1979 -0.3000
 6717SOL    HW231788   0.057   3.072   4.817 -0.8990  0.8561 -1.5434
 6718SOL     OW31789   1.208   4.615   9.387 -0.4026 -0.1012  0.2380
 6718SOL    HW131790   1.235   4.653   9.471  0.7475  0.0306 -0.1890
 6718SOL    HW231791   1.121   4.655   9.378  0.2073  0.3876 -3.2474
 6719SOL     OW31792   0.629   3.960   5.402 -0.8973  0.3671 -0.2292
 6719SOL    HW131793   0.647   3.870   5.430  0.9946  0.5095 -1.0157
 6719SOL    HW231794   0.709   3.999   5.435 -0.5236 -0.1294 -0.5452
 6720SOL     OW31795   1.858   0.741  16.968 -0.2460 -0.4073  0.4278
 6720SOL    HW131796   1.833   0.689  17.044 -1.5225  1.7471  1.4878
 6720SOL    HW231797   1.853   0.832  16.999 -1.5363 -0.0989 -0.6896
 6721SOL     OW31798   1.666   2.618  17.049  0.5036 -0.1934  0.1857
 6721SOL    HW131799   1.652   2.663  16.966  3.0096 -0.8785 -0.6214
 6721SOL    HW231800   1.694   2.532  17.017  1.0572 -0.3322  1.0406
 6722SOL     OW31801   2.758   1.208   4.220  0.6593  1.0247  0.4502
 6722SOL    HW131802   2.707   1.132   4.249  1.5648 -0.6316 -2.3328
 6722SOL    HW231803   2.716   1.274   4.276 -0.3316  1.0778 -0.3829
 6723SOL     OW31804   1.582   3.685   2.453  0.4401  0.3277  0.0541
 6723SOL    HW131805   1.622   3.735   2.381  0.9184  0.5240  0.4550
 6723SOL    HW231806   1.491   3.681   2.423 -0.0889  1.9981  1.4361
 6724SOL     OW31807   4.737   0.011   1.454 -0.4300 -0.1036 -0.2148
 6724SOL    HW131808   0.057   4.686   1.490 -0.1306  0.5606  0.4940
 6724SOL    HW231809   4.720   0.058   1.535  0.9287 -0.0511  0.0458
 6725SOL     OW31810   2.481   1.977   4.102  0.2419 -0.1260  0.1048
 6725SOL    HW131811   2.536   1.916   4.053  0.4843 -0.5436  0.8899
 6725SOL    HW231812   2.394   1.952   4.070 -1.0136  0.7248  2.8759
 6726SOL     OW31813   1.943   1.286   7.680 -0.5139  0.9470  0.4622
 6726SOL    HW131814   1.910   1.346   7.613  0.9223  0.4677 -0.6571
 6726SOL    HW231815   2.035   1.310   7.685 -0.0441 -0.3971 -1.6029
 6727SOL     OW31816   0.297   0.881   7.639 -0.2792 -0.2597  0.0573
 6727SOL    HW131817   0.279   0.836   7.723 -0.1639  1.5825  1.0584
 6727SOL    HW231818   0.377   0.839   7.609  0.1301  0.4227  0.1993
 6728SOL     OW31819   1.024   2.747   2.280 -0.1113  0.1647  0.0566
 6728SOL    HW131820   1.038   2.830   2.326  0.9926  0.9249 -1.6537
 6728SOL    HW231821   0.947   2.771   2.228 -0.5581 -0.0131  0.6320
 6729SOL     OW31822   4.660   3.196   5.760  0.1704  0.3193 -1.0230
 6729SOL    HW131823   4.603   3.151   5.697 -1.2397  3.9909 -2.4057
 6729SOL    HW231824   4.718   3.256   5.713 -1.5125  0.9407 -2.3108
 6730SOL     OW31825   4.051   1.357   7.382  0.2242  0.4379  0.1538
 6730SOL    HW131826   4.098   1.376   7.301  1.0033  0.9821  0.7262
 6730SOL    HW231827   4.030   1.268   7.355  3.5564 -0.7586  1.3820
 6731SOL     OW31828   0.358   2.560   6.713  0.6845  0.3347 -0.3462
 6731SOL    HW131829   0.304   2.483   6.693  0.1162  0.8400 -0.7437
 6731SOL    HW231830   0.381   2.532   6.802 -1.5685  0.8178  0.3836
 6732SOL     OW31831   4.685   2.782   5.541 -0.6279 -0.2490 -0.0095
 6732SOL    HW131832   4.593   2.801   5.554 -0.4199  2.5355 -2.7477
 6732SOL    HW231833   4.699   2.821   5.455 -0.4798  1.7310  0.9257
 6733SOL     OW31834   0.560   2.250   2.958  0.1217  0.6990 -0.3525
 6733SOL    HW131835   0.615   2.178   2.989  0.0368  0.8898  0.2527
 6733SOL    HW231836   0.567   2.248   2.863  2.2520 -1.5902 -0.1317
 6734SOL     OW31837   2.377   0.070  12.139  0.1400  0.5081  0.8844
 6734SOL    HW131838   2.430   0.086  12.216  1.4623 -1.1567  0.3230
 6734SOL    HW231839   2.331   0.154  12.129  0.1983  0.3470 -0.8719
 6735SOL     OW31840   3.776   0.071   2.383  0.2616  0.3842 -0.3199
 6735SOL    HW131841   3.851   0.053   2.440 -0.4046  0.2296  0.4993
 6735SOL    HW231842   3.758   0.161   2.409  2.3064 -0.2803  3.4538
 6736SOL     OW31843   2.817   0.421   7.875 -0.3530 -0.2649  0.1993
 6736SOL    HW131844   2.899   0.431   7.924  0.5017 -1.2405 -1.0223
 6736SOL    HW231845   2.788   0.334   7.903 -2.7000 -0.2849 -2.3815
 6737SOL     OW31846   3.985   3.189   8.947  0.1880 -0.7173 -0.1744
 6737SOL    HW131847   3.976   3.234   9.031  0.0912  0.4235 -0.7852
 6737SOL    HW231848   3.970   3.099   8.975  2.3795 -0.8085  0.6282
 6738SOL     OW31849   3.135   1.212   1.786 -0.3571 -0.7664 -0.0442
 6738SOL    HW131850   3.054   1.222   1.736 -0.7735  3.1342  1.3864
 6738SOL    HW231851   3.144   1.117   1.795 -1.8598 -0.6479  2.5288
 6739SOL     OW31852   0.447   2.245   6.889  0.1478  0.5994 -0.0548
 6739SOL    HW131853   0.353   2.261   6.894  0.0484  0.0931 -0.3350
 6739SOL    HW231854   0.451   2.157   6.928  3.4910  0.2120 -1.3196
 6740SOL     OW31855   0.707   4.634   8.941  0.2745 -0.1208  0.1364
 6740SOL    HW131856   0.771   4.642   9.012 -0.4360 -0.7860  0.8361
 6740SOL    HW231857   0.655   4.712   8.963  0.2383 -0.1892  0.2931
 6741SOL     OW31858   1.538   4.686   9.444 -0.8618  0.1059  0.2845
 6741SOL    HW131859   1.482   4.640   9.380 -2.5485  1.5574  0.7030
 6741SOL    HW231860   1.517   0.037   9.422 -3.8968 -1.1910 -2.3043
 6742SOL     OW31861   0.942   3.481  12.051 -0.0021 -0.2124 -0.1518
 6742SOL    HW131862   0.915   3.427  11.977  0.1808  0.9932 -1.0938
 6742SOL    HW231863   1.032   3.449  12.055 -0.3546 -0.9283  2.3952
 6743SOL     OW31864   1.856   1.234  17.271 -0.0024  0.2400 -0.3345
 6743SOL    HW131865   1.860   1.163  17.207  2.9239  0.7662 -0.7131
 6743SOL    HW231866   1.950   1.247  17.283  0.6578 -2.9650 -2.0747
 6744SOL     OW31867   3.754   2.253   7.948  0.2994 -0.1485  0.9572
 6744SOL    HW131868   3.697   2.314   7.995 -1.2355 -0.6968 -0.1609
 6744SOL    HW231869   3.785   2.301   7.872 -0.7192 -0.2076  0.4968
 6745SOL     OW31870   3.135   4.628   7.338  0.4171 -0.2932 -0.2712
 6745SOL    HW131871   3.073   4.676   7.283  0.7447  0.6321  0.1820
 6745SOL    HW231872   3.076   4.581   7.397  3.4577 -2.2908  1.2181
 6746SOL     OW31873   3.415   3.505   4.747  0.1584 -0.3627 -0.1864
 6746SOL    HW131874   3.360   3.445   4.798  0.5301  1.9574  2.9387
 6746SOL    HW231875   3.492   3.452   4.727 -0.9352 -2.6279  1.5173
 6747SOL     OW31876   4.274   4.166  14.611  0.2047  0.5526  0.4812
 6747SOL    HW131877   4.251   4.176  14.519  0.1231  3.0689  0.7766
 6747SOL    HW231878   4.332   4.239  14.636  1.2617 -0.1946  0.2346
 6748SOL     OW31879   3.634   3.169   8.787 -0.4085  0.7884  0.5996
 6748SOL    HW131880   3.626   3.200   8.878  1.4062  2.6258  0.1322
 6748SOL    HW231881   3.727   3.191   8.779 -0.3779  0.6381  0.5534
 6749SOL     OW31882   3.495   2.167   9.283  0.3020  0.2717  0.0304
 6749SOL    HW131883   3.497   2.079   9.321 -0.2939  0.1611 -0.1894
 6749SOL    HW231884   3.417   2.152   9.229 -0.1414 -1.1193  1.0652
 6750SOL     OW31885   1.862   3.193  16.736  0.0306 -0.0548 -0.2241
 6750SOL    HW131886   1.904   3.151  16.661  0.3693  1.3865 -0.8504
 6750SOL    HW231887   1.846   3.286  16.721 -2.4502 -0.1351  1.9080
 6751SOL     OW31888   0.865   1.826   6.096  0.2335 -0.0789  0.4279
 6751SOL    HW131889   0.773   1.844   6.116  0.0142  0.4008 -1.0224
 6751SOL    HW231890   0.864   1.861   6.007  0.8211  2.5057  1.4517
 6752SOL     OW31891   0.077   0.466   0.184  0.3313 -0.3699 -0.4051
 6752SOL    HW131892   0.099   0.557   0.203 -3.3269  0.9543 -2.4037
 6752SOL    HW231893   0.005   0.451   0.246 -0.7137  1.3336 -1.1986
 6753SOL     OW31894   2.112   2.314   3.230 -1.4834 -0.3344 -0.0513
 6753SOL    HW131895   2.176   2.312   3.159 -3.4198 -4.4521 -1.6897
 6753SOL    HW231896   2.084   2.403   3.210  0.5748  1.0810  3.2763
 6754SOL     OW31897   1.126   3.487  13.109  0.2526  0.0065  0.2238
 6754SOL    HW131898   1.076   3.479  13.028  1.0253  0.2468 -0.2798
 6754SOL    HW231899   1.095   3.414  13.162 -0.2000 -0.0904 -0.1727
 6755SOL     OW31900   1.521   0.622  17.585 -0.0658  0.6864  0.2824
 6755SOL    HW131901   1.478   0.537  17.597  0.3216  0.3612 -0.6698
 6755SOL    HW231902   1.493   0.634  17.494 -1.5055 -2.3326  0.3191
 6756SOL     OW31903   0.669   4.611   5.719 -0.3644  1.0892  0.0124
 6756SOL    HW131904   0.645   4.613   5.812  0.7286  0.0315  0.3081
 6756SOL    HW231905   0.588   4.638   5.676  0.0065  0.2838 -1.1844
 6757SOL     OW31906   3.477   1.348   7.113  0.1659  0.1207  0.7497
 6757SOL    HW131907   3.429   1.317   7.036  3.3688 -2.1044 -0.3126
 6757SOL    HW231908   3.451   1.440   7.121 -1.1119 -0.2848  1.2145
 6758SOL     OW31909   1.795   1.144  15.352 -0.1519  0.0502  0.5939
 6758SOL    HW131910   1.870   1.129  15.410 -0.9115 -0.0806  1.5639
 6758SOL    HW231911   1.830   1.144  15.264  0.6832 -0.9786  0.9295
 6759SOL     OW31912   3.148   0.578  16.461  0.3353  0.2768 -0.0630
 6759SOL    HW131913   3.184   0.531  16.535  1.7948 -1.0601 -1.6324
 6759SOL    HW231914   3.053   0.573  16.478  0.6709  1.0332  2.0339
 6760SOL     OW31915   2.911   1.449   1.545  0.0035  0.6193 -0.1239
 6760SOL    HW131916   3.001   1.445   1.515 -1.1946  1.6178 -3.8948
 6760SOL    HW231917   2.902   1.355   1.557  0.1147  0.6817  0.4668
 6761SOL     OW31918   4.114   2.811  11.517 -0.3145  0.4048  0.2586
 6761SOL    HW131919   4.038   2.791  11.462 -0.7365  2.4988  0.0716
 6761SOL    HW231920   4.165   2.854  11.448 -0.4482  1.4389  0.7967
 6762SOL     OW31921   2.920   0.802  11.834 -0.2047  0.5058  0.1912
 6762SOL    HW131922   2.875   0.720  11.854 -1.6585  1.5498  1.2969
 6762SOL    HW231923   2.852   0.869  11.839 -0.8829 -0.4180  3.2831
 6763SOL     OW31924   1.570   3.304  15.798  0.6848  0.3720  0.2962
 6763SOL    HW131925   1.494   3.248  15.808 -0.2108  1.5919  0.2610
 6763SOL    HW231926   1.589   3.340  15.885  0.2122  0.4704  0.3570
 6764SOL     OW31927   3.674   1.974   7.076 -0.1646 -0.1815 -0.2141
 6764SOL    HW131928   3.640   2.057   7.111 -1.0844 -0.6425 -0.0357
 6764SOL    HW231929   3.752   1.969   7.131  0.9582  0.1942 -1.7672
 6765SOL     OW31930   3.848   3.846   8.207 -0.4952 -0.3783  0.7340
 6765SOL    HW131931   3.940   3.854   8.231 -0.6180 -2.7081  1.8645
 6765SOL    HW231932   3.830   3.933   8.171 -1.3806 -0.0728  1.9346
 6766SOL     OW31933   2.383   2.163   2.852 -0.2572 -0.1271 -0.1206
 6766SOL    HW131934   2.357   2.106   2.925  3.0335  0.0891  1.2203
 6766SOL    HW231935   2.408   2.095   2.789 -0.2842 -1.3515  1.1926
 6767SOL     OW31936   1.464   0.087   1.795  0.1770 -0.5999  0.6685
 6767SOL    HW131937   1.469   0.159   1.857 -0.0295 -0.9514  1.0937
 6767SOL    HW231938   1.500   0.026   1.859 -2.2223 -1.4800  1.1753
 6768SOL     OW31939   1.981   1.225   4.352  0.2436 -0.0365 -0.4586
 6768SOL    HW131940   2.009   1.317   4.343  0.0668 -0.0791 -1.4310
 6768SOL    HW231941   1.887   1.236   4.343 -0.1836 -2.0203  1.5827
 6769SOL     OW31942   3.032   0.616   2.759  0.2058  0.3342 -0.3919
 6769SOL    HW131943   3.023   0.585   2.848  0.2622  0.0782 -0.4766
 6769SOL    HW231944   2.948   0.623   2.713  1.0118  2.6491 -1.5379
 6770SOL     OW31945   4.738   3.057  16.790 -0.1364  0.1172 -0.5491
 6770SOL    HW131946   0.027   3.048  16.881  1.0016 -0.4093 -0.9613
 6770SOL    HW231947   0.054   2.996  16.741  1.2194  0.6921  0.2824
 6771SOL     OW31948   1.022   3.574  12.812 -0.4324  0.0712 -0.0340
 6771SOL    HW131949   0.962   3.565  12.886  0.4148  1.6451  0.8338
 6771SOL    HW231950   1.071   3.492  12.812 -0.0278  0.3279  1.3517
 6772SOL     OW31951   2.316   4.224  10.890  0.2972 -0.0422 -0.6222
 6772SOL    HW131952   2.242   4.165  10.876  0.0968  0.8090 -3.1297
 6772SOL    HW231953   2.380   4.164  10.927  3.2386  2.5704 -1.4623
 6773SOL     OW31954   3.931   0.759   7.240  0.4443 -0.0564  0.0865
 6773SOL    HW131955   4.021   0.733   7.262  0.0853  1.2548  3.1809
 6773SOL    HW231956   3.944   0.818   7.166 -2.1880 -0.6196 -0.7975
 6774SOL     OW31957   2.109   0.955   2.621 -0.1771  0.0558 -0.0102
 6774SOL    HW131958   2.170   1.027   2.605  1.3469 -1.0800  0.6863
 6774SOL    HW231959   2.119   0.948   2.716  1.2406  2.2030  0.0029
 6775SOL     OW31960   3.625   2.998   4.847  0.2090 -0.4794  0.0483
 6775SOL    HW131961   3.622   2.916   4.799  0.4819 -1.5404  1.8691
 6775SOL    HW231962   3.713   2.995   4.884  0.0255  0.9265  0.6001
 6776SOL     OW31963   2.847   2.345  17.450 -0.2214  0.1265 -0.3834
 6776SOL    HW131964   2.847   2.386  17.536 -1.4422  0.4725 -0.5489
 6776SOL    HW231965   2.905   2.269  17.460 -0.6406 -0.3484 -1.5303
 6777SOL     OW31966   1.032   1.955  17.018  0.4556  0.0657  0.0467
 6777SOL    HW131967   1.011   1.951  16.924  2.1170  0.0362 -0.3413
 6777SOL    HW231968   0.950   1.989  17.053  1.9025  2.6629  0.9369
 6778SOL     OW31969   4.736   2.211   6.275  0.6377 -0.3779 -0.0677
 6778SOL    HW131970   4.709   2.254   6.356 -0.6938 -1.5820  0.1408
 6778SOL    HW231971   4.697   2.263   6.205  1.2154 -0.5537 -0.5211
 6779SOL     OW31972   3.450   3.045   3.378 -0.0107 -0.3733  0.7103
 6779SOL    HW131973   3.417   2.963   3.415  0.7069 -1.3366 -0.7799
 6779SOL    HW231974   3.385   3.077   3.315  1.0316 -1.9363 -1.1715
 6780SOL     OW31975   2.663   1.432   3.421  0.3605 -0.2112  0.3982
 6780SOL    HW131976   2.718   1.511   3.413 -1.6749  1.0434 -1.0706
 6780SOL    HW231977   2.605   1.443   3.346  1.7180 -1.3058 -0.8274
 6781SOL     OW31978   0.172   3.773  16.827  0.3243  0.0662  0.1951
 6781SOL    HW131979   0.247   3.717  16.810 -0.3990 -1.0381  0.6275
 6781SOL    HW231980   0.129   3.784  16.742  0.2530  0.9590  0.3482
 6782SOL     OW31981   2.816   3.345   4.592  0.0401 -0.6391 -0.4239
 6782SOL    HW131982   2.832   3.418   4.533 -2.1718  1.0567  1.0586
 6782SOL    HW231983   2.734   3.361   4.638 -0.2045  1.0318 -1.4569
 6783SOL     OW31984   1.144   2.709  16.376  0.1861  0.4267 -0.3880
 6783SOL    HW131985   1.121   2.651  16.304  1.2733  0.3627 -0.6824
 6783SOL    HW231986   1.116   2.656  16.450  0.7739 -1.9624 -1.8699
 6784SOL     OW31987   2.679   2.437   9.322  0.7294 -0.6738  0.0545
 6784SOL    HW131988   2.691   2.441   9.227  1.7171 -1.0413  0.1605
 6784SOL    HW231989   2.700   2.345   9.333  1.9975 -0.2942  0.8472
 6785SOL     OW31990   1.219   2.894   1.509 -0.1113  0.5525  0.4307
 6785SOL    HW131991   1.281   2.954   1.466  0.3304 -1.2273 -1.4353
 6785SOL    HW231992   1.165   2.872   1.433  1.1716  0.1834 -0.3790
 6786SOL     OW31993   2.984   0.495   4.099 -0.0253 -0.7332  0.5704
 6786SOL    HW131994   2.912   0.436   4.123 -0.0473 -0.9395 -0.0150
 6786SOL    HW231995   2.958   0.584   4.121  0.1630  0.1028 -2.6290
 6787SOL     OW31996   1.193   4.420   7.954 -0.1864  0.4999  0.1960
 6787SOL    HW131997   1.237   4.481   7.894 -0.1983  2.5877  2.2867
 6787SOL    HW231998   1.258   4.430   8.024  3.5115 -0.2799 -3.1457
 6788SOL     OW31999   0.855   1.260  17.638  0.3741 -0.4321 -0.1113
 6788SOL    HW132000   0.924   1.252  17.704  0.1571 -0.8631  0.0591
 6788SOL    HW232001   0.812   1.177  17.655  1.7440 -0.9867  0.5904
 6789SOL     OW32002   2.836   2.939   9.704 -0.1633 -0.3899 -0.1150
 6789SOL    HW132003   2.796   2.866   9.752  0.1989 -0.1200  0.5963
 6789SOL    HW232004   2.903   2.897   9.651 -0.8727  0.0158 -1.3409
 6790SOL     OW32005   4.209   3.423  12.358 -0.2882  0.2667 -0.4136
 6790SOL    HW132006   4.282   3.471  12.319  0.9159 -0.7683  0.5626
 6790SOL    HW232007   4.192   3.479  12.434 -3.2941 -2.1225  0.7155
 6791SOL     OW32008   0.888   3.706  16.935  0.0127 -0.7069  0.1868
 6791SOL    HW132009   0.873   3.788  16.982 -0.2757 -0.4506 -0.3458
 6791SOL    HW232010   0.979   3.692  16.960 -0.3965 -0.0277  2.0376
 6792SOL     OW32011   2.400   2.786   6.244 -0.2434  0.1749 -0.2940
 6792SOL    HW132012   2.305   2.802   6.250 -0.4143 -0.2554 -1.7343
 6792SOL    HW232013   2.427   2.831   6.164 -0.5780  0.2945 -0.3402
 6793SOL     OW32014   3.297   4.730   9.444 -0.0740  0.5979  1.0134
 6793SOL    HW132015   3.389   4.705   9.445  0.0237  0.9187  0.1092
 6793SOL    HW232016   3.270   4.665   9.509  1.0654  0.3598  1.2471
 6794SOL     OW32017   2.744   1.634   2.425  0.4729 -0.1852 -0.2930
 6794SOL    HW132018   2.658   1.592   2.428 -0.2803  1.4874  1.7110
 6794SOL    HW232019   2.734   1.708   2.485 -0.1345 -1.1795  0.8448
 6795SOL     OW32020   2.641   3.645   6.391 -0.0382  0.0010  0.3928
 6795SOL    HW132021   2.681   3.681   6.471  0.6872 -1.3399  0.6388
 6795SOL    HW232022   2.641   3.724   6.337 -1.2280 -0.1921  0.1334
 6796SOL     OW32023   3.431   0.851   3.984 -0.1439 -0.0297 -0.3419
 6796SOL    HW132024   3.520   0.844   4.017 -0.0918 -0.0252 -0.4846
 6796SOL    HW232025   3.378   0.793   4.039  0.6320 -0.4418 -0.0366
 6797SOL     OW32026   2.105   2.127   5.792 -0.4079  0.1100  0.1267
 6797SOL    HW132027   2.118   2.062   5.861  1.7476  0.6012  0.1630
 6797SOL    HW232028   2.108   2.207   5.843  2.7385 -0.4581  0.8122
 6798SOL     OW32029   0.974   0.019   9.469  0.1545 -0.0624  0.3057
 6798SOL    HW132030   1.025   0.101   9.468  0.2619 -0.1270  0.6538
 6798SOL    HW232031   0.980   4.729   9.559 -0.9747  1.2282  0.8074
 6799SOL     OW32032   2.277   2.575   3.722  0.2402 -0.7366  0.4118
 6799SOL    HW132033   2.323   2.491   3.716  1.0926 -0.3619  1.8689
 6799SOL    HW232034   2.246   2.582   3.631  1.0551  3.8481  0.5221
 6800SOL     OW32035   3.241   0.968   2.094 -0.0197 -0.2605 -0.4822
 6800SOL    HW132036   3.209   0.932   2.011 -0.6832  2.9911 -1.6309
 6800SOL    HW232037   3.335   0.969   2.073 -0.2778  2.2880 -1.5928
 6801SOL     OW32038   2.636   4.146  14.396  0.0627 -0.3569  0.2722
 6801SOL    HW132039   2.712   4.173  14.449 -0.0983  0.4467  0.0887
 6801SOL    HW232040   2.567   4.199  14.435  1.1549  1.0779  0.2382
 6802SOL     OW32041   0.349   0.519   2.699  0.4664  0.8543 -0.0288
 6802SOL    HW132042   0.424   0.507   2.641 -1.5031  2.4981 -2.8712
 6802SOL    HW232043   0.279   0.539   2.637 -0.8135 -1.8947  0.5285
 6803SOL     OW32044   1.514   1.947   8.363 -0.1920  0.0263  0.2269
 6803SOL    HW132045   1.574   2.004   8.413 -2.1198  3.2614 -1.1650
 6803SOL    HW232046   1.454   1.927   8.435 -0.5982  2.4355  0.5726
 6804SOL     OW32047   4.231   2.792   1.697 -0.5545 -0.0059  0.0903
 6804SOL    HW132048   4.274   2.707   1.699  2.6448  1.5745 -1.7955
 6804SOL    HW232049   4.170   2.794   1.771 -0.6990 -0.1683 -0.0259
 6805SOL     OW32050   3.513   2.155   7.573  0.2915  0.2350  0.0114
 6805SOL    HW132051   3.553   2.129   7.655 -2.1107 -0.5875  0.8980
 6805SOL    HW232052   3.432   2.196   7.602 -0.2878 -0.0468 -1.1871
 6806SOL     OW32053   1.712   2.278   4.344 -0.0710 -0.2641 -0.2630
 6806SOL    HW132054   1.670   2.357   4.310 -0.7046  0.2692  1.7571
 6806SOL    HW232055   1.630   2.235   4.368 -0.1991 -0.5710 -1.2388
 6807SOL     OW32056   1.018   3.975  16.238 -0.5383  0.1020  0.1545
 6807SOL    HW132057   0.960   3.936  16.173 -0.8297 -2.2289  1.7996
 6807SOL    HW232058   1.016   3.908  16.307  1.4154 -0.1007  0.0211
 6808SOL     OW32059   4.573   1.860   2.112  0.0568 -0.8545  0.1442
 6808SOL    HW132060   4.522   1.781   2.122  0.5222 -1.2688 -0.7257
 6808SOL    HW232061   4.654   1.828   2.151 -0.1459  0.3466  1.5373
 6809SOL     OW32062   2.786   2.989   6.224  0.2782 -0.1278 -0.1646
 6809SOL    HW132063   2.881   2.998   6.220  0.1332  0.6504 -2.1251
 6809SOL    HW232064   2.759   3.051   6.156 -0.5638 -0.3287 -0.0097
 6810SOL     OW32065   4.048   1.101  16.429 -0.0781 -0.0488 -0.3076
 6810SOL    HW132066   3.987   1.173  16.415 -4.5243 -3.5966  0.4235
 6810SOL    HW232067   3.986   1.050  16.483 -0.8840  1.1473 -0.1043
 6811SOL     OW32068   0.885   2.941  15.607  0.1745 -0.2085  0.0697
 6811SOL    HW132069   0.927   2.881  15.545  0.3929  1.7133 -1.6356
 6811SOL    HW232070   0.836   2.995  15.545  1.4519  1.3442  0.4063
 6812SOL     OW32071   3.092   4.239   2.340  0.2490  0.0529  0.1994
 6812SOL    HW132072   3.104   4.260   2.433 -0.2380 -1.8991  0.6980
 6812SOL    HW232073   3.117   4.324   2.303 -3.0467  0.1101 -1.9563
 6813SOL     OW32074   4.251   1.998   5.850  0.4629  0.1973 -0.0975
 6813SOL    HW132075   4.309   2.054   5.798 -2.1882  0.6815 -2.5472
 6813SOL    HW232076   4.205   2.055   5.911 -0.9483 -0.6608 -0.3636
 6814SOL     OW32077   3.628   1.209  16.687 -0.1326  0.1566  1.0181
 6814SOL    HW132078   3.546   1.166  16.711 -0.5636 -0.3600 -1.4231
 6814SOL    HW232079   3.619   1.218  16.592 -0.7474 -0.9358  0.9807
 6815SOL     OW32080   3.047   4.177   6.632  0.6260 -0.1187  0.4110
 6815SOL    HW132081   3.120   4.227   6.666 -1.8045  1.3222  3.5262
 6815SOL    HW232082   2.988   4.217   6.695  0.1821 -1.3750  0.8020
 6816SOL     OW32083   1.322   0.818  14.690  0.1140  0.3540  0.3491
 6816SOL    HW132084   1.305   0.912  14.695  0.5143  0.4253  0.3428
 6816SOL    HW232085   1.406   0.800  14.732  0.0598  0.7220  0.6079
 6817SOL     OW32086   2.386   1.273  16.953  0.4958  0.2021 -0.2761
 6817SOL    HW132087   2.410   1.225  16.874  4.1344  0.7784  0.4546
 6817SOL    HW232088   2.451   1.344  16.947 -0.8375  1.4632  0.3966
 6818SOL     OW32089   4.312   4.451   2.098 -0.4530 -0.4714 -0.1258
 6818SOL    HW132090   4.238   4.508   2.120  0.3695  0.4015  0.3654
 6818SOL    HW232091   4.385   4.487   2.149 -0.1915  1.3458 -1.7762
 6819SOL     OW32092   3.024   4.068  10.093  0.2274  0.5608  0.1107
 6819SOL    HW132093   3.041   4.146  10.146  1.0876  1.6356 -1.7293
 6819SOL    HW232094   2.938   4.046  10.129  0.4607 -1.0375 -0.3300
 6820SOL     OW32095   3.423   2.920   6.352 -0.3163  0.4178  0.2412
 6820SOL    HW132096   3.380   3.002   6.327 -0.7585  0.3568  0.8109
 6820SOL    HW232097   3.441   2.938   6.444 -0.1844 -2.7453  0.8277
 6821SOL     OW32098   4.005   0.160  12.957  0.3941  0.2683 -0.2639
 6821SOL    HW132099   4.075   0.182  12.896  1.2905 -2.0713 -0.0849
 6821SOL    HW232100   3.942   0.222  12.922 -0.7109 -0.0526  1.1333
 6822SOL     OW32101   1.907   2.493  15.881  0.5693  0.3396  0.4035
 6822SOL    HW132102   1.817   2.508  15.911  0.3048 -2.0064  0.7788
 6822SOL    HW232103   1.939   2.580  15.857 -1.7488  0.8955 -0.7028
 6823SOL     OW32104   0.046   4.373   2.152 -0.6975  0.3498  0.0844
 6823SOL    HW132105   0.126   4.372   2.100 -0.0830 -3.1674  1.1253
 6823SOL    HW232106   0.085   4.379   2.239  0.7559  0.5396 -0.5843
 6824SOL     OW32107   3.483   1.453   3.079  0.0006 -0.0635  0.0444
 6824SOL    HW132108   3.464   1.362   3.104 -1.6578  0.1114 -0.6230
 6824SOL    HW232109   3.395   1.490   3.073  0.2113  0.6054  1.1865
 6825SOL     OW32110   3.851   1.104   9.039  0.5606  0.5588 -0.4552
 6825SOL    HW132111   3.882   1.016   9.060 -2.8556 -0.3169  0.9330
 6825SOL    HW232112   3.849   1.085   8.945 -0.1782 -0.8785 -0.1555
 6826SOL     OW32113   2.474   4.104   3.827 -0.5648  0.3188  0.1857
 6826SOL    HW132114   2.537   4.173   3.809  1.0289 -0.6845  1.9473
 6826SOL    HW232115   2.397   4.150   3.860  0.0794  0.4160  1.5143
 6827SOL     OW32116   4.436   1.004   7.769  0.1444  0.2682  0.1758
 6827SOL    HW132117   4.468   1.086   7.806 -1.4783  0.1280  1.8675
 6827SOL    HW232118   4.343   1.001   7.788  0.6210 -2.6667  1.9654
 6828SOL     OW32119   2.515   2.658   2.933  0.2482 -0.6696 -0.3874
 6828SOL    HW132120   2.549   2.579   2.891  2.8948  1.1444 -1.6162
 6828SOL    HW232121   2.597   2.706   2.930 -0.4005  0.4932  0.7658
 6829SOL     OW32122   2.032   3.935   8.701  0.4487 -0.1879  0.0561
 6829SOL    HW132123   2.095   3.865   8.687 -1.4948 -1.8965 -0.2454
 6829SOL    HW232124   2.090   4.010   8.695 -0.7996  0.7269 -0.6978
 6830SOL     OW32125   2.885   1.208   5.033 -0.1737 -0.4630 -0.0963
 6830SOL    HW132126   2.915   1.232   5.121 -1.3406  0.8184 -0.0300
 6830SOL    HW232127   2.967   1.209   4.985  0.6694  1.1186  1.3457
 6831SOL     OW32128   3.300   3.795   1.421  0.2750  0.3623 -0.5363
 6831SOL    HW132129   3.390   3.764   1.417  0.4045  0.8375 -1.3250
 6831SOL    HW232130   3.303   3.857   1.348 -0.7212 -0.1947 -1.0529
 6832SOL     OW32131   3.869   2.681  16.529  0.2207 -0.2485  0.0278
 6832SOL    HW132132   3.851   2.775  16.535  1.0766  0.0472 -2.0147
 6832SOL    HW232133   3.793   2.643  16.574 -1.2216  0.9174 -1.4385
 6833SOL     OW32134   1.708   1.080   4.503 -0.3454 -0.0529  0.2210
 6833SOL    HW132135   1.709   1.118   4.416 -0.5576 -0.3038  0.1077
 6833SOL    HW232136   1.795   1.041   4.505  0.5825  2.0188 -0.8567
 6834SOL     OW32137   4.165   0.842   8.446 -0.7500 -0.0648  0.2462
 6834SOL    HW132138   4.084   0.856   8.494 -1.2483  0.9409 -0.8818
 6834SOL    HW232139   4.192   0.760   8.489 -1.0262 -0.7186 -0.8254
 6835SOL     OW32140   1.325   2.601   5.694  0.3026 -0.5363  0.6063
 6835SOL    HW132141   1.269   2.573   5.766  0.3398 -2.4100 -0.0739
 6835SOL    HW232142   1.406   2.549   5.702  0.0660 -0.9806  0.1650
 6836SOL     OW32143   2.419   1.848  12.011 -0.3782 -0.6272 -0.1338
 6836SOL    HW132144   2.415   1.934  11.970  1.3020  0.3670  1.7872
 6836SOL    HW232145   2.356   1.804  11.954 -1.3991  0.8079 -0.1218
 6837SOL     OW32146   0.956   0.032   4.562  0.4094 -0.6220  0.3032
 6837SOL    HW132147   0.977   4.712   4.633 -0.7343  0.6112  1.7049
 6837SOL    HW232148   0.874   4.735   4.528  0.6064 -1.3428  0.6213
 6838SOL     OW32149   4.634   3.265  10.937 -0.1713 -0.2988 -0.1332
 6838SOL    HW132150   4.606   3.200  11.002 -3.1871  1.4191  0.2799
 6838SOL    HW232151   4.686   3.333  10.980 -2.1649  0.2317  1.4390
 6839SOL     OW32152   2.631   0.385  11.127  0.1807 -0.0685 -0.3084
 6839SOL    HW132153   2.646   0.309  11.183  1.8942 -1.6822 -2.9107
 6839SOL    HW232154   2.645   0.455  11.189 -0.8952  1.5097 -1.8404
 6840SOL     OW32155   3.031   4.039  13.700  0.2011 -0.3814 -0.1194
 6840SOL    HW132156   3.069   4.111  13.750 -0.0151 -0.4875  0.2011
 6840SOL    HW232157   2.984   4.091  13.634  0.7085 -0.4904 -0.5641
 6841SOL     OW32158   0.821   0.319   5.173 -0.4788 -0.8244  0.8663
 6841SOL    HW132159   0.780   0.233   5.166 -0.1027 -0.8963 -0.4210
 6841SOL    HW232160   0.739   0.366   5.189 -1.7058 -2.0459 -1.8769
 6842SOL     OW32161   1.253   1.285  13.398  0.0920  0.0996  0.2664
 6842SOL    HW132162   1.250   1.369  13.352  0.4246 -0.2734 -0.4202
 6842SOL    HW232163   1.323   1.291  13.463  1.5109 -1.1769 -1.1566
 6843SOL     OW32164   0.276   3.588   4.364  0.1661 -0.3213  0.2183
 6843SOL    HW132165   0.304   3.557   4.450 -2.4321 -0.8878  0.8558
 6843SOL    HW232166   0.279   3.506   4.316 -3.6317 -0.1146 -0.4310
 6844SOL     OW32167   2.903   0.977  11.225 -0.1071 -0.0030 -0.3612
 6844SOL    HW132168   2.878   0.901  11.278 -0.7059  1.5172  1.5345
 6844SOL    HW232169   2.864   1.051  11.271  0.8895  0.4305 -0.2203
 6845SOL     OW32170   1.964   3.791   5.458 -0.3115  0.4371  0.1942
 6845SOL    HW132171   1.974   3.878   5.497  0.5071  0.5090 -0.1879
 6845SOL    HW232172   1.997   3.739   5.531 -0.7032 -2.0400 -1.3877
 6846SOL     OW32173   0.486   0.034   9.282  0.3711  0.2017 -0.3376
 6846SOL    HW132174   0.581   0.025   9.270  0.4985  3.0687 -1.4516
 6846SOL    HW232175   0.460   0.125   9.269 -1.5741 -0.4763 -1.1233
 6847SOL     OW32176   3.372   0.598  12.087 -0.3263  0.2167  0.2691
 6847SOL    HW132177   3.390   0.529  12.023 -0.4386  0.8172 -0.4012
 6847SOL    HW232178   3.461   0.613  12.120  0.3577  0.5835 -1.7851
 6848SOL     OW32179   0.477   3.475   3.833  0.5187 -0.1317 -0.1416
 6848SOL    HW132180   0.427   3.550   3.802  2.2219  1.6934  1.5072
 6848SOL    HW232181   0.567   3.508   3.828  0.8102 -0.7865  0.8141
 6849SOL     OW32182   3.585   4.539   5.826 -0.3881 -0.0669  0.0951
 6849SOL    HW132183   3.613   4.608   5.765 -0.6344 -0.9798 -1.0380
 6849SOL    HW232184   3.665   4.529   5.877  0.1019 -2.2605 -1.1368
 6850SOL     OW32185   0.239   1.824   9.603 -0.3235 -0.7051 -0.2172
 6850SOL    HW132186   0.203   1.912   9.595  0.3592 -0.2915  1.2302
 6850SOL    HW232187   0.291   1.835   9.523  1.7386  0.3458  1.2648
 6851SOL     OW32188   1.304   2.812  13.550  0.5717  0.5499 -0.6995
 6851SOL    HW132189   1.225   2.759  13.554  0.4298  0.8188  0.0407
 6851SOL    HW232190   1.280   2.881  13.489  0.6842  1.5000  0.3399
 6852SOL     OW32191   0.964   2.222   3.788  0.1339  0.5560 -0.3347
 6852SOL    HW132192   0.984   2.309   3.824  2.6539  0.5369 -1.6688
 6852SOL    HW232193   0.923   2.179   3.863  0.3746  0.3277 -0.3353
 6853SOL     OW32194   1.075   1.823   5.679  0.0451  0.9120 -0.7302
 6853SOL    HW132195   1.131   1.881   5.628  0.0235  1.2084 -0.4209
 6853SOL    HW232196   1.115   1.740   5.652 -1.3177  0.0910 -0.2354
 6854SOL     OW32197   3.100   3.955   2.329  0.7474  0.4686 -0.1239
 6854SOL    HW132198   3.013   3.927   2.359  0.1683  2.9642  0.5586
 6854SOL    HW232199   3.085   4.048   2.310  0.5693  0.3478 -0.5737
 6855SOL     OW32200   4.154   3.066   1.673  0.1628 -0.8537 -0.1670
 6855SOL    HW132201   4.193   2.980   1.685  2.8698  0.5172  0.6765
 6855SOL    HW232202   4.067   3.043   1.708  0.2585 -2.4715 -0.9608
 6856SOL     OW32203   4.321   0.670   0.699  0.2701 -0.2906  0.1588
 6856SOL    HW132204   4.308   0.731   0.772 -0.2420 -1.4073  0.9898
 6856SOL    HW232205   4.415   0.656   0.708  0.3273 -1.7605 -2.6655
 6857SOL     OW32206   3.452   2.156   8.618 -0.5359  0.3043  0.0471
 6857SOL    HW132207   3.538   2.137   8.581 -0.3089 -1.3630  1.4403
 6857SOL    HW232208   3.465   2.247   8.646 -1.3499  0.4769 -0.1502
 6858SOL     OW32209   3.031   2.828   9.543 -0.2975 -0.6198 -0.2753
 6858SOL    HW132210   3.107   2.815   9.486 -0.0994  4.1107 -1.1470
 6858SOL    HW232211   3.065   2.788   9.622  0.3188  0.2330 -0.1132
 6859SOL     OW32212   0.244   3.363  15.917  0.2912  0.0555  0.2184
 6859SOL    HW132213   0.215   3.388  15.829  0.5246  4.5124  1.4324
 6859SOL    HW232214   0.339   3.356  15.908  0.1209 -2.6363  0.4296
 6860SOL     OW32215   0.078   4.164   6.039 -0.3777 -0.5174 -0.1261
 6860SOL    HW132216   0.118   4.114   5.968  1.3919  0.3060  0.2956
 6860SOL    HW232217   0.086   4.112   6.119  0.9590 -0.9789 -0.5573
 6861SOL     OW32218   3.185   4.001   3.544  0.2345  0.5251  0.4728
 6861SOL    HW132219   3.151   4.089   3.527 -2.3421 -1.0991 -2.7608
 6861SOL    HW232220   3.121   3.970   3.607 -0.3152  2.6990  0.9927
 6862SOL     OW32221   0.549   1.784   7.598  0.7604  0.8155  0.6606
 6862SOL    HW132222   0.589   1.776   7.511 -0.6112 -0.0489  0.1174
 6862SOL    HW232223   0.504   1.868   7.600  0.2073  0.5449 -0.6375
 6863SOL     OW32224   4.541   1.467   0.943  0.0705  0.1667  0.5770
 6863SOL    HW132225   4.633   1.466   0.919 -0.0882 -0.8118  0.0110
 6863SOL    HW232226   4.520   1.374   0.946 -0.6345  0.2763 -1.4913
 6864SOL     OW32227   1.806   2.584  10.050  0.5039 -0.4432 -0.1492
 6864SOL    HW132228   1.800   2.490  10.029 -0.3286 -0.6610  1.0660
 6864SOL    HW232229   1.893   2.599  10.014  0.2409 -1.6515 -1.3064
 6865SOL     OW32230   2.753   0.939   9.159  0.3742 -0.2004  0.0866
 6865SOL    HW132231   2.824   0.902   9.211  0.5944  0.1919  0.0662
 6865SOL    HW232232   2.722   0.867   9.103  0.1837 -1.1367  1.4110
 6866SOL     OW32233   0.716   2.954  16.419 -0.0275 -0.2302 -0.1576
 6866SOL    HW132234   0.714   2.863  16.449 -0.4391 -0.3669 -0.6098
 6866SOL    HW232235   0.807   2.980  16.435  0.0232 -1.9808  2.3398
 6867SOL     OW32236   1.178   2.246   9.155  0.3235  0.0229  0.8977
 6867SOL    HW132237   1.224   2.328   9.137  1.2348 -0.8809 -0.8316
 6867SOL    HW232238   1.089   2.280   9.165  0.0591 -0.4345  0.0910
 6868SOL     OW32239   4.226   0.799  12.646  0.4552 -0.5082  0.0447
 6868SOL    HW132240   4.270   0.718  12.621 -0.6922 -0.8945 -0.7427
 6868SOL    HW232241   4.295   0.851  12.686 -0.0655  0.1702  0.0770
 6869SOL     OW32242   4.490   3.379   1.302  0.5249  0.2928  0.2509
 6869SOL    HW132243   4.453   3.467   1.296 -1.6670 -0.7028 -0.7419
 6869SOL    HW232244   4.552   3.378   1.229  1.4428  1.3251  1.0280
 6870SOL     OW32245   3.949   2.772   6.498 -0.1142  0.5280  0.3334
 6870SOL    HW132246   3.899   2.691   6.506  1.6802 -0.7119 -0.8323
 6870SOL    HW232247   3.934   2.798   6.407 -2.0539  0.9545  0.7752
 6871SOL     OW32248   0.588   0.876   9.010  0.7554  0.2203  0.0548
 6871SOL    HW132249   0.606   0.862   9.103  1.1571  0.2795 -0.0134
 6871SOL    HW232250   0.503   0.921   9.016 -0.0918 -1.6076  1.4733
 6872SOL     OW32251   1.509   3.234   5.920  0.6210 -0.0082  0.4958
 6872SOL    HW132252   1.593   3.224   5.965  0.4692 -0.4960  0.6684
 6872SOL    HW232253   1.538   3.265   5.834 -2.2914  0.5224 -0.3037
 6873SOL     OW32254   2.077   1.031   6.116  0.6104  0.2303 -0.3129
 6873SOL    HW132255   2.161   0.986   6.109 -0.1254 -1.0166 -1.1806
 6873SOL    HW232256   2.090   1.107   6.060  1.6650  1.0290  1.0014
 6874SOL     OW32257   0.566   3.758   9.647  0.1903  0.0258  0.2034
 6874SOL    HW132258   0.515   3.781   9.724  1.6381  0.6314  0.9873
 6874SOL    HW232259   0.636   3.704   9.684 -1.4033 -0.8560  1.9035
 6875SOL     OW32260   2.188   4.265   5.075  0.3289  0.4295  0.2417
 6875SOL    HW132261   2.223   4.277   4.987  2.6835  2.3108  1.4129
 6875SOL    HW232262   2.263   4.229   5.123 -1.6051 -1.7670  1.5943
 6876SOL     OW32263   4.222   1.057  12.529  0.8968  0.3802  0.1446
 6876SOL    HW132264   4.200   1.072  12.621  0.5025  4.2892 -0.5962
 6876SOL    HW232265   4.286   0.987  12.537  0.2138 -0.3803 -1.1050
 6877SOL     OW32266   4.494   2.652   2.107  0.7003  0.0461  0.3760
 6877SOL    HW132267   4.430   2.580   2.106  0.5264  0.2461 -2.3225
 6877SOL    HW232268   4.577   2.606   2.094  0.9181  0.1316  1.4496
 6878SOL     OW32269   0.810   2.606   3.186  0.1278  0.4453 -0.1287
 6878SOL    HW132270   0.765   2.529   3.223 -0.6857  0.1476 -1.7228
 6878SOL    HW232271   0.768   2.681   3.227 -0.5076  0.3863 -0.6561
 6879SOL     OW32272   2.224   0.346   4.566  0.1123  0.0755  0.6050
 6879SOL    HW132273   2.160   0.284   4.532  0.4422  0.0776 -0.0204
 6879SOL    HW232274   2.309   0.302   4.556 -0.2723 -0.2547 -1.0814
 6880SOL     OW32275   2.245   3.022  14.603 -0.3675  0.1413  0.2516
 6880SOL    HW132276   2.263   2.941  14.556 -1.0263 -0.5569  1.1992
 6880SOL    HW232277   2.329   3.033  14.647  1.0073  0.0657 -2.3759
 6881SOL     OW32278   3.777   3.082   3.843  0.4849 -0.4706 -0.7828
 6881SOL    HW132279   3.751   3.005   3.791  0.8227  0.6072 -2.5641
 6881SOL    HW232280   3.757   3.041   3.927 -0.5498 -0.6820 -1.1249
 6882SOL     OW32281   3.755   3.352  11.520 -0.7723  0.5469 -0.0467
 6882SOL    HW132282   3.737   3.300  11.599  0.9951 -0.4143 -0.2772
 6882SOL    HW232283   3.804   3.424  11.562  1.0575  0.1421 -1.4784
 6883SOL     OW32284   4.423   0.085   1.590 -1.0041 -0.2001  0.0352
 6883SOL    HW132285   4.451   0.039   1.511  0.2517 -1.9052  1.4562
 6883SOL    HW232286   4.435   0.014   1.653  0.6281  0.4021  0.4159
 6884SOL     OW32287   1.519   1.379   0.051 -0.4987  0.7238  0.1674
 6884SOL    HW132288   1.553   1.376  17.719  1.2606  0.1532  0.8631
 6884SOL    HW232289   1.497   1.286   0.055  1.6085  0.2406  0.1922
 6885SOL     OW32290   2.949   0.772   5.061 -0.0644 -0.1847  0.5304
 6885SOL    HW132291   2.877   0.835   5.071  0.7323  0.3908  2.4393
 6885SOL    HW232292   2.911   0.709   4.999 -1.4387  1.5204 -0.3654
 6886SOL     OW32293   2.495   1.386  12.396 -0.2017  0.6388  0.0760
 6886SOL    HW132294   2.540   1.319  12.447 -1.2737 -0.4761 -0.4041
 6886SOL    HW232295   2.557   1.458  12.394  0.9957 -0.3977  0.1903
 6887SOL     OW32296   1.685   4.594   1.638 -0.2908 -0.4459  0.0929
 6887SOL    HW132297   1.598   4.555   1.628 -1.4811  1.4460  2.9823
 6887SOL    HW232298   1.680   4.623   1.729 -2.1274 -1.2949  0.2650
 6888SOL     OW32299   1.099   1.045  15.359  0.3349 -0.1874 -0.3038
 6888SOL    HW132300   1.016   0.998  15.368  1.0314 -0.9980  1.8187
 6888SOL    HW232301   1.161   0.982  15.394  2.1621  0.5800 -2.2213
 6889SOL     OW32302   2.310   1.065   8.237  0.0567  0.2268  0.4814
 6889SOL    HW132303   2.373   1.034   8.172 -1.2198  1.2945 -1.2977
 6889SOL    HW232304   2.332   1.158   8.230 -0.3807  0.2241 -1.1358
 6890SOL     OW32305   4.605   3.086   2.430  0.5303  0.8840 -0.1105
 6890SOL    HW132306   4.539   3.114   2.367  0.9496 -2.0724 -1.8930
 6890SOL    HW232307   4.679   3.103   2.371  0.5184  1.9810  0.1884
 6891SOL     OW32308   2.087   4.240   5.959 -0.4448  0.4701 -0.4945
 6891SOL    HW132309   2.094   4.257   6.053 -3.0197 -1.5715  0.0629
 6891SOL    HW232310   2.168   4.193   5.936  0.8201  1.7490  1.3469
 6892SOL     OW32311   4.430   0.202   5.809  0.0487 -0.0482 -0.0112
 6892SOL    HW132312   4.388   0.208   5.894  1.4691  1.0986  0.6236
 6892SOL    HW232313   4.513   0.172   5.846  1.1445 -0.2353 -2.5772
 6893SOL     OW32314   2.962   1.691   7.474 -0.6380 -0.1884  0.1171
 6893SOL    HW132315   2.976   1.748   7.398 -0.9621  0.0563  0.2397
 6893SOL    HW232316   2.916   1.742   7.542 -0.2073 -0.6617  0.7562
 6894SOL     OW32317   2.091   1.807   7.353  0.0142  0.2199  0.0100
 6894SOL    HW132318   2.022   1.869   7.329 -0.1949  0.1428  0.4180
 6894SOL    HW232319   2.048   1.759   7.423  2.7279 -2.5966 -0.2661
 6895SOL     OW32320   0.220   2.634   3.477 -0.5100 -0.3101  0.2611
 6895SOL    HW132321   0.220   2.728   3.459  0.1818 -0.2021  0.8281
 6895SOL    HW232322   0.248   2.599   3.393  2.7017 -0.8805  1.5839
 6896SOL     OW32323   3.219   1.078   0.479 -0.1405  0.0522  0.3305
 6896SOL    HW132324   3.301   1.119   0.505 -1.0821  3.1705 -1.5447
 6896SOL    HW232325   3.170   1.085   0.561  0.1469  0.6834  0.4446
 6897SOL     OW32326   1.828   4.185   3.178 -0.2048 -0.4201 -0.2819
 6897SOL    HW132327   1.853   4.121   3.245  1.6129 -1.5132 -1.9958
 6897SOL    HW232328   1.913   4.228   3.182  0.6270 -2.1715  1.1652
 6898SOL     OW32329   3.087   2.054   3.375 -0.0603 -0.1162  0.4555
 6898SOL    HW132330   3.006   2.105   3.369  0.2012  0.3094  0.5491
 6898SOL    HW232331   3.093   2.047   3.470  2.2046  0.5422  0.3406
 6899SOL     OW32332   2.177   4.531   2.269 -0.2854  0.7300 -0.1678
 6899SOL    HW132333   2.173   4.581   2.187 -0.7221  1.6382  0.4074
 6899SOL    HW232334   2.174   4.440   2.241  0.7169  0.6601 -0.0562
 6900SOL     OW32335   0.636   0.527   6.245  0.3567  0.0318  0.5681
 6900SOL    HW132336   0.722   0.515   6.284  0.8157 -1.2789 -0.8730
 6900SOL    HW232337   0.647   0.607   6.194 -1.0409  0.6168  1.1893
 6901SOL     OW32338   3.442   0.437  11.591 -0.5009  0.0608  0.2039
 6901SOL    HW132339   3.532   0.437  11.559 -0.0859 -0.4302  1.3691
 6901SOL    HW232340   3.405   0.520  11.562 -1.3085  0.1022  1.3420
 6902SOL     OW32341   0.530   3.128   4.787  0.4683  0.8419 -0.0646
 6902SOL    HW132342   0.614   3.096   4.820  0.8632  0.0892 -1.8159
 6902SOL    HW232343   0.559   3.142   4.697  1.5653 -1.5747 -0.0849
 6903SOL     OW32344   0.473   4.354  14.271 -0.0299  0.3921  0.7901
 6903SOL    HW132345   0.411   4.331  14.202  0.2241 -0.6526  0.9085
 6903SOL    HW232346   0.412   4.388  14.337 -1.5794  1.3336 -1.1373
 6904SOL     OW32347   2.938   0.288   6.297  0.0395  0.4505  0.0474
 6904SOL    HW132348   2.918   0.217   6.357  0.5268 -0.0718 -0.4100
 6904SOL    HW232349   2.937   0.228   6.222 -0.7724  1.6180 -0.8833
 6905SOL     OW32350   4.109   0.749   3.905  0.3687 -0.1234  0.4274
 6905SOL    HW132351   4.089   0.697   3.827 -0.0539  2.6568 -1.3351
 6905SOL    HW232352   4.184   0.803   3.878  1.0878 -0.6786  1.3369
 6906SOL     OW32353   3.526   4.246   1.972 -0.7634  0.2023 -0.1597
 6906SOL    HW132354   3.613   4.220   2.003  0.3006  1.4314 -2.1583
 6906SOL    HW232355   3.493   4.156   1.964 -1.7669  0.6835 -1.3975
 6907SOL     OW32356   2.484   0.954   8.056  0.0922  0.4173  0.0418
 6907SOL    HW132357   2.530   0.996   7.984 -1.0311 -1.3279 -1.7023
 6907SOL    HW232358   2.434   0.893   8.001  0.1059  0.7040 -0.2859
 6908SOL     OW32359   2.607   0.423   3.833  0.0103 -0.0450 -0.1585
 6908SOL    HW132360   2.615   0.330   3.808  0.7712  0.1080 -0.4970
 6908SOL    HW232361   2.560   0.413   3.916 -2.0518 -1.0403 -1.4547
 6909SOL     OW32362   2.150   3.204   9.136 -0.0161 -0.5848  0.0193
 6909SOL    HW132363   2.211   3.158   9.078 -1.5732 -0.1990 -1.9276
 6909SOL    HW232364   2.186   3.183   9.222  1.5471  2.0969  0.0175
 6910SOL     OW32365   1.800   3.718   7.308  0.0007  0.6223 -0.1286
 6910SOL    HW132366   1.733   3.774   7.346 -0.0539 -1.0994  2.3015
 6910SOL    HW232367   1.803   3.755   7.220  2.9790  2.7923  0.8801
 6911SOL     OW32368   0.692   4.563   2.851 -0.4623 -0.0423  0.1078
 6911SOL    HW132369   0.668   4.583   2.941  0.2021 -1.2461  0.5476
 6911SOL    HW232370   0.757   4.631   2.833 -0.5246 -0.2277 -0.8289
 6912SOL     OW32371   0.968   3.307   7.972  0.8163  0.2822 -0.1508
 6912SOL    HW132372   0.918   3.358   7.908  2.4511  0.2614 -1.4382
 6912SOL    HW232373   1.016   3.376   8.019  1.0586  0.2602 -0.3668
 6913SOL     OW32374   4.426   2.047   3.904 -0.6079 -0.0321  0.0596
 6913SOL    HW132375   4.501   2.063   3.847 -1.3960 -0.8318 -1.2235
 6913SOL    HW232376   4.466   2.068   3.988  0.3785  2.0623 -0.9363
 6914SOL     OW32377   2.862   2.639   1.675 -0.4399  0.4582 -0.3647
 6914SOL    HW132378   2.938   2.600   1.632 -0.2272 -0.5556  0.9327
 6914SOL    HW232379   2.792   2.586   1.638  0.1886 -0.2215 -0.5851
 6915SOL     OW32380   1.545   3.151   2.371 -0.3470 -0.0756 -0.2087
 6915SOL    HW132381   1.618   3.198   2.331 -1.6878  0.1399 -2.3650
 6915SOL    HW232382   1.565   3.058   2.359 -0.0869  0.0531 -0.7491
 6916SOL     OW32383   2.090   1.875   5.455 -0.5228 -0.3688  0.1013
 6916SOL    HW132384   2.046   1.958   5.435  1.7135  1.2961  2.1915
 6916SOL    HW232385   2.047   1.825   5.385  0.3802 -0.3308 -0.4730
 6917SOL     OW32386   2.508   4.686   3.282 -0.5608  0.0623 -1.0929
 6917SOL    HW132387   2.428   4.717   3.325 -0.8338 -0.9014 -0.9228
 6917SOL    HW232388   2.561   4.690   3.361 -0.0414  1.0825 -1.4958
 6918SOL     OW32389   2.294   0.472   0.714 -0.3236  0.0016 -0.1595
 6918SOL    HW132390   2.227   0.507   0.655 -0.9362 -1.4355 -0.3133
 6918SOL    HW232391   2.280   0.378   0.708  3.5015 -0.6772  1.7809
 6919SOL     OW32392   2.295   3.678   7.760  0.1943  0.6456  0.4913
 6919SOL    HW132393   2.254   3.639   7.683 -0.3069 -0.6753  1.4391
 6919SOL    HW232394   2.308   3.599   7.812  0.5235 -0.0046 -0.5768
 6920SOL     OW32395   1.250   3.634   6.640 -0.5538 -0.5244 -0.4446
 6920SOL    HW132396   1.340   3.607   6.621  0.8566  1.9095  2.7405
 6920SOL    HW232397   1.261   3.707   6.701 -1.2055 -1.9181  1.3449
 6921SOL     OW32398   3.022   3.057  16.661  0.3793  0.1957 -0.7251
 6921SOL    HW132399   3.111   3.044  16.696  1.0104 -0.0194 -2.4267
 6921SOL    HW232400   2.989   3.074  16.749  0.1688 -0.5316 -0.6597
 6922SOL     OW32401   2.094   3.988   4.252 -0.4660  0.3917 -0.0956
 6922SOL    HW132402   2.148   3.909   4.261  2.0503  2.1138  0.0374
 6922SOL    HW232403   2.031   3.946   4.193  1.2346 -2.8552  0.3928
 6923SOL     OW32404   1.106   2.270   7.708 -0.0235 -0.5147 -0.2545
 6923SOL    HW132405   1.109   2.239   7.618 -2.1793 -2.2879  0.2781
 6923SOL    HW232406   1.017   2.241   7.732  0.5891 -0.8641  1.6018
 6924SOL     OW32407   0.514   0.464   9.933 -0.4902 -0.1731 -0.2690
 6924SOL    HW132408   0.479   0.450  10.021 -1.1569  1.3665 -0.2927
 6924SOL    HW232409   0.599   0.420   9.943 -0.4102  0.8641  3.6071
 6925SOL     OW32410   2.233   0.618  10.742 -0.5811  0.3699 -0.4868
 6925SOL    HW132411   2.239   0.531  10.702 -1.7782 -0.3320  0.8622
 6925SOL    HW232412   2.309   0.621  10.799 -1.3978 -0.3443  0.6353
 6926SOL     OW32413   2.625   2.366   3.881 -0.0651  0.5935  0.4762
 6926SOL    HW132414   2.696   2.424   3.854  0.1695 -0.0719 -0.3580
 6926SOL    HW232415   2.678   2.290   3.906  2.2229  1.5854 -1.3839
 6927SOL     OW32416   0.002   1.749   7.800  0.4387 -0.1528 -0.8479
 6927SOL    HW132417   0.022   1.777   7.710  1.7132 -0.7428 -0.7515
 6927SOL    HW232418   0.055   1.669   7.806  0.2214  0.0096  2.9718
 6928SOL     OW32419   2.866   2.664   3.201  0.0548 -0.1448  0.4237
 6928SOL    HW132420   2.801   2.680   3.133 -0.1316  1.9159  1.0965
 6928SOL    HW232421   2.895   2.573   3.190 -1.0023 -0.4801  0.3894
 6929SOL     OW32422   4.236   4.658   6.160 -0.0887  0.6854  0.2512
 6929SOL    HW132423   4.184   4.728   6.201 -0.8318  0.2233  0.0878
 6929SOL    HW232424   4.325   4.693   6.171 -0.1384  0.6675  0.6947
 6930SOL     OW32425   3.479   0.252   6.869  0.0578 -0.3720 -0.7854
 6930SOL    HW132426   3.397   0.300   6.883  0.4770 -0.0829  0.7350
 6930SOL    HW232427   3.476   0.224   6.778  1.4504  0.7660 -1.1886
 6931SOL     OW32428   3.926   1.336  12.523 -0.7521 -0.2116 -0.4072
 6931SOL    HW132429   3.970   1.374  12.446  1.0590  0.2026  0.8251
 6931SOL    HW232430   3.881   1.259  12.489  0.9933 -0.8878 -1.2441
 6932SOL     OW32431   0.842   0.395   7.872 -0.0169 -0.3172 -0.3016
 6932SOL    HW132432   0.841   0.335   7.946 -2.2951  0.9429  0.6651
 6932SOL    HW232433   0.810   0.338   7.802  1.0861 -0.3072 -0.8277
 6933SOL     OW32434   4.550   4.116   3.653  0.3883  0.5729  0.3623
 6933SOL    HW132435   4.490   4.176   3.699  1.1898  1.2934  0.4612
 6933SOL    HW232436   4.486   4.057   3.613  0.0029 -0.3535  2.3629
 6934SOL     OW32437   3.057   1.050  15.088 -0.2106  0.4685  0.2404
 6934SOL    HW132438   3.083   1.132  15.046 -1.1198 -0.5222 -2.2917
 6934SOL    HW232439   3.048   0.994  15.011 -1.8937 -2.3734  2.4998
 6935SOL     OW32440   2.155   0.070  14.812 -0.2618 -0.1507  0.2974
 6935SOL    HW132441   2.094   0.063  14.885  1.0448  0.7543  1.4634
 6935SOL    HW232442   2.183   4.719  14.822  2.0507  0.5490  0.1077
 6936SOL     OW32443   0.795   1.153  15.091 -0.1244  0.0038 -0.0431
 6936SOL    HW132444   0.881   1.189  15.114 -0.8646 -0.0525  2.8606
 6936SOL    HW232445   0.798   1.133  14.998  1.6193 -1.9017  0.4194
 6937SOL     OW32446   2.370   4.361   6.352  0.0055  0.0495  0.6205
 6937SOL    HW132447   2.288   4.323   6.323  0.1010  0.0976  0.2859
 6937SOL    HW232448   2.328   4.445   6.370 -0.5142 -0.1908  0.5312
 6938SOL     OW32449   2.373   1.042   6.464 -0.1231  0.1426  0.3926
 6938SOL    HW132450   2.462   1.077   6.476  1.2526 -3.1698 -0.1094
 6938SOL    HW232451   2.395   0.962   6.417 -1.7464  0.7172 -1.3394
 6939SOL     OW32452   2.053   0.085  11.761 -0.1988 -0.4520 -0.5414
 6939SOL    HW132453   1.961   0.112  11.758 -0.0299  0.5011  2.0473
 6939SOL    HW232454   2.046   4.731  11.747  1.3697 -0.4219 -1.5256
 6940SOL     OW32455   0.594   1.132   9.566 -0.3196 -0.1387 -0.5242
 6940SOL    HW132456   0.564   1.041   9.569  0.9890 -0.6240 -2.3199
 6940SOL    HW232457   0.562   1.163   9.482 -0.4604  0.2728 -0.3168
 6941SOL     OW32458   3.679   0.722   6.927  0.3511 -0.4949  0.4490
 6941SOL    HW132459   3.693   0.738   6.833 -0.5367 -1.1939  0.2031
 6941SOL    HW232460   3.585   0.702   6.932 -0.0738  1.1172 -0.9806
 6942SOL     OW32461   0.290   1.520   2.528 -0.0374 -0.2640 -0.0122
 6942SOL    HW132462   0.233   1.584   2.487  0.6808 -0.2393 -0.9765
 6942SOL    HW232463   0.223   1.470   2.573 -0.1999  0.1199  0.1702
 6943SOL     OW32464   0.937   4.468   8.726  0.0750  0.2466 -0.5817
 6943SOL    HW132465   0.891   4.462   8.809 -1.5641  1.1893 -1.4023
 6943SOL    HW232466   1.027   4.442   8.747 -0.4253  1.5200  3.1149
 6944SOL     OW32467   4.523   1.328   1.977 -0.2919  0.7321  0.0107
 6944SOL    HW132468   4.472   1.404   1.949  1.2229  2.3645  1.7256
 6944SOL    HW232469   4.540   1.353   2.067  0.7264  1.4236 -0.3846
 6945SOL     OW32470   2.029   0.497   1.939 -0.0699  0.3079 -0.2996
 6945SOL    HW132471   2.052   0.571   1.995  0.6110  1.2274 -1.8060
 6945SOL    HW232472   1.958   0.533   1.887 -0.8555  1.2330  1.3960
 6946SOL     OW32473   0.958   0.971   4.167  0.1401  0.2953 -0.0975
 6946SOL    HW132474   1.026   0.905   4.179 -0.6248 -0.5194 -0.1878
 6946SOL    HW232475   0.922   0.978   4.256 -4.2488 -0.1026 -1.8217
 6947SOL     OW32476   3.684   1.297  12.347 -0.5786 -0.2306 -0.8046
 6947SOL    HW132477   3.608   1.325  12.398 -0.7389  1.8286 -2.1684
 6947SOL    HW232478   3.694   1.208  12.380  3.1301 -0.4032 -2.4547
 6948SOL     OW32479   2.876   4.736   3.707  0.2297  0.2955  0.3863
 6948SOL    HW132480   2.952   0.035   3.663  0.3780 -0.6876 -0.2201
 6948SOL    HW232481   2.898   0.012   3.798 -0.9832  1.5287  0.4800
 6949SOL     OW32482   1.104   1.215  15.142  0.4442 -0.0713 -0.2843
 6949SOL    HW132483   1.084   1.174  15.058  0.6533  0.2525 -0.4953
 6949SOL    HW232484   1.094   1.143  15.204  1.2057 -0.9175 -1.1265
 6950SOL     OW32485   2.349   1.937   2.688 -0.2373  0.0045  0.0404
 6950SOL    HW132486   2.374   1.876   2.758 -0.9736 -0.4513 -0.0895
 6950SOL    HW232487   2.256   1.927   2.711 -0.5262  1.8637 -0.3237
 6951SOL     OW32488   2.467   4.621   4.993  0.0204  0.0322 -0.4797
 6951SOL    HW132489   2.558   4.608   5.021 -0.0296 -0.3358 -0.4876
 6951SOL    HW232490   2.456   4.548   4.932  0.4130  0.5681 -1.1922
 6952SOL     OW32491   3.830   1.280   6.070  0.3428  0.0742  0.2642
 6952SOL    HW132492   3.888   1.243   6.004 -0.0847  2.3210 -1.3434
 6952SOL    HW232493   3.865   1.263   6.158  2.3507 -1.5073 -0.8632
 6953SOL     OW32494   3.862   1.272   6.622 -0.7790 -0.3943  0.0105
 6953SOL    HW132495   3.895   1.233   6.541  0.4956  1.5556 -0.4148
 6953SOL    HW232496   3.849   1.361   6.589 -2.2268 -1.0383 -1.1465
 6954SOL     OW32497   3.552   3.846   1.609 -0.2996 -0.4876  0.3130
 6954SOL    HW132498   3.568   3.916   1.545  3.0675  0.1288  1.8320
 6954SOL    HW232499   3.625   3.789   1.583  0.9504  1.8011 -1.2478
 6955SOL     OW32500   3.771   1.996   2.918 -0.4207  0.2268 -0.2854
 6955SOL    HW132501   3.761   2.019   2.826 -1.5494 -0.2395 -0.2772
 6955SOL    HW232502   3.864   1.974   2.920 -0.5403 -0.1650  1.5134
 6956SOL     OW32503   3.437   4.401   2.334 -0.5198 -0.0418  0.7734
 6956SOL    HW132504   3.354   4.413   2.288 -1.7131  0.7559  3.1204
 6956SOL    HW232505   3.414   4.451   2.413 -1.0529  0.7679  0.1044
 6957SOL     OW32506   0.014   2.383   4.313  0.0485  0.5236  0.1171
 6957SOL    HW132507   4.686   2.429   4.266 -0.8999  0.2350  1.2049
 6957SOL    HW232508   4.703   2.356   4.390  2.1822  0.7603  1.6255
 6958SOL     OW32509   1.571   0.664   5.930  0.3885  0.5323 -0.4942
 6958SOL    HW132510   1.507   0.604   5.891 -0.5602  1.1814  0.0630
 6958SOL    HW232511   1.643   0.605   5.952 -0.1509 -0.2123 -0.7028
 6959SOL     OW32512   2.907   2.185  16.629 -0.9244 -0.4814 -0.5140
 6959SOL    HW132513   2.990   2.203  16.585 -1.2164 -1.3078 -1.4075
 6959SOL    HW232514   2.888   2.097  16.597 -2.5876 -0.5732  0.7202
 6960SOL     OW32515   0.561   4.198   3.552  0.1109  0.1949  0.4114
 6960SOL    HW132516   0.566   4.201   3.456  2.3036 -0.5588  0.5128
 6960SOL    HW232517   0.594   4.288   3.560  0.0264  0.2001  0.7076
 6961SOL     OW32518   0.230   4.301   9.186 -0.3391 -0.0483  0.1625
 6961SOL    HW132519   0.166   4.277   9.253 -0.9928  1.3530  0.0487
 6961SOL    HW232520   0.204   4.385   9.146  0.6548 -0.6428 -1.7456
 6962SOL     OW32521   0.327   1.095   4.658  0.7468  0.3047  0.2613
 6962SOL    HW132522   0.389   1.065   4.591  1.6367 -1.5856  1.9291
 6962SOL    HW232523   0.322   1.189   4.643  0.1427  0.3288  0.6274
 6963SOL     OW32524   1.235   3.178   5.853  0.3854 -0.2710  0.4104
 6963SOL    HW132525   1.295   3.150   5.784  1.3040  2.5935  0.0487
 6963SOL    HW232526   1.292   3.248   5.884 -0.8414  1.5993 -1.4749
 6964SOL     OW32527   1.489   0.143   3.625 -1.1715 -0.2989 -0.0689
 6964SOL    HW132528   1.508   0.060   3.669  1.8116  0.0091 -0.7809
 6964SOL    HW232529   1.545   0.207   3.670 -1.9683  1.7741 -1.9783
 6965SOL     OW32530   0.800   2.502   4.216 -0.1066 -0.4294  0.1077
 6965SOL    HW132531   0.725   2.561   4.224  0.6468  0.3513  1.5424
 6965SOL    HW232532   0.768   2.422   4.176  0.4507 -0.1313 -0.9340
 6966SOL     OW32533   4.671   2.284   8.227 -0.3962 -0.3512 -0.0630
 6966SOL    HW132534   4.594   2.228   8.222 -0.0996 -0.8484  0.9923
 6966SOL    HW232535   4.737   2.238   8.175  0.5922  0.6232  0.3359
 6967SOL     OW32536   1.605   3.116   4.554 -0.2049 -0.6438  0.1890
 6967SOL    HW132537   1.559   3.032   4.548 -1.3677 -0.0443  0.6364
 6967SOL    HW232538   1.615   3.135   4.461  0.2644  2.5847  0.8775
 6968SOL     OW32539   1.752   0.176   4.044 -0.3464  0.5804 -0.4816
 6968SOL    HW132540   1.728   0.083   4.054 -1.8403  0.9168 -0.9684
 6968SOL    HW232541   1.729   0.213   4.129  0.6013 -2.3339  1.0488
 6969SOL     OW32542   4.168   1.984   7.500  0.3585  0.0850 -0.1229
 6969SOL    HW132543   4.236   1.924   7.470  2.3509  0.8450  2.7949
 6969SOL    HW232544   4.128   1.941   7.576  1.0153  0.4597  0.4383
 6970SOL     OW32545   0.274   2.046   5.358  0.0573  0.0156 -0.0994
 6970SOL    HW132546   0.179   2.040   5.350  0.1521 -0.4208 -0.8418
 6970SOL    HW232547   0.293   1.966   5.407  0.6928  0.0434 -0.2982
 6971SOL     OW32548   2.247   1.513   6.269 -0.0706 -0.5806 -0.3576
 6971SOL    HW132549   2.160   1.548   6.287 -0.1162 -1.2085  0.6529
 6971SOL    HW232550   2.236   1.486   6.178  2.7494 -3.2804  0.1243
 6972SOL     OW32551   3.491   4.226  13.780  0.6023 -0.0436  0.6487
 6972SOL    HW132552   3.453   4.174  13.709  1.7909  0.2838 -0.2289
 6972SOL    HW232553   3.410   4.264  13.813 -0.2266  1.0707 -2.7196
 6973SOL     OW32554   4.265   4.577   3.683  0.0481  0.2483 -0.2327
 6973SOL    HW132555   4.186   4.540   3.721  1.3111 -1.9673  0.2439
 6973SOL    HW232556   4.306   4.613   3.761  0.8919  1.1041 -1.0661
 6974SOL     OW32557   0.186   3.483   7.508 -0.5795  0.4903  0.8257
 6974SOL    HW132558   0.235   3.512   7.431  0.2176  0.4243  1.3042
 6974SOL    HW232559   0.151   3.403   7.469 -0.1331  0.5537  0.2896
 6975SOL     OW32560   3.019   0.617  17.208  0.5333  0.2163  0.1277
 6975SOL    HW132561   2.943   0.610  17.150  0.4742 -2.8702  0.5655
 6975SOL    HW232562   3.023   0.712  17.210 -1.0726  0.2728  0.4183
 6976SOL     OW32563   0.959   2.595  11.445  0.3965  0.2913 -0.9269
 6976SOL    HW132564   1.002   2.510  11.453  0.9157  0.7974  1.7901
 6976SOL    HW232565   1.037   2.640  11.415  0.9436 -0.6086 -0.8738
 6977SOL     OW32566   1.124   0.542   7.518  0.0719  0.5448  0.1017
 6977SOL    HW132567   1.117   0.462   7.466  4.0890  0.0062  0.3749
 6977SOL    HW232568   1.039   0.585   7.503 -0.4763  0.1140  1.8607
 6978SOL     OW32569   1.627   0.132   5.096 -0.3563 -0.3416 -0.1548
 6978SOL    HW132570   1.584   0.214   5.074  2.2402  1.8806  3.0155
 6978SOL    HW232571   1.678   0.162   5.172  1.6396 -0.3022 -1.5138
 6979SOL     OW32572   3.386   4.031  13.651 -0.2511  0.2255 -0.0780
 6979SOL    HW132573   3.291   4.031  13.664 -0.2718  0.1441 -0.2262
 6979SOL    HW232574   3.407   3.938  13.638 -1.5979  0.1854 -2.0851
 6980SOL     OW32575   1.020   3.899   3.676  0.9007 -0.3186 -0.2308
 6980SOL    HW132576   1.092   3.954   3.704 -0.9316  2.1637 -0.3818
 6980SOL    HW232577   1.010   3.833   3.745 -0.6793  0.7022  0.5388
 6981SOL     OW32578   1.177   3.381   3.433  0.2685  0.8461  0.1892
 6981SOL    HW132579   1.119   3.326   3.381 -0.7336  1.0734  1.0770
 6981SOL    HW232580   1.123   3.459   3.448  0.7953  1.3496 -0.5128
 6982SOL     OW32581   3.779   0.285   2.810 -0.5025 -0.4463  0.0899
 6982SOL    HW132582   3.767   0.190   2.814  2.1965 -0.6390  2.9712
 6982SOL    HW232583   3.705   0.310   2.866  1.8607  2.1024  2.0443
 6983SOL     OW32584   1.877   3.556   6.815  0.0349  0.3271 -0.4213
 6983SOL    HW132585   1.881   3.630   6.755  0.0419 -0.4667 -1.3974
 6983SOL    HW232586   1.943   3.501   6.772 -0.3548 -2.3655  2.3877
 6984SOL     OW32587   2.312   1.664  17.300 -0.6444 -0.1142  0.6476
 6984SOL    HW132588   2.282   1.729  17.237 -0.2360  1.7677  2.3890
 6984SOL    HW232589   2.398   1.701  17.322 -0.7584 -1.8545  4.0483
 6985SOL     OW32590   2.665   0.932   8.574 -0.2850 -0.5579 -0.5674
 6985SOL    HW132591   2.682   1.022   8.602 -0.5422 -0.7950  0.3629
 6985SOL    HW232592   2.623   0.942   8.489 -2.5403  1.1437  0.7575
 6986SOL     OW32593   1.711   4.030   6.353  0.6282 -0.0921  0.3697
 6986SOL    HW132594   1.755   3.949   6.329 -0.9722  0.3002 -3.8632
 6986SOL    HW232595   1.622   3.997   6.344 -0.7425  3.4274  0.9010
 6987SOL     OW32596   3.084   4.728   4.734 -0.5890 -0.2528 -0.7531
 6987SOL    HW132597   3.139   4.694   4.664 -1.6665 -0.0796 -1.6915
 6987SOL    HW232598   3.086   4.655   4.795 -0.8200 -0.4097 -0.9322
 6988SOL     OW32599   1.763   3.733   5.709  0.1995 -0.2908  0.1432
 6988SOL    HW132600   1.701   3.802   5.733  1.1575  0.2870  0.9486
 6988SOL    HW232601   1.721   3.696   5.631 -1.1531 -0.7150  1.0899
 6989SOL     OW32602   2.182   4.483   6.583 -0.2395  0.2892 -0.8041
 6989SOL    HW132603   2.248   4.552   6.591 -1.4722  1.4792 -0.8786
 6989SOL    HW232604   2.230   4.403   6.607 -0.3057  0.4625 -0.0889
 6990SOL     OW32605   3.172   0.243   4.135 -0.1738  0.1248 -0.1574
 6990SOL    HW132606   3.102   0.285   4.184  0.9800  0.3183  1.3463
 6990SOL    HW232607   3.186   0.290   4.052  2.2470  0.9383  0.7018
 6991SOL     OW32608   0.990   3.343   8.640  0.0856  0.9668  0.2853
 6991SOL    HW132609   0.911   3.389   8.668 -0.5646 -1.6474  2.8317
 6991SOL    HW232610   0.984   3.253   8.673 -1.7563  1.4734  1.3287
 6992SOL     OW32611   0.133   1.979   6.869  0.1659 -0.0957 -0.7163
 6992SOL    HW132612   0.217   1.961   6.911  0.1707  1.8577  0.1013
 6992SOL    HW232613   0.093   2.026   6.942 -3.0041 -3.2767 -0.3808
 6993SOL     OW32614   2.286   3.780   1.526  0.4791 -0.1457 -0.0181
 6993SOL    HW132615   2.193   3.782   1.505  0.2350 -0.4013  1.0325
 6993SOL    HW232616   2.330   3.783   1.441 -0.5098 -2.3338 -0.5915
 6994SOL     OW32617   3.206   0.170   8.931 -0.1213  0.3267  0.2420
 6994SOL    HW132618   3.119   0.183   8.893  0.5971  0.9002 -1.2226
 6994SOL    HW232619   3.259   0.237   8.887  0.6055 -2.1334 -2.6294
 6995SOL     OW32620   2.360   0.743   2.395  0.6759  0.3593  0.3825
 6995SOL    HW132621   2.437   0.760   2.448 -0.3033  2.1587  1.2391
 6995SOL    HW232622   2.356   0.647   2.397  0.3068  0.3573 -0.4253
 6996SOL     OW32623   3.770   1.571   1.908 -0.1200 -0.1097 -0.4959
 6996SOL    HW132624   3.763   1.494   1.851  1.4235  0.7597 -1.8316
 6996SOL    HW232625   3.713   1.634   1.863 -0.7638 -1.4957 -1.6475
 6997SOL     OW32626   2.500   3.143   2.465  0.2118  0.2925 -0.0738
 6997SOL    HW132627   2.594   3.155   2.458  0.4893 -1.6832  0.2557
 6997SOL    HW232628   2.461   3.185   2.388 -2.1963 -1.3656  0.2370
 6998SOL     OW32629   1.771   4.403  12.544 -0.3239  0.2144  0.4466
 6998SOL    HW132630   1.770   4.472  12.478 -0.4334  0.6712  0.9277
 6998SOL    HW232631   1.861   4.372  12.548 -0.0724  1.3082  3.4799
 6999SOL     OW32632   4.498   2.449   1.152 -0.3392  0.0595 -0.1003
 6999SOL    HW132633   4.479   2.477   1.063  1.2750  0.5130 -0.3048
 6999SOL    HW232634   4.451   2.518   1.199  1.1651  1.4508 -0.6356
 7000SOL     OW32635   1.248   1.028   3.626 -0.1982 -0.5528  0.6218
 7000SOL    HW132636   1.248   1.080   3.707 -2.2200  0.3739  0.0485
 7000SOL    HW232637   1.159   0.992   3.631  0.4631 -2.3670 -1.2327
 7001SOL     OW32638   0.257   4.453  15.256  0.4575  0.1660 -0.5827
 7001SOL    HW132639   0.340   4.481  15.218  0.6094  0.5899  0.0520
 7001SOL    HW232640   0.293   4.422  15.339 -0.0172 -0.3494 -0.5672
 7002SOL     OW32641   1.045   0.653   9.426 -0.2169 -0.2405  0.2725
 7002SOL    HW132642   1.114   0.598   9.389  1.7281  1.7658  0.9353
 7002SOL    HW232643   1.093   0.725   9.466  1.2052 -0.3063 -1.2934
 7003SOL     OW32644   0.535   0.937  12.531 -0.4452 -0.2417  0.5498
 7003SOL    HW132645   0.616   0.915  12.486 -0.3871  3.9845 -1.4219
 7003SOL    HW232646   0.545   1.020  12.578 -0.1401  0.1509 -0.2240
 7004SOL     OW32647   3.134   4.502   6.017  0.1206  0.0488  0.3575
 7004SOL    HW132648   3.167   4.577   5.967 -0.4912  0.5395  0.6882
 7004SOL    HW232649   3.205   4.490   6.080  1.0355  1.9031 -0.3121
 7005SOL     OW32650   2.940   4.194   8.717  0.7511  0.3251  0.0645
 7005SOL    HW132651   2.913   4.252   8.788 -0.0168 -0.6939  0.6054
 7005SOL    HW232652   2.861   4.160   8.675  0.4889  0.0253  0.8034
 7006SOL     OW32653   1.718   4.588   3.888 -0.1338 -0.3321  0.7933
 7006SOL    HW132654   1.813   4.595   3.879 -0.2341 -1.5087 -1.0440
 7006SOL    HW232655   1.715   4.596   3.984 -1.3468 -1.9856  0.9089
 7007SOL     OW32656   2.212   0.969  17.233  0.9022 -0.0410  0.2855
 7007SOL    HW132657   2.183   1.049  17.277  0.0073 -0.5763  0.6601
 7007SOL    HW232658   2.294   1.004  17.198  1.6150 -0.7043  1.2864
 7008SOL     OW32659   3.084   4.390   8.264  0.1765 -0.4718  0.3523
 7008SOL    HW132660   3.010   4.401   8.324  0.6273 -0.8065  0.9733
 7008SOL    HW232661   3.153   4.400   8.330  2.0577 -0.1075 -1.6651
 7009SOL     OW32662   1.006   2.883   0.473  0.1624 -0.2342  0.0886
 7009SOL    HW132663   0.924   2.836   0.492 -0.0029 -0.2241 -0.6164
 7009SOL    HW232664   1.080   2.828   0.500  0.0566 -0.7766 -0.7420
 7010SOL     OW32665   2.893   2.640  10.455  0.1189 -0.1430  0.4545
 7010SOL    HW132666   2.827   2.572  10.464  0.2380 -0.4705 -1.1016
 7010SOL    HW232667   2.948   2.609  10.527  0.9274  1.2069  0.4090
 7011SOL     OW32668   0.642   3.192   4.539 -0.3460  0.4789 -0.1475
 7011SOL    HW132669   0.710   3.245   4.497  1.1672 -1.3312 -0.0167
 7011SOL    HW232670   0.641   3.119   4.477 -1.7747  2.2527 -2.2019
 7012SOL     OW32671   0.001   3.379  16.164 -0.1691 -0.0495 -0.3469
 7012SOL    HW132672   4.674   3.315  16.139 -1.8204  2.5803 -2.6544
 7012SOL    HW232673   0.047   3.394  16.081  0.9128  1.6081  0.5619
 7013SOL     OW32674   1.222   3.243  10.597  0.2088  0.5779  0.1195
 7013SOL    HW132675   1.137   3.241  10.553 -0.5184  1.7895  1.4694
 7013SOL    HW232676   1.278   3.217  10.524  0.2400  2.3734 -0.5023
 7014SOL     OW32677   0.467   2.019   1.649  0.0674  0.1423  0.2483
 7014SOL    HW132678   0.414   1.958   1.700  2.3979 -1.9200  0.2400
 7014SOL    HW232679   0.395   2.065   1.606  0.5352 -2.4898 -3.3049
 7015SOL     OW32680   3.683   0.437  13.161  0.2914  0.1980  0.1736
 7015SOL    HW132681   3.777   0.452  13.177  0.7858 -2.8343  0.0815
 7015SOL    HW232682   3.683   0.370  13.092  0.3758  0.0646  0.3050
 7016SOL     OW32683   3.387   1.947   3.677 -0.6830 -0.4001 -0.0153
 7016SOL    HW132684   3.422   2.018   3.731 -0.5556  1.3724 -2.4389
 7016SOL    HW232685   3.420   1.980   3.593  0.6131 -0.8673  0.3087
 7017SOL     OW32686   4.172   0.476  10.844 -0.2384 -0.4512 -0.3611
 7017SOL    HW132687   4.144   0.563  10.873 -2.4763 -1.3899  0.2915
 7017SOL    HW232688   4.096   0.431  10.881 -1.0079 -0.4187 -1.8743
 7018SOL     OW32689   0.154   4.378   6.758 -0.2435  0.1141  0.3383
 7018SOL    HW132690   0.078   4.323   6.778 -1.7614  2.7156  1.6984
 7018SOL    HW232691   0.194   4.337   6.681 -1.6128 -1.0236  0.2414
 7019SOL     OW32692   4.293   4.375   8.724 -0.0605  0.8413  0.1576
 7019SOL    HW132693   4.357   4.305   8.712  0.9601  1.6984  0.5757
 7019SOL    HW232694   4.352   4.448   8.707  0.7832  0.2503  0.5044
 7020SOL     OW32695   0.019   1.861   5.721  0.6165 -0.3087 -0.2623
 7020SOL    HW132696   4.727   1.774   5.746  0.1520 -0.1964 -0.4594
 7020SOL    HW232697   0.050   1.888   5.807  0.2916 -0.4583 -0.0992
 7021SOL     OW32698   2.984   0.274   8.804  0.4957  0.1303  0.1398
 7021SOL    HW132699   2.970   0.368   8.818  0.8045  0.5398 -2.1820
 7021SOL    HW232700   2.899   0.230   8.811  0.6972 -0.3167 -0.2290
 7022SOL     OW32701   1.567   1.745   3.476  0.5266  0.1321 -0.0386
 7022SOL    HW132702   1.630   1.673   3.481  0.7342  0.2658 -0.8528
 7022SOL    HW232703   1.629   1.816   3.492  0.4204  0.3027 -0.3947
 7023SOL     OW32704   4.296   2.695   3.011 -0.1202 -0.3892  0.0088
 7023SOL    HW132705   4.262   2.610   2.982 -0.2922 -0.7660  1.3572
 7023SOL    HW232706   4.287   2.738   2.925 -0.7629  0.1962  0.3739
 7024SOL     OW32707   1.588   4.359   3.754 -0.6514 -0.4482  0.3567
 7024SOL    HW132708   1.598   4.406   3.671 -0.5706  0.6857  1.0022
 7024SOL    HW232709   1.634   4.413   3.818 -0.0311 -1.1999  0.5345
 7025SOL     OW32710   3.714   2.535  12.646 -0.2642 -0.0939 -0.5230
 7025SOL    HW132711   3.736   2.516  12.737 -2.1520  1.7951  0.3164
 7025SOL    HW232712   3.739   2.466  12.585 -2.7934 -0.3476 -1.2663
 7026SOL     OW32713   4.603   3.584  11.051  1.0451  0.2029 -0.0468
 7026SOL    HW132714   4.579   3.507  11.102 -1.1435  1.2657  0.4759
 7026SOL    HW232715   4.687   3.547  11.021  1.2754  0.4059  0.3561
 7027SOL     OW32716   0.990   3.543  11.249 -0.1497 -0.0640 -0.7967
 7027SOL    HW132717   0.996   3.459  11.204  0.4971 -0.8301  0.7173
 7027SOL    HW232718   1.044   3.527  11.326  1.3220  1.7829 -1.4450
 7028SOL     OW32719   0.195   1.137   5.734 -0.0017  0.1151  0.6842
 7028SOL    HW132720   0.122   1.074   5.733 -1.1089  1.3993  1.0217
 7028SOL    HW232721   0.206   1.142   5.829 -2.3726  1.1294  0.8906
 7029SOL     OW32722   3.381   2.190   2.753 -0.4254 -0.7851  0.1737
 7029SOL    HW132723   3.465   2.202   2.710 -0.4554  0.1924  0.3707
 7029SOL    HW232724   3.381   2.271   2.805  1.5880  0.6078 -2.0145
 7030SOL     OW32725   4.102   1.050   6.199 -0.5160 -0.3835  0.1465
 7030SOL    HW132726   4.059   1.003   6.128  0.4725  0.7740 -1.1911
 7030SOL    HW232727   4.192   1.020   6.194 -0.8182 -1.2658 -0.0268
 7031SOL     OW32728   4.235   0.873   8.780 -0.0724  0.1085  0.1988
 7031SOL    HW132729   4.151   0.860   8.735  0.2416  1.7407 -0.8452
 7031SOL    HW232730   4.224   0.953   8.832  1.2648 -0.4570  1.3531
 7032SOL     OW32731   3.335   0.591   6.050 -0.4063  0.2147 -0.0833
 7032SOL    HW132732   3.255   0.586   6.102  0.7628 -0.5014  1.6233
 7032SOL    HW232733   3.293   0.606   5.965  1.3945 -1.3503 -1.2418
 7033SOL     OW32734   3.461   2.986   8.036  0.0174  0.1731 -0.0028
 7033SOL    HW132735   3.518   2.913   8.012  0.4472  0.7145 -0.6654
 7033SOL    HW232736   3.404   2.998   7.960 -2.6854  0.6826  2.0988
 7034SOL     OW32737   4.312   3.589  10.958 -0.4018 -0.3574 -0.0183
 7034SOL    HW132738   4.407   3.583  10.970 -0.4421  1.8756  1.5427
 7034SOL    HW232739   4.279   3.541  11.034 -2.2629  3.0322  1.2900
 7035SOL     OW32740   3.171   3.845   4.216 -0.0541  0.3046  0.2624
 7035SOL    HW132741   3.118   3.924   4.222 -0.9214 -0.1606 -1.4101
 7035SOL    HW232742   3.169   3.819   4.308  0.6972 -0.0741  0.1750
 7036SOL     OW32743   3.909   1.138   3.486 -0.0355 -0.2890  0.0954
 7036SOL    HW132744   3.987   1.114   3.437 -0.8227 -0.8169 -0.9123
 7036SOL    HW232745   3.957   1.178   3.558  0.1909  1.3069 -0.9289
 7037SOL     OW32746   3.868   3.739   3.395 -0.0382 -0.3637  0.0199
 7037SOL    HW132747   3.838   3.660   3.439  0.0511  0.3635  1.3856
 7037SOL    HW232748   3.887   3.714   3.304 -1.3949 -1.1634 -0.0339
 7038SOL     OW32749   4.332   0.935   3.057  0.0227  0.0276 -0.4389
 7038SOL    HW132750   4.331   1.031   3.059 -0.8820  0.0339 -0.8744
 7038SOL    HW232751   4.320   0.910   3.148 -1.7023 -0.6799 -0.8530
 7039SOL     OW32752   1.064   2.644   2.991 -0.2673 -0.1817  0.5422
 7039SOL    HW132753   1.085   2.569   3.047 -1.2052 -0.8951 -0.0546
 7039SOL    HW232754   0.992   2.686   3.037 -0.5677  3.1278 -2.9373
 7040SOL     OW32755   2.965   4.611   6.272  0.6505  0.2045 -0.4336
 7040SOL    HW132756   3.024   4.635   6.343  0.9136  1.4898 -1.0988
 7040SOL    HW232757   3.028   4.575   6.210  1.2273  0.2930  0.0974
 7041SOL     OW32758   4.106   1.432  14.302  0.0326  0.4307 -0.2196
 7041SOL    HW132759   4.181   1.444  14.360 -0.1938  0.2544  0.1166
 7041SOL    HW232760   4.099   1.337  14.289  1.0267  0.2957  0.2567
 7042SOL     OW32761   3.861   3.612  17.067 -0.1341 -0.1981 -0.3024
 7042SOL    HW132762   3.862   3.707  17.075  0.7193 -0.2593  0.3992
 7042SOL    HW232763   3.902   3.585  17.149 -1.2421 -2.9327 -0.6496
 7043SOL     OW32764   1.870   0.426   2.170  0.5584  0.2215 -0.1592
 7043SOL    HW132765   1.889   0.456   2.081  1.6747 -0.5861 -0.1942
 7043SOL    HW232766   1.886   0.508   2.218 -1.1443  1.1055 -1.1170
 7044SOL     OW32767   0.366   4.201   8.408 -0.3492  0.1192  0.3914
 7044SOL    HW132768   0.340   4.288   8.436 -0.6525  0.6662 -1.5410
 7044SOL    HW232769   0.334   4.199   8.318  1.2792 -0.4031 -0.1876
 7045SOL     OW32770   0.382   0.593   6.301 -0.9276  0.3238  0.2429
 7045SOL    HW132771   0.466   0.548   6.303  0.2917  2.5800 -0.2888
 7045SOL    HW232772   0.414   0.677   6.335 -1.3517  0.0598  1.3145
 7046SOL     OW32773   2.091   0.159  16.813 -0.1608  0.1724 -0.1587
 7046SOL    HW132774   2.085   0.114  16.729  0.0572 -1.8718  0.8949
 7046SOL    HW232775   2.088   0.253  16.796 -1.0210  0.0497 -0.6676
 7047SOL     OW32776   3.345   3.361   7.081 -0.5296 -0.9352 -0.3724
 7047SOL    HW132777   3.265   3.348   7.030 -0.0521 -1.1282 -1.0651
 7047SOL    HW232778   3.419   3.337   7.025 -0.6001 -0.0761 -0.8190
 7048SOL     OW32779   4.062   3.742   5.655 -0.4282 -0.6665  0.0429
 7048SOL    HW132780   4.091   3.658   5.620  3.2881  1.4342 -1.9465
 7048SOL    HW232781   4.142   3.794   5.645 -0.0765 -1.0830  0.6904
 7049SOL     OW32782   3.642   1.352   0.391  0.3743  0.9237 -0.3236
 7049SOL    HW132783   3.625   1.444   0.368  0.8153  0.8787 -0.8249
 7049SOL    HW232784   3.678   1.313   0.311 -1.2685  1.7989 -1.5038
 7050SOL     OW32785   1.315   4.416  15.255  0.0631  0.1054 -0.5520
 7050SOL    HW132786   1.363   4.457  15.183 -1.1563  1.0976 -0.8035
 7050SOL    HW232787   1.255   4.489  15.272 -2.9009 -2.3732 -0.4299
 7051SOL     OW32788   3.698   1.773  17.332  0.3206 -0.7078  0.0005
 7051SOL    HW132789   3.761   1.776  17.260 -1.7129 -0.8887 -1.7724
 7051SOL    HW232790   3.626   1.808  17.280  0.7432  0.5392  0.2596
 7052SOL     OW32791   3.144   3.541   8.470  0.5990 -0.1566 -0.2672
 7052SOL    HW132792   3.091   3.463   8.452 -1.5288  1.0700  0.7506
 7052SOL    HW232793   3.079   3.606   8.442  1.7461  1.2986  0.4835
 7053SOL     OW32794   0.197   4.015   6.698 -0.0523 -0.2318 -0.0160
 7053SOL    HW132795   0.267   4.012   6.763  2.4437  1.7004 -2.6158
 7053SOL    HW232796   0.245   4.054   6.625  0.4110  0.8684  0.8710
 7054SOL     OW32797   0.210   2.967   0.932  0.8868 -0.0260 -0.2554
 7054SOL    HW132798   0.210   2.903   1.003 -1.8190  0.9449  0.6524
 7054SOL    HW232799   0.196   2.913   0.855 -1.0192 -1.1092  0.8457
 7055SOL     OW32800   2.594   2.459   3.334  0.0769  0.5386 -0.1161
 7055SOL    HW132801   2.633   2.407   3.264 -0.9723 -1.8986  1.0778
 7055SOL    HW232802   2.510   2.482   3.294 -0.2897  0.6113  0.6927
 7056SOL     OW32803   4.444   4.066   2.459  0.3759 -0.0838  0.5242
 7056SOL    HW132804   4.498   4.040   2.534 -1.4582 -0.9243  1.5518
 7056SOL    HW232805   4.510   4.062   2.390  0.0468  1.4348  0.1052
 7057SOL     OW32806   1.102   4.016  16.924  0.4841 -0.4384  0.5403
 7057SOL    HW132807   1.167   4.031  16.992  2.0770  1.7099 -1.4551
 7057SOL    HW232808   1.114   3.923  16.903 -1.8078 -0.3215 -1.3039
 7058SOL     OW32809   3.962   1.937  13.754 -0.4876  0.2188  0.2732
 7058SOL    HW132810   3.995   2.022  13.783 -1.1519  0.1279  1.2870
 7058SOL    HW232811   3.977   1.891  13.836 -3.6001 -1.0060  0.1459
 7059SOL     OW32812   2.680   0.540  13.403  0.4039  0.3387  0.1913
 7059SOL    HW132813   2.649   0.576  13.320  1.6313  1.7944  0.3626
 7059SOL    HW232814   2.626   0.462  13.411  2.0212 -1.0017 -1.9448
 7060SOL     OW32815   4.554   1.865   4.938 -0.1555 -0.1371 -0.4597
 7060SOL    HW132816   4.563   1.794   5.002  2.6695  0.6884  0.0560
 7060SOL    HW232817   4.625   1.927   4.954 -0.3496 -0.9780  3.6295
 7061SOL     OW32818   4.329   2.014   2.539 -0.4505 -0.1701 -0.3637
 7061SOL    HW132819   4.270   2.084   2.510 -2.2473 -0.8121  1.7712
 7061SOL    HW232820   4.383   2.016   2.461  1.3448 -1.6912  0.8568
 7062SOL     OW32821   2.140   4.070  12.826 -0.6485  0.1998  0.2354
 7062SOL    HW132822   2.089   4.126  12.767  0.7079 -0.0642 -1.1983
 7062SOL    HW232823   2.132   4.128  12.901 -1.8109  0.9169 -0.4437
 7063SOL     OW32824   3.237   0.707   7.268  0.0677 -0.1377 -0.3250
 7063SOL    HW132825   3.239   0.616   7.237 -1.1190  0.0849 -1.0453
 7063SOL    HW232826   3.156   0.710   7.319 -0.7067  0.3837 -1.6166
 7064SOL     OW32827   1.250   3.027   1.993 -0.4313  0.4059  0.6794
 7064SOL    HW132828   1.201   3.026   1.910  0.5206 -2.1107  0.1440
 7064SOL    HW232829   1.198   3.076   2.057  0.7386  2.0225  0.3948
 7065SOL     OW32830   3.721   1.788   6.613 -0.5033 -0.6750  0.5472
 7065SOL    HW132831   3.646   1.823   6.660  0.0644 -1.0697  1.7508
 7065SOL    HW232832   3.688   1.792   6.524 -4.3524 -0.0585  2.0123
 7066SOL     OW32833   2.667   0.381   7.396  0.1196 -0.6509 -0.1231
 7066SOL    HW132834   2.698   0.422   7.477 -0.8353 -0.3193  0.0760
 7066SOL    HW232835   2.594   0.331   7.434  0.3862 -0.5207  0.5616
 7067SOL     OW32836   2.757   3.279   6.454 -0.4181  0.0240  0.1347
 7067SOL    HW132837   2.808   3.309   6.379 -0.9762 -2.7489 -1.3669
 7067SOL    HW232838   2.681   3.336   6.452 -0.1583  0.3992  0.9777
 7068SOL     OW32839   2.822   1.058  10.925  0.2128  0.3659  0.4456
 7068SOL    HW132840   2.812   1.152  10.912 -1.6660  0.3156  1.3882
 7068SOL    HW232841   2.857   1.053  11.014  0.1193 -1.2006  0.3930
 7069SOL     OW32842   0.704   1.412   6.049  0.5020  0.3566 -0.6675
 7069SOL    HW132843   0.744   1.418   5.962 -0.5427  0.8933 -1.1050
 7069SOL    HW232844   0.783   1.383   6.096 -0.9355  0.8058  1.9960
 7070SOL     OW32845   2.100   0.518   5.913  0.7394 -0.8474 -0.0373
 7070SOL    HW132846   2.099   0.612   5.929  0.6112 -1.3626  2.9848
 7070SOL    HW232847   2.189   0.491   5.934  0.0102 -2.9612  0.2877
 7071SOL     OW32848   1.895   1.479   9.275  0.2306  0.2239 -0.3274
 7071SOL    HW132849   1.911   1.561   9.228  0.3262 -1.6807 -3.5811
 7071SOL    HW232850   1.869   1.517   9.359 -1.9882  1.4955 -1.6057
 7072SOL     OW32851   3.532   3.778  11.887  0.5220 -0.6649  0.0816
 7072SOL    HW132852   3.519   3.696  11.934  1.1808 -1.1795 -0.6484
 7072SOL    HW232853   3.568   3.837  11.953  0.4635  0.5335 -0.9481
 7073SOL     OW32854   4.156   0.032  17.552  0.1966  0.5023 -0.3454
 7073SOL    HW132855   4.107   4.697  17.586  0.4921 -0.0265 -1.0708
 7073SOL    HW232856   4.106   0.110  17.579 -0.6426  0.0688 -0.6338
 7074SOL     OW32857   3.121   1.952   7.952 -0.1713 -0.6174  0.2412
 7074SOL    HW132858   3.201   2.002   7.934 -0.0732 -1.0607 -0.5533
 7074SOL    HW232859   3.076   1.963   7.868  0.3967  0.8103  0.1185
 7075SOL     OW32860   3.133   0.853   2.925 -0.1608 -0.0076 -0.7461
 7075SOL    HW132861   3.045   0.816   2.923 -1.3397  2.8099 -0.8325
 7075SOL    HW232862   3.170   0.800   2.854 -0.2215 -1.2657  0.1645
 7076SOL     OW32863   0.045   4.205   4.658 -0.1723  0.0904 -0.5108
 7076SOL    HW132864   0.061   4.149   4.582  0.2622  1.4768 -1.4347
 7076SOL    HW232865   0.087   4.153   4.726  1.4832  2.1997  0.0693
 7077SOL     OW32866   0.927   1.487   4.185  0.7025  0.2377  0.5321
 7077SOL    HW132867   0.921   1.537   4.267  0.5354  1.7773 -0.4355
 7077SOL    HW232868   0.871   1.542   4.131  1.0090 -0.1427 -0.1606
 7078SOL     OW32869   3.088   2.521  11.628  0.0104  0.0516  0.1283
 7078SOL    HW132870   3.044   2.470  11.560 -1.8582  0.0418  1.3417
 7078SOL    HW232871   3.076   2.457  11.698  1.7910 -2.5000 -1.8646
 7079SOL     OW32872   4.326   3.713   5.393 -0.0873  0.0021  0.0213
 7079SOL    HW132873   4.349   3.627   5.428  1.2837  0.0578 -0.7784
 7079SOL    HW232874   4.318   3.764   5.474 -2.2132 -0.8978  0.3831
 7080SOL     OW32875   2.135   3.071   6.731 -0.2225  1.0331 -0.1356
 7080SOL    HW132876   2.112   3.000   6.670 -1.6841  2.5314 -1.3068
 7080SOL    HW232877   2.078   3.045   6.803 -0.5545 -0.1032 -0.8096
 7081SOL     OW32878   4.720   0.568   7.910  0.1333 -0.6118 -0.1408
 7081SOL    HW132879   4.694   0.493   7.964 -2.2824  0.9312  0.8697
 7081SOL    HW232880   4.653   0.630   7.939  2.2244  1.5188  0.1734
 7082SOL     OW32881   0.077   1.905   6.269  0.0822  0.7329 -0.1745
 7082SOL    HW132882   0.002   1.934   6.321  1.2393  0.8709  1.4382
 7082SOL    HW232883   0.103   1.831   6.325 -0.7190  0.1840 -0.5328
 7083SOL     OW32884   0.675   1.635  10.647  0.2515  0.5935  0.5234
 7083SOL    HW132885   0.636   1.548  10.645  0.8774  0.2722  2.5590
 7083SOL    HW232886   0.624   1.675  10.717  0.6094 -0.1881  1.2249
 7084SOL     OW32887   4.480   3.348   2.466  0.3458  0.0734  0.3150
 7084SOL    HW132888   4.492   3.253   2.469  0.1676  0.0580  0.5385
 7084SOL    HW232889   4.529   3.374   2.544 -2.9301 -0.6358  2.5911
 7085SOL     OW32890   1.054   2.809   1.288  0.6106  0.5080  0.2378
 7085SOL    HW132891   1.008   2.751   1.349  1.8730  0.1277  0.8503
 7085SOL    HW232892   0.993   2.881   1.274 -0.2080  0.1528  1.9727
 7086SOL     OW32893   1.342   0.574   9.743  0.0242  0.0146 -0.2923
 7086SOL    HW132894   1.281   0.631   9.790 -2.5587 -2.8955 -0.1780
 7086SOL    HW232895   1.394   0.644   9.703  1.2574 -0.6520  0.1214
 7087SOL     OW32896   3.273   1.138   0.012  0.5533  0.1959 -0.1464
 7087SOL    HW132897   3.289   1.102  17.682  0.9762  0.2714 -0.1002
 7087SOL    HW232898   3.226   1.217  17.740 -0.2738  0.5749  2.1849
 7088SOL     OW32899   2.360   4.537   8.076  0.0427 -0.5608  0.9910
 7088SOL    HW132900   2.373   4.442   8.079 -0.3420 -0.6764 -0.9832
 7088SOL    HW232901   2.347   4.571   8.165 -0.9895  2.0301 -0.1661
 7089SOL     OW32902   2.265   2.956  13.026 -0.5160 -0.0618 -0.0757
 7089SOL    HW132903   2.322   2.989  13.095 -2.0461 -1.4761  1.8718
 7089SOL    HW232904   2.192   3.017  13.041 -1.5825 -0.6507 -2.7902
 7090SOL     OW32905   3.307   2.361   8.944 -0.0323 -0.1895  0.1866
 7090SOL    HW132906   3.292   2.414   8.866 -1.0067 -2.5588 -1.2427
 7090SOL    HW232907   3.393   2.326   8.921 -0.1143 -0.7560  0.7424
 7091SOL     OW32908   4.524   4.425   2.881 -0.5401 -0.0759 -0.5439
 7091SOL    HW132909   4.617   4.444   2.895 -1.0073  3.1287 -1.7296
 7091SOL    HW232910   4.484   4.470   2.956 -1.8410  1.7590 -2.3609
 7092SOL     OW32911   3.480   4.129   7.096  0.3449 -0.0701  0.5235
 7092SOL    HW132912   3.574   4.139   7.080  0.2397  0.6422  0.3538
 7092SOL    HW232913   3.455   4.208   7.142 -2.4654 -1.4933  1.4149
 7093SOL     OW32914   3.001   3.505  10.214  0.5851  0.0558 -0.0067
 7093SOL    HW132915   2.941   3.548  10.154  0.1346  1.6702  1.6184
 7093SOL    HW232916   3.065   3.497  10.143  0.8070  2.4164 -0.0665
 7094SOL     OW32917   0.461   0.571  14.672 -0.4046 -0.2696 -0.5846
 7094SOL    HW132918   0.389   0.634  14.674  0.3100  0.5970 -1.7235
 7094SOL    HW232919   0.409   0.491  14.681 -0.0023 -0.4641 -0.0299
 7095SOL     OW32920   1.785   1.977   3.478 -0.4229 -0.2857 -0.1571
 7095SOL    HW132921   1.772   2.070   3.496  0.7592 -0.3359  0.9267
 7095SOL    HW232922   1.878   1.976   3.500 -0.9903  0.1770  2.2058
 7096SOL     OW32923   3.493   0.337   9.458 -0.4305 -0.0820 -0.0246
 7096SOL    HW132924   3.440   0.303   9.529  0.6956  1.1698  1.4181
 7096SOL    HW232925   3.562   0.271   9.467  0.4452  0.8568  0.1671
 7097SOL     OW32926   3.125   4.629   3.496 -0.7019  0.3858 -0.9552
 7097SOL    HW132927   3.113   4.588   3.582 -2.1487 -0.0511 -1.3722
 7097SOL    HW232928   3.220   4.623   3.497 -0.8142 -1.2453  1.1118
 7098SOL     OW32929   4.074   3.318   7.859  0.0625 -0.3337 -0.0684
 7098SOL    HW132930   3.987   3.279   7.870 -0.6229  0.7947 -1.6157
 7098SOL    HW232931   4.122   3.237   7.875 -0.1880 -1.1770 -3.6630
 7099SOL     OW32932   4.412   1.806   4.592  0.4092  0.0713 -0.1692
 7099SOL    HW132933   4.370   1.868   4.532 -0.8594  0.7384  1.3925
 7099SOL    HW232934   4.404   1.727   4.538  2.7895 -0.1505 -0.1725
 7100SOL     OW32935   2.959   1.494   9.022  1.0376 -0.1869  0.1629
 7100SOL    HW132936   3.004   1.578   9.016  1.2360 -0.3879 -1.2772
 7100SOL    HW232937   2.932   1.475   8.932  1.0969 -1.3955  0.3989
 7101SOL     OW32938   4.331   3.805  17.484  0.3788  0.1766 -0.1763
 7101SOL    HW132939   4.406   3.852  17.447 -1.7139  2.4616 -1.4586
 7101SOL    HW232940   4.316   3.739  17.417 -0.7523  0.0005  0.2500
 7102SOL     OW32941   2.904   4.325   6.803 -0.5910 -0.1254  0.0095
 7102SOL    HW132942   2.912   4.390   6.873 -1.4655  0.0476 -0.0526
 7102SOL    HW232943   2.810   4.320   6.784 -0.2645 -0.1552 -1.6355
 7103SOL     OW32944   3.717   4.571   7.180  0.2301  0.0228  0.5222
 7103SOL    HW132945   3.727   4.502   7.246  0.5718  1.7667  2.2889
 7103SOL    HW232946   3.713   4.649   7.236  1.0659 -0.6286  1.4862
 7104SOL     OW32947   1.051   4.219   2.238 -0.0814  0.3351 -0.2099
 7104SOL    HW132948   1.140   4.186   2.229 -0.2155  0.5924 -2.4321
 7104SOL    HW232949   1.025   4.164   2.312  1.5222 -0.8048 -0.5223
 7105SOL     OW32950   1.340   3.353   3.854  0.1377  0.1214 -0.4140
 7105SOL    HW132951   1.433   3.367   3.839 -0.0442 -0.0842 -1.7024
 7105SOL    HW232952   1.325   3.339   3.761 -0.8245 -2.2069  0.0852
 7106SOL     OW32953   0.494   0.206   7.598 -0.4259  0.3942  0.1561
 7106SOL    HW132954   0.460   0.284   7.642  1.2824 -0.4044  2.8613
 7106SOL    HW232955   0.452   0.130   7.637 -1.3453  0.7897 -0.0631
 7107SOL     OW32956   3.402   0.142   3.997  0.2265  0.5426 -0.0244
 7107SOL    HW132957   3.378   0.192   3.919  2.7431 -1.0472 -1.8077
 7107SOL    HW232958   3.342   0.178   4.063  0.7990  0.8680  0.3146
 7108SOL     OW32959   0.209   3.761   7.596  0.0128  0.3247 -0.9531
 7108SOL    HW132960   0.168   3.676   7.582 -1.1502  0.8866 -0.8776
 7108SOL    HW232961   0.259   3.778   7.516  1.7127  1.7822  0.4307
 7109SOL     OW32962   3.631   0.404  12.393 -0.2429 -0.3164 -0.3068
 7109SOL    HW132963   3.704   0.394  12.454 -1.0213 -1.1704  0.4893
 7109SOL    HW232964   3.558   0.427  12.451  0.9557  3.9808 -0.5294
 7110SOL     OW32965   3.944   0.483  11.000  0.0654 -0.0314 -0.1570
 7110SOL    HW132966   3.857   0.456  11.030 -0.6674  0.4401 -1.8460
 7110SOL    HW232967   3.990   0.477  11.083  0.2497 -0.6329 -0.3064
 7111SOL     OW32968   0.073   3.205   3.274  0.9991 -0.4777  0.6822
 7111SOL    HW132969   0.045   3.175   3.188 -3.4327  1.4841  1.4454
 7111SOL    HW232970   0.000   3.266   3.286  0.8223 -0.9064  1.8267
 7112SOL     OW32971   1.785   0.823   5.814 -0.2361  0.5631  0.8034
 7112SOL    HW132972   1.833   0.833   5.896 -0.9690  1.2055  1.1499
 7112SOL    HW232973   1.717   0.760   5.837 -0.0800 -0.0966 -0.5765
 7113SOL     OW32974   0.356   1.024  11.166 -0.0130 -0.5988  0.1931
 7113SOL    HW132975   0.358   1.020  11.071 -0.2458 -0.3026  0.1761
 7113SOL    HW232976   0.417   1.095  11.184 -0.4821  0.1179 -1.0453
 7114SOL     OW32977   1.627   1.250   9.221  0.2610  0.4451 -0.1528
 7114SOL    HW132978   1.690   1.178   9.212 -0.5092 -0.0357 -1.5287
 7114SOL    HW232979   1.640   1.259   9.316 -0.3523 -0.0561 -0.0186
 7115SOL     OW32980   3.929   3.587   4.919 -0.5563 -0.1316 -0.5556
 7115SOL    HW132981   3.973   3.509   4.885  2.1541  0.9190  0.5399
 7115SOL    HW232982   3.943   3.650   4.849 -1.0400  0.3071 -0.2557
 7116SOL     OW32983   0.813   2.508  16.721  0.0277  0.4561  0.0271
 7116SOL    HW132984   0.799   2.558  16.801  1.7049  0.4176  0.3476
 7116SOL    HW232985   0.768   2.426  16.743  0.8333 -0.2614 -1.0144
 7117SOL     OW32986   0.464   3.899   0.007 -0.3042  0.1443 -0.0510
 7117SOL    HW132987   0.554   3.929   0.017 -0.4649  0.3882  0.6347
 7117SOL    HW232988   0.473   3.805  17.751 -0.4914  0.3924 -1.9704
 7118SOL     OW32989   1.602   4.545  13.308  0.3875  0.4902 -0.2844
 7118SOL    HW132990   1.511   4.573  13.318 -0.3203 -1.8421 -0.3195
 7118SOL    HW232991   1.612   4.481  13.378  1.1587  0.3486 -0.5261
 7119SOL     OW32992   1.936   4.351   1.114  0.2419  0.1460  0.0709
 7119SOL    HW132993   1.896   4.421   1.165  0.8589  0.3045  0.3282
 7119SOL    HW232994   2.030   4.355   1.128 -0.0943  1.6135  1.9164
 7120SOL     OW32995   3.839   3.867   5.554  0.9004  0.0270 -0.2130
 7120SOL    HW132996   3.929   3.844   5.574  0.9625  0.4900  0.0265
 7120SOL    HW232997   3.814   3.922   5.628 -0.7158 -2.4752  1.1024
 7121SOL     OW32998   4.115   0.263   2.003  0.3837 -0.1041  0.1711
 7121SOL    HW132999   4.192   0.216   2.036  1.5052 -0.0335 -2.3596
 7121SOL    HW233000   4.151   0.289   1.919  0.9639 -2.7736 -0.4094
 7122SOL     OW33001   1.782   4.023   6.009  0.3547  0.2544 -0.7179
 7122SOL    HW133002   1.846   4.008   6.078 -1.2017 -0.8070  0.4884
 7122SOL    HW233003   1.779   4.118   6.001  1.1371  0.5113  2.2635
 7123SOL     OW33004   0.594   0.135   4.694 -0.1000  0.1696  0.5880
 7123SOL    HW133005   0.667   0.189   4.664  0.1600 -0.0261  0.8582
 7123SOL    HW233006   0.582   0.077   4.619 -1.2924  2.9511 -1.3607
 7124SOL     OW33007   3.673   3.735   4.315  0.0868 -0.1292 -0.4033
 7124SOL    HW133008   3.608   3.795   4.278  0.9866  0.1606 -1.5245
 7124SOL    HW233009   3.684   3.779   4.399  3.3315 -0.4611 -0.6286
 7125SOL     OW33010   3.935   0.676  14.703 -0.8134 -0.1332  0.7279
 7125SOL    HW133011   4.003   0.733  14.740  0.5901 -1.8723  0.8355
 7125SOL    HW233012   3.919   0.718  14.619 -1.2502 -2.0859 -0.1706
 7126SOL     OW33013   1.346   1.021   0.965 -0.4231  0.1163  0.1521
 7126SOL    HW133014   1.289   1.040   0.890  0.6266  0.5814 -0.5292
 7126SOL    HW233015   1.323   0.929   0.977 -0.7187  0.3365  1.2565
 7127SOL     OW33016   3.544   4.209   1.254  0.2756  0.2914 -0.6115
 7127SOL    HW133017   3.610   4.278   1.249  2.2748 -1.6461 -0.8417
 7127SOL    HW233018   3.494   4.232   1.175  1.4612 -0.4217 -1.5748
 7128SOL     OW33019   1.818   0.186   1.938 -0.7364 -0.7561  0.1756
 7128SOL    HW133020   1.806   0.260   1.879  3.8367 -1.3039 -1.4153
 7128SOL    HW233021   1.794   0.234   2.018  1.3746  0.3900  0.1021
 7129SOL     OW33022   1.698   0.208   4.311 -0.1015 -0.1454 -0.4792
 7129SOL    HW133023   1.668   0.250   4.391  0.7742 -0.5464  0.0579
 7129SOL    HW233024   1.666   0.118   4.318 -1.8714  0.5596  0.6555
 7130SOL     OW33025   1.342   1.798  17.445 -0.1402  0.1157  0.0740
 7130SOL    HW133026   1.283   1.843  17.384 -0.1909 -0.4634 -0.2982
 7130SOL    HW233027   1.292   1.726  17.481  1.3114 -2.4980 -3.1135
 7131SOL     OW33028   2.546   0.491  13.021  0.4691  0.1255 -0.2694
 7131SOL    HW133029   2.510   0.552  12.956  1.9012  0.2252 -0.9755
 7131SOL    HW233030   2.556   0.554  13.092 -0.4722  0.4137 -0.3936
 7132SOL     OW33031   2.736   2.952   8.255 -0.3682  0.1923  0.1995
 7132SOL    HW133032   2.745   3.044   8.230 -3.0383  0.7501  1.3571
 7132SOL    HW233033   2.788   2.945   8.335 -0.0287  2.5860  0.1783
 7133SOL     OW33034   2.252   3.665   2.430 -0.3351  0.0707  0.0234
 7133SOL    HW133035   2.164   3.678   2.466 -0.6832 -0.0902 -0.7692
 7133SOL    HW233036   2.254   3.746   2.380  1.7403 -0.0778 -0.0967
 7134SOL     OW33037   0.481   1.800   2.556 -0.4156 -0.8135 -0.5373
 7134SOL    HW133038   0.565   1.831   2.523 -1.1094  3.2082  1.3927
 7134SOL    HW233039   0.492   1.713   2.594 -2.8509 -1.0744 -0.3768
 7135SOL     OW33040   0.657   4.065   8.154  0.5363 -0.3805 -0.4551
 7135SOL    HW133041   0.737   4.038   8.110  0.0322 -0.3499 -1.4016
 7135SOL    HW233042   0.678   4.092   8.244 -1.4665  1.7680 -0.6223
 7136SOL     OW33043   2.745   3.884   9.370 -0.4277  0.5447 -0.6223
 7136SOL    HW133044   2.778   3.974   9.368 -1.2567  0.8242 -1.4599
 7136SOL    HW233045   2.651   3.902   9.371 -0.3449  1.0358 -2.2608
 7137SOL     OW33046   1.366   4.024  14.869 -0.5294 -0.3967 -0.2015
 7137SOL    HW133047   1.409   4.094  14.819 -0.8805 -0.6764 -0.8853
 7137SOL    HW233048   1.448   3.985  14.900 -1.0722 -1.4809 -0.1382
 7138SOL     OW33049   0.577   1.550  13.530 -0.1125  0.0888  0.4623
 7138SOL    HW133050   0.543   1.616  13.470  3.0103  1.7851  0.5290
 7138SOL    HW233051   0.628   1.496  13.470 -1.9243 -1.2068  0.1006
 7139SOL     OW33052   4.549   4.130   9.099  0.2462  0.1213  0.4849
 7139SOL    HW133053   4.502   4.082   9.167  1.9362  1.4859  2.6041
 7139SOL    HW233054   4.631   4.137   9.147 -0.0676  1.4877  0.8163
 7140SOL     OW33055   0.749   0.415   3.466  0.4946 -0.7236 -0.1161
 7140SOL    HW133056   0.670   0.457   3.431  1.0334  0.0506 -0.3968
 7140SOL    HW233057   0.819   0.475   3.442 -0.5503  0.4800 -0.1654
 7141SOL     OW33058   1.748   0.174  15.485  0.0860 -0.1739  0.1409
 7141SOL    HW133059   1.708   0.222  15.558 -2.5503  0.4954 -1.7439
 7141SOL    HW233060   1.695   0.095  15.482 -1.4743  0.8604  0.3375
 7142SOL     OW33061   0.643   0.182   3.181 -0.4330 -0.2651 -0.7008
 7142SOL    HW133062   0.609   0.202   3.094 -1.2645  2.0560  0.1352
 7142SOL    HW233063   0.737   0.171   3.168 -0.0097  0.9843  1.2023
 7143SOL     OW33064   1.705   2.117   8.466 -0.0078  0.2674 -0.3171
 7143SOL    HW133065   1.730   2.084   8.552  0.7893  2.5888  0.3440
 7143SOL    HW233066   1.784   2.167   8.446 -1.2587  1.9911 -0.9599
 7144SOL     OW33067   1.000   3.999   1.723 -0.4231  0.0216  0.4893
 7144SOL    HW133068   1.029   4.074   1.773 -0.2272  0.2521  0.0283
 7144SOL    HW233069   1.078   3.944   1.714 -0.4204 -0.1149  1.3031
 7145SOL     OW33070   0.626   3.656   6.176  0.2327  0.4012 -0.1419
 7145SOL    HW133071   0.663   3.712   6.244 -2.5272  0.3299  1.4463
 7145SOL    HW233072   0.563   3.605   6.227 -0.5659 -0.8924 -2.4409
 7146SOL     OW33073   3.333   3.954  16.330 -0.0257  0.2745  0.0733
 7146SOL    HW133074   3.281   4.010  16.388 -1.1860 -1.0199  0.2843
 7146SOL    HW233075   3.278   3.876  16.334  1.3319 -0.6334  1.0024
 7147SOL     OW33076   2.982   3.827   4.456 -0.0448  0.5389  0.3980
 7147SOL    HW133077   2.968   3.762   4.526  0.0069  1.4941  1.2866
 7147SOL    HW233078   2.897   3.855   4.423  0.8208  0.9039 -1.5200
 7148SOL     OW33079   3.603   1.466   3.502 -0.0866  0.0923 -0.1361
 7148SOL    HW133080   3.576   1.374   3.508 -0.6858  0.1954 -1.3927
 7148SOL    HW233081   3.614   1.483   3.596  1.2398 -0.3604 -0.2129
 7149SOL     OW33082   0.894   3.839   3.184  0.1866 -0.7510  0.2033
 7149SOL    HW133083   0.953   3.860   3.256  0.2828  0.0192 -0.0981
 7149SOL    HW233084   0.827   3.904   3.206 -0.1895 -1.0127 -0.1728
 7150SOL     OW33085   3.617   4.649   2.506 -0.6512 -0.3239 -0.2684
 7150SOL    HW133086   3.684   4.695   2.455 -0.6577 -0.5634 -0.4901
 7150SOL    HW233087   3.586   4.728   2.550 -1.6474 -1.3643  0.8815
 7151SOL     OW33088   1.725   3.457   3.595 -0.0346 -0.2137  0.3779
 7151SOL    HW133089   1.678   3.503   3.525  0.6649 -0.9283 -0.5727
 7151SOL    HW233090   1.807   3.507   3.589  0.0356 -0.4148 -0.3445
 7152SOL     OW33091   0.406   2.792   4.153 -0.3506  0.6609 -0.3220
 7152SOL    HW133092   0.490   2.833   4.131  0.3445  0.0808  1.2171
 7152SOL    HW233093   0.382   2.758   4.067  1.0731 -1.1658 -0.0040
 7153SOL     OW33094   1.736   2.430  16.795 -0.5550 -0.5998 -0.0609
 7153SOL    HW133095   1.775   2.511  16.762 -2.1723 -0.0641 -0.6984
 7153SOL    HW233096   1.811   2.372  16.794  0.0267  0.1356  0.6297
 7154SOL     OW33097   3.227   1.439   6.120 -0.0996 -0.5714 -0.1242
 7154SOL    HW133098   3.202   1.409   6.207 -0.7775  0.8956  0.1787
 7154SOL    HW233099   3.220   1.360   6.066  0.0631 -1.1102  0.6544
 7155SOL     OW33100   4.189   1.751   7.917  0.1450 -0.5065 -0.1363
 7155SOL    HW133101   4.183   1.657   7.897 -0.0643 -1.2150  3.2584
 7155SOL    HW233102   4.284   1.759   7.924  0.0145  1.3752 -0.4788
 7156SOL     OW33103   1.060   0.134   7.952 -0.0806 -0.1883 -0.6268
 7156SOL    HW133104   0.974   0.099   7.974 -1.0174  2.2546 -0.5419
 7156SOL    HW233105   1.047   0.161   7.861 -3.5286 -0.1744 -0.1054
 7157SOL     OW33106   4.509   2.017   0.140  0.0639 -0.2698  0.0294
 7157SOL    HW133107   4.595   1.977   0.126 -0.4298 -0.5357 -2.1929
 7157SOL    HW233108   4.536   2.073   0.213  1.6222 -2.9754  1.5678
 7158SOL     OW33109   3.902   1.930   7.214  0.1781  0.2886 -0.5613
 7158SOL    HW133110   3.836   1.903   7.278  1.2448  0.3588  0.5681
 7158SOL    HW233111   3.965   1.858   7.210  0.0836  0.2032 -0.4837
 7159SOL     OW33112   3.575   1.294  16.402 -0.0501 -0.0848  0.3662
 7159SOL    HW133113   3.517   1.227  16.367  2.9260 -1.5027 -1.8291
 7159SOL    HW233114   3.547   1.368  16.349 -2.3406 -2.8000 -2.1772
 7160SOL     OW33115   1.644   3.466  13.375 -0.0853  0.0858  0.4459
 7160SOL    HW133116   1.562   3.504  13.342  0.2160  2.0554  1.9350
 7160SOL    HW233117   1.708   3.537  13.380  0.9379 -0.8624  0.7270
 7161SOL     OW33118   4.132   1.524   3.250 -0.0605  0.2937  0.0362
 7161SOL    HW133119   4.089   1.544   3.333  0.3212  1.3726 -0.0314
 7161SOL    HW233120   4.068   1.564   3.191  1.6002  0.2065 -1.7948
 7162SOL     OW33121   2.918   3.206   9.771  0.3487 -0.8578  0.4536
 7162SOL    HW133122   2.890   3.256   9.695  2.6984 -3.1195 -1.8838
 7162SOL    HW233123   2.869   3.124   9.763 -1.7654  0.2772  1.7412
 7163SOL     OW33124   4.257   1.255  16.470  0.3045 -0.0273 -0.5341
 7163SOL    HW133125   4.235   1.297  16.387 -2.6418 -0.0556  0.2371
 7163SOL    HW233126   4.183   1.194  16.475 -0.1562  0.5838  0.1721
 7164SOL     OW33127   3.518   3.962   5.139  0.6929  0.6135  0.3387
 7164SOL    HW133128   3.452   4.031   5.149  0.1521  0.5843 -2.9319
 7164SOL    HW233129   3.566   3.988   5.060 -0.7151  1.3238 -0.2782
 7165SOL     OW33130   0.440   3.629   8.785 -0.1240  0.1023 -0.0353
 7165SOL    HW133131   0.396   3.584   8.713  1.1031  0.1045 -0.7988
 7165SOL    HW233132   0.424   3.719   8.758 -0.6223 -0.4156 -1.4711
 7166SOL     OW33133   0.710   4.282   6.740 -0.3029 -0.2027 -0.3621
 7166SOL    HW133134   0.630   4.329   6.716 -0.0805  0.4160  0.1064
 7166SOL    HW233135   0.682   4.199   6.700 -0.2036 -0.2704 -0.2908
 7167SOL     OW33136   3.937   1.232   6.376  0.2678  0.3575  0.2996
 7167SOL    HW133137   3.968   1.321   6.359  2.6347 -0.5314 -0.0371
 7167SOL    HW233138   4.013   1.191   6.334  0.0393 -1.9496  2.1638
 7168SOL     OW33139   0.412   4.364   8.163  0.4877 -0.1545 -0.1213
 7168SOL    HW133140   0.411   4.282   8.112 -0.8741  0.0272 -0.3865
 7168SOL    HW233141   0.506   4.370   8.180  0.2357  1.4353  0.6870
 7169SOL     OW33142   2.402   1.760   5.822 -0.0610 -0.5620 -0.1656
 7169SOL    HW133143   2.497   1.748   5.821  0.0606  0.3657  0.8367
 7169SOL    HW233144   2.380   1.817   5.748 -1.8259 -1.3792 -0.2774
 7170SOL     OW33145   2.618   4.296   9.265 -0.1551 -0.4056  0.4764
 7170SOL    HW133146   2.585   4.336   9.345 -2.8883 -0.2337 -0.7268
 7170SOL    HW233147   2.711   4.281   9.279  0.6486  1.7084 -2.4573
 7171SOL     OW33148   3.756   2.360   3.461 -0.0977 -0.6371 -0.4125
 7171SOL    HW133149   3.746   2.450   3.490 -1.3866 -0.9725  0.1762
 7171SOL    HW233150   3.762   2.374   3.366 -1.5550  2.4974 -0.0348
 7172SOL     OW33151   4.246   0.692   8.222  0.3298  0.4167  0.1336
 7172SOL    HW133152   4.274   0.784   8.218  0.6272  0.3351  0.3853
 7172SOL    HW233153   4.153   0.702   8.244  0.7590 -0.0663  2.2490
 7173SOL     OW33154   0.501   0.518   2.137  0.1842  0.4172  0.7417
 7173SOL    HW133155   0.595   0.500   2.128 -0.3807 -2.2091  0.0111
 7173SOL    HW233156   0.506   0.606   2.172 -2.3986  0.0551  2.0030
 7174SOL     OW33157   3.537   1.877   0.601 -0.4712  0.5209 -0.6026
 7174SOL    HW133158   3.516   1.955   0.653  0.8149  0.7440 -0.4246
 7174SOL    HW233159   3.569   1.816   0.667  1.9449  1.5565 -0.8070
 7175SOL     OW33160   2.511   1.408   6.766  0.1437  0.0947  0.3646
 7175SOL    HW133161   2.605   1.396   6.753 -0.1984  1.0197 -2.9052
 7175SOL    HW233162   2.478   1.328   6.807 -1.0683  0.5642  0.3034
 7176SOL     OW33163   4.130   4.482   9.684  0.3004  0.4271 -0.2594
 7176SOL    HW133164   4.040   4.449   9.678 -0.3739  2.5322 -2.0107
 7176SOL    HW233165   4.169   4.421   9.623  1.0220  1.2344 -0.6025
 7177SOL     OW33166   0.729   3.458   8.434  0.1834 -0.6156 -0.2070
 7177SOL    HW133167   0.811   3.483   8.475  0.3611  1.2801 -1.6928
 7177SOL    HW233168   0.668   3.529   8.453 -0.0196 -0.7370 -0.3985
 7178SOL     OW33169   1.856   3.670  16.320  0.4163 -0.2636 -0.5630
 7178SOL    HW133170   1.768   3.695  16.295  1.5033  0.6742 -3.4706
 7178SOL    HW233171   1.904   3.665  16.237  0.9822 -0.9386 -0.2024
 7179SOL     OW33172   2.414   3.366   3.808  0.1058  0.0805  0.0483
 7179SOL    HW133173   2.450   3.385   3.721 -1.7480  1.4724 -0.4192
 7179SOL    HW233174   2.468   3.423   3.863 -1.4683  0.0971  1.5783
 7180SOL     OW33175   1.383   3.607  16.847 -0.1273  0.6032 -0.1671
 7180SOL    HW133176   1.369   3.594  16.753  0.2828  0.8333 -0.2589
 7180SOL    HW233177   1.478   3.610  16.861 -0.1873  1.2438  0.0957
 7181SOL     OW33178   1.704   1.627   6.189 -0.3802 -0.0878  0.3515
 7181SOL    HW133179   1.700   1.657   6.098 -1.6706  0.2853  0.5361
 7181SOL    HW233180   1.728   1.534   6.183 -0.7049 -0.1978  0.7531
 7182SOL     OW33181   4.545   2.113  13.276  0.2484  0.3138 -0.5517
 7182SOL    HW133182   4.544   2.147  13.365 -2.0296 -1.6482  0.1643
 7182SOL    HW233183   4.564   2.021  13.293 -0.0692  0.4827  0.7420
 7183SOL     OW33184   3.399   2.495  12.517 -0.4449  0.4320 -0.1090
 7183SOL    HW133185   3.321   2.439  12.520  0.9151 -1.7079 -3.4216
 7183SOL    HW233186   3.464   2.454  12.574  0.1186  1.3968 -0.0566
 7184SOL     OW33187   0.387   1.885  16.739 -0.4177  0.2484 -0.3147
 7184SOL    HW133188   0.384   1.796  16.775  1.0447  0.3096 -0.0133
 7184SOL    HW233189   0.369   1.862  16.648 -0.4157  1.3509 -0.5936
 7185SOL     OW33190   3.040   1.542   9.331 -0.4744 -0.4144  0.2807
 7185SOL    HW133191   3.044   1.517   9.238 -1.5545 -0.1812  0.1693
 7185SOL    HW233192   2.994   1.625   9.322 -0.9124 -0.5349  1.4656
 7186SOL     OW33193   2.700   3.393   5.842 -0.1437 -0.6290 -0.1624
 7186SOL    HW133194   2.697   3.354   5.754  1.6275 -2.0615  0.4181
 7186SOL    HW233195   2.696   3.486   5.817 -1.1976 -0.3116  1.2117
 7187SOL     OW33196   0.186   4.034   2.032 -0.2932  0.1668 -0.1138
 7187SOL    HW133197   0.163   3.946   2.005  2.0639 -0.6094  0.4272
 7187SOL    HW233198   0.270   4.044   1.987 -0.3725  0.8170 -0.1217
 7188SOL     OW33199   3.083   0.478   7.567 -0.1559 -0.0778  0.0661
 7188SOL    HW133200   3.136   0.547   7.609 -0.1633  0.0825 -0.1894
 7188SOL    HW233201   3.073   0.401   7.622  1.4031 -1.6257 -1.8297
 7189SOL     OW33202   4.662   3.160   4.107  0.1125 -0.1533  0.0567
 7189SOL    HW133203   4.687   3.242   4.066  0.3535 -1.1848 -1.8556
 7189SOL    HW233204   4.735   3.100   4.094  0.4925  0.0095  1.3977
 7190SOL     OW33205   0.383   1.529  13.752  0.2116  0.6661 -0.3567
 7190SOL    HW133206   0.372   1.435  13.734  3.3745  0.5092 -1.3652
 7190SOL    HW233207   0.449   1.544  13.685  0.9121  1.2391  0.4708
 7191SOL     OW33208   2.192   1.071   1.854  0.0204 -0.9270 -0.0969
 7191SOL    HW133209   2.155   1.048   1.939 -0.7303  1.8418  0.3164
 7191SOL    HW233210   2.171   1.165   1.855 -0.2729 -0.9892 -0.1764
 7192SOL     OW33211   2.288   2.523   4.010  0.1828 -0.7532 -0.1748
 7192SOL    HW133212   2.315   2.566   3.929  0.5443 -0.0427  0.3269
 7192SOL    HW233213   2.193   2.522   3.997  0.2815  1.1438 -0.9262
 7193SOL     OW33214   4.023   3.603   7.653  0.0244 -0.1888 -0.0023
 7193SOL    HW133215   3.958   3.672   7.644 -1.3298 -1.3850  0.7422
 7193SOL    HW233216   3.964   3.538   7.691  0.1401  0.0551  0.5942
 7194SOL     OW33217   2.668   2.243   1.933  0.5351 -0.6959 -0.0462
 7194SOL    HW133218   2.581   2.257   1.971 -0.2048 -3.5692 -0.6203
 7194SOL    HW233219   2.646   2.220   1.842  1.5379 -0.8983 -0.2369
 7195SOL     OW33220   3.443   2.977   7.363 -0.0791 -0.0936  0.4378
 7195SOL    HW133221   3.374   3.023   7.315  1.4435  0.6648 -1.0290
 7195SOL    HW233222   3.518   3.012   7.314 -1.4689 -0.8806 -2.2344
 7196SOL     OW33223   2.372   1.793   0.361 -0.3082 -0.0505 -0.4138
 7196SOL    HW133224   2.326   1.734   0.421  1.4865 -0.0485  0.9814
 7196SOL    HW233225   2.295   1.847   0.343  1.0801  1.4181 -1.8423
 7197SOL     OW33226   2.540   0.811  17.170 -0.2910  0.3506 -1.2192
 7197SOL    HW133227   2.520   0.776  17.258 -2.2174  0.6889 -1.5187
 7197SOL    HW233228   2.501   0.897  17.182 -0.5655  0.8518 -5.8162
 7198SOL     OW33229   0.791   3.288  13.323 -0.2351  0.1276  0.2416
 7198SOL    HW133230   0.727   3.256  13.386 -0.3526 -1.7544 -0.8115
 7198SOL    HW233231   0.875   3.290  13.370  0.0791 -0.5747 -0.2917
 7199SOL     OW33232   4.615   3.760  11.873  0.3631 -0.1617 -0.3194
 7199SOL    HW133233   4.649   3.849  11.864  0.2665 -0.1880 -0.9152
 7199SOL    HW233234   4.529   3.776  11.911  0.9065  0.9640  0.4420
 7200SOL     OW33235   2.635   0.778   2.055  0.3011  0.2298  0.2846
 7200SOL    HW133236   2.627   0.684   2.071  1.0985  0.0073 -0.6168
 7200SOL    HW233237   2.553   0.802   2.011  0.3302  1.0842  0.7016
 7201SOL     OW33238   2.286   0.137  13.697  0.4377 -0.4739 -0.2218
 7201SOL    HW133239   2.296   0.165  13.605 -0.9301  0.4434 -0.0818
 7201SOL    HW233240   2.340   0.200  13.745 -1.5676  1.0948 -0.0624
 7202SOL     OW33241   4.561   0.913   4.023  0.1885  0.2640  0.3263
 7202SOL    HW133242   4.530   0.992   4.068 -0.2293  0.8656 -1.0135
 7202SOL    HW233243   4.595   0.965   3.950  0.2522 -0.5920 -0.2461
 7203SOL     OW33244   2.409   1.282   6.173 -0.0081  0.0916  0.1054
 7203SOL    HW133245   2.448   1.196   6.160  0.4570  0.5973 -1.8018
 7203SOL    HW233246   2.324   1.264   6.133  1.2131 -2.4127 -1.3513
 7204SOL     OW33247   4.071   1.967   4.896 -0.1344  0.1667 -0.0733
 7204SOL    HW133248   4.009   1.909   4.939  0.1597  0.1156  0.2869
 7204SOL    HW233249   4.138   1.898   4.898 -2.5924 -2.2276 -0.5580
 7205SOL     OW33250   1.055   1.303   3.726 -0.7561 -0.1849 -0.7556
 7205SOL    HW133251   0.989   1.272   3.663  1.0100 -3.0145 -1.2104
 7205SOL    HW233252   1.008   1.285   3.807 -1.1688 -2.7253 -1.5472
 7206SOL     OW33253   1.292   1.981   8.170  0.6305 -0.3070 -0.4444
 7206SOL    HW133254   1.266   1.902   8.217  1.2623  0.2836  0.9252
 7206SOL    HW233255   1.377   2.000   8.209  0.7669 -0.5669 -0.6232
 7207SOL     OW33256   0.560   3.523   9.023  0.8453 -0.1223 -0.1713
 7207SOL    HW133257   0.512   3.537   8.941  0.4906  1.6898  0.3456
 7207SOL    HW233258   0.615   3.452   8.988  1.3353  0.0285  0.3005
 7208SOL     OW33259   2.312   3.352  16.049  0.8412 -0.0544  0.1644
 7208SOL    HW133260   2.303   3.414  15.976  0.3550  1.3976  1.4415
 7208SOL    HW233261   2.295   3.410  16.124  0.1099  0.3402 -0.2979
 7209SOL     OW33262   1.426   2.814  17.437  0.4509 -0.2324 -0.4266
 7209SOL    HW133263   1.425   2.795  17.343 -0.7082  1.3285 -0.7224
 7209SOL    HW233264   1.336   2.842  17.455  0.1110 -1.8682  0.4340
 7210SOL     OW33265   2.199   2.548   3.448 -0.1049  0.1420  0.2278
 7210SOL    HW133266   2.235   2.473   3.400 -1.2845  0.0590 -0.5370
 7210SOL    HW233267   2.234   2.614   3.389  0.8870 -0.6266 -0.0584
 7211SOL     OW33268   3.701   1.805   3.956  0.1787 -0.2017  0.1545
 7211SOL    HW133269   3.696   1.868   4.029  0.1148  0.6619 -0.5898
 7211SOL    HW233270   3.787   1.834   3.925 -0.0819 -0.1272 -0.4878
 7212SOL     OW33271   3.843   1.788  17.109 -0.2537 -0.5756  0.0062
 7212SOL    HW133272   3.817   1.823  17.024  0.5565 -1.8070 -0.7513
 7212SOL    HW233273   3.913   1.850  17.131  1.5129 -2.8563  0.8626
 7213SOL     OW33274   1.926   4.516   7.728  0.1207 -0.3855  0.1740
 7213SOL    HW133275   1.917   4.515   7.823  2.2254 -0.8325  0.3723
 7213SOL    HW233276   1.841   4.483   7.700  0.7045 -1.1780 -0.6537
 7214SOL     OW33277   2.050   4.381   3.113 -0.2565 -0.0505  0.7240
 7214SOL    HW133278   2.055   4.339   3.027  0.5178 -0.2141  0.8488
 7214SOL    HW233279   2.034   4.468   3.076  1.6782 -0.5582 -1.3723
 7215SOL     OW33280   0.636   3.043   0.477  0.1656  0.4135 -0.5925
 7215SOL    HW133281   0.556   3.091   0.457 -0.3846 -0.0765  0.4181
 7215SOL    HW233282   0.622   3.012   0.566 -1.0010 -1.8681 -1.5774
 7216SOL     OW33283   1.526   0.937   8.398 -0.3154  0.0114  0.1703
 7216SOL    HW133284   1.614   0.920   8.367 -0.6679 -0.3262 -0.6413
 7216SOL    HW233285   1.494   0.848   8.412 -0.0152  0.2265  2.1958
 7217SOL     OW33286   3.109   1.775   6.441 -0.2532  0.5778  0.0879
 7217SOL    HW133287   3.074   1.732   6.363  2.0931 -0.7495 -0.2499
 7217SOL    HW233288   3.136   1.702   6.497 -2.6865 -1.9813 -2.0859
 7218SOL     OW33289   4.412   0.317  12.127  0.4714 -0.5882 -0.0064
 7218SOL    HW133290   4.346   0.385  12.119  1.5502  0.7207  2.3577
 7218SOL    HW233291   4.413   0.303  12.221 -1.0716  2.3519  0.4360
 7219SOL     OW33292   0.350   0.763   2.484  0.2716 -0.4560 -0.6611
 7219SOL    HW133293   0.390   0.811   2.557  1.3170 -2.9816  0.4394
 7219SOL    HW233294   0.348   0.831   2.417  0.2975  1.0987  0.8903
 7220SOL     OW33295   3.028   3.643   5.337 -0.5333 -0.3784  0.1170
 7220SOL    HW133296   3.118   3.615   5.356  0.0254  2.4353  1.6192
 7220SOL    HW233297   2.984   3.619   5.419 -2.2521  1.3384 -0.3204
 7221SOL     OW33298   3.589   0.351   3.473  0.4769  0.0630 -0.6208
 7221SOL    HW133299   3.571   0.444   3.460 -0.2518  0.0793  0.5284
 7221SOL    HW233300   3.514   0.315   3.426  0.4244 -1.4391  0.6246
 7222SOL     OW33301   3.863   1.372  15.651 -0.3413 -0.5875  0.3030
 7222SOL    HW133302   3.871   1.287  15.609 -1.6349 -0.2948 -0.5234
 7222SOL    HW233303   3.796   1.408  15.594  0.5117  2.0149  0.9485
 7223SOL     OW33304   1.998   4.176   7.947 -0.9626 -0.3738  0.1392
 7223SOL    HW133305   1.981   4.257   7.995  0.3207  0.7381 -1.2918
 7223SOL    HW233306   1.910   4.145   7.924 -0.2944 -3.6599  2.0274
 7224SOL     OW33307   1.584   3.813   7.446 -0.3557  0.2087  0.0624
 7224SOL    HW133308   1.607   3.891   7.496  0.2523  0.1542 -0.1342
 7224SOL    HW233309   1.513   3.777   7.499  0.8658 -1.2618  0.7028
 7225SOL     OW33310   3.923   4.629  11.896 -0.2412 -0.2993  0.3179
 7225SOL    HW133311   3.834   4.612  11.926 -0.4485  0.3318  0.0556
 7225SOL    HW233312   3.909   4.719  11.869  0.4871  0.2855  1.8765
 7226SOL     OW33313   2.021   1.747   8.781 -0.6015  0.0121 -0.2974
 7226SOL    HW133314   1.973   1.741   8.699  0.6864 -0.0948 -1.0420
 7226SOL    HW233315   2.093   1.686   8.767 -1.6543 -1.1102 -0.8298
 7227SOL     OW33316   2.096   1.752  15.600 -0.6417  0.2471  0.2397
 7227SOL    HW133317   2.188   1.766  15.625 -0.5896  0.9712 -0.3565
 7227SOL    HW233318   2.052   1.748  15.685 -0.8158 -0.0575  0.1351
 7228SOL     OW33319   0.424   4.654   6.849 -0.1953 -0.6084  0.1809
 7228SOL    HW133320   0.442   4.710   6.925 -2.0878  1.1636 -0.6756
 7228SOL    HW233321   0.329   4.664   6.839  0.0931  1.1411 -0.8063
 7229SOL     OW33322   1.794   2.455  15.241  0.3069 -0.0628  0.1552
 7229SOL    HW133323   1.721   2.517  15.239  1.6986  1.5727  0.0151
 7229SOL    HW233324   1.867   2.516  15.242  1.0030 -0.8675 -1.8453
 7230SOL     OW33325   1.605   3.443   3.832  0.0112  0.9691  0.2161
 7230SOL    HW133326   1.641   3.453   3.744 -0.7110  1.1040 -0.0598
 7230SOL    HW233327   1.650   3.366   3.867  0.0211 -0.2274 -2.3762
 7231SOL     OW33328   0.002   3.767   1.123 -0.2384  0.1086 -0.6606
 7231SOL    HW133329   0.030   3.844   1.074 -0.8038  1.5949  1.3397
 7231SOL    HW233330   0.040   3.697   1.071 -0.7635  0.4752 -1.5404
 7232SOL     OW33331   1.150   0.579   0.821  0.2867  0.1552 -0.1727
 7232SOL    HW133332   1.064   0.612   0.794 -1.0870 -0.5421  3.4386
 7232SOL    HW233333   1.147   0.579   0.916  0.7258 -1.0600 -0.1642
 7233SOL     OW33334   2.670   3.790  12.708 -0.4668  0.0623 -0.2824
 7233SOL    HW133335   2.645   3.868  12.757 -3.8348 -0.5817 -0.9042
 7233SOL    HW233336   2.691   3.726  12.776  0.5392  1.4197  0.6713
 7234SOL     OW33337   1.052   3.200   3.283  0.4174  0.7248  0.7039
 7234SOL    HW133338   1.009   3.116   3.302  1.6394 -0.7433 -3.0478
 7234SOL    HW233339   1.129   3.165   3.238 -1.0303  0.1319 -1.3636
 7235SOL     OW33340   0.355   1.828   0.213  0.3151  0.4075 -0.3728
 7235SOL    HW133341   0.336   1.894   0.146 -2.3030  0.8352  0.7784
 7235SOL    HW233342   0.277   1.846   0.265 -0.0208  0.6369 -0.9520
 7236SOL     OW33343   2.313   3.752   4.146 -0.4689 -0.2242 -0.3592
 7236SOL    HW133344   2.399   3.794   4.138 -1.8361  2.6675  0.1353
 7236SOL    HW233345   2.314   3.746   4.242  0.8416 -0.2792 -0.3726
 7237SOL     OW33346   3.441   0.058   2.198 -0.6414  0.1059  0.3727
 7237SOL    HW133347   3.516   0.075   2.256 -0.7150  0.2008  0.4414
 7237SOL    HW233348   3.445   4.704   2.182 -0.1647  0.1474  0.2431
 7238SOL     OW33349   4.209   2.793   4.475 -0.6451  0.1457  0.2148
 7238SOL    HW133350   4.274   2.858   4.449  0.0955  0.1637  2.0681
 7238SOL    HW233351   4.262   2.714   4.484 -1.9439 -0.7061  0.3083
 7239SOL     OW33352   2.599   3.437   3.038 -0.1538 -0.1626 -0.5005
 7239SOL    HW133353   2.515   3.401   3.009  1.0825 -1.7040 -2.1940
 7239SOL    HW233354   2.588   3.443   3.133 -1.6917  2.0773 -0.8334
 7240SOL     OW33355   2.359   2.178  12.287  0.2331  0.0885  0.1556
 7240SOL    HW133356   2.437   2.162  12.340  0.4166 -0.7657 -0.3653
 7240SOL    HW233357   2.392   2.233  12.216  0.1135  0.6437  0.5278
 7241SOL     OW33358   0.705   1.701  13.278  0.1086  0.2589  0.2452
 7241SOL    HW133359   0.735   1.612  13.295 -0.2839 -0.1676 -1.2976
 7241SOL    HW233360   0.616   1.686  13.247  0.3713 -0.8551  0.0273
 7242SOL     OW33361   1.020   3.825   2.335  0.5474 -0.4604  0.1138
 7242SOL    HW133362   0.997   3.771   2.410 -2.3188 -1.0363 -1.2076
 7242SOL    HW233363   1.097   3.861   2.379 -0.5854  0.2495  1.4801
 7243SOL     OW33364   1.566   3.642   6.352 -0.0475  0.3729  0.0752
 7243SOL    HW133365   1.544   3.552   6.376 -1.8372  1.0452  0.9578
 7243SOL    HW233366   1.650   3.655   6.396 -0.4037  1.4393  0.4451
 7244SOL     OW33367   4.378   0.424   5.420 -0.4467  0.5673  0.4808
 7244SOL    HW133368   4.388   0.502   5.475 -2.2697  0.6443  0.7043
 7244SOL    HW233369   4.302   0.463   5.376 -0.2223  0.1101 -0.3136
 7245SOL     OW33370   2.822   0.232  11.548  0.5523 -0.6096  0.4498
 7245SOL    HW133371   2.752   0.296  11.562 -0.4771 -1.5769 -0.3706
 7245SOL    HW233372   2.776   0.159  11.506 -1.2863  0.4279  0.6725
 7246SOL     OW33373   0.570   2.534   7.645 -0.1106 -0.4395 -0.2217
 7246SOL    HW133374   0.527   2.528   7.560  0.3701 -0.2043 -0.4841
 7246SOL    HW233375   0.497   2.568   7.697 -0.2908  0.3718 -1.0180
 7247SOL     OW33376   1.819   1.701   2.004  0.4419  0.2417 -0.2644
 7247SOL    HW133377   1.737   1.657   2.028  0.5271 -0.0035 -0.4190
 7247SOL    HW233378   1.850   1.733   2.089 -2.8957 -0.2069  1.1256
 7248SOL     OW33379   2.316   4.514   5.752 -0.1918  0.5142  0.0433
 7248SOL    HW133380   2.302   4.582   5.687 -2.6051  0.5197  0.5513
 7248SOL    HW233381   2.411   4.503   5.746 -0.0447  0.5832  2.3422
 7249SOL     OW33382   0.966   2.464   3.907  0.3709  0.4022 -0.2932
 7249SOL    HW133383   1.012   2.513   3.838  1.7675  1.6286  1.4930
 7249SOL    HW233384   0.943   2.521   3.981  2.9943  1.2130 -0.0766
 7250SOL     OW33385   3.857   3.686   4.668 -0.5919 -0.6312 -0.1481
 7250SOL    HW133386   3.915   3.702   4.593 -0.2096 -0.1490  0.2533
 7250SOL    HW233387   3.788   3.745   4.639  0.8497  1.7439  1.2481
 7251SOL     OW33388   2.877   2.564  16.406  0.2391 -0.5588  0.3743
 7251SOL    HW133389   2.892   2.658  16.395  0.9109 -0.7326 -0.1613
 7251SOL    HW233390   2.904   2.544  16.495 -0.5412 -1.7829  0.3340
 7252SOL     OW33391   0.759   4.097   7.630 -0.3262  0.2327  0.4114
 7252SOL    HW133392   0.733   4.183   7.597  0.0771 -0.4015 -1.5310
 7252SOL    HW233393   0.716   4.095   7.715  1.0151  1.2401  1.1101
 7253SOL     OW33394   2.501   4.336  13.029  0.4114  0.2996 -1.0049
 7253SOL    HW133395   2.484   4.422  12.990  0.9656 -0.1105 -2.1284
 7253SOL    HW233396   2.471   4.297  12.947 -1.5839 -2.0522  0.8487
 7254SOL     OW33397   0.351   3.885   5.551 -0.7948 -0.4383 -0.0473
 7254SOL    HW133398   0.401   3.927   5.621 -0.0023 -0.9904 -0.2810
 7254SOL    HW233399   0.425   3.860   5.494 -0.1776 -0.1579  0.6336
 7255SOL     OW33400   1.189   1.861   5.923  0.7191  0.3509  0.1100
 7255SOL    HW133401   1.138   1.784   5.948  1.7066 -0.2855  0.1572
 7255SOL    HW233402   1.124   1.894   5.861  0.2142  2.7989  1.9488
 7256SOL     OW33403   3.048   1.699  17.209 -0.3019  1.1052 -0.2377
 7256SOL    HW133404   3.005   1.784  17.212  2.1044  2.2957  0.6679
 7256SOL    HW233405   3.140   1.718  17.227  0.8704 -2.0247 -2.8405
 7257SOL     OW33406   1.555   1.324   5.706  0.0617 -0.4550 -0.6416
 7257SOL    HW133407   1.597   1.240   5.723  0.5162 -0.1690 -0.3616
 7257SOL    HW233408   1.529   1.325   5.614  0.1203 -1.0879 -0.6648
 7258SOL     OW33409   3.147   1.902   9.405  0.1382  0.3753  0.5524
 7258SOL    HW133410   3.134   1.969   9.473 -0.5907 -1.3614  2.1114
 7258SOL    HW233411   3.067   1.850   9.414  0.3069  0.3317  1.8310
 7259SOL     OW33412   4.182   1.495   7.900 -0.1016 -0.2439 -0.0171
 7259SOL    HW133413   4.212   1.464   7.815  0.1456 -0.8208  0.2814
 7259SOL    HW233414   4.167   1.411   7.943  0.0925  1.0897  2.6439
 7260SOL     OW33415   0.572   3.743   3.285 -0.3245  0.3820 -0.4014
 7260SOL    HW133416   0.579   3.707   3.196  0.1619  1.5860 -0.8551
 7260SOL    HW233417   0.572   3.661   3.335  0.0355  0.0181 -0.9981
 7261SOL     OW33418   2.791   0.718  15.963  0.5556  0.3903  0.3472
 7261SOL    HW133419   2.743   0.638  15.984 -0.3699  0.7866 -0.2309
 7261SOL    HW233420   2.729   0.753  15.898  0.2769 -0.7196  0.0020
 7262SOL     OW33421   0.551   2.916   7.214  0.1980  0.1799  0.2346
 7262SOL    HW133422   0.486   2.867   7.162 -0.0452  0.1562  0.5631
 7262SOL    HW233423   0.601   2.964   7.148 -1.1867  2.7044  1.0464
 7263SOL     OW33424   0.361   1.313   9.425 -0.1413 -0.2988  0.4656
 7263SOL    HW133425   0.336   1.269   9.506 -2.0111  0.3545  0.2380
 7263SOL    HW233426   0.297   1.274   9.365  0.4547 -0.3417 -0.1472
 7264SOL     OW33427   4.624   3.878   3.188  0.3533  0.5302 -0.3753
 7264SOL    HW133428   4.700   3.902   3.240 -0.3074  0.7917  0.4707
 7264SOL    HW233429   4.587   3.954   3.144 -0.6347 -0.2498 -0.9048
 7265SOL     OW33430   0.779   2.909   8.314  0.6775 -0.1821  0.5090
 7265SOL    HW133431   0.826   2.989   8.290 -1.0682  0.2620 -1.4416
 7265SOL    HW233432   0.845   2.848   8.282 -0.7596 -1.6830  0.4398
 7266SOL     OW33433   4.371   0.842   4.920 -0.2575  0.4095  0.2352
 7266SOL    HW133434   4.451   0.874   4.962  0.8690  1.2908 -2.5390
 7266SOL    HW233435   4.359   0.898   4.843  0.4945  0.3269  0.0620
 7267SOL     OW33436   1.198   0.374  17.056  0.5137 -0.1581 -0.0445
 7267SOL    HW133437   1.161   0.309  16.996 -0.1446 -0.1617  0.3646
 7267SOL    HW233438   1.287   0.382  17.024 -0.6174  1.5547 -2.7841
 7268SOL     OW33439   0.999   1.882   3.399 -0.1505  0.0482 -0.4880
 7268SOL    HW133440   0.989   1.801   3.449 -0.6836 -0.7939 -1.9535
 7268SOL    HW233441   1.058   1.918   3.465 -1.1029 -0.0503  0.4166
 7269SOL     OW33442   2.521   2.093   0.721 -0.2075 -0.0782 -0.1930
 7269SOL    HW133443   2.552   2.006   0.747 -0.9051 -0.4098 -0.4413
 7269SOL    HW233444   2.588   2.149   0.759  0.7640 -0.1533 -1.7982
 7270SOL     OW33445   3.093   4.703   2.473 -0.0161 -0.4826 -0.1287
 7270SOL    HW133446   3.147   0.041   2.479  0.6889 -0.6509 -4.1874
 7270SOL    HW233447   3.008   0.005   2.466 -0.4584 -0.9630  2.2383
 7271SOL     OW33448   1.943   4.096  13.275  0.3962  0.2112 -0.3071
 7271SOL    HW133449   1.862   4.101  13.224 -2.4261 -2.4932  3.9082
 7271SOL    HW233450   1.908   4.136  13.355  1.2884 -0.9357  0.6498
 7272SOL     OW33451   1.117   0.173   1.029  0.1423 -0.1801  0.3351
 7272SOL    HW133452   1.103   0.249   1.087  0.6461  1.0024 -1.1050
 7272SOL    HW233453   1.048   0.116   1.063  0.6675  0.3776  2.3280
 7273SOL     OW33454   0.644   1.028   4.133  0.2825 -0.2396  0.0559
 7273SOL    HW133455   0.673   1.087   4.202 -1.6181  0.6949  0.0693
 7273SOL    HW233456   0.640   0.943   4.178  0.1565  0.5464  1.5208
 7274SOL     OW33457   3.980   3.630   5.184 -0.2510 -0.0023  0.8318
 7274SOL    HW133458   3.979   3.538   5.210  3.3074 -0.6365 -1.2914
 7274SOL    HW233459   3.942   3.623   5.096  1.3022 -1.8854  0.2987
 7275SOL     OW33460   3.560   3.979   0.407  0.1473  0.4193 -0.2213
 7275SOL    HW133461   3.498   3.930   0.460 -0.4196 -1.2897 -2.4498
 7275SOL    HW233462   3.512   4.061   0.394 -1.0838  0.0494  1.9703
 7276SOL     OW33463   2.837   1.040  13.378  0.4413  0.5998  0.0001
 7276SOL    HW133464   2.851   0.963  13.323 -2.4462  0.8982 -1.1518
 7276SOL    HW233465   2.842   1.005  13.467  2.5791 -0.0887 -0.4053
 7277SOL     OW33466   3.258   4.098  13.277 -0.0944 -0.8384 -0.2886
 7277SOL    HW133467   3.178   4.137  13.312  0.1110 -1.3495  0.7621
 7277SOL    HW233468   3.331   4.140  13.322 -0.0674  0.0697 -1.2017
 7278SOL     OW33469   2.597   2.699   5.258  0.4736 -0.0865  0.2030
 7278SOL    HW133470   2.669   2.636   5.252 -1.6116 -2.1889 -2.5529
 7278SOL    HW233471   2.631   2.777   5.215  2.2206 -0.6063  0.6272
 7279SOL     OW33472   3.757   4.291   5.622  0.4651  0.6239 -0.6351
 7279SOL    HW133473   3.798   4.262   5.541  0.0654 -2.0867  0.1399
 7279SOL    HW233474   3.819   4.271   5.691 -0.6041  1.6654  0.6331
 7280SOL     OW33475   3.790   3.389  12.758  0.4579 -0.1802 -0.5167
 7280SOL    HW133476   3.702   3.391  12.718 -0.5630 -0.5744  1.7029
 7280SOL    HW233477   3.831   3.458  12.706  2.5907 -0.5529  0.6822
 7281SOL     OW33478   0.469   1.997   7.293 -0.1146  0.1698 -0.1923
 7281SOL    HW133479   0.511   1.911   7.301  0.2122  0.5415  2.0062
 7281SOL    HW233480   0.496   2.042   7.373 -0.1881  0.5858 -0.4019
 7282SOL     OW33481   0.772   2.880   3.209  0.6131  0.5411 -0.5823
 7282SOL    HW133482   0.833   2.853   3.140  0.3325  0.4568 -0.7952
 7282SOL    HW233483   0.740   2.968   3.190 -0.6266  0.4321  0.9954
 7283SOL     OW33484   0.088   2.978   3.453  0.4245 -0.1000  0.1950
 7283SOL    HW133485   0.086   3.062   3.407  2.3190 -2.0860 -3.5647
 7283SOL    HW233486   0.151   2.929   3.400 -1.2706  1.3700 -3.1890
 7284SOL     OW33487   2.825   3.207  17.311  0.3390 -0.4627 -0.6992
 7284SOL    HW133488   2.785   3.125  17.341 -1.4296 -0.2343 -2.4595
 7284SOL    HW233489   2.878   3.167  17.241 -0.2180 -1.8892 -0.3116
 7285SOL     OW33490   2.660   0.565   3.411 -0.2560 -0.1759 -0.0911
 7285SOL    HW133491   2.619   0.601   3.489  0.1653  0.1287 -0.0121
 7285SOL    HW233492   2.747   0.604   3.417 -0.8152  1.3024 -1.6876
 7286SOL     OW33493   3.755   1.336   7.136 -0.2038 -0.4954  0.0529
 7286SOL    HW133494   3.770   1.423   7.173 -0.7382 -0.9355  1.2784
 7286SOL    HW233495   3.662   1.342   7.113 -0.3462  1.5959  1.2050
 7287SOL     OW33496   2.667   3.065   8.948 -0.1358 -0.4399  0.1872
 7287SOL    HW133497   2.674   2.992   8.887 -0.4810  1.2774 -1.9052
 7287SOL    HW233498   2.682   3.151   8.909 -2.4242 -0.4988 -0.8262
 7288SOL     OW33499   2.500   3.029   1.570  0.1874  0.5065 -0.0918
 7288SOL    HW133500   2.507   2.942   1.609 -0.3329  0.3774 -0.2760
 7288SOL    HW233501   2.589   3.062   1.567  0.1623  0.6059  0.2509
 7289SOL     OW33502   3.108   2.114   6.121 -0.2056 -0.2944  0.0129
 7289SOL    HW133503   3.065   2.038   6.161  0.4846 -1.0997 -0.7461
 7289SOL    HW233504   3.082   2.188   6.175  0.9978  0.6557 -0.6973
 7290SOL     OW33505   3.058   3.129  15.889  0.4791  0.5133 -0.1529
 7290SOL    HW133506   2.987   3.192  15.903 -0.1852 -0.6684  1.6713
 7290SOL    HW233507   3.105   3.178  15.822  3.0117 -1.6149  0.0540
 7291SOL     OW33508   0.121   1.605  15.268 -0.3444  0.0098  0.1550
 7291SOL    HW133509   0.173   1.565  15.338  0.5745 -0.9671 -1.0781
 7291SOL    HW233510   0.185   1.672  15.247  3.3167 -2.5578  3.0116
 7292SOL     OW33511   2.017   3.075   7.899 -0.0045  0.1291 -0.6013
 7292SOL    HW133512   2.059   3.123   7.828 -1.6738 -2.4338 -3.3614
 7292SOL    HW233513   2.089   3.062   7.960  0.1745  3.3045 -0.1345
 7293SOL     OW33514   4.503   4.503  13.880  0.0699 -0.5632 -0.8028
 7293SOL    HW133515   4.409   4.490  13.891  0.0439  1.0515  0.7792
 7293SOL    HW233516   4.517   4.577  13.938  0.7279 -1.3876  0.0915
 7294SOL     OW33517   0.217   1.554   5.864 -0.6890 -0.5510 -0.3862
 7294SOL    HW133518   0.250   1.488   5.924  2.1752  1.9161  0.7270
 7294SOL    HW233519   0.226   1.634   5.916 -0.1026 -0.4368 -0.6632
 7295SOL     OW33520   2.823   3.465   2.418 -0.2135 -0.6484  0.6612
 7295SOL    HW133521   2.897   3.501   2.369 -1.2570  1.0633  0.3824
 7295SOL    HW233522   2.771   3.545   2.421 -0.8363 -1.1036  2.1649
 7296SOL     OW33523   0.279   0.844  12.627  0.4221  0.1060 -0.3923
 7296SOL    HW133524   0.273   0.938  12.608 -1.1323  0.0425 -0.2236
 7296SOL    HW233525   0.370   0.816  12.622  0.5700  0.3667  0.8150
 7297SOL     OW33526   2.761   3.204   2.418  0.2574 -0.2965  0.3262
 7297SOL    HW133527   2.819   3.164   2.354  2.6863  3.6845  0.0325
 7297SOL    HW233528   2.788   3.295   2.402 -1.8039  0.5744  1.7642
 7298SOL     OW33529   1.963   0.372   5.410  0.4585  0.0485  0.5012
 7298SOL    HW133530   1.883   0.421   5.431 -1.0473 -1.0104 -2.7985
 7298SOL    HW233531   2.028   0.434   5.444 -0.5362 -0.0652  2.6123
 7299SOL     OW33532   3.969   4.053   7.233 -0.7588  0.0587  0.2893
 7299SOL    HW133533   3.894   4.067   7.291 -0.8522  1.6613 -0.2191
 7299SOL    HW233534   3.959   3.961   7.210 -1.9901  1.3797 -4.3454
 7300SOL     OW33535   3.443   2.670   4.119 -0.3120  0.0999 -0.7069
 7300SOL    HW133536   3.375   2.672   4.186  0.7308 -2.0431  0.4265
 7300SOL    HW233537   3.392   2.626   4.052  0.2931 -1.7931  0.0876
 7301SOL     OW33538   0.574   1.188  11.221 -0.6191  0.3402 -0.2635
 7301SOL    HW133539   0.608   1.101  11.241 -1.6654 -0.0793 -0.3116
 7301SOL    HW233540   0.638   1.219  11.158 -0.3738  1.0928  0.3427
 7302SOL     OW33541   4.480   4.008   7.160 -0.6699 -0.4210  0.5795
 7302SOL    HW133542   4.453   3.998   7.251  0.3116  0.8364  1.0086
 7302SOL    HW233543   4.537   3.932   7.150  2.0955  1.9289 -1.6256
 7303SOL     OW33544   4.192   0.363   5.870 -0.0285  0.2567  0.2654
 7303SOL    HW133545   4.166   0.272   5.855  0.0153  0.3622 -0.4524
 7303SOL    HW233546   4.272   0.360   5.818 -1.2277 -0.2048 -1.5698
 7304SOL     OW33547   3.686   3.309   3.704 -0.2961 -0.2532 -0.1310
 7304SOL    HW133548   3.725   3.248   3.767 -1.4474 -0.3014  0.5307
 7304SOL    HW233549   3.620   3.252   3.665  0.2486  0.3625 -1.9685
 7305SOL     OW33550   2.057   4.081   0.872 -0.3473  0.6304 -0.5941
 7305SOL    HW133551   1.993   4.088   0.942  1.1984 -0.8142  0.9809
 7305SOL    HW233552   2.035   3.990   0.852 -0.3188  0.6834 -0.8715
 7306SOL     OW33553   0.423   0.934   1.054  0.4561  0.5721 -0.7085
 7306SOL    HW133554   0.454   0.856   1.099  0.9113  1.9182  1.3247
 7306SOL    HW233555   0.394   0.898   0.970  1.6145  1.2533 -1.3997
 7307SOL     OW33556   2.443   0.454  16.573  0.1544 -0.7341  0.2683
 7307SOL    HW133557   2.531   0.479  16.599  0.4066 -2.1781  0.7848
 7307SOL    HW233558   2.420   0.400  16.649  0.5499  0.0548  0.9524
 7308SOL     OW33559   2.011   0.013   6.757  0.0422  0.2011  0.4243
 7308SOL    HW133560   1.931   0.065   6.750 -0.9751 -1.6404 -1.5447
 7308SOL    HW233561   2.045   0.044   6.841  0.1716 -0.8734  0.7702
 7309SOL     OW33562   3.439   1.375  12.399 -0.2667  0.4394 -0.3616
 7309SOL    HW133563   3.372   1.306  12.397  0.9245 -0.7998  2.0439
 7309SOL    HW233564   3.388   1.455  12.415  0.8691  1.3710 -1.3782
 7310SOL     OW33565   2.166   1.189   4.992 -0.3152  0.4266  0.5861
 7310SOL    HW133566   2.084   1.196   5.040 -0.3457 -2.0706  0.8911
 7310SOL    HW233567   2.125   1.191   4.906 -1.2626  0.8316  1.0423
 7311SOL     OW33568   2.156   3.887   2.227 -0.2963 -0.5023 -0.2303
 7311SOL    HW133569   2.212   3.866   2.153  0.2243  0.2851 -0.0650
 7311SOL    HW233570   2.093   3.817   2.211  0.0369 -0.2992 -2.4769
 7312SOL     OW33571   2.548   4.015   8.342  0.0165  0.4675 -0.2005
 7312SOL    HW133572   2.535   4.020   8.247 -1.9829 -1.9746 -0.0701
 7312SOL    HW233573   2.633   4.055   8.357 -0.4085  1.0283  0.7318
 7313SOL     OW33574   1.711   3.872   3.847  0.0034  0.1955  0.7771
 7313SOL    HW133575   1.749   3.837   3.766  0.3907 -0.1820  1.1199
 7313SOL    HW233576   1.723   3.965   3.826 -2.1664  0.0862 -0.9394
 7314SOL     OW33577   0.641   2.935   4.169  0.0668  0.7152 -0.2761
 7314SOL    HW133578   0.646   3.018   4.218 -0.5817  0.1835  0.6827
 7314SOL    HW233579   0.715   2.956   4.112  0.6977 -1.1925 -0.1494
 7315SOL     OW33580   4.027   1.496   6.380  0.0104  0.0131  0.1590
 7315SOL    HW133581   4.063   1.577   6.343 -0.0476  0.1884  0.4832
 7315SOL    HW233582   3.957   1.527   6.438  0.2582 -0.9067  0.9694
 7316SOL     OW33583   0.001   2.688  10.115 -0.1911  0.0738  0.4655
 7316SOL    HW133584   0.043   2.759  10.164  0.0348  0.5109 -0.3715
 7316SOL    HW233585   4.665   2.733  10.078 -1.0370  0.0483  2.1584
 7317SOL     OW33586   0.187   2.679   2.946  0.5241 -0.0665 -0.5781
 7317SOL    HW133587   0.254   2.747   2.948  0.9481 -0.6068  4.7590
 7317SOL    HW233588   0.106   2.727   2.963  1.7854  2.0331 -0.4361
 7318SOL     OW33589   3.703   3.871   4.561 -0.5215  0.3662 -0.2127
 7318SOL    HW133590   3.778   3.930   4.555  0.2255 -0.4724  0.7765
 7318SOL    HW233591   3.643   3.920   4.616  0.3600  0.6093  0.5472
 7319SOL     OW33592   0.071   0.161   7.978 -0.4867  0.3415 -0.1631
 7319SOL    HW133593   0.110   0.105   8.045 -2.0912 -2.0422 -1.1869
 7319SOL    HW233594   0.147   0.213   7.954  0.4069 -0.9318 -0.0566
 7320SOL     OW33595   2.264   1.746   3.753 -0.0531 -0.1798 -0.0071
 7320SOL    HW133596   2.320   1.795   3.694  1.7800 -1.4977  0.6555
 7320SOL    HW233597   2.318   1.669   3.769 -0.9397 -0.9144 -0.5421
 7321SOL     OW33598   3.309   2.000  13.879  0.5390 -0.5989  0.6022
 7321SOL    HW133599   3.350   2.086  13.881 -0.6935 -0.0097  0.8271
 7321SOL    HW233600   3.319   1.975  13.971  1.0216 -1.3387  0.3503
 7322SOL     OW33601   1.279   0.970   6.387 -0.7024 -0.2832  0.9242
 7322SOL    HW133602   1.321   1.055   6.375  0.8907 -1.2539 -0.4285
 7322SOL    HW233603   1.296   0.923   6.305 -0.5095  0.3025  0.6311
 7323SOL     OW33604   3.041   3.962   2.692 -0.5140 -0.0802  0.0732
 7323SOL    HW133605   3.096   3.994   2.765  0.8561 -0.2097 -0.8977
 7323SOL    HW233606   2.994   4.045   2.685 -3.2050 -1.7824 -1.9654
 7324SOL     OW33607   2.483   0.093   8.307 -0.0112  0.6136  0.1882
 7324SOL    HW133608   2.505   0.186   8.301 -3.2786  1.3341 -0.6647
 7324SOL    HW233609   2.394   0.086   8.271 -0.4206  0.9927  1.1293
 7325SOL     OW33610   3.438   2.136   2.367  0.4313  0.2956  0.6351
 7325SOL    HW133611   3.346   2.165   2.361  0.8936  1.6319 -0.0157
 7325SOL    HW233612   3.436   2.044   2.396  3.6289 -0.0187 -0.1756
 7326SOL     OW33613   3.786   0.172   1.824  0.0981 -0.4373  0.8935
 7326SOL    HW133614   3.818   0.180   1.913  0.5941 -0.2287  0.6962
 7326SOL    HW233615   3.698   0.139   1.846  0.5346 -0.2630  2.8634
 7327SOL     OW33616   2.943   3.176  16.439  0.5382 -0.0353 -0.2652
 7327SOL    HW133617   2.958   3.252  16.496  0.0236  1.8731 -2.6488
 7327SOL    HW233618   2.985   3.118  16.502  1.2026  1.3910  0.6312
 7328SOL     OW33619   2.938   2.066   4.575  0.6826  0.1073  0.4542
 7328SOL    HW133620   2.978   2.060   4.661 -0.3936 -1.6395  0.8306
 7328SOL    HW233621   2.899   1.979   4.563  0.0410  0.2391  1.5441
 7329SOL     OW33622   2.145   0.449   9.671 -0.6779  0.4087  0.4064
 7329SOL    HW133623   2.224   0.483   9.629 -1.3607 -1.9801 -2.8492
 7329SOL    HW233624   2.174   0.367   9.709 -0.8474  0.5720  0.8790
 7330SOL     OW33625   1.496   1.390   3.440  0.0719  0.1602  0.3655
 7330SOL    HW133626   1.554   1.318   3.464  2.2739  0.9844 -2.5559
 7330SOL    HW233627   1.515   1.411   3.349  2.1085 -1.5875  0.3837
 7331SOL     OW33628   0.191   1.288   8.752  0.4323  0.2437 -0.9065
 7331SOL    HW133629   0.255   1.350   8.716  1.8724 -1.2263 -0.8900
 7331SOL    HW233630   0.111   1.326   8.714  0.6056  0.8490 -0.6557
 7332SOL     OW33631   1.589   2.518  12.474 -0.2990  0.2597 -0.7967
 7332SOL    HW133632   1.568   2.589  12.535  0.5307  1.0425 -1.4198
 7332SOL    HW233633   1.653   2.464  12.521 -2.1095  1.4987  3.1029
 7333SOL     OW33634   2.066   1.342   7.300  0.1730  0.7140 -0.0106
 7333SOL    HW133635   2.162   1.345   7.298  0.1295  0.4089 -2.0080
 7333SOL    HW233636   2.050   1.291   7.221 -0.4998  0.0073  0.5794
 7334SOL     OW33637   1.663   2.776  12.520  0.1584 -0.5195 -0.2181
 7334SOL    HW133638   1.741   2.787  12.574  0.0962 -1.5460  0.0813
 7334SOL    HW233639   1.692   2.841  12.456 -0.0805  0.2346  0.4544
 7335SOL     OW33640   3.672   1.002   5.018  0.4267 -0.3254  0.2874
 7335SOL    HW133641   3.658   0.907   5.021  0.6084 -0.3823 -0.7945
 7335SOL    HW233642   3.755   1.008   5.064  1.5530  0.2280 -1.8473
 7336SOL     OW33643   1.914   3.486  17.189 -0.1939  0.0771  0.8411
 7336SOL    HW133644   1.988   3.522  17.141 -0.4940 -2.7546 -1.7239
 7336SOL    HW233645   1.963   3.458  17.267  2.5439 -0.4264 -1.0689
 7337SOL     OW33646   2.419   2.135   3.176  0.0943 -0.7900 -0.0307
 7337SOL    HW133647   2.432   2.197   3.104 -2.4185  1.0291  1.0800
 7337SOL    HW233648   2.427   2.054   3.126 -0.9645 -0.8218 -0.1522
 7338SOL     OW33649   2.237   1.902   2.247 -0.6039  0.2363  0.4760
 7338SOL    HW133650   2.252   1.830   2.186 -1.6550 -0.0991  0.6039
 7338SOL    HW233651   2.294   1.882   2.321 -0.6502 -0.0631  0.4313
 7339SOL     OW33652   0.605   2.530   2.265  0.5231 -0.7448 -0.0835
 7339SOL    HW133653   0.581   2.447   2.306 -2.5364  0.7239  1.0818
 7339SOL    HW233654   0.543   2.536   2.192 -0.7920 -1.6573  0.9575
 7340SOL     OW33655   4.018   1.857  14.014  0.1412 -0.2730 -0.4511
 7340SOL    HW133656   4.032   1.793  14.084 -1.1200 -0.1382 -0.0690
 7340SOL    HW233657   4.031   1.944  14.052  0.6397 -0.5085 -0.0851
 7341SOL     OW33658   2.273   1.128   6.693  0.4270  0.0319  0.1619
 7341SOL    HW133659   2.328   1.102   6.619  0.6156  1.3285 -0.1467
 7341SOL    HW233660   2.336   1.156   6.759  0.9664 -1.0434  0.0981
 7342SOL     OW33661   0.156   0.490   1.921  0.1400 -0.4165  0.0270
 7342SOL    HW133662   0.107   0.422   1.875 -0.5954  1.0636 -1.3558
 7342SOL    HW233663   0.121   0.491   2.011  0.7908  0.3179  0.2693
 7343SOL     OW33664   0.803   3.832   7.597 -0.0567 -0.3334 -0.2078
 7343SOL    HW133665   0.727   3.773   7.594  0.5567 -1.2135  1.4877
 7343SOL    HW233666   0.769   3.921   7.607  1.6622  0.0200  2.6076
 7344SOL     OW33667   0.600   2.109   0.326  0.2125 -0.1413  0.7484
 7344SOL    HW133668   0.647   2.072   0.251 -0.3630 -1.1564  0.8906
 7344SOL    HW233669   0.568   2.193   0.293 -1.3132 -0.0033  2.5925
 7345SOL     OW33670   0.972   1.181   1.639 -0.2466  0.4024 -0.2956
 7345SOL    HW133671   0.951   1.114   1.704 -0.2279 -0.1905 -0.8926
 7345SOL    HW233672   1.045   1.146   1.586  0.3230 -0.0560  0.7969
 7346SOL     OW33673   0.300   0.003  11.948  0.2944  0.0096 -0.4926
 7346SOL    HW133674   0.303   0.019  12.042 -0.1235  0.6995 -0.5978
 7346SOL    HW233675   0.333   4.653  11.950 -0.2813 -0.1546  1.3513
 7347SOL     OW33676   1.928   0.247   8.329 -0.6863  0.2686 -0.5069
 7347SOL    HW133677   1.987   0.196   8.384  1.2164  2.0320 -0.9302
 7347SOL    HW233678   1.844   0.216   8.363 -0.7286  2.4120  1.2934
 7348SOL     OW33679   4.613   4.323  14.731 -0.6690 -1.1809  0.5200
 7348SOL    HW133680   4.548   4.332  14.801  1.0258 -1.0160  2.0566
 7348SOL    HW233681   4.642   4.233  14.744 -2.3554 -1.5408  1.7134
 7349SOL     OW33682   4.545   3.259   9.274 -0.2939  0.6909  0.3621
 7349SOL    HW133683   4.617   3.312   9.240  1.1801 -1.9562 -0.6471
 7349SOL    HW233684   4.597   3.181   9.294 -0.4921  0.4674  0.0002
 7350SOL     OW33685   0.583   4.103  14.310 -0.6461  0.1244  0.2457
 7350SOL    HW133686   0.563   4.192  14.280  1.1394  0.7716  0.9959
 7350SOL    HW233687   0.498   4.070  14.339 -0.6647 -1.3690 -1.5465
 7351SOL     OW33688   0.604   1.440   1.823 -1.4236 -0.1069  0.3742
 7351SOL    HW133689   0.679   1.490   1.793 -0.3008 -0.7442  2.1776
 7351SOL    HW233690   0.544   1.504   1.861 -1.1750  1.3823 -1.7345
 7352SOL     OW33691   1.150   2.664   7.404  0.9980  0.0984 -0.1931
 7352SOL    HW133692   1.098   2.671   7.324 -1.6073 -1.3234  1.3632
 7352SOL    HW233693   1.093   2.710   7.466  0.1570 -0.5893 -0.4638
 7353SOL     OW33694   4.622   4.678  11.122  0.2240  0.1814 -0.2208
 7353SOL    HW133695   4.692   4.621  11.156  1.9686  1.4274 -1.7226
 7353SOL    HW233696   4.577   4.613  11.068 -1.5661  1.5158 -0.3397
 7354SOL     OW33697   1.206   0.168  17.535 -0.6569  0.5466  0.5353
 7354SOL    HW133698   1.220   0.080  17.571  0.6864  1.4003  2.0815
 7354SOL    HW233699   1.282   0.174  17.477  0.2036  1.1554  1.7189
 7355SOL     OW33700   4.626   1.967   1.720  0.4026  0.2992  0.2149
 7355SOL    HW133701   4.720   1.978   1.706  0.0219 -0.2022 -2.7742
 7355SOL    HW233702   4.592   2.055   1.703  1.0447  0.7773  1.3960
 7356SOL     OW33703   1.267   4.366   3.698 -0.2852 -0.3375  0.1646
 7356SOL    HW133704   1.227   4.451   3.678 -1.9093 -0.4858  2.8058
 7356SOL    HW233705   1.328   4.396   3.765  0.0480  0.6896 -0.5963
 7357SOL     OW33706   3.340   2.642  10.989 -0.0064 -0.1813 -0.1462
 7357SOL    HW133707   3.379   2.685  11.065  1.4943 -0.7617 -0.5889
 7357SOL    HW233708   3.411   2.646  10.925  1.1966 -0.1285  1.1907
 7358SOL     OW33709   3.996   2.689   5.065 -0.1142  0.3102  0.2634
 7358SOL    HW133710   3.902   2.705   5.062 -0.0731  0.8095  1.6163
 7358SOL    HW233711   4.020   2.676   5.157  0.5039 -2.2500 -0.2564
 7359SOL     OW33712   0.836   2.709   2.804  0.4958 -0.8115 -0.3179
 7359SOL    HW133713   0.777   2.642   2.836 -1.5531  0.4840 -1.3844
 7359SOL    HW233714   0.913   2.653   2.793  1.6901  0.9850 -1.2042
 7360SOL     OW33715   4.404   0.074  17.508 -0.1008 -0.2468 -0.1013
 7360SOL    HW133716   4.314   0.059  17.537  0.1731 -0.2899  0.7315
 7360SOL    HW233717   4.433   0.154  17.553  3.1163 -1.8494  0.6456
 7361SOL     OW33718   2.133   0.619   8.821 -0.4028  0.0644  0.0502
 7361SOL    HW133719   2.155   0.704   8.859 -0.2616 -0.2647  0.7080
 7361SOL    HW233720   2.166   0.567   8.895  1.0450  1.6498  0.5044
 7362SOL     OW33721   3.046   1.172   2.045  0.4048 -0.1937  0.1330
 7362SOL    HW133722   3.092   1.193   1.964 -2.2453  2.9556 -0.5700
 7362SOL    HW233723   3.121   1.128   2.085  0.7306  0.3364  0.1095
 7363SOL     OW33724   4.697   4.611   9.059 -0.2773 -0.3175 -0.0184
 7363SOL    HW133725   0.008   4.680   9.101  2.6490 -2.5364  0.0782
 7363SOL    HW233726   4.612   4.653   9.043  0.4199  0.2221 -2.2701
 7364SOL     OW33727   1.922   3.024  10.292 -0.2887  0.2669  0.1295
 7364SOL    HW133728   1.941   2.965  10.364 -0.3218  1.6390  1.2482
 7364SOL    HW233729   1.880   2.963  10.231 -0.5209  0.7281 -0.1825
 7365SOL     OW33730   2.128   4.391   1.666 -0.6564  0.7900 -0.1159
 7365SOL    HW133731   2.085   4.315   1.705  0.7501  0.8374  1.5591
 7365SOL    HW233732   2.078   4.406   1.586 -0.9758 -1.3948 -0.3222
 7366SOL     OW33733   4.691   2.738   8.776  0.1041  0.7872  0.2625
 7366SOL    HW133734   0.012   2.807   8.801 -0.3134  0.7719  1.2875
 7366SOL    HW233735   0.008   2.690   8.716 -2.0883  0.7390 -1.7950
 7367SOL     OW33736   4.037   3.855   1.894  0.7862 -0.3596  0.0462
 7367SOL    HW133737   4.057   3.894   1.979  1.5373  0.5619 -0.5518
 7367SOL    HW233738   3.955   3.808   1.905  0.0151  0.5895 -1.5344
 7368SOL     OW33739   4.292   4.145   3.017 -0.3367  0.1255  0.2182
 7368SOL    HW133740   4.342   4.121   2.939 -1.7043  2.1972 -1.2857
 7368SOL    HW233741   4.217   4.184   2.973  0.0005 -0.4465 -0.8606
 7369SOL     OW33742   1.891   3.453   7.604 -0.2409  0.3784 -0.1449
 7369SOL    HW133743   1.948   3.377   7.596 -0.8267  0.0284 -0.9773
 7369SOL    HW233744   1.900   3.481   7.513 -0.5551  0.0058 -0.2896
 7370SOL     OW33745   4.212   3.335   3.979  0.0793  0.0925  0.0256
 7370SOL    HW133746   4.236   3.330   4.072  0.5991  2.9303  0.0564
 7370SOL    HW233747   4.168   3.251   3.970  1.9188 -0.6232 -2.0714
 7371SOL     OW33748   2.074   0.141   5.184  0.4154 -0.0460  0.2848
 7371SOL    HW133749   2.023   0.170   5.109 -1.4236  0.6195  1.7822
 7371SOL    HW233750   2.141   0.092   5.137  0.4692 -1.6516  2.0216
 7372SOL     OW33751   0.594   3.738   4.015  0.3593 -0.0643 -0.1073
 7372SOL    HW133752   0.513   3.777   3.983  0.0453 -1.2590 -0.7547
 7372SOL    HW233753   0.614   3.774   4.102 -0.0835 -1.8033  0.7258
 7373SOL     OW33754   4.625   1.700   5.174 -0.0436  0.1787  0.2033
 7373SOL    HW133755   4.659   1.610   5.172  0.7645  0.5533 -2.9608
 7373SOL    HW233756   4.649   1.725   5.263  0.6590 -0.1286  0.1058
 7374SOL     OW33757   1.134   4.721   2.251 -0.2413 -0.2149 -0.3531
 7374SOL    HW133758   1.080   4.643   2.237 -2.7779  0.7343  4.1740
 7374SOL    HW233759   1.083   0.026   2.319 -2.6307 -1.3143 -1.4084
 7375SOL     OW33760   1.807   2.495   5.961  0.9180  0.1324 -0.6653
 7375SOL    HW133761   1.801   2.492   6.057  0.6089 -0.8143 -0.7172
 7375SOL    HW233762   1.792   2.403   5.940  0.5327 -0.1233  0.7014
 7376SOL     OW33763   1.703   2.480   7.858  0.3829 -0.6179  0.4976
 7376SOL    HW133764   1.721   2.557   7.912 -1.5415 -2.1879  3.3743
 7376SOL    HW233765   1.787   2.433   7.861  1.3517  0.9571 -1.6631
 7377SOL     OW33766   1.395   4.206  13.496 -0.2355  0.3003 -0.1111
 7377SOL    HW133767   1.363   4.139  13.435 -1.1198 -0.7848  1.5681
 7377SOL    HW233768   1.434   4.156  13.567  1.4012  3.0620  0.9469
 7378SOL     OW33769   4.212   4.618   1.494  0.0472 -0.4840 -0.0980
 7378SOL    HW133770   4.133   4.656   1.456 -1.0640 -0.4244  2.2748
 7378SOL    HW233771   4.214   4.669   1.575 -0.7193  1.1290 -1.1199
 7379SOL     OW33772   0.091   3.821   2.382  0.0315  0.0597 -0.8786
 7379SOL    HW133773   0.180   3.785   2.371  0.5718  0.9163  0.7979
 7379SOL    HW233774   0.125   3.909   2.396 -1.0895  0.2501  0.5540
 7380SOL     OW33775   2.344   2.712   6.986  0.9219 -0.1754  0.2158
 7380SOL    HW133776   2.377   2.745   6.903 -0.4751 -0.3269 -0.3945
 7380SOL    HW233777   2.265   2.675   6.947  2.3458 -2.4102 -0.5577
 7381SOL     OW33778   3.164   3.337  15.712  0.2931 -0.2366 -0.1502
 7381SOL    HW133779   3.209   3.306  15.634 -0.1947 -3.7247  0.9569
 7381SOL    HW233780   3.129   3.418  15.675 -0.7043 -0.9926 -0.8637
 7382SOL     OW33781   0.282   3.381   1.172  0.0538 -0.8152  0.0859
 7382SOL    HW133782   0.210   3.320   1.189 -0.6203  0.0522  0.2816
 7382SOL    HW233783   0.321   3.352   1.089 -1.6992  1.1744 -1.4219
 7383SOL     OW33784   1.294   4.576   2.022 -0.7348 -0.1716  0.1496
 7383SOL    HW133785   1.248   4.638   2.079 -1.8614  1.5211 -2.5824
 7383SOL    HW233786   1.350   4.630   1.967  2.3528 -3.6660 -0.1353
 7384SOL     OW33787   2.470   0.278   8.829 -0.2305  0.6784  0.4163
 7384SOL    HW133788   2.498   0.307   8.916 -0.1875  1.8563  0.0169
 7384SOL    HW233789   2.442   0.190   8.852  0.0853  0.2972 -0.6662
 7385SOL     OW33790   0.370   4.141  15.408 -0.0573  0.7821 -0.1734
 7385SOL    HW133791   0.367   4.224  15.455  2.2438  1.8045 -1.8547
 7385SOL    HW233792   0.426   4.168  15.336  0.5844  2.9103  1.1158
 7386SOL     OW33793   3.846   3.915   5.197 -0.6863  0.5376 -0.2539
 7386SOL    HW133794   3.805   3.867   5.124  1.7875  0.0306 -1.3088
 7386SOL    HW233795   3.875   3.840   5.249 -0.9255  0.4572 -0.2351
 7387SOL     OW33796   1.909   0.012   5.864 -0.0688 -0.3208  0.0442
 7387SOL    HW133797   1.988   0.035   5.913 -0.4479  0.8174  0.1231
 7387SOL    HW233798   1.851   4.737   5.938  0.1285  0.4275  0.3440
 7388SOL     OW33799   0.943   3.209   6.908 -0.0476  0.8595  0.4549
 7388SOL    HW133800   0.849   3.196   6.903  0.1952 -1.1991  1.1630
 7388SOL    HW233801   0.973   3.119   6.919 -1.0749  0.4951  0.2221
 7389SOL     OW33802   3.629   4.284   2.669 -0.0814 -0.3447  0.1687
 7389SOL    HW133803   3.581   4.235   2.736  0.2178  0.9769  1.3717
 7389SOL    HW233804   3.612   4.228   2.594 -0.1840  0.7587 -0.6352
 7390SOL     OW33805   2.033   0.209   4.037 -0.5951  0.7830 -0.1338
 7390SOL    HW133806   1.941   0.185   4.026 -0.9900  2.8216 -1.3912
 7390SOL    HW233807   2.031   0.225   4.131  0.4765 -1.3916  0.2555
 7391SOL     OW33808   4.227   3.606   8.851 -0.2806 -0.5738 -0.5521
 7391SOL    HW133809   4.262   3.528   8.894  0.3236 -0.2132 -0.3877
 7391SOL    HW233810   4.316   3.643   8.853 -1.3514  2.0948 -1.6487
 7392SOL     OW33811   2.168   0.372   7.391 -0.5510 -0.6092 -0.9270
 7392SOL    HW133812   2.091   0.387   7.335 -1.1444  2.5634  0.7235
 7392SOL    HW233813   2.212   0.305   7.339 -1.0179 -2.7021  1.4019
 7393SOL     OW33814   1.466   4.127   9.106 -0.6889  0.5077 -0.2671
 7393SOL    HW133815   1.444   4.058   9.169  0.3870  0.9796  0.6333
 7393SOL    HW233816   1.559   4.108   9.095 -1.6445 -1.5489 -4.4025
 7394SOL     OW33817   2.177   2.572  13.221  0.5771  0.1176 -0.2426
 7394SOL    HW133818   2.179   2.477  13.223  0.5404  0.1955  3.1745
 7394SOL    HW233819   2.187   2.591  13.315  2.8470 -1.0427 -0.2642
 7395SOL     OW33820   2.280   1.296  16.246 -0.0392  0.4298  0.0819
 7395SOL    HW133821   2.371   1.266  16.243  0.0808  0.7368  0.5371
 7395SOL    HW233822   2.270   1.293  16.151 -1.1011 -0.3711  0.2098
 7396SOL     OW33823   3.397   3.537  11.436 -0.3650 -0.3507 -0.0805
 7396SOL    HW133824   3.303   3.552  11.437 -0.1390  1.1823 -1.9937
 7396SOL    HW233825   3.420   3.574  11.521  0.0371  0.6418 -0.6206
 7397SOL     OW33826   0.659   0.203   1.971  0.4938  0.0901  0.2673
 7397SOL    HW133827   0.617   0.155   2.042  1.5578 -1.7807 -0.3643
 7397SOL    HW233828   0.636   0.158   1.889 -0.9055  1.9341 -0.3593
 7398SOL     OW33829   2.368   0.403   3.525  0.2092 -0.0993 -0.5217
 7398SOL    HW133830   2.419   0.353   3.589 -0.6363 -0.5262 -0.1772
 7398SOL    HW233831   2.383   0.344   3.451 -0.8613 -0.7740 -0.2040
 7399SOL     OW33832   1.405   1.628   3.669 -0.6296  0.5851  0.0893
 7399SOL    HW133833   1.449   1.682   3.602 -2.0766 -0.3617 -1.6234
 7399SOL    HW233834   1.475   1.630   3.734 -1.0629  0.0943  0.5699
 7400SOL     OW33835   0.484   0.046   5.618 -0.8658 -0.3235  0.0002
 7400SOL    HW133836   0.530   0.126   5.592 -2.0917 -0.2095 -1.8271
 7400SOL    HW233837   0.459   0.021   5.529  0.0194  0.5847 -0.4960
 7401SOL     OW33838   4.688   3.185   0.468 -0.1689  0.0611 -0.1187
 7401SOL    HW133839   4.717   3.265   0.424  1.4074  1.2174  3.0037
 7401SOL    HW233840   4.659   3.128   0.397  0.0473 -1.2085  0.8031
 7402SOL     OW33841   1.719   0.395   2.682  0.3616 -0.2417  0.7908
 7402SOL    HW133842   1.813   0.413   2.673 -0.5090  3.8405 -0.2810
 7402SOL    HW233843   1.712   0.326   2.748 -1.6959 -0.4968  0.2900
 7403SOL     OW33844   2.772   4.304   4.064  0.2487 -0.3491  0.4817
 7403SOL    HW133845   2.682   4.274   4.056  0.3091 -0.6592  0.9482
 7403SOL    HW233846   2.772   4.389   4.108  1.2841  0.3867 -0.9411
 7404SOL     OW33847   2.922   2.462   5.397 -0.2341  0.0084 -0.3669
 7404SOL    HW133848   2.864   2.470   5.321  0.3620  2.4966 -0.5659
 7404SOL    HW233849   2.875   2.402   5.455 -0.8016  0.7614 -0.0500
 7405SOL     OW33850   2.222   0.970   7.484  0.1841  0.5403 -0.3302
 7405SOL    HW133851   2.153   1.035   7.488 -0.9730 -0.6945 -0.1997
 7405SOL    HW233852   2.193   0.907   7.551  1.5546  0.4455  0.1772
 7406SOL     OW33853   0.911   3.198   4.423 -0.2479  0.6410  0.4117
 7406SOL    HW133854   0.988   3.210   4.478 -0.5114 -0.8318  1.0868
 7406SOL    HW233855   0.945   3.131   4.364  1.0105  0.2351  1.5994
 7407SOL     OW33856   0.165   3.981  14.726  0.4926 -0.0651 -0.3993
 7407SOL    HW133857   0.177   3.886  14.718  0.8821  0.0160 -0.8431
 7407SOL    HW233858   0.073   3.978  14.700 -0.3449 -0.4204  2.6804
 7408SOL     OW33859   3.845   2.375   2.415  0.0775  0.5967 -0.2946
 7408SOL    HW133860   3.764   2.329   2.390 -0.8906  0.6696  2.6136
 7408SOL    HW233861   3.864   2.424   2.335 -0.7264  0.6154 -0.4731
 7409SOL     OW33862   0.037   3.600   5.788 -0.2245  0.0212 -0.3482
 7409SOL    HW133863   0.035   3.618   5.694 -2.3336 -0.2191 -0.3542
 7409SOL    HW233864   0.078   3.513   5.783 -1.1923 -0.4801  0.3128
 7410SOL     OW33865   2.667   1.076   8.863 -0.0578 -0.5859  0.1677
 7410SOL    HW133866   2.697   1.165   8.849 -3.4671  0.2734 -1.5153
 7410SOL    HW233867   2.753   1.053   8.901  1.7164  0.1716 -3.4347
 7411SOL     OW33868   2.443   4.278   2.665  0.1816  0.5067 -0.2126
 7411SOL    HW133869   2.354   4.242   2.666  1.0307 -1.5148  1.7874
 7411SOL    HW233870   2.479   4.293   2.752  1.6948 -0.5860 -0.6502
 7412SOL     OW33871   1.876   0.364   9.213 -0.0727  0.1128  0.3421
 7412SOL    HW133872   1.840   0.276   9.225  0.0924  0.2131  1.6062
 7412SOL    HW233873   1.887   0.383   9.307  1.1077  1.7002 -0.1197
 7413SOL     OW33874   3.807   2.833   5.806  0.2769  0.1233  0.2387
 7413SOL    HW133875   3.877   2.883   5.846  0.0009  0.6902  0.0081
 7413SOL    HW233876   3.808   2.849   5.711 -1.7987  0.6603  0.2913
 7414SOL     OW33877   1.766   4.047   2.326 -0.6207 -0.2014  0.2171
 7414SOL    HW133878   1.780   4.118   2.262 -2.4197  1.6864  1.9168
 7414SOL    HW233879   1.736   4.094   2.403  1.5898 -0.0242  0.9643
 7415SOL     OW33880   2.005   4.273   5.488  0.4254 -0.4524  0.7151
 7415SOL    HW133881   2.005   4.258   5.394  0.9664 -0.5313  0.7289
 7415SOL    HW233882   2.000   4.368   5.490  0.6574 -0.4600  1.8752
 7416SOL     OW33883   4.052   1.285   7.663  0.2769 -0.3881  0.1001
 7416SOL    HW133884   4.018   1.320   7.581  1.2215  2.5920  1.0018
 7416SOL    HW233885   4.142   1.318   7.656  0.8484 -2.1657 -0.9409
 7417SOL     OW33886   3.963   4.165   3.312 -0.2215  0.8586  0.5041
 7417SOL    HW133887   4.058   4.159   3.307 -0.1699  1.9356  0.1312
 7417SOL    HW233888   3.950   4.256   3.340  1.3782  1.5594 -1.0110
 7418SOL     OW33889   3.551   0.375  13.401 -0.1540  0.5095 -0.3296
 7418SOL    HW133890   3.600   0.376  13.319 -0.0179  0.7658 -0.2440
 7418SOL    HW233891   3.551   0.285  13.433  1.6807  0.3033 -0.9290
 7419SOL     OW33892   4.142   3.481   4.752 -0.0277  0.0830  0.5180
 7419SOL    HW133893   4.087   3.457   4.678 -0.7310  0.4420  0.9289
 7419SOL    HW233894   4.190   3.549   4.705  0.6678 -0.4878  0.3988
 7420SOL     OW33895   4.184   0.788   3.277 -0.2709  0.3205  0.3139
 7420SOL    HW133896   4.116   0.851   3.253  0.3083  0.9118  0.2591
 7420SOL    HW233897   4.179   0.798   3.372  0.9314 -2.5917  0.6934
 7421SOL     OW33898   3.402   0.911  16.096 -0.6939 -0.3592  0.0149
 7421SOL    HW133899   3.344   0.985  16.078  2.5252  1.7448 -1.8440
 7421SOL    HW233900   3.436   0.889  16.009  0.4814 -0.5414  0.5177
 7422SOL     OW33901   4.733   4.525  15.176  0.0255  0.6024  0.2809
 7422SOL    HW133902   0.088   4.529  15.185 -0.0966 -2.9222  3.1362
 7422SOL    HW233903   4.698   4.611  15.198  2.3714  1.2675  1.3410
 7423SOL     OW33904   2.059   3.106  10.619 -0.4010 -0.3191 -0.1602
 7423SOL    HW133905   2.148   3.142  10.623 -0.6562  0.1210  1.3262
 7423SOL    HW233906   2.009   3.187  10.632 -1.4260 -1.1578  0.9929
 7424SOL     OW33907   1.013   3.645   3.439  0.0155  0.2427 -0.3867
 7424SOL    HW133908   0.969   3.669   3.520 -0.0415 -2.7990  0.4945
 7424SOL    HW233909   1.038   3.732   3.406  1.0284  0.2119  0.2767
 7425SOL     OW33910   3.904   2.234   7.544  0.0598 -0.0334 -0.1438
 7425SOL    HW133911   3.843   2.266   7.477 -0.1215  0.6450  0.3522
 7425SOL    HW233912   3.942   2.166   7.488  1.6423  0.8531 -0.1450
 7426SOL     OW33913   4.561   0.833   6.610  0.3639  0.3511 -0.0276
 7426SOL    HW133914   4.652   0.812   6.588 -0.7492 -1.9876 -2.5232
 7426SOL    HW233915   4.584   0.871   6.695  0.6805  0.1212 -0.0085
 7427SOL     OW33916   1.219   2.554   1.408  0.1358  0.1373 -0.2477
 7427SOL    HW133917   1.293   2.601   1.371  0.5811 -0.2687  0.1351
 7427SOL    HW233918   1.228   2.472   1.359 -1.4805 -0.2923  0.1471
 7428SOL     OW33919   1.824   3.681   5.963  0.7288  0.5065  0.0781
 7428SOL    HW133920   1.732   3.656   5.969  0.7858  0.0139 -1.1065
 7428SOL    HW233921   1.824   3.715   5.874 -1.0691 -0.9614 -0.4762
 7429SOL     OW33922   2.219   0.910  11.896 -0.5971  0.0410 -0.4783
 7429SOL    HW133923   2.238   1.000  11.870  2.3730 -0.8835 -1.4495
 7429SOL    HW233924   2.140   0.896  11.842 -0.4471 -0.0703 -0.6712
 7430SOL     OW33925   2.830   2.102   2.671 -0.4135  0.7254 -0.5970
 7430SOL    HW133926   2.909   2.113   2.618 -1.8957  2.4799 -2.4354
 7430SOL    HW233927   2.785   2.187   2.666 -0.9157  0.4336 -1.0034
 7431SOL     OW33928   1.175   1.593  17.514 -0.2018  0.0438 -0.2374
 7431SOL    HW133929   1.176   1.497  17.509 -2.0535  0.0126 -0.1087
 7431SOL    HW233930   1.095   1.613  17.467  1.2331 -0.1501 -2.7476
 7432SOL     OW33931   0.518   0.609   5.423  0.1528  0.7059 -0.2984
 7432SOL    HW133932   0.543   0.658   5.501  2.5595  0.0206 -0.6609
 7432SOL    HW233933   0.585   0.631   5.359  2.4763 -2.9225  0.8584
 7433SOL     OW33934   2.296   4.440  15.850  0.4253  0.0839 -0.1630
 7433SOL    HW133935   2.368   4.477  15.799 -1.9116  1.6148 -2.3367
 7433SOL    HW233936   2.300   4.508  15.917 -0.6582  0.0154 -0.0236
 7434SOL     OW33937   3.378   0.140   8.557 -0.2916  0.2504 -0.0145
 7434SOL    HW133938   3.405   0.173   8.471 -1.1988 -2.0079 -1.1824
 7434SOL    HW233939   3.464   0.104   8.578 -0.9468 -1.8307 -0.8812
 7435SOL     OW33940   1.369   0.384   4.690 -0.6539 -0.6162 -0.3289
 7435SOL    HW133941   1.332   0.458   4.642  0.8943  0.7831  0.6083
 7435SOL    HW233942   1.297   0.321   4.688 -0.1115 -1.2536  0.1160
 7436SOL     OW33943   2.213   0.487   6.256  0.6214 -0.4948 -0.7230
 7436SOL    HW133944   2.219   0.495   6.352  2.5092  1.1054 -0.9692
 7436SOL    HW233945   2.159   0.564   6.236  1.0606  0.5722  2.2014
 7437SOL     OW33946   2.218   0.314  12.871  0.2826  0.0214 -0.5570
 7437SOL    HW133947   2.159   0.245  12.900 -1.2976  0.7116 -2.1091
 7437SOL    HW233948   2.165   0.393  12.884  0.4276  0.0492 -0.1512
 7438SOL     OW33949   2.622   0.678   9.082  0.0500  0.3231  0.6713
 7438SOL    HW133950   2.557   0.748   9.075  0.0646  0.3381  0.6843
 7438SOL    HW233951   2.604   0.613   9.014  3.9758 -0.4974  0.4283
 7439SOL     OW33952   4.499   4.047   5.133 -0.4963 -0.1107 -0.3335
 7439SOL    HW133953   4.526   4.025   5.044  0.5558 -2.3651  0.5319
 7439SOL    HW233954   4.564   4.111   5.161  0.1222 -0.1996 -1.5390
 7440SOL     OW33955   3.993   3.032   6.827 -0.3143 -0.5688 -0.1279
 7440SOL    HW133956   4.011   2.938   6.830 -1.2579 -0.7419  0.0618
 7440SOL    HW233957   4.041   3.051   6.747  1.2562  0.1117  0.9611
 7441SOL     OW33958   1.824   1.092   8.085  0.2010  0.3733 -0.8885
 7441SOL    HW133959   1.857   1.181   8.073 -0.7512  0.8526  0.0378
 7441SOL    HW233960   1.745   1.085   8.032 -0.9048  2.8211  0.4483
 7442SOL     OW33961   3.623   0.058   3.805  0.1159  0.2777  0.2263
 7442SOL    HW133962   3.577   0.050   3.888 -1.0417  4.6484 -0.0049
 7442SOL    HW233963   3.545   0.069   3.752 -0.3628 -0.8841  0.6890
 7443SOL     OW33964   1.269   2.698   2.145  0.4967  0.2996 -0.2525
 7443SOL    HW133965   1.285   2.605   2.129 -3.4324 -0.2863 -0.6612
 7443SOL    HW233966   1.188   2.694   2.194  0.9527 -1.8808  0.3056
 7444SOL     OW33967   1.259   0.054  17.115  0.0512  0.3018  0.0904
 7444SOL    HW133968   1.274   0.107  17.194 -1.3681  0.9694 -0.0906
 7444SOL    HW233969   1.339   0.003  17.108  0.5605  0.9053  1.4882
 7445SOL     OW33970   3.904   2.620   8.719  0.1339  0.2588 -0.4570
 7445SOL    HW133971   3.930   2.711   8.703  0.7580 -0.0901 -1.4717
 7445SOL    HW233972   3.930   2.598   8.808 -1.1060 -0.3212 -0.2373
 7446SOL     OW33973   4.736   4.619   8.504 -0.8308  0.1217  0.1504
 7446SOL    HW133974   0.078   4.569   8.500 -1.6819 -1.3067  0.6034
 7446SOL    HW233975   0.023   4.705   8.535  0.7392 -0.1932 -0.3424
 7447SOL     OW33976   2.586   3.781   3.787  0.0538 -0.0745  0.1992
 7447SOL    HW133977   2.543   3.720   3.846 -0.8004  1.7632  1.4784
 7447SOL    HW233978   2.569   3.869   3.822  1.2122  0.4280 -0.5046
 7448SOL     OW33979   1.282   1.318   2.640 -0.1291 -0.3901  0.1473
 7448SOL    HW133980   1.192   1.340   2.665  0.0355 -0.1766  0.5328
 7448SOL    HW233981   1.258   1.251   2.576 -0.0071 -0.4978  0.2138
 7449SOL     OW33982   1.986   1.490   4.340 -0.0784 -0.0585 -0.0216
 7449SOL    HW133983   1.931   1.531   4.274  0.4694  0.2686 -0.2793
 7449SOL    HW233984   1.971   1.541   4.420 -0.3356 -0.4876  0.2035
 7450SOL     OW33985   2.554   4.182  14.128 -0.0560  0.2837 -0.4666
 7450SOL    HW133986   2.594   4.127  14.061  0.1000 -0.6400  0.3975
 7450SOL    HW233987   2.590   4.149  14.210 -1.0004 -0.0892 -0.2018
 7451SOL     OW33988   3.595   3.258   6.916  0.2374  0.1767 -0.1470
 7451SOL    HW133989   3.630   3.343   6.891 -0.9049 -0.2193 -3.0537
 7451SOL    HW233990   3.670   3.230   6.967 -0.8907 -0.7695  0.9942
 7452SOL     OW33991   1.905   2.925  11.509 -0.2773 -0.3367 -0.2875
 7452SOL    HW133992   1.975   2.888  11.455  0.0264  0.4874 -0.4612
 7452SOL    HW233993   1.888   2.857  11.573 -1.1516  0.1867  0.0322
 7453SOL     OW33994   0.763   4.292   2.184  0.4481 -0.1602  0.0513
 7453SOL    HW133995   0.733   4.244   2.107 -0.7497 -0.0512  0.4486
 7453SOL    HW233996   0.787   4.216   2.237 -1.2882  0.9776  2.5110
 7454SOL     OW33997   2.710   4.052   6.427 -0.3607 -0.0278 -0.2280
 7454SOL    HW133998   2.724   4.053   6.332 -2.4641 -4.5507 -0.5984
 7454SOL    HW233999   2.684   4.142   6.443  0.5723  0.1812  0.0955
 7455SOL     OW34000   2.737   4.487   6.060  0.1948  0.3499  0.7691
 7455SOL    HW134001   2.662   4.432   6.036  1.6694 -0.3369 -2.2638
 7455SOL    HW234002   2.804   4.419   6.057 -0.3891 -0.1993  0.1430
 7456SOL     OW34003   3.210   4.573   3.752 -0.0766  0.7399  0.7291
 7456SOL    HW134004   3.217   4.582   3.847  0.6820 -0.3410  0.7683
 7456SOL    HW234005   3.210   4.478   3.740 -1.7064  0.8096  0.1770
 7457SOL     OW34006   0.181   1.798  14.133  0.0442 -0.0197  0.2463
 7457SOL    HW134007   0.117   1.774  14.200  0.7301 -0.8364  0.5979
 7457SOL    HW234008   0.212   1.723  14.083  1.7792 -0.0274  1.3779
 7458SOL     OW34009   1.732   2.777   0.303  0.3288  0.1354  0.2962
 7458SOL    HW134010   1.771   2.863   0.314 -0.5839  0.3403  1.9315
 7458SOL    HW234011   1.650   2.802   0.346 -0.0978  0.7633 -0.8804
 7459SOL     OW34012   3.283   1.960   4.392  0.0184  0.2879  0.1517
 7459SOL    HW134013   3.287   1.909   4.473  0.9252 -0.0839 -0.1213
 7459SOL    HW234014   3.212   1.917   4.346  3.0455 -2.9243 -1.5370
 7460SOL     OW34015   1.382   3.125   5.603 -0.4106  0.4116  0.0473
 7460SOL    HW134016   1.414   3.104   5.515  0.9539  1.1802  0.3547
 7460SOL    HW234017   1.441   3.199   5.617 -0.0755 -0.2120  1.9970
 7461SOL     OW34018   2.786   4.469  13.610 -0.3466 -0.1991 -0.3178
 7461SOL    HW134019   2.742   4.521  13.677  0.8618 -0.7397  0.9180
 7461SOL    HW234020   2.841   4.536  13.570  0.6561 -0.6968  0.2013
 7462SOL     OW34021   0.282   1.327   8.005  0.7520 -0.2139  0.5113
 7462SOL    HW134022   0.232   1.259   8.050  0.7575 -1.3235 -1.1377
 7462SOL    HW234023   0.310   1.389   8.072 -2.9585  1.6480  0.3459
 7463SOL     OW34024   4.329   1.873   2.979 -0.2594 -0.1560  0.7009
 7463SOL    HW134025   4.367   1.950   2.936  1.1380 -2.3227 -1.9568
 7463SOL    HW234026   4.318   1.817   2.903  0.1617  0.3648  0.2497
 7464SOL     OW34027   3.262   2.598   3.929 -0.7758 -0.1120 -0.0668
 7464SOL    HW134028   3.226   2.684   3.905 -0.6671 -0.0169  0.1113
 7464SOL    HW234029   3.268   2.552   3.845  1.6298  1.6644 -0.8658
 7465SOL     OW34030   3.145   1.602   4.948  0.1355  0.4455  0.7615
 7465SOL    HW134031   3.100   1.525   4.983 -0.6907  0.0697 -1.0903
 7465SOL    HW234032   3.122   1.667   5.014 -0.7691  0.4407  0.4523
 7466SOL     OW34033   2.425   4.617   7.297 -0.3999  0.1500  0.3416
 7466SOL    HW134034   2.363   4.626   7.224 -2.5228 -0.9143  2.0514
 7466SOL    HW234035   2.376   4.639   7.376 -0.6568 -0.5626  0.3750
 7467SOL     OW34036   2.344   1.295   7.319 -0.1476  0.5660 -0.4178
 7467SOL    HW134037   2.360   1.319   7.410 -1.4878  0.2416 -0.1021
 7467SOL    HW234038   2.401   1.222   7.294  1.5409  1.8439 -0.2757
 7468SOL     OW34039   2.395   4.162   5.232  0.3520 -0.1351  0.0896
 7468SOL    HW134040   2.470   4.210   5.268 -2.2555  1.0507  4.0140
 7468SOL    HW234041   2.387   4.093   5.297  1.2077  0.7168  1.1018
 7469SOL     OW34042   0.846   3.254  11.872 -0.1749 -0.2046  0.0542
 7469SOL    HW134043   0.819   3.196  11.800 -0.9447  0.9984 -0.6342
 7469SOL    HW234044   0.886   3.184  11.924  0.6124 -0.3117 -0.6906
 7470SOL     OW34045   0.620   1.785   7.282  0.4005 -0.2641  0.2053
 7470SOL    HW134046   0.607   1.722   7.210  2.4166 -0.4567  0.0009
 7470SOL    HW234047   0.715   1.788   7.292  0.5096 -1.1170 -0.5234
 7471SOL     OW34048   0.975   3.637   8.476 -0.9174  0.9577  0.0233
 7471SOL    HW134049   0.916   3.656   8.549  2.0508  1.7337  2.2600
 7471SOL    HW234050   0.990   3.729   8.455  1.0020  0.0600 -2.5899
 7472SOL     OW34051   1.988   3.779   7.780  0.3378 -0.1475 -0.2149
 7472SOL    HW134052   2.020   3.860   7.739 -0.5122  1.0741  1.5544
 7472SOL    HW234053   2.054   3.718   7.748 -1.2944 -2.5808  1.1196
 7473SOL     OW34054   0.795   2.295   8.737 -0.2891  0.1580  0.6363
 7473SOL    HW134055   0.814   2.211   8.778  0.0775 -0.3420 -0.5636
 7473SOL    HW234056   0.844   2.345   8.803 -1.7944  1.5889  0.6683
 7474SOL     OW34057   3.120   4.073   3.958 -0.0383  0.4560  0.1975
 7474SOL    HW134058   3.197   4.128   3.967 -0.9186  1.5788  0.7582
 7474SOL    HW234059   3.051   4.119   4.005 -1.9488 -1.2751 -0.8384
 7475SOL     OW34060   1.898   2.628   5.369 -0.0519  0.2977  0.8583
 7475SOL    HW134061   1.943   2.634   5.453  2.5746 -1.7560 -0.3598
 7475SOL    HW234062   1.959   2.575   5.318 -0.1788  1.6228 -0.6579
 7476SOL     OW34063   0.018   1.317   6.971 -0.1177 -0.6443  0.0974
 7476SOL    HW134064   0.082   1.274   6.914  0.7951  0.9061 -0.0725
 7476SOL    HW234065   0.059   1.326   7.057  1.2060  1.2035 -0.7138
 7477SOL     OW34066   1.000   2.299   5.577  0.8313 -1.0946  0.5283
 7477SOL    HW134067   0.997   2.352   5.657  3.5822 -1.1088  0.6630
 7477SOL    HW234068   0.970   2.364   5.514 -1.0942 -0.0932  2.5110
 7478SOL     OW34069   1.700   3.654   4.041 -0.2830 -0.1770 -0.1045
 7478SOL    HW134070   1.681   3.739   4.001  0.0512 -0.6565 -1.2613
 7478SOL    HW234071   1.683   3.597   3.966 -0.5018 -1.1298  0.6678
 7479SOL     OW34072   1.639   2.863   7.865 -0.8060 -0.2960 -0.0734
 7479SOL    HW134073   1.593   2.811   7.932 -2.5157  0.6019 -0.5471
 7479SOL    HW234074   1.569   2.927   7.853  0.4576  0.9876 -0.6119
 7480SOL     OW34075   4.108   4.178  11.805 -1.1040 -0.3418  0.4848
 7480SOL    HW134076   4.082   4.166  11.714  1.3194  2.8383 -0.6328
 7480SOL    HW234077   4.055   4.254  11.827  1.0026  1.7313 -1.6607
 7481SOL     OW34078   2.606   2.371   7.398 -0.2654 -0.2567 -0.2180
 7481SOL    HW134079   2.567   2.319   7.328 -2.8122  0.3898  0.7353
 7481SOL    HW234080   2.693   2.334   7.385  1.0598  2.5896  0.5613
 7482SOL     OW34081   1.148   1.820  10.076  0.4031  0.5418  0.4290
 7482SOL    HW134082   1.089   1.753  10.112  0.4202 -0.0440 -0.6289
 7482SOL    HW234083   1.217   1.830  10.142  0.2629  1.7231  0.3895
 7483SOL     OW34084   1.746   3.164   6.056  0.1594 -0.5144  0.5924
 7483SOL    HW134085   1.735   3.072   6.030 -0.9664  0.3867 -2.1287
 7483SOL    HW234086   1.834   3.154   6.092  0.9859  1.5686 -0.8331
 7484SOL     OW34087   1.193   0.280  16.632  0.1862  0.4858  0.1674
 7484SOL    HW134088   1.190   0.256  16.725  1.3553  0.2951  0.1505
 7484SOL    HW234089   1.274   0.232  16.615  0.6223  1.3912 -0.2999
 7485SOL     OW34090   1.833   2.635   5.714 -0.1297  0.0294  0.6739
 7485SOL    HW134091   1.911   2.602   5.669 -2.0687 -2.5146 -0.8493
 7485SOL    HW234092   1.843   2.586   5.796 -0.9432  0.2348  0.8955
 7486SOL     OW34093   0.559   1.035   5.025  0.3712  0.5436 -0.0313
 7486SOL    HW134094   0.472   1.075   5.025  0.7541  1.3708 -0.3321
 7486SOL    HW234095   0.544   0.948   5.062  0.7194  0.1470 -0.8323
 7487SOL     OW34096   2.723   2.664  16.149 -0.2071  0.0293  0.1738
 7487SOL    HW134097   2.787   2.734  16.162  1.3496 -1.6125  1.4096
 7487SOL    HW234098   2.682   2.697  16.068 -1.0774 -1.4414  0.0107
 7488SOL     OW34099   4.589   1.228   4.209  0.3480 -0.1086  0.0088
 7488SOL    HW134100   4.566   1.297   4.272 -1.9853 -1.7390  0.9406
 7488SOL    HW234101   4.546   1.268   4.134 -0.8806  0.3092  0.9297
 7489SOL     OW34102   1.290   0.402   1.269 -0.8045  0.4221 -0.5399
 7489SOL    HW134103   1.216   0.447   1.309 -0.0846 -0.6308  1.9526
 7489SOL    HW234104   1.273   0.400   1.175 -1.7319  1.8330 -0.4094
 7490SOL     OW34105   4.131   2.794   5.512  0.7023  0.1847 -0.0328
 7490SOL    HW134106   4.102   2.883   5.532 -1.9288 -0.8312  0.6259
 7490SOL    HW234107   4.110   2.752   5.595 -0.6182 -0.7119 -0.8111
 7491SOL     OW34108   4.349   0.132   4.077  0.0013 -0.4228 -0.2960
 7491SOL    HW134109   4.287   0.126   4.149 -1.4251  1.1528 -1.4024
 7491SOL    HW234110   4.414   0.187   4.121  0.9331 -1.5529 -0.2646
 7492SOL     OW34111   0.956   4.209  10.837  0.0041  0.7927 -0.1857
 7492SOL    HW134112   1.001   4.127  10.859 -2.1468 -0.5992 -1.0623
 7492SOL    HW234113   1.026   4.274  10.829  0.5272  0.2854  0.2253
 7493SOL     OW34114   1.572   3.720   9.915  0.0763 -0.3080  0.1434
 7493SOL    HW134115   1.552   3.629   9.937  2.3587 -1.1735 -1.4063
 7493SOL    HW234116   1.518   3.771   9.976  0.6129  0.4035  0.0219
 7494SOL     OW34117   1.560   1.887  14.152 -0.3064  0.6670  0.4542
 7494SOL    HW134118   1.496   1.833  14.107  1.9574 -1.5177 -0.1560
 7494SOL    HW234119   1.537   1.876  14.245 -2.3409 -0.9422 -0.2496
 7495SOL     OW34120   4.616   3.165  16.468  0.3327 -0.6798 -0.6567
 7495SOL    HW134121   4.592   3.178  16.376 -1.5831 -0.3786 -0.1083
 7495SOL    HW234122   4.702   3.124  16.464  1.9202  2.8732 -3.0429
 7496SOL     OW34123   0.509   0.956   0.139  0.7363 -0.4321  0.2338
 7496SOL    HW134124   0.570   1.021   0.174 -0.0169 -0.8623  2.3516
 7496SOL    HW234125   0.558   0.877   0.161 -0.7145 -1.7183 -1.1339
 7497SOL     OW34126   3.362   2.914   8.288  0.8256 -0.5509 -0.4722
 7497SOL    HW134127   3.365   2.988   8.348 -0.0267 -1.8522  1.1721
 7497SOL    HW234128   3.361   2.953   8.201 -2.5664  2.7301  1.0310
 7498SOL     OW34129   1.353   1.340   1.665  0.2632 -0.0513 -0.3359
 7498SOL    HW134130   1.261   1.356   1.687  0.3426 -0.0455  0.0007
 7498SOL    HW234131   1.341   1.249   1.638 -1.2913  0.3111 -0.8741
 7499SOL     OW34132   2.735   0.420  15.155 -0.3075 -0.4533  0.2536
 7499SOL    HW134133   2.702   0.509  15.153 -1.6089 -0.9636 -0.6406
 7499SOL    HW234134   2.748   0.404  15.062 -1.1717 -0.6415  0.1665
 7500SOL     OW34135   2.684   1.551   8.851 -0.1117 -0.3857 -0.0523
 7500SOL    HW134136   2.736   1.492   8.796 -1.0320  0.0342 -1.3596
 7500SOL    HW234137   2.655   1.483   8.913  0.6533  0.4048  1.1816
 7501SOL     OW34138   2.765   2.636  15.412 -0.1200 -0.3031  0.3285
 7501SOL    HW134139   2.731   2.726  15.411  0.7720  0.0291 -0.7724
 7501SOL    HW234140   2.832   2.633  15.480 -0.0743 -1.7407  0.2077
 7502SOL     OW34141   0.322   2.359   2.958  0.1314  0.1476 -0.1752
 7502SOL    HW134142   0.412   2.327   2.954 -0.5126 -1.3355 -2.5722
 7502SOL    HW234143   0.297   2.295   3.024  1.4433  1.7975  1.9485
 7503SOL     OW34144   2.450   0.301  17.465 -0.3504 -0.4942  0.8196
 7503SOL    HW134145   2.451   0.301  17.369  0.2034 -0.6329  0.8296
 7503SOL    HW234146   2.542   0.320  17.482 -0.6385  2.3221 -0.7618
 7504SOL     OW34147   4.381   4.043  12.823  0.0849  1.0222  0.0933
 7504SOL    HW134148   4.365   4.035  12.729 -2.8587  0.6472  0.6202
 7504SOL    HW234149   4.433   3.965  12.842 -2.2941 -0.4446  0.5304
 7505SOL     OW34150   3.482   1.235   6.454 -0.0100 -0.3337 -0.2216
 7505SOL    HW134151   3.556   1.178   6.435  0.4550 -0.6989  2.6392
 7505SOL    HW234152   3.415   1.219   6.387 -1.5226  1.0387  0.9656
 7506SOL     OW34153   2.062   1.688   6.435 -0.3548 -0.2391  0.4719
 7506SOL    HW134154   1.975   1.718   6.463 -1.1338 -3.8260  1.9596
 7506SOL    HW234155   2.111   1.740   6.499 -1.0567  1.5363 -0.4242
 7507SOL     OW34156   2.997   2.480  13.268  0.3332  0.3733  0.2884
 7507SOL    HW134157   3.066   2.540  13.296  1.5954 -0.8951 -0.1346
 7507SOL    HW234158   2.962   2.454  13.353  1.9402  1.4419  1.2823
 7508SOL     OW34159   1.461   3.128   5.305  0.0458 -0.1530 -0.3384
 7508SOL    HW134160   1.548   3.167   5.304 -0.9616  2.0525 -1.6776
 7508SOL    HW234161   1.484   3.039   5.278  1.1307  0.3516 -1.0591
 7509SOL     OW34162   2.043   3.156  17.279  0.3650  0.0219 -0.0755
 7509SOL    HW134163   1.989   3.180  17.204  1.2628 -0.5910 -0.9245
 7509SOL    HW234164   2.129   3.197  17.267 -0.2291  1.1041 -0.5415
 7510SOL     OW34165   3.981   3.356  11.346  0.0782 -0.4143  0.2482
 7510SOL    HW134166   4.016   3.266  11.351 -0.2860 -0.4994  1.4322
 7510SOL    HW234167   3.894   3.352  11.385 -0.0346 -1.2834 -0.0840
 7511SOL     OW34168   0.419   3.079   1.969  0.2562  0.1410  0.1466
 7511SOL    HW134169   0.430   3.023   2.045 -2.0387 -0.7460 -0.1789
 7511SOL    HW234170   0.387   3.160   2.007 -0.9421 -0.5432  0.5797
 7512SOL     OW34171   4.337   3.935  10.899 -0.1173 -0.0119  0.3280
 7512SOL    HW134172   4.350   3.978  10.984  0.6913 -0.1286  0.2630
 7512SOL    HW234173   4.313   3.845  10.921 -0.4428 -0.1614 -0.6382
 7513SOL     OW34174   4.435   4.518   9.730 -0.0278 -0.0113 -0.2888
 7513SOL    HW134175   4.382   4.526   9.810 -0.2742  0.2142 -0.4785
 7513SOL    HW234176   4.384   4.461   9.671  1.2406 -1.1982 -0.2401
 7514SOL     OW34177   1.541   1.764  17.661  0.2982  0.0664  0.0379
 7514SOL    HW134178   1.533   1.704  17.734 -0.7526  0.6006  0.3614
 7514SOL    HW234179   1.544   1.698  17.591  1.4161  0.2103 -0.0441
 7515SOL     OW34180   1.320   0.975  11.159  0.6027  0.1321 -0.2804
 7515SOL    HW134181   1.411   0.946  11.163  1.1476  1.8310 -0.4901
 7515SOL    HW234182   1.284   0.928  11.083  1.0918  1.9678 -1.6448
 7516SOL     OW34183   4.517   2.863  10.062 -0.0560  0.2064  0.0503
 7516SOL    HW134184   4.562   2.947  10.073  1.7233 -0.6096 -0.9762
 7516SOL    HW234185   4.499   2.880   9.970  1.5375 -2.4662 -0.7554
 7517SOL     OW34186   2.317   4.246  17.138  0.5690  0.4596 -0.1018
 7517SOL    HW134187   2.250   4.178  17.149 -0.4910  1.5284  0.0489
 7517SOL    HW234188   2.286   4.297  17.064 -0.6264 -1.8997 -1.2107
 7518SOL     OW34189   2.176   2.949  17.733 -0.0346 -0.6796  0.3337
 7518SOL    HW134190   2.102   2.918  17.681  1.4339 -0.8262 -1.6366
 7518SOL    HW234191   2.161   2.903   0.058  0.5528 -0.7570  0.3907
 7519SOL     OW34192   3.141   2.459   7.958  0.1021 -0.3732 -0.5242
 7519SOL    HW134193   3.224   2.499   7.983 -0.6505  0.5468  0.4905
 7519SOL    HW234194   3.090   2.539   7.967  1.8791  0.5328  1.5521
 7520SOL     OW34195   1.387   0.289   3.918  0.0280  0.0852 -0.1374
 7520SOL    HW134196   1.390   0.216   3.981 -0.1062  1.9279  1.9755
 7520SOL    HW234197   1.480   0.302   3.898  0.8570 -1.3969  2.7266
 7521SOL     OW34198   0.109   1.683  10.314  0.0840 -0.5488  0.4742
 7521SOL    HW134199   0.169   1.731  10.257  1.3440 -1.5935  0.9076
 7521SOL    HW234200   0.034   1.738  10.337  0.9084  0.2537  1.2456
 7522SOL     OW34201   2.652   4.243   9.678 -0.5251  0.1550 -0.4140
 7522SOL    HW134202   2.614   4.315   9.629  0.7198 -0.5783 -2.4795
 7522SOL    HW234203   2.595   4.242   9.754 -0.1320  0.3938 -0.1151
 7523SOL     OW34204   3.280   1.227   6.640  0.6858  0.0463  0.5699
 7523SOL    HW134205   3.351   1.254   6.582 -1.7434 -1.3555 -3.0570
 7523SOL    HW234206   3.284   1.132   6.631  0.9253 -0.0722  1.8471
 7524SOL     OW34207   0.483   0.904  17.273 -0.2309  0.5330 -0.0439
 7524SOL    HW134208   0.489   0.925  17.180 -3.7342 -2.1348 -0.8590
 7524SOL    HW234209   0.576   0.891  17.291 -0.9644 -2.5704  1.5400
 7525SOL     OW34210   1.203   0.863   2.727 -0.4214 -0.4434 -0.0062
 7525SOL    HW134211   1.204   0.793   2.792 -2.2566 -0.1721  0.3057
 7525SOL    HW234212   1.230   0.810   2.652 -2.4463 -0.8312 -0.4607
 7526SOL     OW34213   0.371   0.540   6.000 -0.8915 -0.2271  0.3940
 7526SOL    HW134214   0.384   0.627   5.960 -1.9274  0.7530  2.2027
 7526SOL    HW234215   0.358   0.563   6.092  0.6406 -0.0957  0.5742
 7527SOL     OW34216   0.816   0.756   3.008 -0.2889  0.0552 -0.6231
 7527SOL    HW134217   0.802   0.847   3.032 -0.0539  0.6170 -2.6577
 7527SOL    HW234218   0.736   0.748   2.957 -0.0144 -0.8850 -0.9061
 7528SOL     OW34219   2.831   2.623   2.532 -0.3234 -0.1588 -0.2211
 7528SOL    HW134220   2.890   2.649   2.461 -0.6722  0.3166 -0.3412
 7528SOL    HW234221   2.747   2.636   2.488 -0.4129  0.1265  0.0352
 7529SOL     OW34222   3.754   3.844   4.956 -0.2233  0.1406  0.5923
 7529SOL    HW134223   3.703   3.763   4.955 -0.9102  0.5845 -0.1933
 7529SOL    HW234224   3.782   3.860   4.865 -0.2087 -2.6907  0.1071
 7530SOL     OW34225   0.060   0.752   3.720  0.4100  0.0296  0.5799
 7530SOL    HW134226   0.070   0.695   3.644  1.8704  1.0366  0.0234
 7530SOL    HW234227   0.045   0.681   3.783 -0.5609  0.1491  0.4887
 7531SOL     OW34228   1.004   0.589   2.096  0.5698 -0.1718 -0.6785
 7531SOL    HW134229   0.971   0.550   2.015 -0.9506  0.3216 -0.2884
 7531SOL    HW234230   1.018   0.679   2.066 -0.7521  0.0103 -0.7586
 7532SOL     OW34231   3.187   3.104  10.941  0.6889 -0.5531  0.1830
 7532SOL    HW134232   3.149   3.148  10.865  0.0365  0.2069  0.9597
 7532SOL    HW234233   3.263   3.057  10.904 -0.0151 -1.1827 -0.4721
 7533SOL     OW34234   0.177   1.096  11.516  0.0035 -0.2132 -0.0303
 7533SOL    HW134235   0.266   1.062  11.530 -0.0603  0.3867  1.8396
 7533SOL    HW234236   0.194   1.187  11.542 -0.6438  0.1874 -1.0178
 7534SOL     OW34237   1.026   4.231  14.142  0.6944  0.6238  0.1705
 7534SOL    HW134238   0.986   4.146  14.123 -0.0892  1.6643 -2.8155
 7534SOL    HW234239   1.090   4.199  14.205  2.4610  1.0680 -1.4165
 7535SOL     OW34240   3.722   4.385   3.536  0.0179  0.0213  0.7524
 7535SOL    HW134241   3.806   4.360   3.499 -1.2472 -2.9235 -0.1791
 7535SOL    HW234242   3.731   4.479   3.548  1.4548  0.0267 -0.3860
 7536SOL     OW34243   1.123   2.347  16.162  0.2711 -0.7740 -0.1406
 7536SOL    HW134244   1.089   2.437  16.162 -0.3260 -1.0010  0.8730
 7536SOL    HW234245   1.208   2.361  16.204  0.6375  3.5078 -2.2955
 7537SOL     OW34246   0.437   4.132   9.125  0.1810  0.1556  0.0149
 7537SOL    HW134247   0.391   4.068   9.180 -1.7323  2.1811  0.7833
 7537SOL    HW234248   0.374   4.203   9.138 -1.4862 -1.0657 -1.3522
 7538SOL     OW34249   3.138   4.034   3.210 -0.1613  0.2979  0.4868
 7538SOL    HW134250   3.062   4.063   3.261  1.3954  4.1296  0.6661
 7538SOL    HW234251   3.121   3.940   3.204  1.0098  0.1076  0.2835
 7539SOL     OW34252   3.898   0.853   1.303  0.7542 -0.0242 -0.9640
 7539SOL    HW134253   3.879   0.877   1.212  3.4076  2.9250 -0.7632
 7539SOL    HW234254   3.988   0.882   1.316  0.6844  0.2279 -1.0306
 7540SOL     OW34255   1.001   0.994  12.456 -0.2346  0.1869  0.3402
 7540SOL    HW134256   1.011   0.994  12.552  0.3819  0.9844  0.2741
 7540SOL    HW234257   0.907   0.976  12.456  0.2931 -2.5759 -0.9056
 7541SOL     OW34258   4.440   3.077   2.800  0.0449 -0.7263 -0.5824
 7541SOL    HW134259   4.439   2.987   2.834  1.0055 -0.1374  0.9964
 7541SOL    HW234260   4.439   3.132   2.878 -1.8765 -2.1503  0.3834
 7542SOL     OW34261   3.376   0.006   8.783 -0.0860 -0.0794 -0.0605
 7542SOL    HW134262   3.371   0.063   8.707  0.5154  1.5121  1.0840
 7542SOL    HW234263   3.320   0.053   8.845  0.8947  0.5009  0.3986
 7543SOL     OW34264   2.803   0.633   6.101 -0.2827  1.4442  0.4444
 7543SOL    HW134265   2.759   0.690   6.037 -1.5506  1.5561  1.4152
 7543SOL    HW234266   2.730   0.589   6.145  0.0461 -0.0743 -0.5634
 7544SOL     OW34267   1.772   4.250   8.606  0.3674  0.3882 -0.1361
 7544SOL    HW134268   1.791   4.159   8.626  1.5668  0.6862  0.0704
 7544SOL    HW234269   1.857   4.293   8.616  0.1586  0.6028  0.6850
 7545SOL     OW34270   2.613   0.160  11.273 -0.0400  0.5917  0.0538
 7545SOL    HW134271   2.520   0.159  11.294  0.0495 -0.4499  0.4113
 7545SOL    HW234272   2.634   0.069  11.297 -2.0781  0.9702  3.2373
 7546SOL     OW34273   1.624   2.249  16.461  0.5450 -0.0079  0.1527
 7546SOL    HW134274   1.548   2.296  16.495  0.3396 -0.4219  0.2608
 7546SOL    HW234275   1.576   2.180  16.416  1.0081 -0.5136  0.4294
 7547SOL     OW34276   0.541   1.471   6.448 -0.5197 -0.9324  0.5915
 7547SOL    HW134277   0.446   1.467   6.460 -0.4523 -2.8282  0.4712
 7547SOL    HW234278   0.567   1.557   6.480 -1.8753  0.8512 -3.0054
 7548SOL     OW34279   2.351   4.328   3.628 -0.6377  0.5436  0.0492
 7548SOL    HW134280   2.396   4.368   3.554  1.9574 -0.8695  0.8612
 7548SOL    HW234281   2.367   4.234   3.621 -2.2426  0.0895  2.1129
 7549SOL     OW34282   1.234   0.564   9.243  0.3692 -0.1021 -0.4644
 7549SOL    HW134283   1.319   0.529   9.217  0.5715  1.1234 -1.4475
 7549SOL    HW234284   1.246   0.654   9.216  0.7431  0.1315  0.4796
 7550SOL     OW34285   1.635   0.704   9.407 -0.3321 -0.2111  0.7717
 7550SOL    HW134286   1.607   0.783   9.360  0.7505  0.4166  1.2074
 7550SOL    HW234287   1.727   0.727   9.397  0.0654 -1.6421  1.0513
 7551SOL     OW34288   2.690   3.730   7.854 -0.1948  0.8797 -0.3068
 7551SOL    HW134289   2.699   3.773   7.769  2.4306 -0.3546 -0.6268
 7551SOL    HW234290   2.669   3.638   7.840 -0.9742  1.1169 -0.7391
 7552SOL     OW34291   0.513   2.645   7.369  0.4326 -0.4562  1.2234
 7552SOL    HW134292   0.499   2.605   7.283 -3.9172  1.9891  0.7549
 7552SOL    HW234293   0.446   2.714   7.376  1.1300  0.5019 -1.2939
 7553SOL     OW34294   3.970   1.698   3.769  0.5994 -0.8738 -0.2542
 7553SOL    HW134295   3.975   1.793   3.770 -0.3670 -0.8233 -0.7746
 7553SOL    HW234296   3.960   1.680   3.863 -1.4307 -0.7464 -0.4455
 7554SOL     OW34297   4.323   1.513   2.545 -0.3449  0.0247 -0.0536
 7554SOL    HW134298   4.282   1.598   2.529  1.3799  0.4537 -2.1680
 7554SOL    HW234299   4.244   1.470   2.578 -0.1863 -0.4904 -0.3556
 7555SOL     OW34300   0.817   2.820  11.270 -0.2540 -0.1739 -1.2971
 7555SOL    HW134301   0.867   2.771  11.204  1.0107  0.3044 -0.7028
 7555SOL    HW234302   0.732   2.776  11.274  0.9406 -2.1326  2.4931
 7556SOL     OW34303   2.738   3.515  15.423  0.4510  0.6084  0.0258
 7556SOL    HW134304   2.683   3.498  15.347  0.0169 -1.6208  0.8519
 7556SOL    HW234305   2.806   3.571  15.385  1.6043 -0.0572  1.1327
 7557SOL     OW34306   1.124   4.716  12.501 -0.1221  0.4265  0.7762
 7557SOL    HW134307   1.092   0.055  12.458  1.0638  0.0003 -0.8982
 7557SOL    HW234308   1.215   4.728  12.473 -0.2968  1.4468  0.6433
 7558SOL     OW34309   2.758   0.614   5.403 -0.0429  0.0901 -0.5882
 7558SOL    HW134310   2.681   0.635   5.351  0.1136 -0.6914 -1.1449
 7558SOL    HW234311   2.731   0.636   5.492 -1.5664 -0.8201 -0.8187
 7559SOL     OW34312   4.673   0.179   1.055  0.4979 -0.0673 -0.3493
 7559SOL    HW134313   4.649   0.088   1.071 -0.5133  0.0852 -1.0018
 7559SOL    HW234314   4.644   0.222   1.135 -0.1973 -1.2809  0.0580
 7560SOL     OW34315   3.017   3.211  14.208  0.0414 -0.0554  0.5939
 7560SOL    HW134316   2.941   3.172  14.165 -0.6531  2.4309 -0.4493
 7560SOL    HW234317   3.074   3.181  14.137  0.8132 -0.5831  1.4361
 7561SOL     OW34318   1.799   2.269  12.213  0.5321  0.0912 -0.2442
 7561SOL    HW134319   1.853   2.334  12.167 -1.2857  1.1598 -0.8509
 7561SOL    HW234320   1.863   2.251  12.282 -1.3911  1.7367  1.9422
 7562SOL     OW34321   4.236   0.405   0.402 -0.7340  0.1206  0.0280
 7562SOL    HW134322   4.276   0.428   0.486  0.4043  0.3926 -0.5894
 7562SOL    HW234323   4.157   0.459   0.414 -1.2819 -1.9426  5.8153
 7563SOL     OW34324   0.913   0.928   2.702  0.4793  0.4146 -0.2493
 7563SOL    HW134325   0.999   0.931   2.661  0.3899  0.1882 -0.4542
 7563SOL    HW234326   0.944   0.929   2.792 -1.6846  1.8296  0.4782
 7564SOL     OW34327   2.413   0.548  17.048 -0.4694 -0.1299  0.2347
 7564SOL    HW134328   2.361   0.557  16.968  2.1570  1.0240 -1.3336
 7564SOL    HW234329   2.438   0.639  17.062  0.2449 -0.0415 -1.5711
 7565SOL     OW34330   2.648   0.083   2.096  0.5573  0.0351 -0.3488
 7565SOL    HW134331   2.582   0.072   2.026 -0.2086  0.3029  0.3338
 7565SOL    HW234332   2.719   0.126   2.048  0.9031 -0.6991 -0.4916
 7566SOL     OW34333   0.836   1.779   8.486 -0.5546 -0.3935  0.3960
 7566SOL    HW134334   0.833   1.686   8.509 -0.3202  0.1306  2.5940
 7566SOL    HW234335   0.799   1.779   8.398 -0.1134  1.7524  0.2045
 7567SOL     OW34336   0.658   3.815   1.979  0.1781 -0.1749 -0.2550
 7567SOL    HW134337   0.708   3.808   1.897  0.1882  1.5716 -0.3908
 7567SOL    HW234338   0.626   3.725   1.980 -0.2782 -0.0540 -2.5770
 7568SOL     OW34339   3.145   2.736  12.193 -0.2909  0.3201  0.0952
 7568SOL    HW134340   3.226   2.699  12.157 -0.0857 -1.0423  1.9439
 7568SOL    HW234341   3.108   2.658  12.236  0.6169 -0.4432 -0.5088
 7569SOL     OW34342   3.123   3.989   5.981 -0.2446  0.5719 -0.1734
 7569SOL    HW134343   3.108   4.054   6.050 -2.5499  1.4324 -1.4631
 7569SOL    HW234344   3.192   4.031   5.929 -0.5067  0.7896 -0.3513
 7570SOL     OW34345   0.950   1.345  13.523 -0.9784  0.8416 -0.0298
 7570SOL    HW134346   1.011   1.411  13.489 -0.8512  0.8990  0.2997
 7570SOL    HW234347   0.967   1.345  13.618  0.9950 -0.2183 -0.3761
 7571SOL     OW34348   3.124   4.697   3.034  0.6659 -0.3921 -0.1901
 7571SOL    HW134349   3.165   4.647   2.964 -0.7027 -0.9948 -0.5650
 7571SOL    HW234350   3.128   4.633   3.105  0.1209 -0.3900 -0.1531
 7572SOL     OW34351   2.099   1.637   1.793  0.5860 -0.1754  0.4785
 7572SOL    HW134352   2.160   1.565   1.778  0.2311 -0.1109 -1.3101
 7572SOL    HW234353   2.111   1.691   1.715  0.5613 -2.6867 -1.2439
 7573SOL     OW34354   1.695   4.692   1.910 -0.1360  0.1104  0.3402
 7573SOL    HW134355   1.744   0.035   1.914  0.2242 -0.0822 -0.0009
 7573SOL    HW234356   1.706   4.672   2.003 -2.0554  1.9672  0.9540
 7574SOL     OW34357   0.416   3.138  16.773  0.5903  0.0699  0.6905
 7574SOL    HW134358   0.358   3.161  16.845 -0.6978 -0.4651 -0.1852
 7574SOL    HW234359   0.381   3.182  16.696  0.6292 -0.5644  0.3071
 7575SOL     OW34360   1.727   1.225   3.398  0.0139 -0.1852 -0.4674
 7575SOL    HW134361   1.666   1.172   3.450  0.7114 -0.7344 -0.2050
 7575SOL    HW234362   1.803   1.228   3.456 -0.9646  0.8667  0.7653
 7576SOL     OW34363   1.324   3.464   5.723  0.0445 -0.0563 -0.0545
 7576SOL    HW134364   1.237   3.483   5.759  0.2243  0.4264  0.1181
 7576SOL    HW234365   1.381   3.521   5.775  1.0606  0.0120 -1.2215
 7577SOL     OW34366   3.468   0.480   4.836  0.0922 -0.1048 -0.2214
 7577SOL    HW134367   3.387   0.433   4.818 -0.5949  0.5783  1.1110
 7577SOL    HW234368   3.522   0.408   4.869 -2.0723 -1.0982  1.1128
 7578SOL     OW34369   0.978   0.279  13.422 -0.3068  0.0815  0.0362
 7578SOL    HW134370   0.887   0.308  13.431  0.3696  1.3836  2.8141
 7578SOL    HW234371   1.024   0.359  13.449  0.0555 -0.7549  1.8388
 7579SOL     OW34372   4.156   2.104  12.251  0.2026  0.5615 -0.4763
 7579SOL    HW134373   4.088   2.038  12.239 -0.1249  0.7382  0.4095
 7579SOL    HW234374   4.219   2.054  12.304  0.3053  0.6638 -0.5028
 7580SOL     OW34375   0.543   1.940  11.971  0.0373  0.3838  0.4139
 7580SOL    HW134376   0.570   1.899  11.889  0.8161 -0.9187  1.3393
 7580SOL    HW234377   0.598   2.019  11.975 -0.6468  0.8134  1.3910
 7581SOL     OW34378   4.131   1.348  16.230  0.7102  0.4162 -0.6951
 7581SOL    HW134379   4.089   1.268  16.198  0.2123  0.1594  0.5862
 7581SOL    HW234380   4.064   1.409  16.198 -0.8496 -0.0294  1.7336
 7582SOL     OW34381   3.585   1.741   2.626 -0.2862 -0.0931 -0.1532
 7582SOL    HW134382   3.558   1.665   2.679 -2.8170 -0.1134 -1.4687
 7582SOL    HW234383   3.660   1.705   2.580  0.0052  2.5147 -1.6929
 7583SOL     OW34384   1.847   2.611  10.442  0.0613 -0.3081  0.0596
 7583SOL    HW134385   1.883   2.607  10.531 -1.6066  2.1777  0.8378
 7583SOL    HW234386   1.877   2.699  10.418 -1.6308 -0.0958 -1.2498
 7584SOL     OW34387   3.927   1.671   7.696  0.0845 -0.2247 -0.5683
 7584SOL    HW134388   3.928   1.623   7.778  2.2128  1.3167  0.3040
 7584SOL    HW234389   3.952   1.759   7.726 -0.2870 -0.7062  1.1421
 7585SOL     OW34390   1.889   4.439   6.542 -0.6465  0.3279  0.0584
 7585SOL    HW134391   1.972   4.486   6.537  0.9438 -2.5272 -0.6848
 7585SOL    HW234392   1.827   4.510   6.554  1.4143  1.9036  1.2998
 7586SOL     OW34393   3.553   1.276   8.104 -0.6560  0.3661 -0.0250
 7586SOL    HW134394   3.493   1.351   8.110  0.1083  1.0529 -0.8772
 7586SOL    HW234395   3.529   1.240   8.019 -0.4378  2.1961 -0.8801
 7587SOL     OW34396   4.676   1.255  14.706 -0.6652 -0.4058 -0.1879
 7587SOL    HW134397   4.722   1.322  14.756  0.1738 -1.5838  0.6155
 7587SOL    HW234398   4.713   1.174  14.742  1.0849  0.7263  0.5200
 7588SOL     OW34399   4.309   1.891   1.831 -0.4878 -0.0207  0.0951
 7588SOL    HW134400   4.347   1.838   1.761 -1.2336  1.1075 -1.1742
 7588SOL    HW234401   4.381   1.879   1.892  0.2018 -0.4806 -0.8112
 7589SOL     OW34402   4.196   4.345   3.996  0.0746 -0.4966 -0.3327
 7589SOL    HW134403   4.164   4.389   3.917 -0.1376 -1.2196 -0.6496
 7589SOL    HW234404   4.114   4.344   4.045  1.3284 -0.4101  1.7589
 7590SOL     OW34405   2.299   3.474  13.628  0.1271 -0.1104 -0.3494
 7590SOL    HW134406   2.381   3.474  13.579 -0.4839  1.3906 -1.3738
 7590SOL    HW234407   2.258   3.395  13.593 -2.5062  0.8642  0.5197
 7591SOL     OW34408   2.524   0.370   2.279  0.0135 -0.1800 -0.3141
 7591SOL    HW134409   2.462   0.302   2.255 -2.1609  1.6565  0.1582
 7591SOL    HW234410   2.468   0.418   2.340  2.2049  1.7004  0.2459
 7592SOL     OW34411   2.113   0.546  11.499  0.0759 -0.3407 -0.1815
 7592SOL    HW134412   2.097   0.546  11.404 -0.1828  2.0360 -0.1219
 7592SOL    HW234413   2.125   0.640  11.505  1.8099 -0.6272  0.7692
 7593SOL     OW34414   0.388   2.043   4.453  0.4050  0.9808 -0.4191
 7593SOL    HW134415   0.450   2.099   4.500  1.3661 -0.9660  0.6432
 7593SOL    HW234416   0.444   1.972   4.423 -0.0877  0.4096  0.0259
 7594SOL     OW34417   4.251   0.102  12.498  0.3810 -0.2717  0.1371
 7594SOL    HW134418   4.270   0.009  12.511 -0.8849 -0.4316  0.8549
 7594SOL    HW234419   4.205   0.124  12.579 -0.1945  0.3848 -0.3711
 7595SOL     OW34420   0.360   0.674  10.952 -0.0641  0.0190  0.1220
 7595SOL    HW134421   0.380   0.732  11.026  0.1639  2.3025 -1.7525
 7595SOL    HW234422   0.300   0.607  10.985  1.0031 -1.6536 -1.3823
 7596SOL     OW34423   2.375   2.174   3.426  0.2016 -0.2649  0.1961
 7596SOL    HW134424   2.408   2.184   3.337  0.1244 -0.3580  0.1569
 7596SOL    HW234425   2.445   2.115   3.455 -0.7555  0.0779  3.1947
 7597SOL     OW34426   3.842   4.168   3.066 -0.1935 -0.5282  0.3014
 7597SOL    HW134427   3.824   4.084   3.024  2.0263 -1.0885  0.4644
 7597SOL    HW234428   3.873   4.132   3.148 -0.8961  1.9548  1.6746
 7598SOL     OW34429   3.351   4.737   5.178  0.4295  0.2524  0.6201
 7598SOL    HW134430   3.350   0.045   5.095  1.5991  1.4099  1.2750
 7598SOL    HW234431   3.314   0.068   5.232  1.7887  0.0688  1.8034
 7599SOL     OW34432   2.195   0.230  11.946 -0.0513  0.1199  0.1866
 7599SOL    HW134433   2.153   0.149  11.915  0.0269  1.1484 -2.6800
 7599SOL    HW234434   2.159   0.292  11.882  1.4028  1.5769  0.7723
 7600SOL     OW34435   3.424   1.420   1.997 -0.6140  0.2971 -0.2895
 7600SOL    HW134436   3.442   1.513   2.007 -2.5561  0.9929 -3.2012
 7600SOL    HW234437   3.413   1.387   2.086  1.8129  0.0215 -0.0967
 7601SOL     OW34438   0.483   4.161   5.468 -0.5331 -0.2631  0.2256
 7601SOL    HW134439   0.547   4.094   5.443 -1.7402 -1.5995  0.7182
 7601SOL    HW234440   0.411   4.104   5.496 -0.0647 -0.0039  1.9294
 7602SOL     OW34441   1.475   1.346  16.179 -0.4859 -0.1520  0.2009
 7602SOL    HW134442   1.513   1.258  16.180 -0.3450 -0.0918 -0.0038
 7602SOL    HW234443   1.385   1.337  16.149 -0.6493  1.8597  0.0929
 7603SOL     OW34444   0.928   1.805   4.684  0.0301 -0.1184  0.0459
 7603SOL    HW134445   0.969   1.861   4.618 -1.2798  2.3484  1.3507
 7603SOL    HW234446   0.935   1.868   4.755  2.0355 -1.4909  1.0660
 7604SOL     OW34447   3.155   4.180   7.074  0.3505  0.0717 -0.2965
 7604SOL    HW134448   3.161   4.147   7.164 -1.2051 -2.3919 -1.1009
 7604SOL    HW234449   3.248   4.195   7.054  0.1657  1.8571  0.1137
 7605SOL     OW34450   3.835   2.313   6.554  0.4876  0.1267  0.7270
 7605SOL    HW134451   3.837   2.396   6.505  3.1060  0.4573  1.4244
 7605SOL    HW234452   3.840   2.249   6.482 -0.5304  0.7395  0.1045
 7606SOL     OW34453   2.923   3.616   1.903 -0.0054 -0.2851 -0.2139
 7606SOL    HW134454   2.984   3.548   1.877 -0.1008  0.7116 -3.0606
 7606SOL    HW234455   2.890   3.583   1.986 -2.6848 -1.3834 -1.6945
 7607SOL     OW34456   4.728   1.456   5.261 -0.0939  0.4499 -0.2313
 7607SOL    HW134457   4.737   1.393   5.332  1.1242  0.9736  0.0805
 7607SOL    HW234458   0.007   1.407   5.181  1.5476  1.4347 -0.4506
 7608SOL     OW34459   0.161   1.758   4.470 -0.2673  0.0170 -0.7602
 7608SOL    HW134460   0.253   1.743   4.492 -0.3849  0.4781  0.0408
 7608SOL    HW234461   0.107   1.699   4.523  0.7843  0.3627  0.6931
 7609SOL     OW34462   2.095   3.309   4.915  0.1186 -0.1168 -0.2114
 7609SOL    HW134463   2.036   3.273   4.848 -0.9450 -1.6424  1.5416
 7609SOL    HW234464   2.113   3.400   4.891 -0.1680 -0.1509 -0.5589
 7610SOL     OW34465   4.082   1.613   2.971 -0.5260  0.5145 -0.0839
 7610SOL    HW134466   4.098   1.521   2.947 -0.4905  0.5095 -0.0420
 7610SOL    HW234467   4.125   1.656   2.897  0.3235 -0.7311 -0.3279
 7611SOL     OW34468   1.349   0.245   3.125  0.1973 -0.1483 -0.0313
 7611SOL    HW134469   1.331   0.244   3.219  0.4731 -2.3434  0.0049
 7611SOL    HW234470   1.274   0.301   3.102 -0.5216 -0.1249  2.4121
 7612SOL     OW34471   1.013   0.864   5.891  0.2003  0.0984  0.4913
 7612SOL    HW134472   1.054   0.780   5.909  1.3278  0.7140  0.7997
 7612SOL    HW234473   0.929   0.826   5.869  0.3177  0.5471 -0.7339
 7613SOL     OW34474   1.163   2.544  12.348  0.0470 -0.2919  0.0575
 7613SOL    HW134475   1.231   2.611  12.352 -1.5294  1.3352  0.2361
 7613SOL    HW234476   1.211   2.462  12.342  2.1120  0.7077  2.9865
 7614SOL     OW34477   2.453   3.740   8.039  0.0268  0.7900  0.2787
 7614SOL    HW134478   2.445   3.833   8.017 -1.1032  0.8191  0.8303
 7614SOL    HW234479   2.546   3.724   8.027 -0.3960 -1.6540  0.3414
 7615SOL     OW34480   2.226   3.004   2.695 -0.3088 -0.5751  0.0908
 7615SOL    HW134481   2.321   3.013   2.701  0.0532 -3.3784 -1.1589
 7615SOL    HW234482   2.207   2.951   2.772 -0.4345  0.1545  0.5613
 7616SOL     OW34483   1.254   2.438  13.734  0.5811  0.1205  0.5210
 7616SOL    HW134484   1.166   2.474  13.734 -0.4503 -2.3616  0.3775
 7616SOL    HW234485   1.267   2.420  13.641 -1.8590 -0.5666  0.3243
 7617SOL     OW34486   0.588   2.552   8.394  0.6074 -0.3417  0.8999
 7617SOL    HW134487   0.520   2.533   8.330  0.4138 -0.0168  1.0130
 7617SOL    HW234488   0.590   2.647   8.401 -1.0447 -0.2123 -0.4054
 7618SOL     OW34489   0.446   4.252   7.796 -0.2379 -0.4025  0.1769
 7618SOL    HW134490   0.537   4.236   7.822 -0.0233  2.3860  1.1230
 7618SOL    HW234491   0.409   4.164   7.800  0.4377 -0.8100 -2.4759
 7619SOL     OW34492   4.275   4.514  16.538  0.3363  0.2569 -0.1767
 7619SOL    HW134493   4.248   4.445  16.599 -0.6696  1.5430  0.8239
 7619SOL    HW234494   4.311   4.578  16.599 -1.3891  1.6074 -0.5967
 7620SOL     OW34495   3.146   4.345   1.625 -0.2603  0.4885 -0.2910
 7620SOL    HW134496   3.198   4.284   1.678 -0.8841 -1.1686 -1.5848
 7620SOL    HW234497   3.136   4.413   1.692  2.4114  0.3781  0.2221
 7621SOL     OW34498   4.380   3.291   6.790 -0.3341  0.0104 -0.4690
 7621SOL    HW134499   4.342   3.287   6.878  1.4989 -2.7527  0.1992
 7621SOL    HW234500   4.305   3.259   6.740 -0.1957 -4.0072  1.8764
 7622SOL     OW34501   1.611   0.317   8.722 -0.4722 -0.2078 -0.2482
 7622SOL    HW134502   1.519   0.290   8.724 -0.5515  0.0838  0.2026
 7622SOL    HW234503   1.638   0.272   8.802 -1.3522  0.5789  0.5013
 7623SOL     OW34504   0.937   1.617   4.453  0.5437  0.0366 -0.1836
 7623SOL    HW134505   0.915   1.668   4.531 -0.8050  0.0253 -0.5471
 7623SOL    HW234506   0.914   1.530   4.487 -3.1277  0.6896 -0.9506
 7624SOL     OW34507   3.074   1.972   7.699  0.1720 -0.1307 -0.7502
 7624SOL    HW134508   3.114   1.888   7.680  1.0316 -0.1650  1.2538
 7624SOL    HW234509   3.120   2.038   7.647 -0.2987  1.9863  1.4921
 7625SOL     OW34510   4.686   1.074   8.507  0.3457 -0.4500  0.0090
 7625SOL    HW134511   4.608   1.093   8.559  1.8275  0.4173  1.9178
 7625SOL    HW234512   4.663   0.991   8.464 -2.1545 -0.3599  1.1823
 7626SOL     OW34513   0.210   3.263   9.959  0.0668 -0.2844  0.1726
 7626SOL    HW134514   0.259   3.314   9.895  0.2660 -2.6154 -1.5169
 7626SOL    HW234515   0.270   3.219  10.020  1.2136  0.8284 -0.1664
 7627SOL     OW34516   1.826   1.596   0.016 -0.0345 -0.1788  0.2623
 7627SOL    HW134517   1.801   1.637  17.691 -0.5672  1.1380  1.0810
 7627SOL    HW234518   1.776   1.649   0.079  2.8805  2.9827 -0.1451
 7628SOL     OW34519   1.501   2.356   6.618  0.1330 -0.0655 -0.2529
 7628SOL    HW134520   1.439   2.361   6.545 -2.1752  0.1973  1.7270
 7628SOL    HW234521   1.545   2.272   6.603 -0.0375  0.3271 -3.0032
 7629SOL     OW34522   4.446   1.222   0.719  0.1394  0.2150 -0.4473
 7629SOL    HW134523   4.477   1.195   0.806  1.9321  2.2134 -0.4632
 7629SOL    HW234524   4.488   1.305   0.695  2.4024 -1.3689 -1.9915
 7630SOL     OW34525   0.217   2.190   3.205 -0.0481 -0.1006 -0.4652
 7630SOL    HW134526   0.204   2.267   3.262  1.5228 -0.3995  0.3087
 7630SOL    HW234527   0.129   2.157   3.191  0.7956 -1.4265 -2.5675
 7631SOL     OW34528   3.528   3.861   9.127  0.0028 -0.4382 -0.6668
 7631SOL    HW134529   3.522   3.766   9.124 -1.4045 -0.3556 -0.2736
 7631SOL    HW234530   3.600   3.872   9.065 -0.5696  1.2792 -1.0171
 7632SOL     OW34531   3.498   3.657   3.387  0.7459  0.1046  0.4010
 7632SOL    HW134532   3.507   3.565   3.414 -0.7583 -0.8466 -2.2766
 7632SOL    HW234533   3.548   3.704   3.453  0.1242 -2.7610  2.9210
 7633SOL     OW34534   3.420   0.556   2.847  0.2908 -0.4445 -0.3287
 7633SOL    HW134535   3.475   0.542   2.769  0.6484  3.6468 -0.7813
 7633SOL    HW234536   3.388   0.642   2.821  1.8933 -0.3774 -2.1561
 7634SOL     OW34537   0.382   0.650  15.852 -0.3839  0.1193 -0.9661
 7634SOL    HW134538   0.357   0.738  15.827 -0.4840 -0.4739 -2.9337
 7634SOL    HW234539   0.337   0.584  15.799  0.4722 -0.9669 -0.3566
 7635SOL     OW34540   1.226   3.020   7.194 -0.1598 -0.3323 -0.4443
 7635SOL    HW134541   1.199   3.032   7.285 -0.4505 -0.1766 -0.5510
 7635SOL    HW234542   1.254   3.109   7.171 -2.0614  0.1604 -0.8714
 7636SOL     OW34543   1.162   4.481  13.527  0.1279  0.4037  0.3106
 7636SOL    HW134544   1.249   4.466  13.566 -0.0678  0.2707  0.6968
 7636SOL    HW234545   1.168   4.573  13.501 -1.2336 -0.1242 -1.7897
 7637SOL     OW34546   2.873   3.120   4.920  0.0158  0.3331 -0.2645
 7637SOL    HW134547   2.803   3.147   4.979  0.7250  0.7196  0.4108
 7637SOL    HW234548   2.920   3.055   4.972 -1.5245 -1.7199 -1.4884
 7638SOL     OW34549   2.342   1.055   5.263 -0.8490  0.2284  0.1691
 7638SOL    HW134550   2.324   1.015   5.178 -1.3707  0.0635  0.3583
 7638SOL    HW234551   2.337   1.148   5.242 -1.4373  0.1088 -0.2060
 7639SOL     OW34552   4.089   1.888  11.338  0.3507  0.3201  0.5865
 7639SOL    HW134553   4.119   1.798  11.350 -0.4377  0.0059  0.2123
 7639SOL    HW234554   4.123   1.914  11.252  1.7245 -0.4501  0.8860
 7640SOL     OW34555   3.437   2.005  12.229 -0.0931 -0.5584  0.2867
 7640SOL    HW134556   3.465   1.913  12.236 -0.1108 -0.6709 -1.1725
 7640SOL    HW234557   3.501   2.047  12.286  0.7954 -1.4607 -0.0449
 7641SOL     OW34558   4.376   3.643   1.433 -0.4342 -0.6755  0.2651
 7641SOL    HW134559   4.425   3.624   1.512 -0.3586  1.4874  0.7517
 7641SOL    HW234560   4.340   3.731   1.450  1.7115  0.8426 -3.0034
 7642SOL     OW34561   4.466   4.340  15.815 -0.3973 -0.0581  0.0572
 7642SOL    HW134562   4.437   4.430  15.802  0.5963  0.6635  2.7386
 7642SOL    HW234563   4.420   4.291  15.747  0.4277 -0.2963 -0.3411
 7643SOL     OW34564   4.189   2.478   3.899  0.7148  0.3969 -0.4030
 7643SOL    HW134565   4.227   2.400   3.939  0.7962  1.9643  2.5882
 7643SOL    HW234566   4.102   2.485   3.938  0.8878 -2.6023  0.4706
 7644SOL     OW34567   1.494   1.935   3.848 -0.3842 -0.0610 -0.2475
 7644SOL    HW134568   1.527   1.933   3.938 -0.9660 -2.7283 -0.0938
 7644SOL    HW234569   1.579   1.938   3.804  1.4764  0.1227  3.3107
 7645SOL     OW34570   3.835   2.169  10.433  0.0159 -0.2739 -0.2994
 7645SOL    HW134571   3.886   2.232  10.384 -0.2185 -0.6834 -1.0620
 7645SOL    HW234572   3.903   2.128  10.486  0.3592 -0.8509 -1.1855
 7646SOL     OW34573   1.153   0.206   4.663  0.0685 -0.7929  0.3124
 7646SOL    HW134574   1.101   0.139   4.619 -0.1380  0.4134 -1.2923
 7646SOL    HW234575   1.082   0.266   4.683  1.9710  1.0270  1.6046
 7647SOL     OW34576   4.148   3.349   2.423  0.3869  0.3699  0.0891
 7647SOL    HW134577   4.241   3.327   2.418 -0.0198 -1.6593  1.4226
 7647SOL    HW234578   4.153   3.419   2.359  2.0001 -0.4162 -0.6574
 7648SOL     OW34579   3.775   1.059  12.442  0.0748  0.1428 -0.5496
 7648SOL    HW134580   3.711   1.014  12.498 -1.8367  2.0133 -1.2243
 7648SOL    HW234581   3.850   1.001  12.453  0.5280  0.8691  0.1991
 7649SOL     OW34582   2.169   0.048   4.794 -0.4090  0.1069  0.6187
 7649SOL    HW134583   2.216   0.129   4.773 -0.8957  0.1052 -0.5143
 7649SOL    HW234584   2.116   0.076   4.868  0.1360 -0.9569  1.4119
 7650SOL     OW34585   4.339   1.725  14.493 -0.6348  0.2916  0.0828
 7650SOL    HW134586   4.336   1.754  14.402  0.1136 -1.3946 -0.4800
 7650SOL    HW234587   4.280   1.782  14.541 -0.0121  1.2455 -0.2939
 7651SOL     OW34588   1.716   0.195   8.509  0.1102 -0.1027 -0.2171
 7651SOL    HW134589   1.673   0.250   8.574  0.7143  3.0907 -2.5387
 7651SOL    HW234590   1.640   0.174   8.454 -0.9831  1.2628  0.7614
 7652SOL     OW34591   4.637   0.766   8.384 -0.2415 -0.1737 -0.4647
 7652SOL    HW134592   4.613   0.678   8.353  0.9936 -0.8326  0.4745
 7652SOL    HW234593   4.706   0.750   8.448  0.3740 -0.7479 -1.2802
 7653SOL     OW34594   0.252   1.426   6.509 -0.3374 -0.1589 -0.1572
 7653SOL    HW134595   0.203   1.487   6.564  1.9711  0.4990  1.1809
 7653SOL    HW234596   0.207   1.344   6.529  0.6734 -0.0225  2.6477
 7654SOL     OW34597   2.432   3.808  11.998  0.4068  0.5208  0.0790
 7654SOL    HW134598   2.387   3.892  12.010  0.4809  0.3145  1.8380
 7654SOL    HW234599   2.437   3.794  12.093 -1.1762  1.0699  0.2415
 7655SOL     OW34600   1.169   2.124  13.671  0.1173 -0.3400 -0.5881
 7655SOL    HW134601   1.192   2.184  13.600 -1.1474 -0.2002 -0.8748
 7655SOL    HW234602   1.240   2.064  13.648  2.5951  2.2651  0.2872
 7656SOL     OW34603   0.179   1.378  13.377  0.2503 -0.6142  0.1929
 7656SOL    HW134604   0.199   1.453  13.433  0.0363 -0.4990  0.1154
 7656SOL    HW234605   0.132   1.311  13.426  0.3560 -1.2440 -0.5623
 7657SOL     OW34606   1.766   3.290   7.194 -0.3113  0.0331  0.1330
 7657SOL    HW134607   1.701   3.223   7.214 -1.1257  0.7451 -0.1314
 7657SOL    HW234608   1.731   3.373   7.228  0.2053  0.4208 -0.2750
 7658SOL     OW34609   0.117   3.491   2.002  0.3894  0.4885  0.4141
 7658SOL    HW134610   0.114   3.457   1.913  1.6013 -0.3131  0.6772
 7658SOL    HW234611   0.041   3.450   2.043 -0.4626 -2.1848 -3.8711
 7659SOL     OW34612   0.971   0.965   5.416 -0.4526  0.2441  0.5174
 7659SOL    HW134613   0.906   1.034   5.430 -1.2511  0.0759 -2.1928
 7659SOL    HW234614   1.024   0.972   5.495  2.1236 -0.4047 -1.1693
 7660SOL     OW34615   0.120   3.394  12.580 -0.8738 -0.4703  0.6849
 7660SOL    HW134616   0.080   3.480  12.572 -2.6527 -1.5090 -1.6931
 7660SOL    HW234617   0.128   3.366  12.489 -0.3644  0.1645  0.5332
 7661SOL     OW34618   3.360   4.715   1.791  0.0730  0.4244  0.7168
 7661SOL    HW134619   3.407   4.632   1.802  1.3548  1.0331 -0.2571
 7661SOL    HW234620   3.283   4.688   1.841 -0.6127 -0.0611 -0.5838
 7662SOL     OW34621   2.478   2.802   2.073 -0.0185 -0.0722 -0.0884
 7662SOL    HW134622   2.516   2.886   2.095 -1.9654  1.2535 -1.7229
 7662SOL    HW234623   2.423   2.787   2.150  0.3553  0.8031  0.3382
 7663SOL     OW34624   4.292   2.669   7.609 -0.0243  0.3212  0.6597
 7663SOL    HW134625   4.311   2.724   7.684  0.9201  0.9466 -0.0318
 7663SOL    HW234626   4.353   2.711   7.548 -0.9985  0.5469 -0.1585
 7664SOL     OW34627   0.891   0.910   3.912 -0.6638  0.0814  0.3058
 7664SOL    HW134628   0.941   0.936   3.989  1.2008 -2.2996 -0.0905
 7664SOL    HW234629   0.901   0.815   3.919  0.1996  0.1504 -0.0431
 7665SOL     OW34630   4.481   3.686  11.463 -0.2883 -0.1736 -0.2413
 7665SOL    HW134631   4.464   3.618  11.528  0.1075  0.5601  0.6307
 7665SOL    HW234632   4.567   3.713  11.497  0.1566 -1.9485  0.0146
 7666SOL     OW34633   1.483   4.319   2.735  0.3373 -0.0056  0.3646
 7666SOL    HW134634   1.464   4.310   2.829  1.6881  0.0729  0.6549
 7666SOL    HW234635   1.394   4.303   2.704 -0.6734  0.6687  2.8692
 7667SOL     OW34636   0.183   4.458   2.374 -0.5376 -0.0003  0.4550
 7667SOL    HW134637   0.240   4.424   2.443  0.0006  0.2005  0.1050
 7667SOL    HW234638   0.191   4.549   2.402 -0.7394 -0.5744  2.4423
 7668SOL     OW34639   1.446   4.144  12.283  0.3791 -0.0849  0.2312
 7668SOL    HW134640   1.501   4.122  12.359 -1.7109  3.6594  2.8739
 7668SOL    HW234641   1.366   4.114  12.325  1.1476  1.2795  2.6817
 7669SOL     OW34642   1.958   0.685   3.145 -0.1746 -0.0880 -0.1227
 7669SOL    HW134643   2.026   0.753   3.150  1.5443 -1.8055 -0.1859
 7669SOL    HW234644   1.916   0.718   3.224 -0.9689  1.1462 -1.0612
 7670SOL     OW34645   1.983   0.318   4.300 -0.6319 -0.1175 -0.4206
 7670SOL    HW134646   1.893   0.332   4.330  0.1160  3.3060  0.3113
 7670SOL    HW234647   2.022   0.264   4.367 -1.0850  0.1429  0.0568
 7671SOL     OW34648   3.976   1.329  17.060 -0.2409  0.0281  0.0293
 7671SOL    HW134649   3.942   1.246  17.093 -1.7123  0.1203 -1.2604
 7671SOL    HW234650   3.910   1.347  16.994  0.9046  0.2169 -1.0607
 7672SOL     OW34651   0.797   4.016   2.317 -0.1718  0.2371  0.0281
 7672SOL    HW134652   0.848   3.935   2.318  0.5173  0.6792  0.3919
 7672SOL    HW234653   0.797   4.029   2.412  0.0695 -1.2910  0.2404
 7673SOL     OW34654   1.522   1.046   1.857  0.6049 -0.2863 -0.2812
 7673SOL    HW134655   1.565   0.967   1.824 -1.0155 -1.4096  0.2763
 7673SOL    HW234656   1.573   1.059   1.937  0.5066 -1.4027 -0.0324
 7674SOL     OW34657   0.777   3.296   3.712 -0.1334  0.2459 -0.0462
 7674SOL    HW134658   0.796   3.387   3.737 -1.3733  0.1353  1.2778
 7674SOL    HW234659   0.710   3.306   3.645 -0.6570 -1.6525  0.2113
 7675SOL     OW34660   0.423   0.515   7.465  0.7002 -0.6681  0.2399
 7675SOL    HW134661   0.468   0.600   7.464 -0.8143  0.1293 -0.4705
 7675SOL    HW234662   0.370   0.531   7.387 -1.4268  0.4422  1.9166
 7676SOL     OW34663   2.584   1.346   8.110  0.5244  0.3766 -0.1971
 7676SOL    HW134664   2.674   1.341   8.142  0.5668 -0.5232 -0.4536
 7676SOL    HW234665   2.585   1.432   8.067 -0.6245  0.3816 -0.2179
 7677SOL     OW34666   3.187   1.818  13.737  0.2770  0.0146  0.2318
 7677SOL    HW134667   3.274   1.778  13.738 -0.6277 -1.9974 -1.1796
 7677SOL    HW234668   3.220   1.900  13.775 -1.2338  0.9881 -0.5567
 7678SOL     OW34669   4.713   2.496   1.786  0.1035 -0.0833 -0.1780
 7678SOL    HW134670   0.058   2.455   1.768  1.3231  1.0686  2.9745
 7678SOL    HW234671   4.679   2.494   1.696  2.6631  0.9121 -1.1973
 7679SOL     OW34672   2.635   3.514   7.484 -0.2879 -0.3900  0.7715
 7679SOL    HW134673   2.662   3.423   7.491  1.2816  0.0007 -0.1548
 7679SOL    HW234674   2.561   3.506   7.424 -0.3996 -0.4143  0.9128
 7680SOL     OW34675   1.711   4.515  13.067  0.1903 -0.2271 -0.4858
 7680SOL    HW134676   1.625   4.509  13.026  0.2659 -2.3271 -0.3286
 7680SOL    HW234677   1.689   4.517  13.160 -0.5976 -0.0725 -0.6795
 7681SOL     OW34678   4.053   3.113   0.079 -0.0810  0.0158  0.3772
 7681SOL    HW134679   4.005   3.050   0.025 -0.0649 -0.0967  0.4924
 7681SOL    HW234680   3.975   3.139   0.128  0.7273 -0.5837  1.9992
 7682SOL     OW34681   2.031   2.568   1.960 -0.3075  0.6823  0.3613
 7682SOL    HW134682   2.054   2.535   2.046  1.4945 -1.6411 -1.0328
 7682SOL    HW234683   1.936   2.561   1.967 -0.3294  1.8625  1.2155
 7683SOL     OW34684   0.596   3.408   3.209 -0.4536 -0.7652 -0.0474
 7683SOL    HW134685   0.666   3.375   3.266  1.6401  0.2525 -2.0252
 7683SOL    HW234686   0.559   3.327   3.175 -0.5248 -0.4577 -0.6972
 7684SOL     OW34687   0.598   2.513  14.693  0.0599 -0.0807  0.3849
 7684SOL    HW134688   0.518   2.486  14.738 -0.8344 -1.9373 -2.3201
 7684SOL    HW234689   0.582   2.603  14.665 -0.5427  0.5339  2.6755
 7685SOL     OW34690   4.424   1.118   3.732  0.6413  0.0971 -0.0062
 7685SOL    HW134691   4.498   1.063   3.706 -0.9840 -1.7921 -0.6535
 7685SOL    HW234692   4.466   1.201   3.711  1.9436 -0.7574 -0.8105
 7686SOL     OW34693   2.397   1.068   8.748 -0.0900  0.1287 -0.2310
 7686SOL    HW134694   2.374   1.001   8.684  0.2278 -2.0021  1.8804
 7686SOL    HW234695   2.476   1.031   8.786 -1.1568  0.4862  2.3342
 7687SOL     OW34696   0.797   2.063   5.628 -0.2265 -0.2359  0.4617
 7687SOL    HW134697   0.740   2.140   5.624 -1.2800 -0.9199  2.7679
 7687SOL    HW234698   0.886   2.095   5.631  0.0034 -0.9657  1.3304
 7688SOL     OW34699   0.736   2.138  12.854  0.4231  0.1902  0.1089
 7688SOL    HW134700   0.709   2.118  12.944  0.1481 -1.6308 -0.3900
 7688SOL    HW234701   0.817   2.089  12.847 -0.0057 -0.4465 -0.3793
 7689SOL     OW34702   0.978   0.023  15.937 -0.2470  0.1137 -0.2072
 7689SOL    HW134703   0.999   0.111  15.969 -1.0919 -0.7551  2.7050
 7689SOL    HW234704   0.883   0.023  15.930 -0.3893 -0.3614  1.8395
 7690SOL     OW34705   1.854   3.127   6.999 -0.1642 -0.1641 -1.0952
 7690SOL    HW134706   1.767   3.094   6.979 -0.3962 -0.0952 -0.1940
 7690SOL    HW234707   1.824   3.207   7.043  0.8363 -0.9168  0.9199
 7691SOL     OW34708   0.985   1.728  17.392  0.0773  0.0610 -0.0052
 7691SOL    HW134709   1.001   1.673  17.316 -1.4505 -1.5233  0.8186
 7691SOL    HW234710   0.995   1.817  17.359  1.1768  0.1019  0.4425
 7692SOL     OW34711   2.851   0.720   6.859  0.4673  0.1058  0.5026
 7692SOL    HW134712   2.789   0.710   6.786  2.9677 -2.2565 -1.2878
 7692SOL    HW234713   2.908   0.781   6.812  0.3635 -0.0495  0.1735
 7693SOL     OW34714   4.210   1.863   6.131  0.2174 -0.3351 -0.0434
 7693SOL    HW134715   4.133   1.851   6.186  0.0755 -2.6082 -0.7441
 7693SOL    HW234716   4.169   1.872   6.045 -0.7653  0.6090  0.5260
 7694SOL     OW34717   3.355   1.176   2.713 -0.0281  0.0124 -0.1973
 7694SOL    HW134718   3.316   1.124   2.783 -2.0688 -2.8507 -3.4514
 7694SOL    HW234719   3.445   1.148   2.730 -0.8422 -1.8555  0.9918
 7695SOL     OW34720   0.317   0.142   2.141  0.4735 -0.2222  0.6462
 7695SOL    HW134721   0.221   0.147   2.145  0.4865  1.6309 -0.9829
 7695SOL    HW234722   0.332   0.231   2.173  1.2643 -0.1963  0.1946
 7696SOL     OW34723   1.138   0.248   3.798  0.1973  0.0781 -0.4416
 7696SOL    HW134724   1.224   0.258   3.839  0.2786 -1.9167 -0.1637
 7696SOL    HW234725   1.104   0.170   3.842 -4.7271  2.1026 -0.6593
 7697SOL     OW34726   0.831   1.505   8.568  0.3285 -0.1080 -0.2262
 7697SOL    HW134727   0.868   1.466   8.647 -0.7459 -0.4357  0.1142
 7697SOL    HW234728   0.845   1.427   8.515 -0.1543  0.4583 -1.1925
 7698SOL     OW34729   1.200   0.437   1.854 -0.1581 -0.0484 -0.3562
 7698SOL    HW134730   1.203   0.424   1.948 -1.9164 -0.3525 -0.3502
 7698SOL    HW234731   1.282   0.394   1.828  0.3021  1.8367 -2.0449
 7699SOL     OW34732   3.592   1.950   5.359  0.3480  0.2870  0.1810
 7699SOL    HW134733   3.562   2.041   5.354 -0.5441 -0.0341 -0.2218
 7699SOL    HW234734   3.508   1.907   5.346 -0.4527  1.9666 -0.0901
 7700SOL     OW34735   3.267   3.292   7.665 -0.5387  0.5389  0.1980
 7700SOL    HW134736   3.205   3.219   7.671  0.0926 -0.1133 -1.1964
 7700SOL    HW234737   3.279   3.311   7.572  0.4417  0.6953  0.3575
 7701SOL     OW34738   0.212   1.880  12.087 -0.2217 -0.1290  0.4357
 7701SOL    HW134739   0.263   1.808  12.124 -1.0266  0.1062  1.9888
 7701SOL    HW234740   0.256   1.904  12.005 -0.6450 -0.7942  0.0194
 7702SOL     OW34741   0.170   4.697  16.708 -0.1028  0.2143  0.6580
 7702SOL    HW134742   0.160   4.714  16.802  2.3712  0.6616  0.8451
 7702SOL    HW234743   0.080   4.685  16.679 -0.6716  1.9818  1.6548
 7703SOL     OW34744   3.270   3.234  15.490 -0.0235  0.0823 -0.4443
 7703SOL    HW134745   3.286   3.268  15.403 -5.2496  1.1149 -0.9786
 7703SOL    HW234746   3.333   3.161  15.491 -0.9508 -0.7185 -1.2048
 7704SOL     OW34747   3.375   1.774   8.001 -0.3590 -0.0122 -0.1225
 7704SOL    HW134748   3.470   1.763   8.006 -0.4237 -0.1853  0.8708
 7704SOL    HW234749   3.359   1.867   8.017 -1.1383 -0.4444  1.6729
 7705SOL     OW34750   2.912   4.683   2.206  0.0258  0.2846  0.1380
 7705SOL    HW134751   2.857   4.604   2.211  0.3435  0.1039  0.7957
 7705SOL    HW234752   2.859   0.004   2.257  1.4212 -0.1883  2.1636
 7706SOL     OW34753   3.328   3.328   7.362  0.2129 -0.3762  0.0844
 7706SOL    HW134754   3.420   3.327   7.387  0.7242 -2.5499 -1.8969
 7706SOL    HW234755   3.328   3.338   7.267 -2.5237 -0.5206  0.0541
 7707SOL     OW34756   1.945   2.864  17.607  0.7757  0.4654  0.8620
 7707SOL    HW134757   1.902   2.779  17.611 -2.2404  2.1315  3.4966
 7707SOL    HW234758   1.966   2.872  17.514 -1.0935 -0.1732  0.3812
 7708SOL     OW34759   2.519   3.423  15.522 -0.2194  0.2890 -0.0573
 7708SOL    HW134760   2.465   3.501  15.524  0.4392  0.7210  0.8375
 7708SOL    HW234761   2.604   3.459  15.497  0.0891 -0.9117 -0.7970
 7709SOL     OW34762   1.198   0.270   3.363  0.9934 -0.1490  0.1149
 7709SOL    HW134763   1.166   0.199   3.418  0.3766 -1.7918 -2.3546
 7709SOL    HW234764   1.226   0.323   3.438  0.5327 -1.6975  1.3765
 7710SOL     OW34765   1.914   3.307  12.333 -0.7343 -0.1077  0.3208
 7710SOL    HW134766   1.919   3.399  12.305 -2.8679  0.1728  0.9076
 7710SOL    HW234767   2.001   3.280  12.302 -1.0947 -2.9343  1.7934
 7711SOL     OW34768   1.002   1.124   2.220 -0.1316 -0.3627  0.5477
 7711SOL    HW134769   1.045   1.180   2.156  2.3319 -2.9300 -0.0217
 7711SOL    HW234770   0.922   1.098   2.174  0.7735  1.8144 -2.2552
 7712SOL     OW34771   1.750   3.174  17.483 -0.8451  0.2762 -0.5428
 7712SOL    HW134772   1.740   3.079  17.490 -3.2473  0.3338 -3.2834
 7712SOL    HW234773   1.824   3.184  17.543 -0.9641 -2.6570  0.0632
 7713SOL     OW34774   0.334   3.287   3.381 -0.4872  0.6767  0.3694
 7713SOL    HW134775   0.279   3.361   3.358 -0.9736  1.0043  2.6360
 7713SOL    HW234776   0.286   3.221   3.330 -2.1243  2.0568  0.1198
 7714SOL     OW34777   0.135   0.383   0.918 -0.4013 -0.0927  0.2552
 7714SOL    HW134778   0.088   0.346   0.842  0.4180 -1.3981  0.3808
 7714SOL    HW234779   0.063   0.425   0.964 -0.5509  0.8522 -0.8288
 7715SOL     OW34780   1.877   2.021   9.723  0.1391 -0.2907  0.4898
 7715SOL    HW134781   1.904   1.930   9.730 -1.8538 -0.8892  0.3882
 7715SOL    HW234782   1.825   2.013   9.643  0.8891  1.5134 -0.1783
 7716SOL     OW34783   1.416   0.817   0.760 -0.4229 -0.5420  0.2517
 7716SOL    HW134784   1.401   0.726   0.734  2.1227 -0.2847 -2.0620
 7716SOL    HW234785   1.323   0.834   0.774 -1.1124 -4.8271  1.1311
 7717SOL     OW34786   4.737   3.639  12.540 -0.5329 -0.2586 -0.0122
 7717SOL    HW134787   0.017   3.732  12.530  1.6980 -0.6360  0.8925
 7717SOL    HW234788   4.700   3.640  12.628  1.3324  0.6633  0.7613
 7718SOL     OW34789   0.621   4.486   4.746  0.4205  0.0800  0.0726
 7718SOL    HW134790   0.617   4.391   4.753 -2.4177  0.1110 -0.7979
 7718SOL    HW234791   0.708   4.487   4.706  0.9986  4.5088  1.4604
 7719SOL     OW34792   2.414   2.106   9.362  0.3304 -0.7062  0.4458
 7719SOL    HW134793   2.463   2.139   9.286  1.6568  0.6354  1.8721
 7719SOL    HW234794   2.421   2.183   9.418  2.2988 -0.9430  0.5137
 7720SOL     OW34795   4.621   3.800   6.371  0.0034 -0.5593  0.4268
 7720SOL    HW134796   4.549   3.736   6.364 -0.6910  0.3198 -0.4893
 7720SOL    HW234797   4.563   3.870   6.401  1.7945  1.1378 -0.0568
 7721SOL     OW34798   4.217   1.652   9.006 -0.7292  0.2596  0.4617
 7721SOL    HW134799   4.274   1.585   8.968 -0.4567  0.7614 -0.0129
 7721SOL    HW234800   4.271   1.655   9.085  0.5791  1.3742 -0.4913
 7722SOL     OW34801   2.862   2.408   6.106 -0.1158 -0.0319  0.3939
 7722SOL    HW134802   2.795   2.474   6.094 -0.6305 -0.6534 -0.1358
 7722SOL    HW234803   2.817   2.331   6.071 -0.1734 -0.9300  2.3883
 7723SOL     OW34804   4.002   0.753   2.013 -0.5795  0.3295 -0.5044
 7723SOL    HW134805   4.086   0.797   2.018  0.0822 -0.9763 -0.0274
 7723SOL    HW234806   4.016   0.702   1.933  1.6327  0.6112 -0.2813
 7724SOL     OW34807   4.150   1.512  16.702 -0.2134  0.4943  0.3433
 7724SOL    HW134808   4.070   1.557  16.727 -0.7640 -0.0044 -0.5386
 7724SOL    HW234809   4.215   1.560  16.754  1.1247  0.5482 -1.3485
 7725SOL     OW34810   2.943   3.067   2.585 -0.2016 -0.0732  0.2316
 7725SOL    HW134811   2.975   2.988   2.542  2.7830  0.4449  1.4716
 7725SOL    HW234812   2.872   3.088   2.524 -1.0807 -2.1958  0.5293
 7726SOL     OW34813   0.848   1.838  13.104 -0.0973  0.1757  0.3924
 7726SOL    HW134814   0.800   1.791  13.171 -2.8063 -1.6892 -2.8347
 7726SOL    HW234815   0.809   1.924  13.119 -1.2902  0.2659 -3.0704
 7727SOL     OW34816   2.876   2.609  14.600 -0.3339  0.3150 -0.3282
 7727SOL    HW134817   2.945   2.542  14.599  2.3789  3.1311  0.3758
 7727SOL    HW234818   2.807   2.552  14.566 -1.3528  1.2934  0.1220
 7728SOL     OW34819   2.889   4.037  16.943 -0.4644 -0.2264  0.3310
 7728SOL    HW134820   2.858   3.964  16.997  1.4493 -2.6419 -1.8075
 7728SOL    HW234821   2.984   4.029  16.955 -0.3353  2.0945  0.9164
 7729SOL     OW34822   2.255   2.016   7.423 -0.6331  0.2600 -0.0487
 7729SOL    HW134823   2.192   2.069   7.471 -1.2852 -0.1833 -0.4204
 7729SOL    HW234824   2.207   1.933   7.415 -1.5313  0.5473  2.4742
 7730SOL     OW34825   3.341   1.491  17.063 -0.2572 -0.0290  0.1340
 7730SOL    HW134826   3.422   1.454  17.099  0.5589  2.5100  0.8464
 7730SOL    HW234827   3.303   1.541  17.135 -0.4146  2.4091 -1.6441
 7731SOL     OW34828   3.749   2.043   2.648  0.6605 -0.1128 -0.5138
 7731SOL    HW134829   3.780   1.996   2.570  4.7191  0.4928  0.7427
 7731SOL    HW234830   3.707   2.122   2.614 -0.5880 -0.7349 -0.4123
 7732SOL     OW34831   3.015   2.713   4.745  0.0482 -0.3798  0.2127
 7732SOL    HW134832   2.973   2.649   4.688  0.3070  0.1896 -0.6119
 7732SOL    HW234833   3.106   2.691   4.723  0.8344  0.2973  2.7304
 7733SOL     OW34834   0.142   3.340   5.693 -0.0867  0.1529 -0.2479
 7733SOL    HW134835   0.154   3.393   5.615  2.6963  0.1155  0.1520
 7733SOL    HW234836   0.229   3.303   5.708  1.1489  3.1016 -0.2582
 7734SOL     OW34837   0.913   3.847   8.255  0.1915  0.8836 -0.1432
 7734SOL    HW134838   0.913   3.941   8.274 -0.4738  1.0082 -0.7653
 7734SOL    HW234839   1.001   3.838   8.218  1.0779 -2.3502  2.7285
 7735SOL     OW34840   3.404   0.270  15.923 -0.2149  0.1506 -0.2556
 7735SOL    HW134841   3.469   0.329  15.883 -0.5115  0.2661 -0.5694
 7735SOL    HW234842   3.415   0.302  16.012 -1.1677 -1.9724  0.6143
 7736SOL     OW34843   4.332   3.728   1.863  0.0884 -0.4209 -0.7348
 7736SOL    HW134844   4.407   3.781   1.889 -0.9169  0.4280  0.4548
 7736SOL    HW234845   4.271   3.802   1.860 -0.7080 -0.9929  1.1449
 7737SOL     OW34846   4.265   0.095   2.321 -0.2862  0.5534  0.0073
 7737SOL    HW134847   4.243   0.005   2.347 -2.3169  0.8848 -0.5853
 7737SOL    HW234848   4.347   0.107   2.369 -0.0856  2.2366 -0.7778
 7738SOL     OW34849   1.188   4.254   7.130 -0.5735 -0.4460  0.7392
 7738SOL    HW134850   1.251   4.270   7.061 -1.6694  2.3156  0.3843
 7738SOL    HW234851   1.117   4.220   7.074 -0.6260  0.0756  0.4939
 7739SOL     OW34852   2.367   1.097   4.530  0.0410 -0.2812  0.4583
 7739SOL    HW134853   2.321   1.173   4.566  2.1067  0.6615  1.1181
 7739SOL    HW234854   2.452   1.136   4.509 -0.0323 -0.1873  0.3356
 7740SOL     OW34855   1.429   1.928  13.080 -0.7021 -0.6170  0.0368
 7740SOL    HW134856   1.457   2.019  13.076 -1.7633 -0.1398  3.1117
 7740SOL    HW234857   1.515   1.893  13.059 -0.4822 -2.4605  3.9872
 7741SOL     OW34858   0.220   0.328   5.232  0.0792 -0.0272 -0.2760
 7741SOL    HW134859   0.214   0.403   5.172 -1.1267  0.4090  0.3849
 7741SOL    HW234860   0.182   0.368   5.310  1.8850  0.9703  0.0761
 7742SOL     OW34861   3.723   2.342  10.935 -0.7956 -0.3405  0.5984
 7742SOL    HW134862   3.646   2.354  10.880 -1.1896  1.3898  1.5583
 7742SOL    HW234863   3.775   2.284  10.879  0.7642  2.0166 -0.3974
 7743SOL     OW34864   1.449   4.421  12.443 -0.3694  0.0178  0.4862
 7743SOL    HW134865   1.511   4.481  12.485  0.9853 -0.0487 -1.4133
 7743SOL    HW234866   1.497   4.338  12.439  2.3064  1.7564 -2.9988
 7744SOL     OW34867   3.800   1.532   6.531 -0.3828 -0.2155 -0.6620
 7744SOL    HW134868   3.794   1.615   6.579  0.9426 -0.4398 -0.0862
 7744SOL    HW234869   3.707   1.524   6.513 -0.7298 -1.6108  1.7371
 7745SOL     OW34870   2.083   3.156  14.824 -0.2516 -0.2189  0.1106
 7745SOL    HW134871   2.025   3.088  14.858  1.1301 -1.0319  0.8528
 7745SOL    HW234872   2.135   3.116  14.754 -0.7666 -0.0345 -0.3794
 7746SOL     OW34873   1.238   4.579   8.489  0.4966  0.1917 -0.0920
 7746SOL    HW134874   1.245   4.486   8.466 -2.5551  0.2062 -1.1098
 7746SOL    HW234875   1.164   4.593   8.548 -1.1612 -1.3967 -1.8101
 7747SOL     OW34876   0.687   4.436   8.201  0.6744 -0.8643  0.6087
 7747SOL    HW134877   0.707   4.471   8.288 -0.2248  1.3905 -0.0876
 7747SOL    HW234878   0.776   4.408   8.180  0.1966 -2.1850  0.3499
 7748SOL     OW34879   3.943   4.313   9.546 -0.1764  0.6303 -0.0782
 7748SOL    HW134880   3.850   4.303   9.523 -0.3773 -0.0826  1.0247
 7748SOL    HW234881   3.983   4.245   9.492 -0.4977 -0.8852  1.5838
 7749SOL     OW34882   1.430   4.727   6.071  0.0946  0.6278  0.4576
 7749SOL    HW134883   1.494   4.675   6.119 -0.7271 -1.9445 -1.2885
 7749SOL    HW234884   1.480   0.055   6.025 -0.8155  1.5587  0.8404
 7750SOL     OW34885   3.571   0.616   3.440  0.2776  0.2721 -0.0515
 7750SOL    HW134886   3.541   0.674   3.510 -1.5925 -1.0523  0.2357
 7750SOL    HW234887   3.665   0.623   3.455 -0.4578  1.8187  3.8444
 7751SOL     OW34888   0.315   4.202   0.650 -0.5920 -0.2561  0.4034
 7751SOL    HW134889   0.352   4.289   0.634  1.8574 -0.7211  3.6504
 7751SOL    HW234890   0.222   4.205   0.628 -0.4058  0.5966 -0.2991
 7752SOL     OW34891   1.722   3.347   8.476  0.3026 -0.2012 -0.4009
 7752SOL    HW134892   1.771   3.293   8.414 -0.9466  0.0549 -1.6270
 7752SOL    HW234893   1.677   3.409   8.419 -2.2316 -0.0804  1.7036
 7753SOL     OW34894   1.488   2.818  12.052  0.3495  0.2713  0.1160
 7753SOL    HW134895   1.532   2.903  12.046 -1.9557  1.3568 -1.5668
 7753SOL    HW234896   1.471   2.799  11.959  0.0161  1.1167  0.0053
 7754SOL     OW34897   1.697   3.730  17.132  0.4476  0.0965 -0.3338
 7754SOL    HW134898   1.644   3.809  17.127  1.8826  1.1177  0.4829
 7754SOL    HW234899   1.627   3.665  17.138 -0.8221  1.4912  0.1282
 7755SOL     OW34900   4.270   0.309   3.879  0.6015 -0.1719 -0.9124
 7755SOL    HW134901   4.214   0.269   3.813 -0.9257 -0.5283  0.6184
 7755SOL    HW234902   4.293   0.231   3.930  0.2111 -0.1380 -0.6848
 7756SOL     OW34903   2.010   2.129  15.252  0.3703  0.3095 -0.0994
 7756SOL    HW134904   1.936   2.180  15.286  0.7985 -1.4364  3.3879
 7756SOL    HW234905   2.041   2.088  15.332  1.0817 -1.5036 -1.3125
 7757SOL     OW34906   1.739   2.858   5.565  0.6993  0.1980 -0.5269
 7757SOL    HW134907   1.652   2.833   5.599  0.2364  1.2079 -0.9737
 7757SOL    HW234908   1.789   2.794   5.615 -0.5861  0.0259  0.5513
 7758SOL     OW34909   1.926   3.382   0.619 -0.4415  0.0556 -0.4173
 7758SOL    HW134910   2.009   3.345   0.591 -2.0799 -2.4689 -1.9765
 7758SOL    HW234911   1.880   3.298   0.616  0.8233 -0.6687  0.6291
 7759SOL     OW34912   0.429   0.370   3.607 -0.2125  0.3728  0.2977
 7759SOL    HW134913   0.389   0.455   3.589 -0.5846  0.1359  0.0019
 7759SOL    HW234914   0.359   0.315   3.572  0.0159  0.1072  0.2631
 7760SOL     OW34915   2.031   4.157   7.472 -0.0595  0.0496  0.1898
 7760SOL    HW134916   2.116   4.162   7.427 -0.7087  1.2034 -0.9082
 7760SOL    HW234917   1.961   4.156   7.407  1.2705 -2.1683 -1.2122
 7761SOL     OW34918   3.526   2.876   1.380  0.2031  0.0345 -0.0080
 7761SOL    HW134919   3.619   2.899   1.379 -0.4256  2.7328  2.4422
 7761SOL    HW234920   3.493   2.950   1.329  0.7282 -0.2602 -0.7774
 7762SOL     OW34921   4.414   3.003   3.067  0.4780  0.4294  0.5882
 7762SOL    HW134922   4.458   2.984   3.149  1.8315 -0.5860 -0.3726
 7762SOL    HW234923   4.333   2.958   3.093  0.1888  1.0827  0.8334
 7763SOL     OW34924   1.260   4.353  16.093 -0.6761 -0.6897 -0.4010
 7763SOL    HW134925   1.252   4.398  16.177  1.0912 -0.9462 -0.0909
 7763SOL    HW234926   1.285   4.264  16.119 -4.2760 -0.8215  2.6289
 7764SOL     OW34927   3.355   3.866   3.085  0.1500  0.0486  0.0121
 7764SOL    HW134928   3.318   3.920   3.155 -0.0518 -2.2226  1.6908
 7764SOL    HW234929   3.448   3.854   3.106  0.7837  2.7437 -1.3957
 7765SOL     OW34930   4.364   0.513   7.637  0.0253  0.0151 -0.8514
 7765SOL    HW134931   4.454   0.539   7.616 -0.1238  0.9172 -0.4052
 7765SOL    HW234932   4.318   0.598   7.639 -0.2462 -0.1646  0.7819
 7766SOL     OW34933   2.312   3.363   2.978  0.4421  0.2993  0.6678
 7766SOL    HW134934   2.247   3.393   3.042 -1.3350  2.3412 -2.1074
 7766SOL    HW234935   2.337   3.277   3.013  0.9328  0.3927  0.5541
 7767SOL     OW34936   4.252   1.335  17.003  0.5189  0.0267 -0.1832
 7767SOL    HW134937   4.260   1.249  16.962 -1.8099 -1.4001  2.4088
 7767SOL    HW234938   4.159   1.332  17.024  0.9109 -0.5888  1.4571
 7768SOL     OW34939   2.381   1.165   2.095 -0.1418  0.1306 -0.4819
 7768SOL    HW134940   2.355   1.129   2.180  0.6115  3.4265  1.1485
 7768SOL    HW234941   2.351   1.255   2.106  1.5991  1.0201 -3.0894
 7769SOL     OW34942   3.368   2.233   3.173 -0.2040 -0.2864  0.0749
 7769SOL    HW134943   3.441   2.201   3.120  0.8402 -1.0534  1.9721
 7769SOL    HW234944   3.292   2.195   3.130  1.0182 -0.1527 -2.2398
 7770SOL     OW34945   2.510   1.080  11.866 -0.0171  0.8727  0.1528
 7770SOL    HW134946   2.425   1.122  11.854 -0.3620 -0.2063 -1.2105
 7770SOL    HW234947   2.505   0.985  11.858 -0.9318  0.9933 -0.5972
 7771SOL     OW34948   3.019   3.733   1.660 -0.2632 -0.1124  0.6155
 7771SOL    HW134949   3.002   3.689   1.744 -1.2753 -1.3636 -0.2437
 7771SOL    HW234950   3.098   3.779   1.690  0.1188  0.2850 -0.9968
 7772SOL     OW34951   3.317   1.764  12.933 -0.5038 -0.4557 -0.2188
 7772SOL    HW134952   3.259   1.707  12.983  0.3124 -1.8685 -0.8883
 7772SOL    HW234953   3.304   1.854  12.963  1.1147 -1.0226  2.1967
 7773SOL     OW34954   3.418   3.420   6.612 -0.0793 -0.0497  0.3771
 7773SOL    HW134955   3.422   3.354   6.543 -0.0609 -0.7713  1.0606
 7773SOL    HW234956   3.349   3.389   6.670 -0.8986 -0.5488 -0.8642
 7774SOL     OW34957   0.056   3.412   0.366  0.3453  0.6887 -0.5115
 7774SOL    HW134958   0.101   3.464   0.432  1.3160 -2.0887  0.9902
 7774SOL    HW234959   0.136   3.399   0.314  0.6033  1.7903 -0.3997
 7775SOL     OW34960   0.594   2.225   5.684 -0.2136 -0.0078  0.5231
 7775SOL    HW134961   0.572   2.142   5.727 -1.6438 -0.9232 -1.9415
 7775SOL    HW234962   0.543   2.279   5.744  0.2906  1.2109 -0.1525
 7776SOL     OW34963   1.201   1.400  10.024 -0.2703  0.0010 -0.3660
 7776SOL    HW134964   1.111   1.393  10.057  0.9213  0.3275  2.9074
 7776SOL    HW234965   1.174   1.436   9.940 -0.0638  0.2949 -0.3055
 7777SOL     OW34966   1.242   1.688   0.068  0.1730 -0.3105  0.1178
 7777SOL    HW134967   1.228   1.636  17.746  0.3504 -0.0980 -0.0534
 7777SOL    HW234968   1.336   1.681   0.086  0.1551  0.7622  0.6193
 7778SOL     OW34969   2.395   2.646   7.444  0.2937 -0.0780  0.5198
 7778SOL    HW134970   2.419   2.724   7.393  2.8648 -1.8199 -0.9504
 7778SOL    HW234971   2.357   2.593   7.374 -0.4571  2.3639 -0.9432
 7779SOL     OW34972   4.559   0.149   9.244  0.0688 -0.0397  0.3169
 7779SOL    HW134973   4.627   0.099   9.198 -0.4763  0.0891 -0.6199
 7779SOL    HW234974   4.609   0.171   9.323  3.3742 -0.7650 -1.5808
 7780SOL     OW34975   0.610   4.408  14.494 -0.2574 -0.3780  0.0747
 7780SOL    HW134976   0.630   4.497  14.465 -1.0667  0.3652  1.8363
 7780SOL    HW234977   0.587   4.378  14.406 -2.0951  1.6561 -0.1443
 7781SOL     OW34978   2.474   1.812   3.611 -0.4604  0.3396 -0.0916
 7781SOL    HW134979   2.568   1.819   3.593 -0.3212 -1.3007 -0.0755
 7781SOL    HW234980   2.427   1.818   3.528 -0.1580 -0.6459 -0.3354
 7782SOL     OW34981   3.562   1.951   4.434  0.5593  0.2269  0.0942
 7782SOL    HW134982   3.470   1.964   4.411  0.8284 -0.2101 -1.2241
 7782SOL    HW234983   3.607   1.923   4.354  0.5831  3.4099 -0.9787
 7783SOL     OW34984   2.012   2.358   4.950  0.0697 -0.2770  0.6659
 7783SOL    HW134985   2.050   2.357   4.862 -2.3646  0.6854 -0.3855
 7783SOL    HW234986   1.925   2.320   4.936 -0.1749 -0.0822  1.6528
 7784SOL     OW34987   2.443   0.140  12.859  0.0519  0.4594  0.4645
 7784SOL    HW134988   2.476   0.135  12.770 -1.2868 -0.1800 -0.0011
 7784SOL    HW234989   2.371   0.204  12.856  0.0143  0.3910 -0.0748
 7785SOL     OW34990   1.646   1.938   8.131 -0.5119 -0.1337  0.6239
 7785SOL    HW134991   1.627   2.031   8.117  2.1115  0.1326 -1.1173
 7785SOL    HW234992   1.601   1.909   8.210 -2.9510  1.4466 -0.1782
 7786SOL     OW34993   4.481   4.357   1.850 -0.0579 -0.4399 -0.2430
 7786SOL    HW134994   4.398   4.385   1.890 -0.3879 -0.6594 -0.7835
 7786SOL    HW234995   4.517   4.309   1.924 -0.5071  1.1754  1.0335
 7787SOL     OW34996   2.135   3.410   9.766 -0.1666 -0.2303 -0.4227
 7787SOL    HW134997   2.176   3.397   9.680  0.5534 -0.8990  0.0277
 7787SOL    HW234998   2.118   3.504   9.773  0.6344  0.0362 -2.0425
 7788SOL     OW34999   1.325   1.717  14.148  0.5856  0.1020 -0.0147
 7788SOL    HW135000   1.326   1.621  14.149 -1.3683  0.0804  0.2613
 7788SOL    HW235001   1.258   1.725  14.216  1.2124  3.4640  0.1816
 7789SOL     OW35002   2.178   1.266   5.985 -0.3211  0.1067  0.0232
 7789SOL    HW135003   2.198   1.294   5.896 -0.2792  1.7342  0.5389
 7789SOL    HW235004   2.099   1.319   5.995 -1.1387 -0.6938 -2.2209
 7790SOL     OW35005   3.122   0.475   6.221  0.5489  0.0389 -0.5344
 7790SOL    HW135006   3.049   0.417   6.244 -1.0244  1.6326 -1.5312
 7790SOL    HW235007   3.195   0.448   6.276 -0.0801  1.1069  0.8389
 7791SOL     OW35008   1.316   1.997  14.408  0.0324 -0.3872 -0.0412
 7791SOL    HW135009   1.376   1.925  14.425  0.4969 -0.4030 -1.7517
 7791SOL    HW235010   1.324   2.062  14.478 -2.9500 -0.0866  0.0444
 7792SOL     OW35011   1.585   3.666   8.971 -0.1799  0.0820  0.3367
 7792SOL    HW135012   1.584   3.572   8.989 -1.1670  0.3131  1.4871
 7792SOL    HW235013   1.566   3.677   8.878 -2.0348 -0.1002  0.7049
 7793SOL     OW35014   0.513   4.156   3.816  0.0142  0.2860  0.3321
 7793SOL    HW135015   0.555   4.186   3.735 -0.5945  0.4886  0.0913
 7793SOL    HW235016   0.445   4.223   3.816 -0.1568  0.1182 -1.1765
 7794SOL     OW35017   1.844   3.190   6.628 -0.4164  0.2149 -0.7658
 7794SOL    HW135018   1.773   3.204   6.691 -0.0399  0.1647 -0.3287
 7794SOL    HW235019   1.896   3.264   6.660 -0.7795  0.1329  0.0046
 7795SOL     OW35020   2.659   2.536   1.537  0.2570 -0.4560  0.2254
 7795SOL    HW135021   2.602   2.461   1.520  0.5653 -0.0661 -2.5284
 7795SOL    HW235022   2.697   2.555   1.451  1.0415 -0.0432  0.6632
 7796SOL     OW35023   2.445   2.284   2.077 -0.6099 -0.2396 -0.5016
 7796SOL    HW135024   2.440   2.377   2.100  1.2308  0.1743 -1.7832
 7796SOL    HW235025   2.355   2.253   2.089 -0.3096 -0.4409  1.1991
 7797SOL     OW35026   2.752   3.194   8.197 -0.1599 -0.0168  0.0422
 7797SOL    HW135027   2.777   3.280   8.231  1.1675 -0.1241 -0.6495
 7797SOL    HW235028   2.781   3.207   8.107  0.6530  0.2938  0.3454
 7798SOL     OW35029   1.807   1.942   7.388  0.0982 -0.4905  0.7059
 7798SOL    HW135030   1.786   1.870   7.447  0.2520 -1.4633 -0.4300
 7798SOL    HW235031   1.812   2.014   7.450  0.6415  0.7109 -0.7208
 7799SOL     OW35032   2.810   4.284  13.151  0.5009 -0.3378 -0.4080
 7799SOL    HW135033   2.724   4.296  13.110 -0.3123  0.5214  1.5331
 7799SOL    HW235034   2.860   4.362  13.129 -1.4880  1.4343  1.3895
 7800SOL     OW35035   3.841   0.774  12.852  0.7064  0.0862 -0.8076
 7800SOL    HW135036   3.871   0.684  12.855  1.4360  0.3107 -1.4386
 7800SOL    HW235037   3.746   0.763  12.853  0.6044  0.9203 -0.7244
 7801SOL     OW35038   3.008   4.005   5.437 -0.9499  0.1303  0.2356
 7801SOL    HW135039   3.091   3.970   5.403 -0.6806  0.2166  0.7912
 7801SOL    HW235040   3.035   4.038   5.523  1.3079  1.0483 -0.8115
 7802SOL     OW35041   0.110   0.708   0.307 -0.4295  0.2484  0.7806
 7802SOL    HW135042   0.179   0.747   0.254 -1.6065 -0.2806 -1.1706
 7802SOL    HW235043   0.072   0.790   0.337 -1.3225  0.2207 -0.2576
 7803SOL     OW35044   2.550   2.410  12.210 -0.2407  0.0189  0.4290
 7803SOL    HW135045   2.539   2.502  12.183  2.7258  0.2541 -0.0372
 7803SOL    HW235046   2.630   2.421  12.261 -0.7579  0.4464  1.1445
 7804SOL     OW35047   4.219   0.487   4.933 -0.1350  0.3483  0.2740
 7804SOL    HW135048   4.168   0.566   4.948 -1.1380 -0.2826  0.2007
 7804SOL    HW235049   4.299   0.519   4.890  1.3056 -1.2529  1.7718
 7805SOL     OW35050   0.959   1.416  10.111  0.3591  0.2267 -0.4669
 7805SOL    HW135051   0.870   1.379  10.105 -0.9656  3.6411 -1.6662
 7805SOL    HW235052   0.947   1.498  10.159  2.8315  0.0406  0.4351
 7806SOL     OW35053   0.306   1.932  14.789 -0.0594 -0.4264  0.5523
 7806SOL    HW135054   0.223   1.978  14.799 -0.7264 -1.5863  0.3622
 7806SOL    HW235055   0.295   1.858  14.849 -2.3944 -0.4309  0.1191
 7807SOL     OW35056   1.516   0.279   0.921 -0.3079  0.3504 -0.0547
 7807SOL    HW135057   1.605   0.243   0.923 -0.7042 -0.6216  0.3085
 7807SOL    HW235058   1.522   0.341   0.993  0.0316 -1.2548  1.3098
 7808SOL     OW35059   2.953   0.559   8.784  0.3672  0.4336 -0.1969
 7808SOL    HW135060   2.995   0.630   8.734 -0.7146  0.9092 -0.4295
 7808SOL    HW235061   2.865   0.595   8.790  0.3985  0.3366  0.7864
 7809SOL     OW35062   1.962   0.478   7.237  0.2253 -0.5754 -0.0071
 7809SOL    HW135063   1.969   0.552   7.176  0.7978 -0.0784  0.6701
 7809SOL    HW235064   1.897   0.514   7.297  0.1573 -0.6685 -0.0236
 7810SOL     OW35065   0.268   4.444   3.082 -0.0635 -0.0086  0.0067
 7810SOL    HW135066   0.286   4.361   3.126  0.1296  0.3381  0.5908
 7810SOL    HW235067   0.302   4.503   3.150  1.9615 -0.7107 -0.3848
 7811SOL     OW35068   0.763   4.409   0.689  0.1289  0.1247 -0.4241
 7811SOL    HW135069   0.788   4.349   0.760 -0.1837 -0.6997 -1.0191
 7811SOL    HW235070   0.815   4.375   0.616  2.0287 -0.7373  1.3166
 7812SOL     OW35071   0.124   0.042   6.506  0.6482  0.0828 -0.2910
 7812SOL    HW135072   0.125   0.040   6.602 -0.4854 -1.6599 -0.2951
 7812SOL    HW235073   0.137   4.689   6.485 -1.0555  0.0426 -1.1495
 7813SOL     OW35074   0.931   2.065   6.574 -0.2402  0.1989  0.1662
 7813SOL    HW135075   0.900   1.985   6.531  1.7102 -0.1687 -0.6031
 7813SOL    HW235076   0.853   2.099   6.617 -0.0270  0.0348  0.6818
 7814SOL     OW35077   1.247   0.029   5.612  0.6039 -0.1338 -0.2686
 7814SOL    HW135078   1.272   0.015   5.703  2.2602  3.3354 -0.2005
 7814SOL    HW235079   1.191   0.105   5.629 -0.0303 -0.8691  0.9451
 7815SOL     OW35080   3.187   0.488   3.650 -0.4159 -0.2886 -0.2946
 7815SOL    HW135081   3.150   0.576   3.653  1.1424  0.3714 -0.0624
 7815SOL    HW235082   3.266   0.515   3.697 -0.8022 -2.8876  1.8261
 7816SOL     OW35083   0.046   0.688   4.458 -0.5244  0.2538 -0.1995
 7816SOL    HW135084   0.093   0.616   4.415  0.4289 -0.1941  1.6035
 7816SOL    HW235085   0.099   0.765   4.437  1.8893 -0.6151  2.7598
 7817SOL     OW35086   4.198   4.167   9.089 -0.1990 -0.4869  0.1743
 7817SOL    HW135087   4.271   4.169   9.151 -0.0941  1.4459 -0.0199
 7817SOL    HW235088   4.230   4.099   9.030 -0.0583 -0.1299 -0.1586
 7818SOL     OW35089   2.602   0.957   5.338  0.1599  0.6657  0.1094
 7818SOL    HW135090   2.520   1.005   5.327 -0.4059 -0.6763 -1.4904
 7818SOL    HW235091   2.579   0.873   5.378  1.4854 -0.0696 -0.6483
 7819SOL     OW35092   3.069   2.500   5.911 -0.1154 -0.1167 -0.1661
 7819SOL    HW135093   3.055   2.547   5.993 -0.7049  1.5194 -1.1846
 7819SOL    HW235094   3.156   2.532   5.887 -1.0679  1.9851 -0.8256
 7820SOL     OW35095   3.543   4.022   4.713 -0.4732  0.3327  0.1994
 7820SOL    HW135096   3.589   4.079   4.774 -0.1372 -0.2348  0.4791
 7820SOL    HW235097   3.497   3.957   4.766 -1.0569 -0.4700 -1.3048
 7821SOL     OW35098   0.918   0.996  11.539  0.2303 -0.2304 -0.2025
 7821SOL    HW135099   0.958   1.076  11.507 -0.1362  0.5163  1.2017
 7821SOL    HW235100   0.997   0.960  11.579  0.9640  4.7402  2.7718
 7822SOL     OW35101   2.035   4.337   8.559 -0.2815 -1.0756 -0.2467
 7822SOL    HW135102   1.993   4.421   8.541 -2.2727 -1.6630  1.5376
 7822SOL    HW235103   2.053   4.324   8.466 -1.8796 -3.5268 -0.2153
 7823SOL     OW35104   1.087   4.082   7.916  0.0798  0.2437  0.4174
 7823SOL    HW135105   1.098   3.993   7.883 -0.9335  0.2672  0.0467
 7823SOL    HW235106   1.067   4.137   7.841  0.2634 -0.9914 -0.5357
 7824SOL     OW35107   0.176   1.146   9.267 -0.4100  0.0012  0.4062
 7824SOL    HW135108   0.182   1.114   9.178 -1.1511  0.4873  0.1823
 7824SOL    HW235109   0.120   1.082   9.310  0.7242 -0.3245  1.4121
 7825SOL     OW35110   1.526   4.382   1.153  0.0249  0.0654  0.0836
 7825SOL    HW135111   1.472   4.460   1.140 -0.9062 -0.9598 -2.2414
 7825SOL    HW235112   1.590   4.429   1.206  1.5032 -0.4337 -1.2445
 7826SOL     OW35113   0.346   2.762   1.264  0.2122 -0.3107  0.0567
 7826SOL    HW135114   0.441   2.779   1.260  0.5432 -2.4763 -1.2405
 7826SOL    HW235115   0.343   2.710   1.345 -0.5115  1.0253  0.8823
 7827SOL     OW35116   2.652   0.289   9.710 -0.1769  0.1300  0.6435
 7827SOL    HW135117   2.706   0.306   9.633 -0.1460  1.1431  0.8999
 7827SOL    HW235118   2.687   0.205   9.740 -0.4347  0.0873  0.8180
 7828SOL     OW35119   0.673   3.695   5.387  0.4754  0.1732  0.0160
 7828SOL    HW135120   0.723   3.690   5.306 -1.1388 -2.5620 -0.7912
 7828SOL    HW235121   0.718   3.624   5.433 -2.9946 -1.5934  0.6594
 7829SOL     OW35122   3.696   0.747   5.054  0.4440  0.4345 -0.6696
 7829SOL    HW135123   3.746   0.706   4.983 -0.2593 -1.9633  0.2313
 7829SOL    HW235124   3.658   0.673   5.101  3.2313 -1.7308 -1.8321
 7830SOL     OW35125   2.512   3.417   6.396 -0.0460  0.1613 -0.0145
 7830SOL    HW135126   2.457   3.420   6.317  0.1710  2.4193 -0.0990
 7830SOL    HW235127   2.554   3.503   6.388 -0.8671  0.7466  1.9832
 7831SOL     OW35128   0.221   4.117  12.899  0.4052  0.4141 -0.2206
 7831SOL    HW135129   0.298   4.097  12.952 -0.3954 -2.8183 -0.3089
 7831SOL    HW235130   0.232   4.211  12.885 -0.1129  0.3436 -1.1052
 7832SOL     OW35131   3.923   4.372  11.822 -0.9027  0.4076  0.4331
 7832SOL    HW135132   3.942   4.465  11.834  0.4401 -0.0540  1.9391
 7832SOL    HW235133   3.834   4.382  11.788 -0.1892 -0.0811 -1.5127
 7833SOL     OW35134   3.930   2.556   9.259 -0.2264  0.1868  0.1445
 7833SOL    HW135135   3.855   2.593   9.307  0.0591  0.1611  0.6166
 7833SOL    HW235136   4.007   2.566   9.315  0.6760  1.3100 -1.3044
 7834SOL     OW35137   4.297   2.002   5.115 -0.0161  0.6139  0.5508
 7834SOL    HW135138   4.288   1.962   5.201  1.3057 -0.2299  0.3014
 7834SOL    HW235139   4.266   1.933   5.057  1.3461  1.7135 -1.5253
 7835SOL     OW35140   3.031   4.405  10.511 -0.1666 -0.2688 -0.0867
 7835SOL    HW135141   2.961   4.470  10.516  1.6147  1.4023  3.1228
 7835SOL    HW235142   3.099   4.472  10.504 -0.2639 -0.3023 -1.2596
 7836SOL     OW35143   0.931   2.723   9.726 -0.4111 -0.0879 -0.0909
 7836SOL    HW135144   1.005   2.679   9.685 -1.4901 -1.8618 -0.1350
 7836SOL    HW235145   0.855   2.674   9.693  0.7328 -2.1260  0.2876
 7837SOL     OW35146   3.940   4.576   6.665  0.1926 -0.0931 -0.6503
 7837SOL    HW135147   4.022   4.543   6.703  0.5033 -0.5645 -1.7243
 7837SOL    HW235148   3.917   4.650   6.721  0.0588 -1.0691  0.5792
 7838SOL     OW35149   1.183   1.509   7.203  0.4422 -0.0864  0.2566
 7838SOL    HW135150   1.240   1.530   7.277 -1.6482  2.0766  1.2644
 7838SOL    HW235151   1.124   1.447   7.246 -0.1794  0.1008 -0.3329
 7839SOL     OW35152   0.291   4.212  14.725  0.0439 -0.1415  0.2659
 7839SOL    HW135153   0.251   4.127  14.737 -1.8128  0.5028 -1.2710
 7839SOL    HW235154   0.212   4.265  14.713 -0.1457 -0.1437  1.5333
 7840SOL     OW35155   3.929   3.450  16.877  0.1929  0.5570 -0.2071
 7840SOL    HW135156   3.926   3.495  16.961 -3.7545 -0.9283  0.4516
 7840SOL    HW235157   3.894   3.514  16.815 -3.0663 -2.6427 -1.6886
 7841SOL     OW35158   3.018   0.734   5.651  0.5900  0.7713  0.1247
 7841SOL    HW135159   2.970   0.657   5.682 -1.2128  0.3711 -3.5999
 7841SOL    HW235160   3.006   0.726   5.556 -2.8878  0.1482  0.6176
 7842SOL     OW35161   0.262   2.618   6.364  0.0897 -0.1663  0.2077
 7842SOL    HW135162   0.171   2.589   6.366  0.0886 -0.0449  1.7639
 7842SOL    HW235163   0.291   2.576   6.283 -0.7742 -1.2260  0.4503
 7843SOL     OW35164   3.417   0.466  11.865 -0.0844 -0.3002 -0.5958
 7843SOL    HW135165   3.400   0.375  11.840  1.5654  0.4072 -4.2783
 7843SOL    HW235166   3.423   0.506  11.778 -0.2794  0.0651 -0.4399
 7844SOL     OW35167   4.441   0.646   9.165  0.5015 -0.3022  0.0607
 7844SOL    HW135168   4.366   0.654   9.106  1.0009  1.0763 -0.3732
 7844SOL    HW235169   4.403   0.652   9.252  1.0618  1.0543  0.2173
 7845SOL     OW35170   2.358   4.220   4.376 -0.4756  0.0430 -0.1779
 7845SOL    HW135171   2.271   4.197   4.409 -0.8890  2.3979  0.4086
 7845SOL    HW235172   2.378   4.293   4.434 -1.6889  1.4830 -1.5699
 7846SOL     OW35173   2.670   2.294   3.112  0.1024  0.3114  0.4499
 7846SOL    HW135174   2.722   2.220   3.081  1.8126  1.2124  1.1947
 7846SOL    HW235175   2.629   2.320   3.029  3.3091  0.3026 -1.1132
 7847SOL     OW35176   2.656   2.757  13.767  0.1839  0.6691 -0.0248
 7847SOL    HW135177   2.675   2.815  13.693 -0.5867 -0.6717 -1.2556
 7847SOL    HW235178   2.714   2.684  13.748 -1.5241 -0.9776  1.0762
 7848SOL     OW35179   4.269   1.914   3.339  0.0852 -0.2180  0.7914
 7848SOL    HW135180   4.188   1.920   3.389  0.8559  1.2813  1.8615
 7848SOL    HW235181   4.247   1.937   3.248  0.1932 -1.1884  0.5192
 7849SOL     OW35182   3.523   4.450   1.762  0.0838  0.3768  0.1974
 7849SOL    HW135183   3.537   4.411   1.848 -1.6242 -0.9962 -0.1530
 7849SOL    HW235184   3.475   4.383   1.713  1.1026 -1.2610  1.4307
 7850SOL     OW35185   1.290   4.463   2.277  0.3289 -0.5595 -0.2169
 7850SOL    HW135186   1.268   4.507   2.195 -1.0823  0.0013  0.4635
 7850SOL    HW235187   1.380   4.489   2.297 -0.5685  1.1225  1.6384
 7851SOL     OW35188   2.788   0.498   7.617 -0.2930 -0.0213 -0.0125
 7851SOL    HW135189   2.808   0.483   7.709 -0.3651 -0.0093  0.0051
 7851SOL    HW235190   2.878   0.472   7.598 -0.2440 -0.6158  1.0613
 7852SOL     OW35191   1.439   1.834   2.664  1.0099 -0.2265  0.5984
 7852SOL    HW135192   1.408   1.892   2.734 -1.2709  0.7216 -1.2047
 7852SOL    HW235193   1.373   1.765   2.674  1.0296  0.1387  3.2507
 7853SOL     OW35194   3.445   1.209   9.433  0.2158 -0.4240 -0.2775
 7853SOL    HW135195   3.534   1.227   9.461 -0.6259  3.4926 -0.0930
 7853SOL    HW235196   3.404   1.294   9.418  0.3051 -0.3462 -0.0790
 7854SOL     OW35197   3.022   0.420  16.055  0.3568 -0.1798 -0.0530
 7854SOL    HW135198   3.038   0.464  15.972 -0.8897  0.4692  0.0501
 7854SOL    HW235199   3.093   0.446  16.113 -0.1658 -1.6171  1.2267
 7855SOL     OW35200   4.608   4.690   7.169 -0.4285  0.5215 -0.3648
 7855SOL    HW135201   4.518   4.684   7.203  0.3178  0.3331  1.5821
 7855SOL    HW235202   4.623   0.037   7.205  2.9524 -0.6867  1.1514
 7856SOL     OW35203   2.390   1.157  10.818  0.2029  0.0481 -0.7202
 7856SOL    HW135204   2.467   1.156  10.761  1.8993 -0.1837  1.6044
 7856SOL    HW235205   2.425   1.140  10.905  0.7383 -0.4215 -1.0346
 7857SOL     OW35206   0.586   2.569   2.828 -0.0067  0.0761  0.4371
 7857SOL    HW135207   0.550   2.503   2.769  1.4002 -0.7435  0.5005
 7857SOL    HW235208   0.533   2.561   2.907  0.0767 -0.4771  0.4376
 7858SOL     OW35209   1.589   0.581   9.973  0.3488  0.1951 -0.1401
 7858SOL    HW135210   1.569   0.564  10.065  2.7030 -2.0478 -0.0362
 7858SOL    HW235211   1.533   0.657   9.957  1.8444  1.4679  0.6654
 7859SOL     OW35212   0.857   2.956   9.575  0.0631 -0.3769  0.4958
 7859SOL    HW135213   0.864   2.901   9.652 -3.0379  0.5207  1.3886
 7859SOL    HW235214   0.941   2.946   9.530 -0.3242  0.6133 -0.4669
 7860SOL     OW35215   3.098   2.790   9.818 -0.0566  0.0514 -0.2803
 7860SOL    HW135216   3.145   2.863   9.858 -0.0704 -0.1067  0.0225
 7860SOL    HW235217   3.015   2.786   9.864  0.3613 -1.4205  0.3409
 7861SOL     OW35218   2.499   3.262  10.889 -0.0755 -0.3843  0.0503
 7861SOL    HW135219   2.476   3.334  10.947  0.9923 -1.7329  2.1457
 7861SOL    HW235220   2.591   3.261  10.863 -0.3749 -1.5319 -0.9820
 7862SOL     OW35221   3.992   3.068   9.422 -0.2257 -0.0533 -0.4346
 7862SOL    HW135222   3.965   3.047   9.512 -0.1476  0.0207 -0.3941
 7862SOL    HW235223   4.059   3.003   9.400  0.5901  0.7392 -0.2701
 7863SOL     OW35224   4.585   2.134   4.410 -0.8608  0.5292 -0.0518
 7863SOL    HW135225   4.669   2.091   4.423 -0.5462  0.9117 -0.8383
 7863SOL    HW235226   4.529   2.068   4.452  0.7068 -1.4228 -1.0042
 7864SOL     OW35227   0.941   0.345   6.759  0.1776 -0.3900 -0.9281
 7864SOL    HW135228   1.000   0.419   6.742  0.1940 -0.2713 -0.3484
 7864SOL    HW235229   0.910   0.325   6.671 -0.9568  1.2066 -0.8789
 7865SOL     OW35230   3.039   4.040   9.120  0.0397  0.4083  0.1476
 7865SOL    HW135231   3.067   4.128   9.097  0.0636  0.7537  1.5525
 7865SOL    HW235232   3.121   3.994   9.138  0.8323  2.2406  1.0778
 7866SOL     OW35233   2.546   2.979   6.434 -0.0628  0.0166  0.3934
 7866SOL    HW135234   2.599   3.015   6.363 -0.7234 -0.2094 -0.2163
 7866SOL    HW235235   2.482   2.922   6.392 -1.9824 -0.2239  3.6303
 7867SOL     OW35236   3.139   3.435   1.864 -0.2525  0.1649 -0.2245
 7867SOL    HW135237   3.128   3.406   1.954  2.4767  1.3419  0.4969
 7867SOL    HW235238   3.218   3.488   1.880 -0.2596  0.2938 -0.6190
 7868SOL     OW35239   1.224   2.431   2.719 -0.4513 -0.1902 -0.4615
 7868SOL    HW135240   1.246   2.519   2.750 -2.0859  0.6849 -1.8721
 7868SOL    HW235241   1.262   2.433   2.631 -2.3632 -0.7654 -1.2815
 7869SOL     OW35242   1.991   4.726   6.478 -0.1903 -0.0006  0.7192
 7869SOL    HW135243   1.896   4.712   6.475 -0.0551 -0.6170 -0.6722
 7869SOL    HW235244   2.010   0.003   6.570 -1.3803  0.3269  0.8976
 7870SOL     OW35245   3.689   2.711  13.042  0.4085 -0.1850  0.4702
 7870SOL    HW135246   3.728   2.629  13.011 -0.8753 -0.7052  0.2171
 7870SOL    HW235247   3.764   2.765  13.016 -0.7141  0.8439 -0.6654
 7871SOL     OW35248   2.541   3.396  10.568 -0.1481 -0.2962  0.1053
 7871SOL    HW135249   2.614   3.342  10.537  1.4310  1.9104  0.0020
 7871SOL    HW235250   2.474   3.330  10.584 -0.7897  0.3274 -0.0092
 7872SOL     OW35251   2.410   0.206   2.512 -0.7416 -0.6506  0.0897
 7872SOL    HW135252   2.501   0.186   2.533  0.0078  2.5718 -0.1564
 7872SOL    HW235253   2.395   0.183   2.421 -2.4397  1.4466 -0.1658
 7873SOL     OW35254   0.837   0.175   0.737 -0.1277  0.6015  0.1440
 7873SOL    HW135255   0.806   0.152   0.649  0.6444  1.4760 -0.3721
 7873SOL    HW235256   0.770   0.133   0.790  2.1841 -3.2062  0.0755
 7874SOL     OW35257   3.673   1.798   1.046  0.2093  0.3209  0.0541
 7874SOL    HW135258   3.698   1.870   1.105 -0.8364  0.4528  0.3349
 7874SOL    HW235259   3.622   1.743   1.105  0.2092 -1.3628 -1.5126
 7875SOL     OW35260   2.428   4.253  13.273 -0.2702  0.2862 -0.1676
 7875SOL    HW135261   2.344   4.219  13.244 -0.0700  0.4895 -0.9844
 7875SOL    HW235262   2.447   4.312  13.200  2.6470  0.8292  1.0178
 7876SOL     OW35263   0.061   1.603   7.289 -0.2942  0.7904 -0.0803
 7876SOL    HW135264   0.129   1.550   7.248  0.1913  0.5085  1.0862
 7876SOL    HW235265   4.722   1.588   7.236 -1.5070  1.0654  1.6420
 7877SOL     OW35266   1.578   1.415   3.104  0.1488 -0.2884  0.3444
 7877SOL    HW135267   1.582   1.509   3.084 -0.2871  0.0274  1.7879
 7877SOL    HW235268   1.503   1.394   3.048 -0.3565  2.3440  0.0289
 7878SOL     OW35269   0.916   2.091   5.207 -0.3834  0.2093  0.2626
 7878SOL    HW135270   0.895   2.033   5.280 -1.8707  2.5514  1.7253
 7878SOL    HW235271   1.009   2.111   5.216  0.0202 -0.9764 -1.3162
 7879SOL     OW35272   4.603   2.068  15.017  0.2698 -0.3738 -0.0782
 7879SOL    HW135273   4.570   2.025  14.938  0.9584  0.3689 -0.7749
 7879SOL    HW235274   4.600   2.003  15.087  2.2076 -0.4348 -0.0399
 7880SOL     OW35275   2.512   0.574  10.914 -0.9576  0.2215 -0.3738
 7880SOL    HW135276   2.591   0.545  10.959  0.0140  1.8864 -1.0047
 7880SOL    HW235277   2.515   0.497  10.857  0.0309  0.0417 -0.0712
 7881SOL     OW35278   2.536   4.136   7.334  0.1564 -0.8046  0.5792
 7881SOL    HW135279   2.484   4.096   7.263 -0.2084  3.1871 -1.4014
 7881SOL    HW235280   2.614   4.157   7.284 -1.0175  0.3308 -0.7835
 7882SOL     OW35281   2.468   1.662   5.141 -0.0029  0.3441  0.0394
 7882SOL    HW135282   2.458   1.663   5.236 -0.8982  2.2264 -0.0665
 7882SOL    HW235283   2.502   1.577   5.115 -0.6517  0.2403 -0.4585
 7883SOL     OW35284   0.733   1.718   3.111  0.2249  0.3919  0.5577
 7883SOL    HW135285   0.741   1.623   3.125 -0.4841  0.2838  0.2174
 7883SOL    HW235286   0.649   1.742   3.150  0.0769 -1.5850  1.4533
 7884SOL     OW35287   4.187   1.239   5.460 -0.3846  0.3341 -0.0334
 7884SOL    HW135288   4.143   1.323   5.461  2.2199  1.6903  0.8056
 7884SOL    HW235289   4.274   1.264   5.429 -1.2748  1.6001 -1.4530
 7885SOL     OW35290   2.967   1.689   4.750 -0.5125  0.2029 -0.0227
 7885SOL    HW135291   3.000   1.680   4.840  1.5589  1.3717 -0.6519
 7885SOL    HW235292   2.877   1.717   4.764 -0.4949  0.4760 -0.4658
 7886SOL     OW35293   3.332   1.708   7.310 -0.1148 -0.0750  0.7656
 7886SOL    HW135294   3.375   1.639   7.360  2.7112  2.8355  2.3523
 7886SOL    HW235295   3.353   1.786   7.362 -0.6794  1.0257 -0.6537
 7887SOL     OW35296   0.553   0.524   2.516 -0.0123 -0.1176  0.3379
 7887SOL    HW135297   0.620   0.539   2.583  1.4714  0.0210 -1.1990
 7887SOL    HW235298   0.529   0.612   2.487  0.9090 -0.2030 -0.6696
 7888SOL     OW35299   4.706   1.580   8.388  0.5112  0.0905  0.5971
 7888SOL    HW135300   0.054   1.618   8.392  1.0841 -1.1461 -0.3641
 7888SOL    HW235301   4.687   1.572   8.294  1.0017 -1.4429  0.6304
 7889SOL     OW35302   1.642   2.761  16.790 -0.3264 -0.3079  0.0544
 7889SOL    HW135303   1.713   2.743  16.728  0.1633  1.1568  0.2032
 7889SOL    HW235304   1.658   2.854  16.804 -2.4743  0.0213  0.3375
 7890SOL     OW35305   4.632   3.118   7.005  0.7908  0.0749  0.1437
 7890SOL    HW135306   4.660   3.143   6.917 -1.5964  2.3750  0.0508
 7890SOL    HW235307   4.539   3.095   7.001  0.4946  1.6925 -1.7939
 7891SOL     OW35308   0.736   2.383   6.586  0.0620 -0.2029 -0.6701
 7891SOL    HW135309   0.776   2.330   6.655 -1.7078 -0.1169  0.4511
 7891SOL    HW235310   0.789   2.371   6.508  1.2599 -1.1515  0.2918
 7892SOL     OW35311   4.587   2.243   1.676 -0.3528 -0.2068  0.0651
 7892SOL    HW135312   4.555   2.276   1.760 -1.7444 -0.9385 -0.1772
 7892SOL    HW235313   4.545   2.307   1.620  0.0283  0.6858  0.7987
 7893SOL     OW35314   3.391   1.186   3.203  0.3203 -0.6123  0.2520
 7893SOL    HW135315   3.375   1.098   3.237  0.2578 -0.7352 -0.0978
 7893SOL    HW235316   3.343   1.238   3.269  0.4527 -0.7827  0.4821
 7894SOL     OW35317   3.714   0.650   4.291 -0.0464 -0.1662  0.0246
 7894SOL    HW135318   3.653   0.626   4.360  0.8338 -0.7298  0.6126
 7894SOL    HW235319   3.795   0.633   4.339  1.2815 -1.7998 -2.8320
 7895SOL     OW35320   1.649   3.434   2.385  0.0729  0.5963  0.2087
 7895SOL    HW135321   1.573   3.402   2.433  0.5244 -1.1498 -0.2337
 7895SOL    HW235322   1.657   3.520   2.427 -2.6777  0.6535  0.6112
 7896SOL     OW35323   4.372   0.971   8.321  0.3546  0.0870 -0.0678
 7896SOL    HW135324   4.296   0.927   8.360  1.3517 -0.2172  1.5305
 7896SOL    HW235325   4.349   1.059   8.352 -1.1228  0.3094 -1.7770
 7897SOL     OW35326   4.673   2.460   8.465  0.0092  0.2886  0.2718
 7897SOL    HW135327   4.618   2.531   8.431 -1.9384 -1.8661 -1.0871
 7897SOL    HW235328   4.692   2.417   8.382 -0.4008 -1.8551  1.2914
 7898SOL     OW35329   0.222   0.852   4.284 -0.4032  0.9981  0.1593
 7898SOL    HW135330   0.175   0.932   4.259  1.5535  2.2454  0.3910
 7898SOL    HW235331   0.267   0.816   4.207  0.9936  0.3494  1.2813
 7899SOL     OW35332   4.381   1.032   6.514  0.1311  0.3455  0.2639
 7899SOL    HW135333   4.437   0.964   6.552 -0.3074  0.1997  0.6547
 7899SOL    HW235334   4.369   0.992   6.428  1.3390  0.6843 -0.0537
 7900SOL     OW35335   1.536   3.340   4.727 -0.0667  0.3307  0.1906
 7900SOL    HW135336   1.563   3.417   4.676  0.6599 -0.0407  0.0136
 7900SOL    HW235337   1.565   3.276   4.661  3.3427  0.8146  1.2348
 7901SOL     OW35338   0.973   4.555  16.134  0.4057  0.2111 -0.0047
 7901SOL    HW135339   0.982   4.478  16.079 -0.8419 -0.2230  0.4168
 7901SOL    HW235340   0.977   4.630  16.074  0.8330  0.3382  0.1756
 7902SOL     OW35341   1.613   0.115   6.285 -0.0944 -0.0657 -0.3606
 7902SOL    HW135342   1.563   0.196   6.272  3.0568  2.0103  0.5415
 7902SOL    HW235343   1.548   0.063   6.333  0.0789 -1.1048 -1.2554
 7903SOL     OW35344   0.295   0.872   3.843  0.1784 -0.0050  0.2849
 7903SOL    HW135345   0.302   0.942   3.779 -0.2019 -0.1146  0.1176
 7903SOL    HW235346   0.206   0.843   3.820  1.4956 -3.6823 -0.2288
 7904SOL     OW35347   1.552   2.533  12.025  0.5998 -1.1150  0.1353
 7904SOL    HW135348   1.618   2.585  11.978 -0.0038 -0.5582 -0.0977
 7904SOL    HW235349   1.488   2.603  12.040  1.2212  0.2058 -3.4462
 7905SOL     OW35350   4.109   1.555   1.758  0.3444 -0.1317 -0.3336
 7905SOL    HW135351   4.036   1.494   1.766 -1.4886  2.1701  0.0724
 7905SOL    HW235352   4.101   1.563   1.663  1.8374 -0.4503 -0.4883
 7906SOL     OW35353   2.649   1.598  12.364 -0.2396  0.0050  0.7128
 7906SOL    HW135354   2.620   1.678  12.319 -0.3616  0.3810  1.4686
 7906SOL    HW235355   2.742   1.622  12.367 -0.1542 -0.0438 -1.1794
 7907SOL     OW35356   1.037   3.736   9.984 -0.1642  0.2204  0.1786
 7907SOL    HW135357   1.067   3.730   9.894  0.5198  3.1648  0.2323
 7907SOL    HW235358   0.962   3.676   9.984  1.5106 -1.8594 -0.5074
 7908SOL     OW35359   2.481   2.389   4.162 -0.2252  0.3709  0.0917
 7908SOL    HW135360   2.540   2.361   4.092 -0.0397 -2.4426  1.3562
 7908SOL    HW235361   2.417   2.424   4.100  0.4543 -0.3299 -1.0122
 7909SOL     OW35362   1.569   1.135   7.910 -0.0016 -0.1192 -0.3552
 7909SOL    HW135363   1.524   1.059   7.947  0.9694 -0.0780  0.8867
 7909SOL    HW235364   1.498   1.198   7.919  2.3340  2.2386  1.6359
 7910SOL     OW35365   2.846   0.389   5.080 -0.2080  0.4225  1.1260
 7910SOL    HW135366   2.851   0.433   4.995  0.8962 -0.2077  0.8607
 7910SOL    HW235367   2.763   0.423   5.113 -0.1048  0.0685  1.7627
 7911SOL     OW35368   4.041   2.442   7.331  0.0899 -0.2840  0.6501
 7911SOL    HW135369   4.048   2.347   7.315 -0.1920  0.1537 -2.0703
 7911SOL    HW235370   4.012   2.463   7.242 -1.4328 -1.0255  0.9662
 7912SOL     OW35371   3.422   3.419   8.461  0.0225  0.6086  0.1645
 7912SOL    HW135372   3.403   3.507   8.429  1.9238  1.4948  1.4455
 7912SOL    HW235373   3.473   3.435   8.541 -0.1377 -2.6436  0.9511
 7913SOL     OW35374   0.918   1.030  12.764 -0.1081 -0.3869  0.3061
 7913SOL    HW135375   0.978   1.103  12.747  0.0664 -0.4829  0.5011
 7913SOL    HW235376   0.947   0.977  12.839  2.4271 -0.0518 -0.4220
 7914SOL     OW35377   3.928   2.265   2.996 -0.0462 -0.4201  0.0080
 7914SOL    HW135378   3.875   2.256   2.917  0.0151  1.8303 -0.3088
 7914SOL    HW235379   3.931   2.174   3.026 -1.7993 -0.5817 -0.3363
 7915SOL     OW35380   3.491   3.706   1.934 -0.1188 -0.5818 -0.5663
 7915SOL    HW135381   3.438   3.628   1.952 -1.1761  0.3205  0.2592
 7915SOL    HW235382   3.578   3.672   1.955 -0.9867 -2.0069  0.7738
 7916SOL     OW35383   3.250   3.497  10.774  0.1610  0.3308  0.5813
 7916SOL    HW135384   3.227   3.527  10.862  1.4504 -0.0029  1.0281
 7916SOL    HW235385   3.239   3.579  10.725  0.0146  0.1754  0.3543
 7917SOL     OW35386   3.053   4.710   5.752  0.2234  0.4723  0.7308
 7917SOL    HW135387   3.050   0.065   5.741 -0.5882  0.4535  0.7664
 7917SOL    HW235388   3.147   4.693   5.756 -0.2344 -2.8306 -1.9601
 7918SOL     OW35389   1.021   0.540   2.580  0.2671  0.6376  0.5333
 7918SOL    HW135390   1.109   0.577   2.587  0.4551 -0.2820  3.1623
 7918SOL    HW235391   1.055   0.453   2.598 -0.6716  0.6384  2.3614
 7919SOL     OW35392   0.556   1.176   7.375 -0.0977 -0.0240  0.0508
 7919SOL    HW135393   0.496   1.187   7.448  1.1637  1.1081  0.9237
 7919SOL    HW235394   0.601   1.261   7.371 -2.8399  1.4654  0.5363
 7920SOL     OW35395   4.377   1.396   2.274 -0.0617  0.0228  0.7502
 7920SOL    HW135396   4.363   1.426   2.364  4.1549  0.1946  1.3484
 7920SOL    HW235397   4.362   1.306   2.302 -2.4051  0.4196  0.7720
 7921SOL     OW35398   1.995   2.273   9.709 -0.2754 -0.0493 -0.0256
 7921SOL    HW135399   1.963   2.183   9.716 -0.9094  0.2475  0.9142
 7921SOL    HW235400   1.916   2.325   9.693  0.5505  2.1033  2.8697
 7922SOL     OW35401   2.960   3.329   3.479  0.2665 -0.1373  0.3949
 7922SOL    HW135402   2.903   3.386   3.532  0.2650 -0.3260  0.5970
 7922SOL    HW235403   2.922   3.243   3.496 -1.4551  1.3709  4.2591
 7923SOL     OW35404   4.645   3.576  15.735  0.8471  0.2003 -0.1622
 7923SOL    HW135405   4.584   3.504  15.720 -0.8437  1.5406  0.2861
 7923SOL    HW235406   4.689   3.559  15.818 -0.7226 -1.0736  0.4021
 7924SOL     OW35407   2.869   0.292  13.540 -0.4435  0.0916 -0.4475
 7924SOL    HW135408   2.903   0.381  13.532  3.4421 -1.3194  0.8022
 7924SOL    HW235409   2.876   0.272  13.446  1.0057 -0.5076 -0.1985
 7925SOL     OW35410   1.668   1.976  11.427 -0.3716 -0.3363  0.0762
 7925SOL    HW135411   1.663   2.021  11.511 -1.9697 -1.4809  0.6039
 7925SOL    HW235412   1.591   2.014  11.385 -1.7548 -0.5892  2.3737
 7926SOL     OW35413   0.102   0.054   9.261  0.0600  0.1746 -0.1586
 7926SOL    HW135414   0.133   0.088   9.344 -0.5131  1.3631 -0.4282
 7926SOL    HW235415   0.168   4.725   9.263  0.5389  0.6184 -0.4253
 7927SOL     OW35416   2.659   1.253   4.846  0.0366 -0.3374  0.0972
 7927SOL    HW135417   2.606   1.177   4.822 -0.1356 -0.6624  1.4859
 7927SOL    HW235418   2.742   1.210   4.866 -1.2279 -1.6919  2.4513
 7928SOL     OW35419   3.938   2.247  13.598 -0.0207 -0.1032  0.1302
 7928SOL    HW135420   4.023   2.282  13.572 -0.6804  2.1288  1.0238
 7928SOL    HW235421   3.960   2.231  13.690 -0.0578  0.2818  0.2044
 7929SOL     OW35422   0.989   3.168   3.839  0.2601 -0.0762 -0.1366
 7929SOL    HW135423   0.999   3.238   3.903 -0.2185 -0.0771 -0.0674
 7929SOL    HW235424   0.934   3.211   3.773 -1.4039 -1.1658  0.5719
 7930SOL     OW35425   3.976   2.693   9.717  0.2844  0.2228  0.2838
 7930SOL    HW135426   3.977   2.787   9.699  2.0902 -0.2026 -1.8109
 7930SOL    HW235427   3.887   2.677   9.748 -0.4345  1.7210 -1.0274
 7931SOL     OW35428   0.223   2.501   1.454 -0.4968  0.2854 -0.4801
 7931SOL    HW135429   0.211   2.577   1.510 -0.4362 -0.9809  1.2756
 7931SOL    HW235430   0.318   2.501   1.445 -0.5694 -1.1016 -1.3913
 7932SOL     OW35431   2.016   2.520   8.917 -0.5925  0.3734 -0.5238
 7932SOL    HW135432   2.056   2.605   8.896  1.4352 -0.1079  1.3259
 7932SOL    HW235433   2.072   2.464   8.863  1.5418  1.5147  0.4734
 7933SOL     OW35434   3.596   4.317   5.335  0.1621 -0.1978 -0.0396
 7933SOL    HW135435   3.614   4.225   5.354  0.0843  0.1259  1.5915
 7933SOL    HW235436   3.506   4.334   5.363 -0.4023  1.1769 -2.6874
 7934SOL     OW35437   4.615   0.314   6.958 -0.0243 -0.1421  0.5200
 7934SOL    HW135438   4.689   0.369   6.985  0.8601 -0.7651 -0.6514
 7934SOL    HW235439   4.553   0.330   7.029 -1.0689  2.7817 -1.0065
 7935SOL     OW35440   3.234   2.251   5.390  0.2405  0.0397 -0.5143
 7935SOL    HW135441   3.250   2.338   5.426 -0.9339 -0.2939  0.8297
 7935SOL    HW235442   3.184   2.212   5.462 -0.4200 -0.9793 -1.5351
 7936SOL     OW35443   3.916   0.823   9.759  0.1840 -0.5029  0.1196
 7936SOL    HW135444   4.009   0.838   9.774 -0.0191  1.0322 -0.1352
 7936SOL    HW235445   3.908   0.823   9.664 -0.5269 -1.5177  0.1763
 7937SOL     OW35446   3.301   3.768   1.748  0.2044 -0.0807  0.6839
 7937SOL    HW135447   3.363   3.817   1.693 -1.4818  0.9853 -0.2742
 7937SOL    HW235448   3.358   3.711   1.799  2.5426  0.1485 -1.6924
 7938SOL     OW35449   3.607   4.382   7.605  0.1666 -0.1260  0.5529
 7938SOL    HW135450   3.559   4.300   7.615 -1.9968  1.0807  0.0552
 7938SOL    HW235451   3.680   4.346   7.554  0.3930 -0.5523  1.1760
 7939SOL     OW35452   2.263   3.752   8.695 -0.2783 -0.0378 -0.0281
 7939SOL    HW135453   2.201   3.680   8.707 -0.1158  0.0561  1.3748
 7939SOL    HW235454   2.320   3.716   8.627  0.8300  0.5589  0.5954
 7940SOL     OW35455   0.320   1.768   8.061  0.0250  0.1045  0.2680
 7940SOL    HW135456   0.330   1.856   8.026 -0.4699 -0.4422 -1.2591
 7940SOL    HW235457   0.340   1.711   7.986 -2.3184  0.0469 -0.3110
 7941SOL     OW35458   0.511   3.709   6.547  0.2027  0.1011  0.3052
 7941SOL    HW135459   0.598   3.693   6.583 -0.3700 -0.3574  1.4884
 7941SOL    HW235460   0.485   3.622   6.515 -0.9923  1.5196 -2.5595
 7942SOL     OW35461   3.230   2.663   4.311 -0.3790  0.1213 -0.2095
 7942SOL    HW135462   3.178   2.591   4.346  0.9361 -0.8333 -0.2156
 7942SOL    HW235463   3.175   2.738   4.336 -0.5202  0.0316 -0.2547
 7943SOL     OW35464   0.190   4.520   6.466  0.1226 -0.4707  0.0876
 7943SOL    HW135465   0.243   4.473   6.530 -0.6286 -0.2015  0.9029
 7943SOL    HW235466   0.173   4.445   6.409 -0.1418  0.0903 -0.5708
 7944SOL     OW35467   1.550   2.931   3.201 -0.1244  0.2753  0.2722
 7944SOL    HW135468   1.585   2.842   3.199 -1.9034 -0.3998 -0.5762
 7944SOL    HW235469   1.629   2.984   3.192  1.8917 -2.5019  1.7038
 7945SOL     OW35470   3.054   3.784   9.355  0.6808 -0.0478 -0.9703
 7945SOL    HW135471   2.978   3.841   9.360  1.2241  0.7389 -1.8079
 7945SOL    HW235472   3.106   3.828   9.288 -1.1552 -0.7389 -2.8258
 7946SOL     OW35473   1.376   2.170   7.671 -0.0000 -0.7132 -0.1772
 7946SOL    HW135474   1.294   2.203   7.635 -0.2576 -0.1939  0.8676
 7946SOL    HW235475   1.383   2.085   7.628 -1.6168 -2.7852  3.6165
 7947SOL     OW35476   3.728   3.730   5.921 -0.0075  0.1768 -0.3873
 7947SOL    HW135477   3.683   3.735   5.837  0.2401  3.3264 -0.3416
 7947SOL    HW235478   3.811   3.777   5.908  1.8055 -2.2231  2.4249
 7948SOL     OW35479   3.283   2.278  15.525  0.0479  0.1306  0.6226
 7948SOL    HW135480   3.338   2.342  15.571  0.8859  0.2054 -0.4804
 7948SOL    HW235481   3.195   2.298  15.556 -0.7478 -1.2275 -0.7959
 7949SOL     OW35482   1.395   1.296   2.926 -0.2946  0.6209 -0.0733
 7949SOL    HW135483   1.306   1.262   2.936  0.4863 -1.2312  0.5282
 7949SOL    HW235484   1.379   1.360   2.856 -3.0883  0.4283  0.3842
 7950SOL     OW35485   3.079   0.041   0.783 -0.0656 -0.6396 -0.0531
 7950SOL    HW135486   3.004   0.048   0.843  1.8512  1.7655  2.0790
 7950SOL    HW235487   3.101   0.134   0.791 -1.9528 -0.2835  1.0912
 7951SOL     OW35488   1.039   4.343   1.302  0.0598  0.4202 -0.6856
 7951SOL    HW135489   0.974   4.283   1.339  1.6706  0.2930  1.9738
 7951SOL    HW235490   1.098   4.360   1.376  0.3703 -0.6063 -0.6936
 7952SOL     OW35491   4.707   1.336  16.270 -1.0359 -0.4506 -0.2567
 7952SOL    HW135492   4.653   1.310  16.345  0.6180  1.3765  1.5755
 7952SOL    HW235493   4.717   1.429  16.292  0.8898 -0.6913 -0.1143
 7953SOL     OW35494   1.767   1.762   9.260 -0.5941  0.0226 -0.4154
 7953SOL    HW135495   1.736   1.836   9.208 -0.8566 -1.0850 -1.8510
 7953SOL    HW235496   1.836   1.724   9.206 -0.7413  0.1806 -0.7119
 7954SOL     OW35497   0.865   0.119   7.298 -0.5548 -0.0278  0.2882
 7954SOL    HW135498   0.913   0.153   7.374  0.4690 -1.8562  0.4629
 7954SOL    HW235499   0.804   0.062   7.346  0.8873 -2.3592 -0.6436
 7955SOL     OW35500   0.982   1.030   8.537  0.1836  0.0392 -0.6047
 7955SOL    HW135501   1.049   1.024   8.605 -0.4089  0.7862  0.0341
 7955SOL    HW235502   1.026   1.017   8.452  0.6318 -0.6935 -0.2593
 7956SOL     OW35503   1.448   0.823   4.815 -0.5481 -0.3729 -0.6182
 7956SOL    HW135504   1.485   0.912   4.816 -0.5283 -0.3663 -1.5099
 7956SOL    HW235505   1.483   0.793   4.731 -1.9743 -0.8911 -1.0241
 7957SOL     OW35506   0.729   0.674  11.339 -0.8274 -0.3627 -0.4192
 7957SOL    HW135507   0.682   0.624  11.273 -0.9555 -1.2739  0.3486
 7957SOL    HW235508   0.802   0.612  11.350  1.2652  1.9722 -1.2351
 7958SOL     OW35509   4.529   3.422  11.241 -0.2627 -0.1897  0.0782
 7958SOL    HW135510   4.450   3.369  11.242 -1.4020  1.5330  2.1290
 7958SOL    HW235511   4.543   3.443  11.334 -0.2777  0.5356 -0.0794
 7959SOL     OW35512   3.359   2.828   3.512  0.2468 -0.6288 -0.1954
 7959SOL    HW135513   3.367   2.743   3.469  2.5438 -0.5374  0.0722
 7959SOL    HW235514   3.405   2.806   3.592  0.8451  0.1475 -0.3232
 7960SOL     OW35515   2.706   1.733   4.875 -1.2550 -0.0865  0.8080
 7960SOL    HW135516   2.626   1.720   4.823 -0.2947 -0.3711 -0.5969
 7960SOL    HW235517   2.663   1.721   4.959 -0.6992 -0.5857  1.0183
 7961SOL     OW35518   0.576   1.664   3.775  0.3962 -0.4016 -0.1049
 7961SOL    HW135519   0.668   1.662   3.798 -0.5033 -0.1696  3.5362
 7961SOL    HW235520   0.545   1.723   3.844 -1.6148  0.0360 -1.3797
 7962SOL     OW35521   1.309   3.391   5.367 -0.8339 -0.3833  0.7957
 7962SOL    HW135522   1.334   3.303   5.342  0.0579 -0.3970  1.7358
 7962SOL    HW235523   1.388   3.446   5.366 -2.4786  2.0566  2.2856
 7963SOL     OW35524   1.206   2.356   8.408  0.1991  0.3318  0.5565
 7963SOL    HW135525   1.192   2.268   8.372  0.2255  0.2078  0.8479
 7963SOL    HW235526   1.131   2.359   8.467 -0.7457 -0.6192 -0.5736
 7964SOL     OW35527   3.073   0.797   9.081 -0.0760 -0.0270  0.1400
 7964SOL    HW135528   3.133   0.871   9.074  2.1495 -1.4945  3.6661
 7964SOL    HW235529   3.039   0.815   9.169 -1.2702  1.6897 -0.6758
 7965SOL     OW35530   1.778   2.999  11.208 -0.2060  0.7064  0.2606
 7965SOL    HW135531   1.774   3.083  11.254 -1.3788  1.9066 -1.9894
 7965SOL    HW235532   1.719   3.011  11.134 -0.2291  0.3282  0.2201
 7966SOL     OW35533   4.214   4.580  15.787 -0.3553 -0.2708  0.3195
 7966SOL    HW135534   4.183   4.499  15.746 -1.1877  0.9334 -1.4042
 7966SOL    HW235535   4.246   4.548  15.872  1.3824 -1.1904 -0.6761
 7967SOL     OW35536   3.899   3.786  14.788  0.1448  0.2617  0.2138
 7967SOL    HW135537   3.958   3.835  14.846 -0.1256 -0.2756  0.9516
 7967SOL    HW235538   3.830   3.853  14.784  0.2061  0.4041  1.4501
 7968SOL     OW35539   0.664   2.648   3.568  0.2238 -1.0232  0.1141
 7968SOL    HW135540   0.622   2.565   3.545  0.4460 -1.0304 -0.2607
 7968SOL    HW235541   0.751   2.609   3.570  1.2333  1.3828  2.7829
 7969SOL     OW35542   0.282   4.422  14.445 -0.1281  0.4257 -0.2152
 7969SOL    HW135543   0.273   4.431  14.540  2.3406 -0.6281  0.1279
 7969SOL    HW235544   0.194   4.390  14.426 -0.1222  0.1353  0.2678
 7970SOL     OW35545   4.052   3.759   8.986  0.2349  0.3548 -0.1914
 7970SOL    HW135546   4.083   3.692   8.926 -2.9285 -0.1914 -1.2175
 7970SOL    HW235547   4.095   3.747   9.071 -0.7434  0.5471  0.3247
 7971SOL     OW35548   0.978   3.693   3.836  0.4057 -0.4118  0.2766
 7971SOL    HW135549   1.066   3.665   3.859 -0.0556  1.3112  4.0862
 7971SOL    HW235550   0.930   3.610   3.833  0.1843 -0.1594 -2.5170
 7972SOL     OW35551   1.233   2.214   5.741  0.1907  0.3255 -0.4585
 7972SOL    HW135552   1.183   2.225   5.660 -0.7881 -1.3077 -0.0965
 7972SOL    HW235553   1.164   2.251   5.796  2.8575  3.6276  0.6409
 7973SOL     OW35554   1.071   2.162   2.726  0.0254  0.3946 -0.1573
 7973SOL    HW135555   1.077   2.258   2.721 -1.2731  0.4735 -0.1719
 7973SOL    HW235556   1.072   2.152   2.821  1.2531  2.5002  0.0712
 7974SOL     OW35557   4.662   4.075  13.710 -0.1753  0.3553 -0.2949
 7974SOL    HW135558   4.597   4.128  13.756  0.8130  2.8427 -1.7428
 7974SOL    HW235559   4.611   4.001  13.677 -1.2751  0.5885  0.8849
 7975SOL     OW35560   3.404   1.141   0.797  0.0002  1.0772  0.4106
 7975SOL    HW135561   3.467   1.144   0.869  1.6665 -0.0220 -1.0082
 7975SOL    HW235562   3.346   1.066   0.809 -0.1430  1.0624 -0.4139
 7976SOL     OW35563   1.138   3.688   5.607 -0.1320  0.0516  0.3630
 7976SOL    HW135564   1.085   3.624   5.560  2.2704 -1.6997  0.0098
 7976SOL    HW235565   1.215   3.635   5.628 -0.0461 -0.2617 -0.7517
 7977SOL     OW35566   2.246   0.605   4.679 -0.3903  0.4054 -0.4562
 7977SOL    HW135567   2.166   0.622   4.628 -0.8512 -0.4409 -0.0054
 7977SOL    HW235568   2.261   0.521   4.636  0.5172 -0.0626  0.8041
 7978SOL     OW35569   1.966   1.165  16.760  0.0222  0.1300 -0.1534
 7978SOL    HW135570   1.950   1.229  16.690  0.2720  1.6281  1.1434
 7978SOL    HW235571   1.877   1.135  16.779  0.3486 -0.5119  0.3640
 7979SOL     OW35572   4.468   2.191  17.331  0.2724 -0.1500  0.2605
 7979SOL    HW135573   4.396   2.239  17.370  0.2299 -0.2851  0.3463
 7979SOL    HW235574   4.465   2.216  17.238  2.4650 -2.9131 -0.5594
 7980SOL     OW35575   3.299   1.812   6.763 -0.1696  0.1898  0.2180
 7980SOL    HW135576   3.385   1.842   6.792 -0.2727  0.6288  0.0729
 7980SOL    HW235577   3.269   1.892   6.720  0.3413  0.7186  0.8385
 7981SOL     OW35578   4.654   4.646  12.587 -0.1081  0.7037 -0.1913
 7981SOL    HW135579   4.666   4.564  12.634 -2.5244  0.3985 -0.1072
 7981SOL    HW235580   4.575   4.683  12.625  1.4344  2.6514  1.1112
 7982SOL     OW35581   0.579   3.555   2.261 -0.3544  0.1907  0.4390
 7982SOL    HW135582   0.569   3.648   2.280  1.5873  0.4709  0.0590
 7982SOL    HW235583   0.558   3.518   2.347 -1.9646  0.6344  0.2468
 7983SOL     OW35584   1.682   4.352   7.276  0.3846 -0.4190  0.5092
 7983SOL    HW135585   1.708   4.337   7.367 -0.5866 -1.0280  0.6818
 7983SOL    HW235586   1.589   4.345   7.295 -0.1207 -1.5081 -2.4027
 7984SOL     OW35587   3.317   1.714  11.896 -0.5112  0.5122 -0.0976
 7984SOL    HW135588   3.411   1.725  11.912 -0.3668  0.3905 -0.8662
 7984SOL    HW235589   3.310   1.619  11.905  0.5218  0.3895 -0.5726
 7985SOL     OW35590   2.197   1.025   9.640 -0.9671 -0.4478  0.3309
 7985SOL    HW135591   2.288   0.995   9.646 -0.7656  0.2556  0.8467
 7985SOL    HW235592   2.211   1.106   9.688 -0.7613 -1.0980  1.3694
 7986SOL     OW35593   0.213   0.064   5.217 -0.3385  0.1568  0.7434
 7986SOL    HW135594   0.202   0.159   5.215  2.1114  0.3974 -1.9781
 7986SOL    HW235595   0.264   0.047   5.138 -2.4845  0.4223 -0.6681
 7987SOL     OW35596   1.171   2.949  13.185 -0.4078  0.4247  0.1941
 7987SOL    HW135597   1.256   2.986  13.208  0.5159 -1.9145  0.5253
 7987SOL    HW235598   1.184   2.856  13.203  1.7758  0.7411  0.2351
 7988SOL     OW35599   3.054   0.418   5.964  1.0466 -0.1818  0.1486
 7988SOL    HW135600   3.070   0.459   6.049  0.7963  0.0066  0.1052
 7988SOL    HW235601   3.087   0.331   5.986 -0.3634 -1.1045 -1.4102
 7989SOL     OW35602   4.522   1.081  15.888 -0.3069 -0.0344  0.2712
 7989SOL    HW135603   4.525   1.002  15.941  2.9789  1.4138  2.2925
 7989SOL    HW235604   4.541   1.045  15.801 -0.8861 -1.0032  0.5490
 7990SOL     OW35605   3.410   4.484   9.127 -0.0357 -0.1005  0.0807
 7990SOL    HW135606   3.490   4.483   9.181 -0.9462  0.6470  1.4563
 7990SOL    HW235607   3.365   4.569   9.131  1.5041  0.7727 -1.1380
 7991SOL     OW35608   4.131   2.448   2.968  0.1058  0.0902  0.1426
 7991SOL    HW135609   4.076   2.374   2.995 -0.7988  1.1630  1.2499
 7991SOL    HW235610   4.156   2.416   2.882 -1.1618  0.8045 -0.4763
 7992SOL     OW35611   3.007   4.453   3.965 -0.3391 -0.2066  0.3671
 7992SOL    HW135612   2.943   4.417   4.026  1.6440 -3.2247  0.6837
 7992SOL    HW235613   3.023   4.542   3.997  2.8525 -0.5914 -0.1623
 7993SOL     OW35614   1.273   0.099   8.863 -0.6348 -0.1866  0.2629
 7993SOL    HW135615   1.259   0.151   8.784  0.4723  1.5863  1.2337
 7993SOL    HW235616   1.186   0.095   8.902 -0.4726 -0.3213  0.6104
 7994SOL     OW35617   0.207   3.525   3.951 -0.6757  0.9713 -0.3875
 7994SOL    HW135618   0.254   3.530   3.868 -0.7520  1.1014 -0.4221
 7994SOL    HW235619   0.176   3.613   3.973  0.8695  0.9981  1.6296
 7995SOL     OW35620   2.603   4.206   7.800  0.0810  0.2367 -0.1484
 7995SOL    HW135621   2.699   4.200   7.797 -0.0472 -1.2550 -1.1236
 7995SOL    HW235622   2.574   4.141   7.735  1.2607  0.9760 -1.4212
 7996SOL     OW35623   3.502   1.972   3.400 -0.1674 -0.4673  0.0651
 7996SOL    HW135624   3.583   1.938   3.363  0.6622  1.8739 -0.3148
 7996SOL    HW235625   3.471   2.015   3.321 -1.4190 -1.8984 -0.2021
 7997SOL     OW35626   2.476   2.957   0.560  0.1860  0.1061  0.5225
 7997SOL    HW135627   2.572   2.961   0.564  0.1843 -0.3188  1.0645
 7997SOL    HW235628   2.444   2.998   0.640  2.7491  4.5568 -0.7300
 7998SOL     OW35629   0.187   0.539   2.464 -0.5800  0.7353 -0.7471
 7998SOL    HW135630   0.126   0.578   2.402 -0.1938 -1.0640 -2.2708
 7998SOL    HW235631   0.249   0.611   2.464 -0.9440  1.0567  1.1288
 7999SOL     OW35632   2.348   0.039   9.780 -0.1104 -0.2006  0.1004
 7999SOL    HW135633   2.419   4.728   9.742 -0.0567  0.0502 -0.1352
 7999SOL    HW235634   2.321   0.075   9.696  1.1041  1.6705  0.5009
 8000SOL     OW35635   2.111   0.437  15.864 -0.3150 -0.2914  0.0462
 8000SOL    HW135636   2.126   0.357  15.814  0.7816 -0.5401  0.7632
 8000SOL    HW235637   2.060   0.479  15.795 -0.0957  0.1733  0.1644
 8001SOL     OW35638   1.574   2.907   5.193 -0.1976 -0.2302  0.7363
 8001SOL    HW135639   1.566   2.839   5.260  0.1524 -1.5000 -0.5063
 8001SOL    HW235640   1.665   2.902   5.164 -0.3585 -0.4981  0.2697
 8002SOL     OW35641   1.648   1.784   4.415 -0.2974  0.0818 -0.4846
 8002SOL    HW135642   1.602   1.860   4.380 -0.1331  0.4723  0.1386
 8002SOL    HW235643   1.729   1.823   4.449 -0.7238  0.1901  0.3998
 8003SOL     OW35644   4.230   4.606   9.914  0.2754 -0.0616  0.0026
 8003SOL    HW135645   4.181   4.562   9.984  1.9855 -0.9223  0.6464
 8003SOL    HW235646   4.186   4.568   9.838 -0.9114  2.9567 -0.8111
 8004SOL     OW35647   0.233   1.059   1.943  0.5403  0.7704  0.3437
 8004SOL    HW135648   0.173   1.134   1.950  0.5534  0.6048  2.2412
 8004SOL    HW235649   0.164   0.997   1.965  2.8178 -1.7299  0.3615
 8005SOL     OW35650   0.929   3.475   4.277 -0.6924  0.4492  0.3564
 8005SOL    HW135651   0.956   3.461   4.368  0.5574 -0.5729 -0.1653
 8005SOL    HW235652   0.836   3.494   4.288 -0.3763  1.8057  0.6046
 8006SOL     OW35653   0.035   0.512   2.164  0.0191 -0.2597 -0.4376
 8006SOL    HW135654   4.714   0.581   2.187  1.4204  0.7702  0.2171
 8006SOL    HW235655   4.738   0.437   2.211  0.0838  0.6372  1.0216
 8007SOL     OW35656   3.651   0.330  11.903  0.2999  0.2740  0.4511
 8007SOL    HW135657   3.677   0.371  11.985  0.6329  1.0876 -0.0675
 8007SOL    HW235658   3.581   0.391  11.879  0.1633 -0.3197 -0.6908
 8008SOL     OW35659   4.104   1.175  14.250  0.0275 -0.4351 -0.1228
 8008SOL    HW135660   4.178   1.117  14.236  1.1100  0.9313 -0.1002
 8008SOL    HW235661   4.031   1.118  14.272  1.7163 -1.8989  1.6478
 8009SOL     OW35662   0.775   1.821   4.035  0.0805 -0.5136  0.1071
 8009SOL    HW135663   0.682   1.817   4.014  0.1557 -1.9067  0.0909
 8009SOL    HW235664   0.805   1.733   4.012  2.7993  1.1391 -2.7989
 8010SOL     OW35665   2.601   0.463   5.155 -0.3808 -0.2860 -0.1993
 8010SOL    HW135666   2.520   0.414   5.171 -1.3404  1.6512  0.8449
 8010SOL    HW235667   2.589   0.550   5.193 -1.9982  0.1598 -1.7590
 8011SOL     OW35668   1.251   1.006   1.964 -0.4180 -0.1261 -0.3789
 8011SOL    HW135669   1.328   1.020   1.910 -0.9143 -0.8158 -1.2707
 8011SOL    HW235670   1.236   1.093   2.001 -0.6518 -0.5584  0.5685
 8012SOL     OW35671   0.516   3.036  12.463 -0.4237  0.2886  0.1180
 8012SOL    HW135672   0.594   2.981  12.471 -1.2801 -0.7138  1.7400
 8012SOL    HW235673   0.555   3.118  12.492 -0.2440  0.2192  0.0738
 8013SOL     OW35674   0.534   1.831  10.315  0.0151  0.0627 -0.0493
 8013SOL    HW135675   0.562   1.922  10.306 -3.1782  0.9806 -0.5696
 8013SOL    HW235676   0.463   1.834  10.251 -0.4547 -2.9588  0.3442
 8014SOL     OW35677   4.109   0.696   5.522  0.3794  0.2539 -0.4832
 8014SOL    HW135678   4.177   0.748   5.478 -0.1459  0.6608 -0.8215
 8014SOL    HW235679   4.030   0.748   5.506  0.8931  1.0045 -0.6140
 8015SOL     OW35680   4.303   4.136   2.724  0.6056  0.1832 -0.0059
 8015SOL    HW135681   4.372   4.073   2.702  2.1210  2.0730 -0.7035
 8015SOL    HW235682   4.230   4.080   2.698  0.6089  0.0760  0.2102
 8016SOL     OW35683   0.182   2.341   7.215 -0.4700  0.1942  0.0004
 8016SOL    HW135684   0.151   2.256   7.248 -0.6021  0.6414  1.0313
 8016SOL    HW235685   0.273   2.335   7.243 -0.4969 -2.2692 -0.4232
 8017SOL     OW35686   2.476   0.729  17.407 -0.7079 -0.1163  0.5011
 8017SOL    HW135687   2.533   0.702  17.479 -1.6179  0.7006  1.5273
 8017SOL    HW235688   2.395   0.753  17.452 -0.6221  2.9856 -1.0244
 8018SOL     OW35689   0.382   0.950   6.866 -0.1780 -0.5945 -0.1991
 8018SOL    HW135690   0.429   1.031   6.847  1.5236 -1.4237  0.4293
 8018SOL    HW235691   0.443   0.887   6.828  0.6931  0.2381 -0.2044
 8019SOL     OW35692   2.702   3.928   4.360  0.5517 -0.2828  0.1712
 8019SOL    HW135693   2.703   3.987   4.285 -0.6589  0.1037  0.4559
 8019SOL    HW235694   2.627   3.961   4.409  0.2714  1.3367 -1.3562
 8020SOL     OW35695   0.016   4.734   7.735 -0.0704 -0.6292  0.3293
 8020SOL    HW135696   4.733   0.048   7.811  1.8233 -2.4728  2.1924
 8020SOL    HW235697   0.037   0.069   7.678  2.4856 -1.4972  0.1009
 8021SOL     OW35698   2.771   3.949   4.072  0.1095 -0.4973  0.2501
 8021SOL    HW135699   2.806   3.867   4.037 -3.5630 -2.0001  0.0816
 8021SOL    HW235700   2.852   3.991   4.102 -0.1680  0.1947  0.0348
 8022SOL     OW35701   3.868   2.823   3.649  0.5466  0.1944 -1.2264
 8022SOL    HW135702   3.907   2.886   3.709 -2.7734  0.7641  0.3727
 8022SOL    HW235703   3.938   2.758   3.652 -0.8213 -1.2921 -1.6638
 8023SOL     OW35704   0.699   0.973  11.361  0.3711  0.2389  0.3665
 8023SOL    HW135705   0.753   0.987  11.439  0.3974 -3.0631  0.9481
 8023SOL    HW235706   0.718   0.879  11.357  0.9523  0.4190 -1.0207
 8024SOL     OW35707   1.660   4.509  14.615 -0.0476 -0.1255 -0.2402
 8024SOL    HW135708   1.668   4.604  14.604 -0.7137  0.2077  2.1879
 8024SOL    HW235709   1.674   4.472  14.528  0.0635 -0.6465 -0.0045
 8025SOL     OW35710   3.017   2.433   5.051 -1.1308 -0.0166 -0.4969
 8025SOL    HW135711   2.968   2.400   4.976 -0.9531 -0.7728 -0.2760
 8025SOL    HW235712   3.064   2.353   5.075  0.9969  0.7354 -2.1057
 8026SOL     OW35713   4.049   0.159   7.775  0.1068  0.3681 -1.3458
 8026SOL    HW135714   4.114   0.215   7.731  2.4013  0.9272  2.6644
 8026SOL    HW235715   4.101   0.096   7.826 -0.3128  2.8112  2.0980
 8027SOL     OW35716   3.059   1.695  17.688 -0.2009  0.5153 -0.2341
 8027SOL    HW135717   3.133   1.638  17.709  0.0930  0.3413 -1.7560
 8027SOL    HW235718   3.005   1.619  17.666  0.5768  0.0194 -0.4367
 8028SOL     OW35719   3.600   4.643   6.918 -0.0596 -0.4366 -0.5517
 8028SOL    HW135720   3.645   4.604   6.993  1.2900 -1.8758 -2.1360
 8028SOL    HW235721   3.669   4.695   6.877 -1.9258  2.4307 -0.1001
 8029SOL     OW35722   2.828   4.572   4.177 -0.4136  0.1521  0.3673
 8029SOL    HW135723   2.878   4.546   4.253 -0.6105  1.3079  0.8928
 8029SOL    HW235724   2.803   4.662   4.199  0.6379  0.5988 -0.2490
 8030SOL     OW35725   3.389   1.221   1.488 -0.3820 -0.1740  0.0125
 8030SOL    HW135726   3.393   1.304   1.441  0.6474 -1.0642 -1.4981
 8030SOL    HW235727   3.426   1.237   1.575 -1.5124 -0.3986  0.5366
 8031SOL     OW35728   4.270   0.610   1.913  0.1319 -0.6870 -0.4737
 8031SOL    HW135729   4.201   0.545   1.928  1.2742 -1.3590  1.7829
 8031SOL    HW235730   4.237   0.645   1.830 -1.7998 -1.2036  0.0680
 8032SOL     OW35731   1.272   1.982   3.336  0.3195 -0.6112  0.0263
 8032SOL    HW135732   1.281   2.052   3.400 -1.2965  0.5583 -1.0351
 8032SOL    HW235733   1.354   1.989   3.287 -0.4443  0.5988 -1.0562
 8033SOL     OW35734   0.814   2.736  16.205  0.6878  0.2607 -0.2624
 8033SOL    HW135735   0.743   2.799  16.208 -0.3789 -1.0581  1.9670
 8033SOL    HW235736   0.832   2.723  16.298  1.0443  0.5976 -0.2825
 8034SOL     OW35737   0.001   3.781   8.568 -0.3320  1.1117 -0.0097
 8034SOL    HW135738   4.646   3.781   8.566 -0.4165 -1.0919  3.5225
 8034SOL    HW235739   0.018   3.875   8.580 -0.9060  1.0849  1.0382
 8035SOL     OW35740   2.049   3.976   7.132  0.3568  0.0056 -0.1567
 8035SOL    HW135741   1.957   4.003   7.134  0.5837  0.8457 -1.1876
 8035SOL    HW235742   2.073   4.031   7.057 -0.0410 -0.0415 -0.3220
 8036SOL     OW35743   4.247   3.638   4.552  0.2283 -0.7032  0.6010
 8036SOL    HW135744   4.303   3.711   4.579 -0.4449 -0.4115  1.2449
 8036SOL    HW235745   4.171   3.684   4.515 -0.5703 -0.5536  2.4258
 8037SOL     OW35746   1.261   2.810   1.115  1.1361 -0.6993 -0.3004
 8037SOL    HW135747   1.217   2.787   1.034  1.1272 -0.7700 -0.2760
 8037SOL    HW235748   1.187   2.828   1.173 -0.8179  2.3232 -3.7562
 8038SOL     OW35749   0.879   0.981   1.068  0.2333  0.1323  0.4035
 8038SOL    HW135750   0.839   0.927   0.999  1.7357 -0.3578 -0.0691
 8038SOL    HW235751   0.812   0.967   1.135  1.3071  0.8764  1.6188
 8039SOL     OW35752   0.799   3.277   5.821  0.2950 -0.1203 -0.0892
 8039SOL    HW135753   0.847   3.294   5.902  2.5615  1.7068 -1.8232
 8039SOL    HW235754   0.717   3.244   5.859  1.5292 -0.4611  2.2883
 8040SOL     OW35755   2.973   1.376  16.665  0.4097  0.3738 -0.0343
 8040SOL    HW135756   3.057   1.394  16.708  2.1073  1.8643 -3.9241
 8040SOL    HW235757   2.924   1.328  16.730 -0.3775  1.5430  0.2345
 8041SOL     OW35758   4.240   3.797   7.729 -0.9655 -0.2561  0.1264
 8041SOL    HW135759   4.222   3.824   7.819  2.0413  0.2734  0.5783
 8041SOL    HW235760   4.197   3.712   7.727 -1.0747 -0.2340  1.5002
 8042SOL     OW35761   2.572   1.898   7.176  0.2554 -0.3602 -0.9024
 8042SOL    HW135762   2.538   1.821   7.223  0.2727 -0.3783 -0.9196
 8042SOL    HW235763   2.593   1.877   7.085 -0.4433 -2.6234 -0.5556
 8043SOL     OW35764   2.188   3.606   5.238 -0.1940 -0.5442 -0.2170
 8043SOL    HW135765   2.168   3.699   5.224 -0.0860 -0.5471 -0.3925
 8043SOL    HW235766   2.116   3.558   5.198 -0.4958 -0.5135  0.2974
 8044SOL     OW35767   1.275   4.044   3.749 -0.3821  0.1713 -0.2836
 8044SOL    HW135768   1.277   4.043   3.844 -0.2939 -0.9434 -0.2995
 8044SOL    HW235769   1.235   4.131   3.741  0.5495  0.7027  0.8808
 8045SOL     OW35770   2.257   2.759   2.873 -1.1902 -0.1595  0.1875
 8045SOL    HW135771   2.200   2.729   2.944 -0.5528 -0.3377  0.6305
 8045SOL    HW235772   2.344   2.722   2.890 -0.6101  1.1278  0.0017
 8046SOL     OW35773   1.107   2.619   4.187 -0.1880  0.2082  0.0541
 8046SOL    HW135774   1.105   2.700   4.136  0.8476 -0.5793 -1.2207
 8046SOL    HW235775   1.018   2.585   4.196  0.1227 -1.1975 -2.3586
 8047SOL     OW35776   3.097   1.050   0.245  0.4495  0.0504  0.0743
 8047SOL    HW135777   3.142   1.092   0.318  0.2491  0.2939  0.0587
 8047SOL    HW235778   3.169   1.046   0.182  1.1987 -2.2603  1.0690
 8048SOL     OW35779   1.598   4.035   1.944 -0.5819  0.2195 -0.1661
 8048SOL    HW135780   1.515   3.999   1.913 -0.4264  0.1389 -0.4881
 8048SOL    HW235781   1.646   3.954   1.959 -0.0922  0.2860 -1.3327
 8049SOL     OW35782   0.928   3.120  17.517 -0.0951 -0.9003  0.3289
 8049SOL    HW135783   0.890   3.080  17.595 -1.1753  0.4423  0.4967
 8049SOL    HW235784   0.855   3.117  17.455  1.7673  0.2238 -1.8975
 8050SOL     OW35785   0.733   1.313  15.375 -0.3681  0.0822  0.1465
 8050SOL    HW135786   0.723   1.244  15.440 -1.8721 -1.3718 -1.6746
 8050SOL    HW235787   0.772   1.378  15.434  1.7930  1.1268 -2.4215
 8051SOL     OW35788   0.886   3.816   6.758 -0.7575  0.0116  0.0463
 8051SOL    HW135789   0.826   3.754   6.717 -1.5018 -0.4745  1.8709
 8051SOL    HW235790   0.893   3.869   6.678  0.5696  0.7106  0.6290
 8052SOL     OW35791   3.518   4.005   3.703 -0.1787  0.3075  0.1375
 8052SOL    HW135792   3.511   4.079   3.642 -0.0107 -1.2742 -1.7997
 8052SOL    HW235793   3.565   3.939   3.652 -0.6467  0.3514 -0.3490
 8053SOL     OW35794   4.566   2.218  13.518  0.6117 -0.9125  0.1756
 8053SOL    HW135795   4.540   2.306  13.490  1.1908 -0.4991  0.9460
 8053SOL    HW235796   4.481   2.182  13.544 -1.0084  2.0767 -0.9632
 8054SOL     OW35797   4.367   3.047   7.533  0.7224  0.0783 -0.1882
 8054SOL    HW135798   4.412   2.963   7.516  0.1969  0.1193 -1.8202
 8054SOL    HW235799   4.278   3.014   7.545  0.7834 -0.8591 -2.2534
 8055SOL     OW35800   2.162   1.858   8.105 -0.2420 -0.7384 -0.1673
 8055SOL    HW135801   2.078   1.871   8.150 -0.1569  0.9018 -0.4759
 8055SOL    HW235802   2.154   1.764   8.090 -2.5324 -0.9020  1.9681
 8056SOL     OW35803   1.229   3.183  17.195 -0.0171 -0.0101 -0.3836
 8056SOL    HW135804   1.249   3.260  17.142  0.7269  1.0189  1.3856
 8056SOL    HW235805   1.307   3.132  17.174 -0.1351 -0.8837  1.3193
 8057SOL     OW35806   3.584   0.979   8.518 -0.5191  0.1027 -0.1394
 8057SOL    HW135807   3.623   0.987   8.430 -2.7577  0.7788 -1.0905
 8057SOL    HW235808   3.615   1.054   8.568  1.4719 -0.5240 -0.4276
 8058SOL     OW35809   1.207   3.052  17.439  0.0823  0.4363  0.2351
 8058SOL    HW135810   1.195   3.086  17.350  0.5943 -1.0362 -0.4116
 8058SOL    HW235811   1.117   3.041  17.470  0.7626 -1.3433  1.5598
 8059SOL     OW35812   3.471   0.508  12.960  0.0373 -0.0321  0.2338
 8059SOL    HW135813   3.551   0.521  13.011  0.4268  1.7618 -0.8495
 8059SOL    HW235814   3.465   0.413  12.973  3.2698 -0.2876 -0.1600
 8060SOL     OW35815   2.480   2.013   5.364  0.6119  0.3721  0.4481
 8060SOL    HW135816   2.487   2.097   5.319  1.3204  0.9945  1.7115
 8060SOL    HW235817   2.396   1.981   5.332  0.9070  3.0403 -2.9676
 8061SOL     OW35818   1.418   0.139   2.630  0.3175  0.8166  0.7898
 8061SOL    HW135819   1.344   0.087   2.660 -0.3171  1.1726 -0.1488
 8061SOL    HW235820   1.419   0.096   2.544  0.0009  1.4176  0.4846
 8062SOL     OW35821   0.604   0.581   3.316  0.7435  0.4245 -0.0592
 8062SOL    HW135822   0.589   0.647   3.248  2.1269  1.0095  0.1996
 8062SOL    HW235823   0.540   0.617   3.377 -1.2345 -0.9797 -1.3020
 8063SOL     OW35824   2.433   1.063   2.888  0.6085 -0.3263 -0.1398
 8063SOL    HW135825   2.412   1.013   2.809  0.3703  2.6997 -1.9814
 8063SOL    HW235826   2.453   0.988   2.945 -1.7841  0.0389  1.2082
 8064SOL     OW35827   1.243   2.010   3.752 -0.1391  0.0651 -0.4315
 8064SOL    HW135828   1.302   1.979   3.821 -2.4756 -2.9335  0.1838
 8064SOL    HW235829   1.296   2.027   3.674  1.3367 -2.4285  0.0201
 8065SOL     OW35830   2.684   3.487   9.047  0.4969 -0.1472  1.2507
 8065SOL    HW135831   2.745   3.555   9.076 -0.4366  1.1932  0.1151
 8065SOL    HW235832   2.708   3.413   9.103 -0.5219  1.4605  3.8182
 8066SOL     OW35833   3.410   3.472  17.661  0.4612 -0.3644  0.4394
 8066SOL    HW135834   3.354   3.427  17.725 -1.9723  0.3966 -1.1202
 8066SOL    HW235835   3.339   3.511  17.610  0.6320 -0.4981  0.0984
 8067SOL     OW35836   0.181   2.842   9.093 -1.1909 -0.4795 -0.0481
 8067SOL    HW135837   0.168   2.935   9.111  1.2669  0.1577 -1.5370
 8067SOL    HW235838   0.168   2.847   8.998 -0.6138  1.0253 -0.0462
 8068SOL     OW35839   0.923   2.853   6.618  0.4627  0.3946 -0.6857
 8068SOL    HW135840   0.848   2.911   6.603  1.8989  2.1219 -1.1816
 8068SOL    HW235841   0.934   2.817   6.530 -0.9385  1.1511 -1.1788
 8069SOL     OW35842   1.725   4.617   5.599  0.0952  0.0385  0.0260
 8069SOL    HW135843   1.722   4.580   5.687  1.0463  4.1383  1.7868
 8069SOL    HW235844   1.753   4.705   5.627  2.2533 -0.6668  0.1319
 8070SOL     OW35845   3.958   0.492  13.119  0.7884 -0.1749 -0.1096
 8070SOL    HW135846   3.941   0.502  13.026  0.6098  0.1708 -0.0391
 8070SOL    HW235847   4.025   0.559  13.130  0.6713  0.0302 -0.6520
 8071SOL     OW35848   4.666   4.641   5.613  0.2164  0.1074 -0.3986
 8071SOL    HW135849   4.596   4.701   5.589  0.7147 -0.0274 -2.1336
 8071SOL    HW235850   4.732   4.663   5.548 -1.1693 -1.3670 -2.3097
 8072SOL     OW35851   0.252   3.802   3.168  0.2350 -0.2821 -0.1288
 8072SOL    HW135852   0.284   3.784   3.256  0.6139  1.6452  0.1426
 8072SOL    HW235853   0.195   3.878   3.177 -2.1810 -2.1156 -0.1483
 8073SOL     OW35854   3.650   4.149  10.710  0.0708 -0.1760  0.0271
 8073SOL    HW135855   3.690   4.112  10.789  1.8065  1.8960  0.1365
 8073SOL    HW235856   3.620   4.074  10.660  0.7358 -0.0854 -0.5054
 8074SOL     OW35857   3.035   0.505   9.689 -0.2920 -0.3325  0.0975
 8074SOL    HW135858   3.104   0.443   9.710  0.5633  0.9675  1.1302
 8074SOL    HW235859   3.066   0.594   9.703 -0.4997 -0.2146 -0.1854
 8075SOL     OW35860   1.450   4.099   6.567  0.5284  0.6384  0.4622
 8075SOL    HW135861   1.433   4.183   6.610  1.3228 -0.6482  3.2603
 8075SOL    HW235862   1.535   4.124   6.530 -0.3529  3.2336  0.1845
 8076SOL     OW35863   4.487   1.134   3.357 -0.4110  0.0346  0.1906
 8076SOL    HW135864   4.405   1.090   3.377  0.7961 -2.5507 -0.5723
 8076SOL    HW235865   4.463   1.226   3.362  0.3246  0.3504 -1.8200
 8077SOL     OW35866   1.073   0.152   6.493 -0.4461 -0.6879 -0.1875
 8077SOL    HW135867   1.015   0.225   6.471  0.2925 -0.1079 -0.2243
 8077SOL    HW235868   1.134   0.157   6.420  0.1914 -2.8206  0.2180
 8078SOL     OW35869   2.117   2.819  11.366 -0.2738 -0.2126 -0.0005
 8078SOL    HW135870   2.164   2.793  11.445 -3.5540 -2.1912  1.2976
 8078SOL    HW235871   2.186   2.879  11.337  0.5668 -0.6947  1.0161
 8079SOL     OW35872   1.799   1.985   4.534 -0.4988 -0.5310  0.5251
 8079SOL    HW135873   1.821   2.078   4.543  2.3109 -1.1963  0.5426
 8079SOL    HW235874   1.875   1.961   4.481 -0.3547 -0.7152  0.8127
 8080SOL     OW35875   1.156   1.354   4.555  0.6587 -0.2297 -0.3768
 8080SOL    HW135876   1.066   1.325   4.546  0.7838 -0.2464 -1.5480
 8080SOL    HW235877   1.151   1.402   4.637  2.8990 -1.2609  0.3789
 8081SOL     OW35878   1.393   0.103  15.964 -0.6757  0.6069 -0.5179
 8081SOL    HW135879   1.434   0.076  15.882 -0.1217 -1.4527  0.4386
 8081SOL    HW235880   1.304   0.068  15.967 -0.3435 -0.4621 -2.9955
 8082SOL     OW35881   2.853   2.463   3.773  0.6635 -0.0752 -0.5315
 8082SOL    HW135882   2.939   2.427   3.753  0.9743  0.6191 -0.4515
 8082SOL    HW235883   2.830   2.501   3.688  0.4142 -2.5970 -1.5927
 8083SOL     OW35884   0.743   2.273   5.094  0.4131  0.1657  0.4863
 8083SOL    HW135885   0.830   2.238   5.115  0.7144 -0.2578 -1.5131
 8083SOL    HW235886   0.692   2.216   5.153 -0.0047 -2.3794 -2.2883
 8084SOL     OW35887   1.351   0.491  10.783 -0.0220 -0.4620 -0.1075
 8084SOL    HW135888   1.373   0.545  10.707  1.1418  1.0236  1.2787
 8084SOL    HW235889   1.393   0.406  10.766  2.2932  0.3773  1.4563
 8085SOL     OW35890   3.351   0.584   6.506  0.3849  0.2853 -0.7123
 8085SOL    HW135891   3.336   0.511   6.445  3.4165 -0.0306 -1.0556
 8085SOL    HW235892   3.433   0.560   6.548  0.0774 -1.7495 -1.2362
 8086SOL     OW35893   3.038   1.357   2.497 -0.0069 -0.2304  0.3133
 8086SOL    HW135894   3.133   1.357   2.504  0.0753 -2.3453 -0.9957
 8086SOL    HW235895   3.025   1.450   2.515  0.7885 -0.1140  0.2751
 8087SOL     OW35896   0.005   1.178   4.503  0.0880  0.2281 -0.1696
 8087SOL    HW135897   4.732   1.269   4.476  0.2984  0.0485 -0.8825
 8087SOL    HW235898   0.071   1.161   4.436  1.2274  0.5769  0.8463
 8088SOL     OW35899   0.419   2.192   8.855  0.1027 -0.6986 -0.1486
 8088SOL    HW135900   0.452   2.256   8.917  1.9666 -1.2822 -0.5270
 8088SOL    HW235901   0.325   2.203   8.871  0.3934  0.7586  0.5135
 8089SOL     OW35902   3.365   0.140   4.954 -0.3433  0.2951  0.0753
 8089SOL    HW135903   3.420   0.217   4.965 -1.8863  1.4849 -0.6097
 8089SOL    HW235904   3.281   0.180   4.931 -1.1408 -1.8036 -0.7551
 8090SOL     OW35905   2.312   1.858  12.291  0.0284 -0.3439  0.8969
 8090SOL    HW135906   2.256   1.780  12.293 -3.0720  1.9193  0.8706
 8090SOL    HW235907   2.347   1.852  12.202 -0.7753 -0.5761  0.6005
 8091SOL     OW35908   4.315   3.333  12.645 -0.2640  0.5470 -0.3185
 8091SOL    HW135909   4.344   3.259  12.698  0.5357 -0.1885 -1.7775
 8091SOL    HW235910   4.370   3.330  12.567  0.0991 -0.6822 -0.0164
 8092SOL     OW35911   3.185   1.430  16.861  0.0548 -0.4464  0.1267
 8092SOL    HW135912   3.238   1.444  16.938  0.3262 -2.2495  0.2713
 8092SOL    HW235913   3.251   1.373  16.821  1.7753  0.7033  1.3872
 8093SOL     OW35914   2.679   1.514   7.094 -0.2715  0.1481  0.0165
 8093SOL    HW135915   2.584   1.502   7.094 -0.0678 -1.6113  1.1389
 8093SOL    HW235916   2.690   1.580   7.026 -0.1661 -0.0336 -0.1421
 8094SOL     OW35917   1.760   3.655   8.681  0.8247  0.3380  0.1710
 8094SOL    HW135918   1.823   3.630   8.614 -0.6058 -2.2084 -0.2451
 8094SOL    HW235919   1.808   3.642   8.763 -0.1297  1.6892  0.9379
 8095SOL     OW35920   3.284   1.518   5.376 -0.3535  0.2399 -0.4994
 8095SOL    HW135921   3.249   1.456   5.312 -2.0329  0.2039  0.4483
 8095SOL    HW235922   3.356   1.464   5.410 -1.0314 -1.6638 -2.1108
 8096SOL     OW35923   3.906   4.422   4.822  0.6196 -0.1480  0.1632
 8096SOL    HW135924   3.958   4.372   4.885  0.8095 -1.3091 -0.9331
 8096SOL    HW235925   3.918   4.510   4.859 -0.0574 -0.2365  0.5767
 8097SOL     OW35926   4.718   0.847   8.127 -0.0198 -0.4767  0.0515
 8097SOL    HW135927   4.669   0.853   8.208  0.4221  0.5456  0.2460
 8097SOL    HW235928   0.026   0.764   8.130  0.6065 -0.1151  0.0056
 8098SOL     OW35929   1.359   3.456   3.251 -0.0616  0.0638 -0.4721
 8098SOL    HW135930   1.293   3.430   3.316  2.1150 -1.2523  1.1916
 8098SOL    HW235931   1.386   3.541   3.285 -2.1502  0.0483  1.2452
 8099SOL     OW35932   0.520   4.584   5.949  0.0078  0.7822 -0.1722
 8099SOL    HW135933   0.547   4.599   6.039  1.9145 -3.0535 -0.1303
 8099SOL    HW235934   0.488   4.495   5.959 -1.2918  1.4404  1.5128
 8100SOL     OW35935   2.559   0.451   6.736  0.5496  0.7340 -0.9505
 8100SOL    HW135936   2.534   0.470   6.826 -2.4780 -0.9945 -1.4266
 8100SOL    HW235937   2.520   0.363   6.731 -1.1449  1.4862 -0.9740
 8101SOL     OW35938   1.564   3.639   6.699  0.5214  0.9887 -0.4570
 8101SOL    HW135939   1.533   3.703   6.764 -1.4106 -0.9755  0.5580
 8101SOL    HW235940   1.652   3.672   6.678  0.7624  1.6941  1.6630
 8102SOL     OW35941   1.025   3.863   7.000 -0.3035 -0.2493  0.2557
 8102SOL    HW135942   1.113   3.834   6.979 -0.5668  2.3950 -4.5201
 8102SOL    HW235943   0.974   3.835   6.923  1.5512  2.8668 -2.1278
 8103SOL     OW35944   4.566   2.946   7.938  0.1184 -0.1440  0.3092
 8103SOL    HW135945   4.593   2.998   8.014 -1.1162 -1.7740  1.8543
 8103SOL    HW235946   4.513   3.010   7.892  1.0467  0.7240  0.4458
 8104SOL     OW35947   2.289   1.143  12.578  0.5382  0.0271 -0.2284
 8104SOL    HW135948   2.260   1.160  12.668  1.6761  1.0401 -0.0591
 8104SOL    HW235949   2.292   1.047  12.578 -1.1367 -0.0384  2.1115
 8105SOL     OW35950   1.877   2.209  11.310  0.5274  0.5755 -0.2012
 8105SOL    HW135951   1.819   2.216  11.386 -0.8135 -0.9555 -1.1095
 8105SOL    HW235952   1.869   2.302  11.287 -0.7752  1.0140  2.0495
 8106SOL     OW35953   1.871   1.461   5.576  0.4909 -0.6773  0.0086
 8106SOL    HW135954   1.836   1.515   5.505  0.1849 -0.4859  0.3113
 8106SOL    HW235955   1.821   1.493   5.650  0.8810  1.6737 -0.7385
 8107SOL     OW35956   2.042   2.448  11.602  0.2568 -0.7233 -0.0430
 8107SOL    HW135957   2.122   2.398  11.619  0.5629  0.4314  1.9113
 8107SOL    HW235958   1.996   2.434  11.684 -1.8681  0.9000 -0.9648
 8108SOL     OW35959   0.871   1.631   5.585  1.0966  0.1118 -0.2474
 8108SOL    HW135960   0.849   1.541   5.562 -1.3519  0.9129 -1.0390
 8108SOL    HW235961   0.943   1.617   5.647  0.2773 -0.1159  0.6529
 8109SOL     OW35962   0.176   2.087   6.490  0.5158 -0.1043 -0.4845
 8109SOL    HW135963   0.107   2.068   6.553  0.5699 -1.7651 -0.9482
 8109SOL    HW235964   0.140   2.115   6.405  3.0093  1.0313 -1.1757
 8110SOL     OW35965   0.748   0.493  11.583  0.1080 -0.1480 -0.1902
 8110SOL    HW135966   0.808   0.430  11.623  0.5543 -0.1134 -0.7958
 8110SOL    HW235967   0.795   0.571  11.612  0.1140 -0.0530 -0.4610
 8111SOL     OW35968   4.048   3.592   1.696  0.0099 -0.2286  0.4158
 8111SOL    HW135969   4.026   3.518   1.753  2.1164 -0.3108  1.1197
 8111SOL    HW235970   4.126   3.627   1.738 -0.4011 -0.0800  1.0627
 8112SOL     OW35971   4.465   4.105  11.078 -0.4907 -0.3720 -0.5874
 8112SOL    HW135972   4.450   4.100  11.173 -2.8933 -0.8938 -0.9945
 8112SOL    HW235973   4.474   4.200  11.075 -0.6165 -0.3361  0.1462
 8113SOL     OW35974   0.857   2.642   5.150  0.2095 -0.3724  0.2007
 8113SOL    HW135975   0.890   2.663   5.063 -2.0282  0.4295 -0.4292
 8113SOL    HW235976   0.841   2.730   5.182 -0.2639 -0.4376  0.1470
 8114SOL     OW35977   1.499   0.047   3.059 -0.1842  0.0497  0.2935
 8114SOL    HW135978   1.438   0.121   3.057 -0.7365 -0.4268 -1.2288
 8114SOL    HW235979   1.491   0.009   3.146 -1.4213  0.3288  0.3006
 8115SOL     OW35980   2.103   0.365  15.127 -0.2323  0.0832  0.0639
 8115SOL    HW135981   2.108   0.458  15.105  0.2782  0.3129  1.1600
 8115SOL    HW235982   2.065   0.328  15.048  0.3458 -2.6337  1.0744
 8116SOL     OW35983   4.395   2.205   7.304  0.7794 -0.2152 -1.0244
 8116SOL    HW135984   4.332   2.228   7.373  2.7097  1.0309  0.2906
 8116SOL    HW235985   4.476   2.205   7.354  0.1433 -3.5082  0.0255
 8117SOL     OW35986   1.844   0.433   4.830 -0.5586  0.4557  0.4648
 8117SOL    HW135987   1.873   0.518   4.863 -1.1245  0.7702  0.1396
 8117SOL    HW235988   1.752   0.445   4.808 -0.5410 -2.8233 -1.3486
 8118SOL     OW35989   3.519   3.913   7.306 -0.4539  0.3234  0.2400
 8118SOL    HW135990   3.598   3.945   7.351  0.6039 -0.0828 -1.3340
 8118SOL    HW235991   3.552   3.824   7.294 -0.1776  0.6458 -1.3546
 8119SOL     OW35992   1.997   0.203   2.942  0.3265  0.2011  0.3327
 8119SOL    HW135993   2.014   0.256   3.019  0.5025  0.5249  0.0685
 8119SOL    HW235994   1.914   0.238   2.909  0.2334  1.5200  1.9801
 8120SOL     OW35995   2.739   1.518  13.481 -0.7229 -0.5406 -0.2084
 8120SOL    HW135996   2.831   1.493  13.476 -0.9024 -1.0956 -0.8305
 8120SOL    HW235997   2.751   1.609  13.507 -2.1031 -1.0806  2.3786
 8121SOL     OW35998   4.561   0.253  14.206 -0.3952  0.3655  0.4759
 8121SOL    HW135999   4.505   0.176  14.208 -0.4472  0.3815 -0.6972
 8121SOL    HW236000   4.548   0.269  14.113 -2.0952 -0.1885  0.6212
 8122SOL     OW36001   0.417   4.096   6.379 -0.0145 -0.0353 -0.2571
 8122SOL    HW136002   0.396   4.037   6.307  0.4065  1.3184 -1.4748
 8122SOL    HW236003   0.462   4.170   6.339  1.0034 -1.6234 -1.9764
 8123SOL     OW36004   0.202   1.597   3.548 -0.2761  0.5513 -0.2937
 8123SOL    HW136005   0.219   1.570   3.638  0.2955  3.2501  0.4077
 8123SOL    HW236006   0.284   1.642   3.528  0.6651 -0.8813  0.4018
 8124SOL     OW36007   1.634   0.712   5.343  0.0219  0.8939  0.0471
 8124SOL    HW136008   1.604   0.714   5.252 -0.7919  3.5010  0.3718
 8124SOL    HW236009   1.608   0.622   5.363  2.2165  0.2564  0.1221
 8125SOL     OW36010   4.071   0.446   7.974  0.0126  0.0329  0.2867
 8125SOL    HW136011   3.985   0.405   7.962 -0.8061  1.7046  0.4718
 8125SOL    HW236012   4.138   0.378   7.979 -0.0547 -0.1132 -0.7417
 8126SOL     OW36013   0.430   0.686   0.422  0.5015  0.2589 -0.1743
 8126SOL    HW136014   0.508   0.729   0.386  1.6533  0.5441  2.7141
 8126SOL    HW236015   0.462   0.597   0.438  0.3236  0.0481 -0.9939
 8127SOL     OW36016   3.343   3.205   6.005  0.3324 -0.2722 -0.2246
 8127SOL    HW136017   3.375   3.290   5.977  0.2705  0.0169  0.5750
 8127SOL    HW236018   3.316   3.168   5.921  2.8149  0.6867 -1.4362
 8128SOL     OW36019   0.171   3.869   6.964  0.5973 -0.2102  0.7614
 8128SOL    HW136020   0.140   3.952   6.999 -0.1959  0.0563 -0.5455
 8128SOL    HW236021   0.095   3.848   6.909  1.6703 -0.4158 -0.6610
 8129SOL     OW36022   4.575   3.009  15.346 -0.2198  0.2122  0.1472
 8129SOL    HW136023   4.607   3.015  15.256 -3.1000 -0.7900 -0.9369
 8129SOL    HW236024   4.492   3.053  15.330 -0.9774 -1.0931  0.5227
 8130SOL     OW36025   2.839   0.076   4.001  0.0661  0.5443 -0.0611
 8130SOL    HW136026   2.805   0.112   4.082 -1.3907 -0.2101 -0.3349
 8130SOL    HW236027   2.843   0.160   3.956 -0.5898  2.1223  2.9094
 8131SOL     OW36028   4.281   2.042   8.629 -0.1377 -0.2351  0.0170
 8131SOL    HW136029   4.373   2.024   8.614 -0.3641 -0.7053 -0.7957
 8131SOL    HW236030   4.281   2.087   8.714 -0.5590  0.5180 -0.3805
 8132SOL     OW36031   3.371   2.582   0.027  0.1689 -0.3827 -0.2568
 8132SOL    HW136032   3.417   2.500   0.042  1.0366  0.2340  0.4452
 8132SOL    HW236033   3.293   2.545  17.742  1.1199 -0.4219 -1.9523
 8133SOL     OW36034   0.357   4.095   5.104  0.0402  0.4664 -0.1146
 8133SOL    HW136035   0.309   4.018   5.136 -0.7607  0.3805 -1.5530
 8133SOL    HW236036   0.449   4.068   5.102  0.1844  0.9943 -0.4689
 8134SOL     OW36037   2.894   4.251  14.038 -0.2639  0.0676 -0.3906
 8134SOL    HW136038   2.937   4.268  13.954  1.0867 -0.4052  0.2026
 8134SOL    HW236039   2.890   4.156  14.046  0.3215  0.0388 -0.4317
 8135SOL     OW36040   4.321   2.526   1.771  0.1611 -0.6500  0.2215
 8135SOL    HW136041   4.304   2.491   1.683  0.8090 -0.6262  0.0870
 8135SOL    HW236042   4.364   2.450   1.809  0.9297 -1.4268 -2.1736
 8136SOL     OW36043   3.620   0.729  16.908 -0.0323  0.0796  0.0556
 8136SOL    HW136044   3.648   0.643  16.940  3.8781  1.8782  1.4510
 8136SOL    HW236045   3.636   0.719  16.814  0.9514  0.5480  0.1763
 8137SOL     OW36046   1.555   0.136   7.710  0.2152 -0.3436 -0.0215
 8137SOL    HW136047   1.565   0.041   7.708  2.6088 -0.0528 -1.3074
 8137SOL    HW236048   1.609   0.144   7.788 -1.0573  0.5236  0.7702
 8138SOL     OW36049   3.571   0.078   7.773 -0.5950 -0.2395  0.2287
 8138SOL    HW136050   3.623   0.139   7.720 -1.1344  0.5718  0.6244
 8138SOL    HW236051   3.484   0.109   7.747 -0.6863 -0.9309 -0.2745
 8139SOL     OW36052   0.582   2.026   6.557  0.1245 -0.2911 -0.0929
 8139SOL    HW136053   0.524   1.976   6.615 -0.3692  1.2792  0.7525
 8139SOL    HW236054   0.531   2.072   6.490 -0.3656 -0.1885  0.3462
 8140SOL     OW36055   4.354   3.941   3.550 -0.6068  0.0467  0.1312
 8140SOL    HW136056   4.367   3.847   3.544 -2.8403 -0.1653 -1.3776
 8140SOL    HW236057   4.258   3.935   3.554 -0.6045 -0.5954 -1.0147
 8141SOL     OW36058   4.170   4.676  12.944 -0.3991  0.4147  0.3893
 8141SOL    HW136059   4.108   0.008  12.953  0.4432  1.1007  0.7595
 8141SOL    HW236060   4.245   4.717  12.988 -1.7265  2.8234  0.3908
 8142SOL     OW36061   0.650   3.991   4.887  0.0304  0.6075  0.4722
 8142SOL    HW136062   0.732   3.946   4.906 -0.7033 -1.5433 -1.5330
 8142SOL    HW236063   0.651   4.039   4.970  0.2193 -0.1094  0.8778
 8143SOL     OW36064   0.653   2.395  15.661  1.0549 -0.2717 -0.0595
 8143SOL    HW136065   0.705   2.411  15.739  2.0526 -0.3677 -0.7007
 8143SOL    HW236066   0.686   2.311  15.630 -0.7073 -0.2241 -2.0681
 8144SOL     OW36067   3.528   4.554   0.177  1.2252  0.5873  0.5052
 8144SOL    HW136068   3.504   4.508   0.257  0.0525  1.8181  0.8759
 8144SOL    HW236069   3.587   4.620   0.212 -0.1465  1.4631  1.1829
 8145SOL     OW36070   2.305   3.177   6.086 -0.0251 -0.7623 -0.3283
 8145SOL    HW136071   2.284   3.246   6.150  0.6080 -0.9582  0.0882
 8145SOL    HW236072   2.236   3.188   6.021 -0.5578  1.7781  0.6616
 8146SOL     OW36073   0.788   0.103  16.410 -0.5029 -0.0374 -0.0718
 8146SOL    HW136074   0.792   0.008  16.408 -1.8489 -0.1020  0.2706
 8146SOL    HW236075   0.798   0.119  16.316  1.4532  0.0957  0.1474
 8147SOL     OW36076   3.393   2.346  11.005 -0.2459  0.5455  0.2741
 8147SOL    HW136077   3.450   2.334  10.929 -0.7219 -1.5669  0.2392
 8147SOL    HW236078   3.378   2.258  11.041 -2.1263  0.2957 -1.1673
 8148SOL     OW36079   4.580   3.533   8.287  0.4711 -0.2460  0.1450
 8148SOL    HW136080   4.511   3.590   8.253 -0.0251 -1.2351 -0.5352
 8148SOL    HW236081   4.549   3.516   8.376  0.6300 -2.2187 -0.1604
 8149SOL     OW36082   2.974   1.227   5.309  0.6249 -0.4205  0.0942
 8149SOL    HW136083   2.967   1.291   5.379  0.9704  1.2794 -1.4385
 8149SOL    HW236084   2.994   1.150   5.362  0.6766 -0.4539  0.0251
 8150SOL     OW36085   0.452   0.004   1.339 -0.2014  0.2199  0.1188
 8150SOL    HW136086   0.480   4.664   1.385  0.4839 -0.0300 -0.7400
 8150SOL    HW236087   0.364   4.729   1.306 -0.2580 -0.7114  0.6644
 8151SOL     OW36088   0.787   2.472   2.480  0.2481  0.3847 -0.0262
 8151SOL    HW136089   0.724   2.501   2.414  1.9782  0.6765 -1.5236
 8151SOL    HW236090   0.722   2.432   2.538 -0.1888  1.4679  0.2303
 8152SOL     OW36091   1.245   4.625   2.881  0.4118 -0.5380  0.0051
 8152SOL    HW136092   1.189   4.581   2.944  1.0178  0.8767  1.5598
 8152SOL    HW236093   1.328   4.634   2.930  0.3619  0.9919 -0.1643
 8153SOL     OW36094   0.314   4.346   2.017 -0.2336 -0.1801 -0.7592
 8153SOL    HW136095   0.351   4.274   1.966  3.0761  0.4752  0.6814
 8153SOL    HW236096   0.339   4.323   2.107  0.3473  0.9227 -0.6415
 8154SOL     OW36097   3.608   2.248   7.089 -0.1207 -0.5242 -0.0225
 8154SOL    HW136098   3.593   2.243   6.995 -2.2364  3.4240  0.1424
 8154SOL    HW236099   3.629   2.340   7.102  0.1832 -0.8933  2.1063
 8155SOL     OW36100   3.721   1.830   7.395 -0.1557 -0.0503 -0.1458
 8155SOL    HW136101   3.751   1.839   7.485  0.6367 -1.9997 -0.2174
 8155SOL    HW236102   3.633   1.865   7.409 -0.7076 -1.1642 -0.7748
 8156SOL     OW36103   3.651   2.270  14.932  0.0239  0.4482 -0.7817
 8156SOL    HW136104   3.612   2.194  14.976  1.6099  0.1913  0.2084
 8156SOL    HW236105   3.741   2.239  14.945 -0.7944 -1.0907  1.3210
 8157SOL     OW36106   2.245   3.730   3.049 -0.5061 -0.3583  0.1009
 8157SOL    HW136107   2.256   3.755   2.957  0.1226 -1.1176 -0.0299
 8157SOL    HW236108   2.159   3.689   3.043 -0.3830 -0.6874  0.6318
 8158SOL     OW36109   4.702   2.670   3.298  0.4370 -0.1508 -0.2401
 8158SOL    HW136110   4.615   2.633   3.285  0.0597  0.7561 -0.2903
 8158SOL    HW236111   4.708   2.711   3.384  1.6752 -0.8814  0.0210
 8159SOL     OW36112   3.118   4.526   3.245 -0.0621  0.2071  0.2777
 8159SOL    HW136113   3.197   4.472   3.232 -0.1360  0.1492  0.0719
 8159SOL    HW236114   3.139   4.564   3.330  3.1417 -0.6925 -0.0944
 8160SOL     OW36115   3.511   0.845   4.630 -0.8328 -0.2391 -0.2848
 8160SOL    HW136116   3.541   0.755   4.641  0.0832  0.0756 -0.1661
 8160SOL    HW236117   3.596   0.878   4.600 -0.0398  0.5043  2.6998
 8161SOL     OW36118   4.439   4.522   7.565  0.2154  0.6458 -0.1613
 8161SOL    HW136119   4.530   4.549   7.583  0.0375 -0.5969  2.5620
 8161SOL    HW236120   4.401   4.596   7.517  0.3855  0.3464 -0.7493
 8162SOL     OW36121   1.862   1.850   7.905 -0.5303  0.2115 -0.2207
 8162SOL    HW136122   1.934   1.856   7.843 -0.7382 -0.6656 -0.5488
 8162SOL    HW236123   1.883   1.899   7.985 -1.8798  0.0816  0.2143
 8163SOL     OW36124   1.999   2.583   4.391 -0.3324 -0.0750 -0.1475
 8163SOL    HW136125   2.068   2.637   4.353 -0.7574  0.4844 -0.1253
 8163SOL    HW236126   2.012   2.505   4.337  0.8106  0.2545 -0.3498
 8164SOL     OW36127   1.747   3.567   7.818  0.1237  0.1193 -0.2587
 8164SOL    HW136128   1.804   3.624   7.871  0.0798  0.8641 -1.0155
 8164SOL    HW236129   1.815   3.555   7.751 -1.0692 -0.2461 -1.3867
 8165SOL     OW36130   0.012   2.210   2.934 -0.5358 -0.0311  0.0764
 8165SOL    HW136131   0.045   2.257   2.857  1.7754 -1.6231  0.0757
 8165SOL    HW236132   0.072   2.136   2.929 -2.2790 -1.4515  0.1882
 8166SOL     OW36133   1.272   4.682   1.396  0.3828 -0.1372  0.1717
 8166SOL    HW136134   1.193   4.656   1.443 -0.2052  1.1197 -0.1033
 8166SOL    HW236135   1.291   0.031   1.428  0.3727 -0.4987  1.1935
 8167SOL     OW36136   2.857   3.724   7.436 -0.0755 -0.2792  0.1571
 8167SOL    HW136137   2.925   3.658   7.453 -0.2773 -0.9915 -1.8805
 8167SOL    HW236138   2.781   3.666   7.435  0.5129 -0.9692 -3.6823
 8168SOL     OW36139   0.522   2.493   6.937 -0.1259  0.3786 -0.0823
 8168SOL    HW136140   0.524   2.399   6.924 -1.9888  0.3780 -0.2893
 8168SOL    HW236141   0.596   2.511   6.996  0.1858 -1.6622  0.1458
 8169SOL     OW36142   0.775   1.403   5.191 -0.3441 -0.8774  0.5497
 8169SOL    HW136143   0.770   1.360   5.105 -0.7374 -2.9663  1.6242
 8169SOL    HW236144   0.707   1.469   5.200  1.4298  0.7410  1.8829
 8170SOL     OW36145   1.626   3.317   2.755  0.4738 -0.6143 -0.2478
 8170SOL    HW136146   1.596   3.349   2.670 -0.3136 -1.4509 -0.2921
 8170SOL    HW236147   1.573   3.237   2.758  0.2074 -0.4816 -1.5997
 8171SOL     OW36148   2.911   0.093   5.081  0.7777  0.0351  0.0855
 8171SOL    HW136149   2.889   0.077   4.989 -0.2118  0.5752  0.2257
 8171SOL    HW236150   2.887   0.184   5.097  0.5483  0.0457 -0.3372
 8172SOL     OW36151   0.112   0.436   4.974  0.2251 -0.5164  0.0663
 8172SOL    HW136152   0.029   0.458   5.016  0.2880  1.1009 -0.6747
 8172SOL    HW236153   0.092   0.478   4.890  4.3154  0.2392 -0.5355
 8173SOL     OW36154   0.391   2.022   7.947 -0.2057 -0.1847  0.4768
 8173SOL    HW136155   0.465   2.079   7.968 -0.2245 -0.4427  1.2386
 8173SOL    HW236156   0.327   2.089   7.926 -0.1462  0.3035  1.8667
 8174SOL     OW36157   0.827   4.575   3.497 -0.3892 -0.1027 -0.0707
 8174SOL    HW136158   0.828   4.504   3.562  2.8371 -0.2924 -0.3156
 8174SOL    HW236159   0.736   4.604   3.493 -0.5808 -0.6037  0.4992
 8175SOL     OW36160   0.433   1.969   2.991 -0.1569 -0.2034  0.1309
 8175SOL    HW136161   0.409   1.891   3.042  2.2817 -1.6940 -1.0025
 8175SOL    HW236162   0.508   2.005   3.037  1.4123 -0.8451 -1.9570
 8176SOL     OW36163   0.643   1.985   3.349 -0.2735  0.2211  0.6139
 8176SOL    HW136164   0.550   1.984   3.370  0.0370  0.6649  1.9967
 8176SOL    HW236165   0.674   1.922   3.413  0.0501 -0.7535 -0.4970
 8177SOL     OW36166   3.151   1.724   1.229 -0.2926  0.7597 -0.2291
 8177SOL    HW136167   3.122   1.670   1.303 -1.1704 -0.8903 -1.7847
 8177SOL    HW236168   3.076   1.723   1.169 -0.5583  0.0385  0.1173
 8178SOL     OW36169   1.884   4.432  15.405 -0.0768  0.5882  0.5309
 8178SOL    HW136170   1.882   4.341  15.433 -0.5159  0.5284  0.3026
 8178SOL    HW236171   1.960   4.469  15.450 -0.6079 -1.3268  2.9870
 8179SOL     OW36172   1.485   3.627   2.872  0.1715 -0.2181 -0.4841
 8179SOL    HW136173   1.396   3.660   2.864  0.3379  0.6548  1.3242
 8179SOL    HW236174   1.471   3.550   2.927 -3.1187 -1.3468 -2.8760
 8180SOL     OW36175   1.166   3.947   6.540  0.6070  0.0464 -0.3793
 8180SOL    HW136176   1.204   3.894   6.470 -1.2633 -0.8326 -0.7410
 8180SOL    HW236177   1.074   3.923   6.527  0.4138  0.6837 -0.1692
 8181SOL     OW36178   1.861   1.491   2.975 -0.6016  0.1241 -0.1422
 8181SOL    HW136179   1.778   1.531   2.949 -0.0165  0.7805 -0.9466
 8181SOL    HW236180   1.867   1.503   3.070 -0.8063 -1.1107  0.0274
 8182SOL     OW36181   3.487   3.195   0.151  0.0885 -0.9820 -0.1607
 8182SOL    HW136182   3.402   3.239   0.156  0.4983  0.3328 -4.5316
 8182SOL    HW236183   3.541   3.232   0.221  0.8632 -0.2838 -1.1279
 8183SOL     OW36184   3.373   4.587   4.328 -0.1304 -0.2231  0.3115
 8183SOL    HW136185   3.350   4.503   4.289  2.3849 -0.8632  0.2234
 8183SOL    HW236186   3.441   4.612   4.265  0.0278  1.2157  1.0419
 8184SOL     OW36187   4.165   2.148   7.830  0.0063  0.8397  0.1361
 8184SOL    HW136188   4.111   2.175   7.905  2.6988 -0.0545  2.3909
 8184SOL    HW236189   4.197   2.233   7.802 -1.0614  0.6068 -1.7769
 8185SOL     OW36190   1.145   4.082   3.078  0.3821 -0.0477 -0.7218
 8185SOL    HW136191   1.092   4.092   2.999 -0.0427  2.0424 -0.1691
 8185SOL    HW236192   1.217   4.139   3.050 -0.2635 -0.0430 -2.4085
 8186SOL     OW36193   3.318   3.483  13.086  0.5275 -0.0120  0.1346
 8186SOL    HW136194   3.306   3.520  12.998  1.2243  1.7323  0.7766
 8186SOL    HW236195   3.411   3.462  13.076  0.9233  1.1015  1.5921
 8187SOL     OW36196   2.172   3.670  13.301 -0.0429  0.5186 -0.4265
 8187SOL    HW136197   2.245   3.731  13.289 -1.2320  1.7974 -1.1621
 8187SOL    HW236198   2.140   3.662  13.211  1.8834 -1.8647 -0.8883
 8188SOL     OW36199   2.238   0.927   5.060  0.0887  0.0250 -0.4622
 8188SOL    HW136200   2.265   0.884   4.979  1.7621  0.9530 -0.3962
 8188SOL    HW236201   2.207   1.012   5.028  1.9773  0.4313 -1.1612
 8189SOL     OW36202   2.084   1.692  14.318  0.0327  0.0159  0.3424
 8189SOL    HW136203   2.002   1.675  14.364  0.4913 -1.7964  0.4926
 8189SOL    HW236204   2.104   1.781  14.347  1.5260 -0.7926  1.7468
 8190SOL     OW36205   3.280   4.620  14.101 -0.3958  0.0196  0.4240
 8190SOL    HW136206   3.372   4.646  14.104 -0.4559  0.5996 -3.8947
 8190SOL    HW236207   3.239   4.694  14.056 -3.2034 -1.1000  1.1410
 8191SOL     OW36208   1.466   2.773   6.035 -0.0970 -0.6507 -0.1105
 8191SOL    HW136209   1.443   2.856   5.992 -0.0366 -2.1019 -2.9865
 8191SOL    HW236210   1.408   2.715   5.986 -0.8773  0.0940 -0.0587
 8192SOL     OW36211   0.059   0.169   0.199 -0.8696  0.0219  0.2096
 8192SOL    HW136212   4.708   0.141   0.213 -0.6856 -0.3812  0.5845
 8192SOL    HW236213   0.041   0.263   0.197 -1.6180 -0.1482 -1.8616
 8193SOL     OW36214   1.808   4.406   7.975 -0.2030  0.4963 -0.0223
 8193SOL    HW136215   1.753   4.380   8.049 -1.7231  0.5694 -1.1169
 8193SOL    HW236216   1.764   4.362   7.903 -0.7886  0.9472  0.0566
 8194SOL     OW36217   1.133   2.893   3.495  0.1728  0.6869  0.3562
 8194SOL    HW136218   1.124   2.985   3.522  3.1152  0.9459  0.5180
 8194SOL    HW236219   1.052   2.858   3.531 -0.7878  3.4746  0.8977
 8195SOL     OW36220   0.572   0.637   0.869  0.0193 -0.2464  0.2532
 8195SOL    HW136221   0.570   0.563   0.809  0.0748  0.2743 -0.3871
 8195SOL    HW236222   0.482   0.654   0.895  0.2348  1.5651 -0.1965
 8196SOL     OW36223   3.239   1.863   5.679 -0.2881 -0.7327  0.5955
 8196SOL    HW136224   3.253   1.915   5.759  0.0024  2.2052 -1.3934
 8196SOL    HW236225   3.188   1.786   5.703 -0.7489  0.7512  4.4491
 8197SOL     OW36226   1.548   1.401   9.002 -0.0596 -0.3920  0.2062
 8197SOL    HW136227   1.578   1.334   9.063  1.3083  0.7604  0.7983
 8197SOL    HW236228   1.528   1.472   9.063  0.8802  0.2493 -0.2361
 8198SOL     OW36229   0.128   0.136   4.465 -0.4631 -0.2461 -0.2302
 8198SOL    HW136230   0.034   0.134   4.484 -0.9488 -2.5261 -2.9257
 8198SOL    HW236231   0.163   0.050   4.490 -1.0742 -0.1697  0.8974
 8199SOL     OW36232   4.201   1.799   6.560  0.0645 -0.0987 -0.1487
 8199SOL    HW136233   4.228   1.848   6.482 -0.4849 -0.5668 -0.6286
 8199SOL    HW236234   4.115   1.833   6.583 -0.1459 -0.9458  0.3330
 8200SOL     OW36235   0.609   2.625   3.883 -0.0365 -0.4875 -0.4004
 8200SOL    HW136236   0.638   2.687   3.816  0.8576 -0.8260 -0.3131
 8200SOL    HW236237   0.515   2.639   3.896 -0.1162  0.2329 -1.7213
 8201SOL     OW36238   0.721   1.978  16.226  0.0027 -0.1092 -0.6472
 8201SOL    HW136239   0.774   2.051  16.257 -0.4837  0.6735 -1.6834
 8201SOL    HW236240   0.753   1.978  16.136  0.6497 -0.4060 -0.4166
 8202SOL     OW36241   2.637   0.570   2.472 -0.3781 -0.8976  0.2522
 8202SOL    HW136242   2.671   0.639   2.416  0.6145 -0.8120  0.9533
 8202SOL    HW236243   2.621   0.501   2.408  2.5179 -0.0539 -1.3822
 8203SOL     OW36244   2.535   1.553   8.389  0.0696 -0.3230 -0.5714
 8203SOL    HW136245   2.518   1.513   8.474  1.2261  0.8878  0.2379
 8203SOL    HW236246   2.443   1.575   8.376  0.0392 -1.1728 -1.7835
 8204SOL     OW36247   1.296   1.920  12.647  0.0930 -0.6699  0.8312
 8204SOL    HW136248   1.270   1.929  12.556  0.4861 -1.7138  0.6185
 8204SOL    HW236249   1.344   2.001  12.664  1.0299 -0.5587 -2.4777
 8205SOL     OW36250   4.283   3.926   1.514  0.0238  0.5687  1.0257
 8205SOL    HW136251   4.196   3.931   1.552 -0.5742 -0.5861 -0.1975
 8205SOL    HW236252   4.339   3.992   1.556  1.7064  1.4064 -2.4969
 8206SOL     OW36253   3.158   3.754   2.818 -0.2961  0.1669  0.1374
 8206SOL    HW136254   3.099   3.678   2.824 -0.5610  0.5065  1.8261
 8206SOL    HW236255   3.099   3.821   2.784  0.9989  0.7312 -0.9707
 8207SOL     OW36256   1.011   0.392  17.718  0.2220 -0.1649  0.3793
 8207SOL    HW136257   0.950   0.363   0.029 -0.9235 -0.9188 -0.9629
 8207SOL    HW236258   0.998   0.345  17.636 -3.5100  0.6656  0.5237
 8208SOL     OW36259   2.885   3.198   3.846 -0.1391 -0.0933 -0.1843
 8208SOL    HW136260   2.804   3.151   3.870 -0.2550  0.4157  0.4265
 8208SOL    HW236261   2.838   3.256   3.787 -2.2270  0.2802  1.8185
 8209SOL     OW36262   4.348   2.574  11.971  0.2717 -0.1435 -0.2011
 8209SOL    HW136263   4.330   2.600  11.880  0.2310 -2.6272 -0.9019
 8209SOL    HW236264   4.318   2.483  11.967  0.5036 -0.2998  1.8931
 8210SOL     OW36265   1.934   2.897   6.835  0.3329  0.0729 -0.3482
 8210SOL    HW136266   1.899   2.972   6.882 -0.9313 -0.7302 -0.0240
 8210SOL    HW236267   1.902   2.828   6.892  0.5291  0.6252  0.4225
 8211SOL     OW36268   0.795   0.873  13.132  0.0246  0.7381  0.1648
 8211SOL    HW136269   0.838   0.859  13.216 -0.0417 -0.1947  0.0401
 8211SOL    HW236270   0.861   0.884  13.063  0.8643 -0.6364  0.7531
 8212SOL     OW36271   4.186   3.107   2.738 -0.4947 -0.0147  0.0338
 8212SOL    HW136272   4.281   3.109   2.725 -0.4545  0.7758  0.4418
 8212SOL    HW236273   4.176   3.139   2.828 -1.4607  0.0234 -0.0828
 8213SOL     OW36274   2.742   0.164   8.772 -0.3190  0.0498 -0.3579
 8213SOL    HW136275   2.744   0.097   8.703  1.8102 -0.7577  0.4876
 8213SOL    HW236276   2.664   0.152   8.824  0.0557 -1.1627 -0.0793
 8214SOL     OW36277   0.533   3.562   2.716  0.0545 -0.4695  0.1900
 8214SOL    HW136278   0.573   3.586   2.799  1.0269  0.6640 -0.5959
 8214SOL    HW236279   0.522   3.647   2.673 -1.1707 -0.5196  0.3989
 8215SOL     OW36280   2.154   1.390  15.739 -0.0961  0.0308  0.2095
 8215SOL    HW136281   2.117   1.470  15.702 -0.7609 -1.2004 -1.7799
 8215SOL    HW236282   2.122   1.319  15.683  2.9785 -1.1907  0.0185
 8216SOL     OW36283   4.262   1.944   8.947  0.0680 -0.5169 -0.6181
 8216SOL    HW136284   4.350   1.966   8.918  2.1381 -2.7315  3.9912
 8216SOL    HW236285   4.257   1.849   8.935  2.0686 -0.8182  0.8281
 8217SOL     OW36286   1.394   3.300   3.593  0.0223 -0.0808  0.0297
 8217SOL    HW136287   1.417   3.254   3.512 -0.7738 -0.1040 -0.1840
 8217SOL    HW236288   1.318   3.345   3.557 -0.9277 -0.9650  0.9228
 8218SOL     OW36289   3.221   3.704   3.980 -0.0148 -0.6951  0.5766
 8218SOL    HW136290   3.198   3.749   4.061 -0.9495  0.7062 -0.4890
 8218SOL    HW236291   3.263   3.766   3.921 -0.2009 -1.4035 -0.3025
 8219SOL     OW36292   2.450   4.413   7.067 -0.1194  0.2951 -0.7921
 8219SOL    HW136293   2.439   4.443   6.977  0.7639 -0.2983 -1.1062
 8219SOL    HW236294   2.380   4.467   7.103 -0.3314  0.0900 -0.8935
 8220SOL     OW36295   1.339   3.170  10.356 -0.0963 -0.6969 -0.3441
 8220SOL    HW136296   1.268   3.163  10.292  1.0822  2.0071 -1.9462
 8220SOL    HW236297   1.413   3.137  10.304 -1.7947 -2.3323 -1.7230
 8221SOL     OW36298   3.122   3.360   3.248 -0.1657  0.3303  0.4506
 8221SOL    HW136299   3.050   3.380   3.308 -1.0771 -0.8344 -0.2485
 8221SOL    HW236300   3.170   3.442   3.263 -1.5950  1.1257  0.6707
 8222SOL     OW36301   1.161   3.945   5.146  0.0908 -0.2694  0.1141
 8222SOL    HW136302   1.161   3.942   5.242 -0.3282  0.9585  0.1551
 8222SOL    HW236303   1.227   4.012   5.127  0.1926  0.2489  2.2747
 8223SOL     OW36304   4.489   3.460   6.176  0.2381  0.8039 -0.0867
 8223SOL    HW136305   4.540   3.404   6.116 -1.0725 -0.7317  0.2290
 8223SOL    HW236306   4.487   3.536   6.118 -2.1186  0.9599  0.1790
 8224SOL     OW36307   2.698   2.976   3.818  0.2411  0.1877  0.0376
 8224SOL    HW136308   2.759   2.905   3.800  0.8965  0.0109  3.0024
 8224SOL    HW236309   2.623   2.923   3.847  0.0652  0.2562 -0.2926
 8225SOL     OW36310   2.414   4.357   4.608 -0.1834 -0.0256  0.2927
 8225SOL    HW136311   2.502   4.387   4.585 -0.7134  1.8920  0.7782
 8225SOL    HW236312   2.384   4.442   4.640  2.1166  0.6343  0.7152
 8226SOL     OW36313   1.818   4.297  11.665 -0.2384 -0.5640  0.1048
 8226SOL    HW136314   1.739   4.244  11.679 -1.5727  2.0469  2.3984
 8226SOL    HW236315   1.859   4.234  11.605 -1.2643 -1.4019  0.2811
 8227SOL     OW36316   2.399   0.600  14.973 -0.5613  0.0379  0.1712
 8227SOL    HW136317   2.340   0.552  15.031  0.3042  1.1960  2.0432
 8227SOL    HW236318   2.449   0.641  15.044 -0.8043  0.2856  0.1993
 8228SOL     OW36319   2.841   0.232   6.937  0.1579  0.0071 -0.4254
 8228SOL    HW136320   2.817   0.240   7.029  1.9128  4.0016 -0.2839
 8228SOL    HW236321   2.861   0.321   6.907  0.3634  0.4167  0.9342
 8229SOL     OW36322   3.778   3.882   0.647 -0.3347 -0.6003 -0.0516
 8229SOL    HW136323   3.688   3.911   0.665  0.9298  2.8425  0.8835
 8229SOL    HW236324   3.789   3.913   0.557 -0.5795  1.2340  0.5469
 8230SOL     OW36325   0.014   1.947   0.058 -0.3473 -0.2611 -0.5754
 8230SOL    HW136326   0.023   1.852   0.065 -0.4256 -0.1191  1.5655
 8230SOL    HW236327   0.095   1.989   0.088  0.2300 -1.9685  0.2804
 8231SOL     OW36328   3.712   3.167   9.913  0.0266  0.0212 -0.2807
 8231SOL    HW136329   3.756   3.205   9.837 -0.1095  1.1641  0.2105
 8231SOL    HW236330   3.725   3.073   9.898  1.1366 -0.0764  1.2255
 8232SOL     OW36331   1.556   0.537   2.907  0.3222 -0.0829 -0.4266
 8232SOL    HW136332   1.480   0.542   2.848 -1.5721  1.0860  2.1208
 8232SOL    HW236333   1.628   0.528   2.845  0.4086 -0.6189 -0.2531
 8233SOL     OW36334   0.098   4.325   2.766  0.1947 -0.6169  0.1666
 8233SOL    HW136335   0.092   4.420   2.753 -2.7513 -0.7405  0.6325
 8233SOL    HW236336   0.076   4.283   2.683 -0.4103 -0.1466  0.0902
 8234SOL     OW36337   3.700   1.217   0.153  0.5830 -0.0239  0.5248
 8234SOL    HW136338   3.639   1.191   0.084  3.1128  1.5246 -2.2774
 8234SOL    HW236339   3.781   1.178   0.120  1.1504  1.1938  0.4518
 8235SOL     OW36340   2.172   2.488   9.737  0.5596 -0.4250 -0.4503
 8235SOL    HW136341   2.130   2.405   9.714 -1.3413  0.2628  0.5741
 8235SOL    HW236342   2.099   2.529   9.782  0.4645 -0.9890 -0.0856
 8236SOL     OW36343   3.188   2.548   9.762  0.5956 -0.4559  0.6063
 8236SOL    HW136344   3.236   2.556   9.680  1.8255  2.7353  1.6124
 8236SOL    HW236345   3.164   2.638   9.783 -0.7483 -0.5496 -0.6214
 8237SOL     OW36346   2.286   1.170   0.332 -0.3913 -0.2966 -0.5144
 8237SOL    HW136347   2.319   1.257   0.310 -1.9267  0.4360  0.0482
 8237SOL    HW236348   2.325   1.154   0.418  0.8217  0.6577 -0.8915
 8238SOL     OW36349   2.324   4.323  10.227 -0.3688  0.6535 -0.6721
 8238SOL    HW136350   2.350   4.241  10.270  2.0326  1.5712 -0.3942
 8238SOL    HW236351   2.297   4.377  10.301  2.6026  1.0133  0.1218
 8239SOL     OW36352   4.332   0.461   2.508  0.7363 -0.0507 -0.1310
 8239SOL    HW136353   4.285   0.406   2.445  1.0514 -1.4803  0.8867
 8239SOL    HW236354   4.408   0.404   2.519  0.7657 -0.0579 -0.3748
 8240SOL     OW36355   1.650   0.708   9.065 -0.6865  0.3439 -0.0388
 8240SOL    HW136356   1.608   0.783   9.023  0.4985  0.8176 -0.3698
 8240SOL    HW236357   1.741   0.725   9.041 -1.6865 -0.7941 -4.5734
 8241SOL     OW36358   2.163   4.226   6.240 -0.1901  0.2902  0.1175
 8241SOL    HW136359   2.070   4.220   6.264  0.7428 -0.8592  3.4276
 8241SOL    HW236360   2.188   4.138   6.214  2.6005  1.1327 -0.0674
 8242SOL     OW36361   2.110   3.684  17.457 -0.4405 -0.0867  0.2028
 8242SOL    HW136362   2.028   3.669  17.411  0.8062 -1.3141 -1.6138
 8242SOL    HW236363   2.176   3.633  17.410 -0.5144  0.8429 -0.9224
 8243SOL     OW36364   4.415   4.705   7.778  0.0909  0.2139  0.0736
 8243SOL    HW136365   4.474   0.005   7.842 -0.1735  1.0515 -0.2045
 8243SOL    HW236366   4.433   0.026   7.707 -1.7721 -0.1971 -0.7581
 8244SOL     OW36367   3.816   4.596   8.123  0.4529 -0.1842  0.3153
 8244SOL    HW136368   3.877   4.669   8.108  0.7815  0.0933  3.0725
 8244SOL    HW236369   3.739   4.651   8.134 -0.5997 -1.5971 -0.0453
 8245SOL     OW36370   1.824   4.234  17.215 -0.2833 -0.0496  0.5301
 8245SOL    HW136371   1.848   4.183  17.293  1.1630 -0.1611  0.0145
 8245SOL    HW236372   1.820   4.157  17.158 -0.4864  0.5216 -0.2358
 8246SOL     OW36373   1.138   1.808   2.513  0.3543 -0.1798 -0.2492
 8246SOL    HW136374   1.168   1.762   2.591 -1.0398 -0.6336  0.0155
 8246SOL    HW236375   1.059   1.841   2.555 -1.3990 -0.6073 -3.1715
 8247SOL     OW36376   2.724   2.207   5.992 -0.0322  0.3086  0.2147
 8247SOL    HW136377   2.749   2.130   6.044  2.6582 -0.8375 -2.7335
 8247SOL    HW236378   2.636   2.184   5.961 -0.5662  2.3955  0.1819
 8248SOL     OW36379   0.487   4.107  13.026  0.6423  0.1127  0.3661
 8248SOL    HW136380   0.523   4.019  13.029  3.2093  1.0881 -1.3667
 8248SOL    HW236381   0.549   4.137  12.960 -1.4435  0.5412 -1.4083
 8249SOL     OW36382   4.298   4.598   4.227  0.3861 -0.3660 -0.2318
 8249SOL    HW136383   4.267   4.672   4.278  1.6576 -0.3246  0.4930
 8249SOL    HW236384   4.217   4.548   4.228 -0.8039  1.6049  1.0390
 8250SOL     OW36385   0.882   0.113   3.721 -0.0692 -0.2821 -0.1489
 8250SOL    HW136386   0.886   0.037   3.779 -0.8414  1.2591  1.9313
 8250SOL    HW236387   0.789   0.133   3.706  0.0593 -0.6292 -1.4132
 8251SOL     OW36388   2.319   3.258   4.773  0.4436 -0.1071  0.4713
 8251SOL    HW136389   2.246   3.267   4.834 -0.5775 -0.2069 -0.7360
 8251SOL    HW236390   2.321   3.164   4.759  0.5698  0.1523 -1.2556
 8252SOL     OW36391   2.308   1.370   3.488  0.0377 -0.0095  0.1761
 8252SOL    HW136392   2.262   1.448   3.517  0.1094 -0.4272  1.4205
 8252SOL    HW236393   2.303   1.387   3.394  0.9022  0.7302  0.2550
 8253SOL     OW36394   0.641   0.441   4.174 -0.0489  0.4531 -0.5128
 8253SOL    HW136395   0.726   0.400   4.162 -0.9362 -1.6732  0.4740
 8253SOL    HW236396   0.636   0.513   4.110 -1.8812  2.4919  1.9112
 8254SOL     OW36397   4.125   1.973   8.401  0.0879  0.3619 -0.0018
 8254SOL    HW136398   4.112   2.058   8.359 -1.6584  0.2924  0.4223
 8254SOL    HW236399   4.194   1.991   8.466 -0.2903 -0.0693  0.5212
 8255SOL     OW36400   0.659   1.739  15.911  0.4985 -0.6222  1.1521
 8255SOL    HW136401   0.621   1.724  15.998  2.2927  0.8409  2.1858
 8255SOL    HW236402   0.719   1.812  15.925 -2.2717  1.6891  1.1093
 8256SOL     OW36403   3.627   2.970   0.119 -0.2502 -0.0635 -0.1348
 8256SOL    HW136404   3.709   2.999   0.157  0.1361  0.8804 -1.6952
 8256SOL    HW236405   3.581   3.054   0.125  2.2125  1.2042  0.7356
 8257SOL     OW36406   2.012   1.906   3.066  0.3680 -0.6732  0.0050
 8257SOL    HW136407   1.932   1.941   3.028  0.9166  1.6891  1.0744
 8257SOL    HW236408   1.986   1.814   3.071  0.5241 -0.6682  0.9433
 8258SOL     OW36409   2.372   2.921   6.008  0.0004  0.3201  0.1152
 8258SOL    HW136410   2.439   2.973   5.963  1.6364 -3.3261 -1.6864
 8258SOL    HW236411   2.334   2.990   6.062 -1.3971 -1.7175  1.7123
 8259SOL     OW36412   2.052   2.986  13.546 -0.1964 -0.1748  0.1308
 8259SOL    HW136413   2.078   2.912  13.600 -1.6252 -1.2934 -0.7187
 8259SOL    HW236414   2.016   2.938  13.471  0.6970  0.2266 -0.5693
 8260SOL     OW36415   4.103   2.685   5.770 -0.1247  0.2190  0.0124
 8260SOL    HW136416   4.069   2.598   5.792  1.2772 -0.1730  0.5815
 8260SOL    HW236417   4.167   2.695   5.840 -0.2284  3.1308 -0.2795
 8261SOL     OW36418   1.204   3.686   7.273  0.6352  0.1936  0.0450
 8261SOL    HW136419   1.117   3.652   7.290  1.1965  0.1178  2.7693
 8261SOL    HW236420   1.251   3.603   7.267  0.4149 -0.1142  2.3827
 8262SOL     OW36421   3.712   3.660   8.320 -0.0497  0.2309 -0.3407
 8262SOL    HW136422   3.673   3.719   8.385  0.9522 -1.9277  2.2303
 8262SOL    HW236423   3.765   3.725   8.275  0.7971 -0.5832 -0.5221
 8263SOL     OW36424   0.245   3.221   8.470  0.0825 -0.2911 -0.0060
 8263SOL    HW136425   0.305   3.147   8.463 -0.0848 -0.3240 -1.0378
 8263SOL    HW236426   0.217   3.226   8.379  1.6017 -2.2401 -0.5740
 8264SOL     OW36427   4.248   4.105   1.882 -0.6709  0.0864  0.6392
 8264SOL    HW136428   4.331   4.091   1.837 -1.2584  1.1010 -0.7966
 8264SOL    HW236429   4.224   4.196   1.862 -0.9031 -0.3381 -1.0760
 8265SOL     OW36430   3.718   0.950   3.439 -0.1065  0.5056  0.4989
 8265SOL    HW136431   3.776   1.026   3.442  0.0078  0.4720 -0.7106
 8265SOL    HW236432   3.780   0.887   3.476 -0.8140 -0.5469 -0.0932
 8266SOL     OW36433   3.550   1.577  13.139  0.3555  0.5015 -0.5470
 8266SOL    HW136434   3.626   1.554  13.086 -1.4471  0.2788 -3.0178
 8266SOL    HW236435   3.485   1.560  13.071 -1.3850  2.2420  0.6669
 8267SOL     OW36436   4.641   3.237   6.772 -0.1132  0.5086  0.5445
 8267SOL    HW136437   4.672   3.323   6.798  1.4936  1.1993 -3.6318
 8267SOL    HW236438   4.546   3.250   6.769 -0.2885 -0.1718  3.0844
 8268SOL     OW36439   2.587   4.499   3.005  0.4413 -0.6658 -0.1362
 8268SOL    HW136440   2.498   4.515   3.037  1.7391  1.0114  2.6538
 8268SOL    HW236441   2.638   4.535   3.077 -0.0213  1.4248 -0.8407
 8269SOL     OW36442   2.571   1.059   3.219  0.0609  0.5481  0.0350
 8269SOL    HW136443   2.631   0.992   3.187  0.0013  0.9098 -0.8565
 8269SOL    HW236444   2.513   1.011   3.278 -0.5106 -1.1778 -1.9310
 8270SOL     OW36445   4.112   4.326   4.956 -0.4063 -0.0062 -0.8197
 8270SOL    HW136446   4.178   4.395   4.950 -1.3226  1.1849  2.9123
 8270SOL    HW236447   4.162   4.253   4.993 -0.5514  0.3805  0.1270
 8271SOL     OW36448   4.575   1.343  15.907 -0.1848  0.2984  0.0335
 8271SOL    HW136449   4.580   1.251  15.879  0.0383  0.4586 -0.4562
 8271SOL    HW236450   4.509   1.343  15.975  0.4082 -0.2362  0.6068
 8272SOL     OW36451   2.037   4.451   7.252 -0.0626 -0.1826  0.7664
 8272SOL    HW136452   2.120   4.403   7.248 -0.6299 -1.1850  0.8787
 8272SOL    HW236453   2.036   4.477   7.344 -1.3926 -0.8810  0.9467
 8273SOL     OW36454   4.303   3.610  16.983 -0.3973  0.5341 -0.4131
 8273SOL    HW136455   4.346   3.643  16.904  3.8462 -1.7263  0.9589
 8273SOL    HW236456   4.255   3.537  16.943  0.0010 -0.4546  0.9342
 8274SOL     OW36457   1.254   0.966  12.314  0.5310 -0.6519 -0.0510
 8274SOL    HW136458   1.290   1.039  12.364  2.7488 -0.9269 -1.2972
 8274SOL    HW236459   1.173   0.950  12.364  0.9775  1.0264  1.2089
 8275SOL     OW36460   2.171   0.349   8.127  0.0912 -0.0556 -0.6581
 8275SOL    HW136461   2.096   0.403   8.104 -1.1692 -1.6951 -0.4009
 8275SOL    HW236462   2.206   0.405   8.196 -2.3723 -2.5564  2.6179
 8276SOL     OW36463   0.186   3.707  14.715 -0.4704 -0.0460  0.0148
 8276SOL    HW136464   0.264   3.673  14.672 -0.8683  0.4447 -1.0968
 8276SOL    HW236465   0.199   3.645  14.787 -0.0880  0.7979  0.6866
 8277SOL     OW36466   2.889   0.026   7.247  0.3059 -0.1561  0.2136
 8277SOL    HW136467   2.906   0.120   7.240  2.3442 -0.4166  1.5218
 8277SOL    HW236468   2.798   0.012   7.222 -0.3979 -1.4674  3.5709
 8278SOL     OW36469   1.350   3.368   6.250 -0.0776  0.1315 -0.0959
 8278SOL    HW136470   1.352   3.330   6.338 -0.8681  2.5862  0.9751
 8278SOL    HW236471   1.443   3.364   6.228 -0.5994  0.9923 -2.4826
 8279SOL     OW36472   3.728   1.903   4.207 -0.0500  0.0864 -0.4645
 8279SOL    HW136473   3.794   1.933   4.269  2.3050 -0.6216 -2.5933
 8279SOL    HW236474   3.686   1.987   4.186  2.2228  1.7782  1.7319
 8280SOL     OW36475   1.099   4.318   5.149 -0.3271 -0.7520 -0.5714
 8280SOL    HW136476   1.148   4.399   5.135  1.0543 -0.8475  3.5492
 8280SOL    HW236477   1.062   4.307   5.062  0.7804 -2.1665 -0.8713
 8281SOL     OW36478   1.172   3.415   4.842  0.7394 -0.2475  0.1706
 8281SOL    HW136479   1.170   3.351   4.771 -0.6088 -0.3309  0.2897
 8281SOL    HW236480   1.202   3.362   4.916  0.0012  2.2124  2.2158
 8282SOL     OW36481   2.007   4.562   2.709  0.2337  0.3587  0.6340
 8282SOL    HW136482   1.931   4.616   2.685 -0.8842 -1.2386  0.5851
 8282SOL    HW236483   2.063   4.576   2.633 -0.0434 -1.7202  0.0424
 8283SOL     OW36484   2.224   2.939   4.249 -0.7994  0.2210  0.0870
 8283SOL    HW136485   2.236   3.027   4.286  0.5115 -0.5085  1.3844
 8283SOL    HW236486   2.191   2.962   4.162 -1.5564 -3.9172 -0.6827
 8284SOL     OW36487   3.026   1.777   1.590  0.2536  0.1765 -0.0250
 8284SOL    HW136488   2.970   1.733   1.526  0.8255  0.9926 -1.0875
 8284SOL    HW236489   3.114   1.777   1.554  0.8275  2.6079  1.3252
 8285SOL     OW36490   3.422   0.839   6.269 -0.1161  0.4431  0.0128
 8285SOL    HW136491   3.405   0.748   6.245 -0.3171 -0.1553  2.4108
 8285SOL    HW236492   3.481   0.831   6.344  1.3467 -1.4502 -1.3314
 8286SOL     OW36493   0.727   0.898   6.420  0.1471  0.2140  0.4856
 8286SOL    HW136494   0.755   0.926   6.507 -1.0724 -0.0895  0.9880
 8286SOL    HW236495   0.736   0.974   6.364 -0.4599 -0.5145 -0.6102
 8287SOL     OW36496   4.289   1.627  13.687 -0.0506 -0.0342  0.0608
 8287SOL    HW136497   4.258   1.573  13.759  0.4587 -0.8758 -0.3468
 8287SOL    HW236498   4.352   1.689  13.723  0.2755 -0.6795  0.6075
 8288SOL     OW36499   1.690   2.266  15.016 -0.4621 -0.2480  0.1793
 8288SOL    HW136500   1.736   2.330  15.071  0.5423  0.5083 -1.5444
 8288SOL    HW236501   1.610   2.308  14.987 -0.5290 -1.5869 -1.5400
 8289SOL     OW36502   2.110   0.694   6.674  0.2090  0.1982 -0.5060
 8289SOL    HW136503   2.122   0.751   6.598  1.5787  2.9265  1.7094
 8289SOL    HW236504   2.046   0.740   6.729  1.7768  1.0280  0.6066
 8290SOL     OW36505   0.037   3.105   9.804  0.2116 -0.4882 -0.1786
 8290SOL    HW136506   0.086   3.155   9.869  1.3926 -1.9126  0.0310
 8290SOL    HW236507   4.692   3.148   9.813  0.9909  1.0728 -0.2609
 8291SOL     OW36508   0.098   1.587   9.480 -0.2450 -0.2766 -0.4461
 8291SOL    HW136509   0.191   1.611   9.471 -0.9021  1.6815 -2.0084
 8291SOL    HW236510   0.069   1.664   9.530  1.8720  0.1897  0.0834
 8292SOL     OW36511   3.395   3.002  15.407 -0.3250  0.2446 -0.2323
 8292SOL    HW136512   3.346   2.934  15.360  0.2397 -0.3899  0.0874
 8292SOL    HW236513   3.469   2.949  15.436  0.1552  1.2728  0.4093
 8293SOL     OW36514   4.428   4.558   6.484 -0.4028 -0.2889 -0.4878
 8293SOL    HW136515   4.481   4.478   6.481 -0.0241 -0.0777  0.8674
 8293SOL    HW236516   4.348   4.526   6.440 -0.3579  0.1139 -0.8599
 8294SOL     OW36517   2.603   2.062   4.517 -0.2149  0.0618 -0.2199
 8294SOL    HW136518   2.554   2.115   4.454 -0.6633 -0.1037 -0.0144
 8294SOL    HW236519   2.579   1.976   4.483  0.1816  1.2210 -3.4293
 8295SOL     OW36520   1.788   3.166   1.387  0.5507 -0.3249 -0.7289
 8295SOL    HW136521   1.738   3.149   1.467 -0.5252  0.9562 -1.1199
 8295SOL    HW236522   1.749   3.097   1.333 -1.2577 -0.4772  0.7774
 8296SOL     OW36523   3.271   2.697   1.664 -0.1265 -0.1150  0.1039
 8296SOL    HW136524   3.202   2.666   1.723  0.9243 -2.2335  0.2266
 8296SOL    HW236525   3.295   2.781   1.703  0.3075  0.4473 -1.3710
 8297SOL     OW36526   0.404   4.708   8.692 -0.0588  0.4096 -0.3457
 8297SOL    HW136527   0.317   4.730   8.658  0.0869 -0.4241 -1.2371
 8297SOL    HW236528   0.383   4.635   8.750  2.2950 -0.1100 -0.1492
 8298SOL     OW36529   3.570   2.229   5.304 -0.2568 -0.0994  0.2988
 8298SOL    HW136530   3.601   2.202   5.218 -0.1365  0.8195  0.0497
 8298SOL    HW236531   3.551   2.323   5.294 -1.1038 -0.3802 -0.6865
 8299SOL     OW36532   3.786   1.961   7.625 -0.7104 -0.5107 -0.3885
 8299SOL    HW136533   3.859   1.970   7.686 -0.4145 -2.8990 -0.3943
 8299SOL    HW236534   3.757   2.053   7.618  0.5529 -0.1592 -1.0485
 8300SOL     OW36535   0.431   4.618   1.632  0.0032 -0.2546  0.7076
 8300SOL    HW136536   0.507   4.607   1.688 -0.2118 -1.5815  0.7426
 8300SOL    HW236537   0.379   4.675   1.688 -0.2932 -0.2456  0.4238
 8301SOL     OW36538   1.622   4.734  15.774 -0.0986 -0.1162 -0.2549
 8301SOL    HW136539   1.664   0.075  15.804 -0.4599 -0.1084  0.2322
 8301SOL    HW236540   1.691   4.681  15.735  0.0077  1.1335 -1.7443
 8302SOL     OW36541   1.603   1.482   9.390 -0.7653 -0.0726 -0.1237
 8302SOL    HW136542   1.675   1.517   9.442  0.7508  0.9348 -2.8777
 8302SOL    HW236543   1.603   1.516   9.301 -2.6413 -2.4602 -1.0446
 8303SOL     OW36544   2.083   0.652   2.541 -0.3382  0.7110 -0.0033
 8303SOL    HW136545   2.088   0.739   2.501 -2.9545  1.3405  1.0752
 8303SOL    HW236546   2.119   0.671   2.627 -1.2908  2.9096 -0.1003
 8304SOL     OW36547   3.413   1.875   2.448  0.6107  0.1216 -0.2562
 8304SOL    HW136548   3.425   1.823   2.369  0.3519 -1.1120  0.5128
 8304SOL    HW236549   3.479   1.837   2.507 -0.4648 -1.2223  0.1115
 8305SOL     OW36550   3.225   3.419   6.224 -0.2301 -0.2728 -0.3564
 8305SOL    HW136551   3.195   3.439   6.135 -1.4143  3.2697  0.8440
 8305SOL    HW236552   3.156   3.466   6.272  1.2535 -1.0108  2.4747
 8306SOL     OW36553   0.982   0.949  14.618 -0.4902  0.1057  0.2912
 8306SOL    HW136554   1.026   0.864  14.609 -1.6533 -0.6457  1.5393
 8306SOL    HW236555   0.931   0.947  14.537  0.0553 -1.5033 -0.0205
 8307SOL     OW36556   3.166   0.898   2.336 -0.4328 -0.0274 -0.3750
 8307SOL    HW136557   3.232   0.949   2.382 -0.8779  1.3943 -1.3193
 8307SOL    HW236558   3.206   0.900   2.248 -2.3584 -0.0133 -1.2519
 8308SOL     OW36559   2.558   1.759  13.484 -0.6254  0.3035  0.3027
 8308SOL    HW136560   2.567   1.675  13.440  1.4400  0.5375  0.2639
 8308SOL    HW236561   2.515   1.729  13.564  1.2103 -1.7932  0.4934
 8309SOL     OW36562   4.606   4.350  12.684 -0.3982  0.2536 -0.0672
 8309SOL    HW136563   4.536   4.313  12.630 -1.3512 -1.3087  2.2449
 8309SOL    HW236564   4.590   4.311  12.770  1.1267 -3.7620 -1.5937
 8310SOL     OW36565   2.111   0.419   0.484 -0.2156  0.2173 -0.0587
 8310SOL    HW136566   2.150   0.344   0.439  0.6813 -0.6353  2.1400
 8310SOL    HW236567   2.016   0.409   0.480 -0.3348  0.0914  3.4106
 8311SOL     OW36568   4.715   2.650   7.440  0.3983 -0.5194  0.3824
 8311SOL    HW136569   0.058   2.685   7.409 -0.5194  0.5362 -0.8920
 8311SOL    HW236570   4.735   2.619   7.529  2.1494  0.3422  0.2837
 8312SOL     OW36571   0.222   0.656   8.190 -0.0582 -0.5012  0.3990
 8312SOL    HW136572   0.255   0.721   8.252  2.4082 -0.3385 -1.0898
 8312SOL    HW236573   0.212   0.572   8.234 -1.6075 -1.2280 -1.3841
 8313SOL     OW36574   0.476   3.183   1.708 -0.3523  0.3092 -0.0432
 8313SOL    HW136575   0.454   3.175   1.801 -1.4801  1.0641 -0.2444
 8313SOL    HW236576   0.515   3.270   1.710  0.4324 -0.0671  1.2792
 8314SOL     OW36577   2.506   1.676   0.122  0.4866  0.6410  0.1758
 8314SOL    HW136578   2.452   1.685   0.200  0.5746  1.3335  0.1511
 8314SOL    HW236579   2.438   1.638   0.067  0.8453  0.7059 -0.3121
 8315SOL     OW36580   0.508   4.469   6.655 -0.1992  0.1170  0.2396
 8315SOL    HW136581   0.492   4.534   6.586  0.1932 -1.0529 -0.9517
 8315SOL    HW236582   0.467   4.513   6.730  1.8817  0.7046  1.0173
 8316SOL     OW36583   0.511   4.671  12.721  0.1774  0.0534 -0.4664
 8316SOL    HW136584   0.593   4.716  12.739  1.0289 -1.8651  0.3919
 8316SOL    HW236585   0.510   4.681  12.625  2.3994  0.0787 -0.4731
 8317SOL     OW36586   2.507   4.024   4.507 -0.2092 -0.2420  0.1361
 8317SOL    HW136587   2.455   4.091   4.462 -1.5089 -1.3832 -0.0550
 8317SOL    HW236588   2.435   3.961   4.512 -1.4182  1.1758  0.5604
 8318SOL     OW36589   1.087   3.312  16.512  0.0226  0.4159 -0.3635
 8318SOL    HW136590   1.017   3.255  16.544 -0.1741  0.6156 -0.4331
 8318SOL    HW236591   1.065   3.305  16.419  6.4130 -0.4652 -1.7946
 8319SOL     OW36592   1.020   0.664  11.532 -0.5894 -0.2738 -0.1730
 8319SOL    HW136593   1.114   0.656  11.549 -0.5607  0.1643 -0.1292
 8319SOL    HW236594   1.024   0.702  11.444 -2.0275  1.2794  0.4314
 8320SOL     OW36595   4.192   3.903   6.005  0.1030 -0.5385  0.1050
 8320SOL    HW136596   4.276   3.890   5.960 -0.1460  0.2348 -0.5716
 8320SOL    HW236597   4.220   3.931   6.092  0.2074  2.1159 -0.8053
 8321SOL     OW36598   2.192   3.496  16.290 -0.0647  0.3003  0.0958
 8321SOL    HW136599   2.267   3.475  16.346 -0.8579 -0.2572  0.9443
 8321SOL    HW236600   2.224   3.563  16.230  1.4140 -0.0405  0.5001
 8322SOL     OW36601   2.671   2.519  15.828 -0.1462 -0.2273  0.0485
 8322SOL    HW136602   2.750   2.550  15.784 -1.6468  1.9458 -1.1202
 8322SOL    HW236603   2.613   2.595  15.830 -1.7659 -1.4741 -0.2369
 8323SOL     OW36604   4.320   4.199  15.633 -0.5731  0.7016 -0.1745
 8323SOL    HW136605   4.225   4.197  15.617 -0.6641  1.5486  0.2468
 8323SOL    HW236606   4.349   4.214  15.543 -0.0285 -2.3583 -0.5190
 8324SOL     OW36607   4.324   3.640  17.249  0.4977 -0.3142 -0.2985
 8324SOL    HW136608   4.329   3.627  17.155  0.6292 -0.9486 -0.2052
 8324SOL    HW236609   4.238   3.605  17.270  0.8199 -1.3743 -0.7469
 8325SOL     OW36610   4.105   4.126  14.811  0.2006 -0.4458 -0.1234
 8325SOL    HW136611   4.122   4.037  14.840  1.0624 -0.3499 -0.3118
 8325SOL    HW236612   4.164   4.132  14.735 -0.7868  1.0986 -0.7597
 8326SOL     OW36613   0.413   0.176   5.024 -0.0079 -0.0168  0.0248
 8326SOL    HW136614   0.486   0.128   4.986  0.4158  1.3913 -0.9276
 8326SOL    HW236615   0.462   0.244   5.071 -0.5968 -0.0434  0.6854
 8327SOL     OW36616   0.592   1.243   8.862 -0.0565 -0.2458 -0.4103
 8327SOL    HW136617   0.596   1.308   8.792  0.1185 -0.5833 -0.7195
 8327SOL    HW236618   0.674   1.195   8.852  0.1826 -0.3468  1.9329
 8328SOL     OW36619   3.933   0.393   3.842 -0.0462  0.0310  0.3582
 8328SOL    HW136620   3.860   0.355   3.794 -0.0135  0.6453 -0.1748
 8328SOL    HW236621   3.937   0.334   3.918  0.3940 -0.6454 -0.1874
 8329SOL     OW36622   0.198   1.154   6.817 -0.3141 -0.0667  0.0909
 8329SOL    HW136623   0.238   1.068   6.833  1.4916  0.8714  0.6040
 8329SOL    HW236624   0.256   1.209   6.869 -0.5960 -0.7495  1.1409
 8330SOL     OW36625   1.680   1.885  15.296 -0.8162 -0.3857 -0.2041
 8330SOL    HW136626   1.717   1.853  15.377  2.9153  0.1801 -1.6738
 8330SOL    HW236627   1.587   1.893  15.318 -0.4767 -1.8253  1.6826
 8331SOL     OW36628   1.729   3.027   3.632  0.1402  0.0797  0.5709
 8331SOL    HW136629   1.809   3.068   3.664 -1.3138  2.7275  0.8043
 8331SOL    HW236630   1.751   3.044   3.540  1.1414 -3.7669  0.0998
 8332SOL     OW36631   3.946   0.320   9.135  0.2930  0.1469 -0.2016
 8332SOL    HW136632   4.020   0.322   9.075  0.2355  3.4500 -0.1689
 8332SOL    HW236633   3.881   0.262   9.094 -0.1765  0.7542 -0.3145
 8333SOL     OW36634   3.927   1.948  12.225 -0.1372 -0.1994 -0.1534
 8333SOL    HW136635   3.861   1.980  12.164  0.6094  0.2832 -0.7005
 8333SOL    HW236636   3.882   1.960  12.309  0.3042  1.9535 -0.2174
 8334SOL     OW36637   0.845   2.988   1.182  0.1393 -0.3538 -0.0102
 8334SOL    HW136638   0.816   3.033   1.261 -1.8155  0.5037 -1.2088
 8334SOL    HW236639   0.859   3.061   1.121  0.2159 -2.3888 -2.4333
 8335SOL     OW36640   1.456   4.246   8.440  0.0811 -0.1809 -0.1132
 8335SOL    HW136641   1.468   4.245   8.535 -2.2844 -0.8718  0.1698
 8335SOL    HW236642   1.524   4.184   8.411  0.7851  0.4523  0.2164
 8336SOL     OW36643   3.522   2.509   5.262  0.0556 -0.3953  0.4251
 8336SOL    HW136644   3.526   2.603   5.278 -0.0681 -0.5452  1.3400
 8336SOL    HW236645   3.538   2.499   5.168 -3.0543  0.4421 -0.2119
 8337SOL     OW36646   3.867   0.547   6.730 -1.1461  0.1174 -0.8399
 8337SOL    HW136647   3.868   0.511   6.819  2.3216 -2.0800 -1.7813
 8337SOL    HW236648   3.962   0.544   6.720 -1.1161  1.2374 -0.8194
 8338SOL     OW36649   0.374   2.007   7.016 -0.4075  0.6810 -0.4179
 8338SOL    HW136650   0.462   1.980   7.043 -0.6692 -0.3952 -0.6390
 8338SOL    HW236651   0.324   1.983   7.094 -0.5751  3.1750  0.2503
 8339SOL     OW36652   1.175   1.696   6.551 -0.3750 -0.5343 -0.8234
 8339SOL    HW136653   1.130   1.677   6.469 -2.0077 -0.4908  0.0608
 8339SOL    HW236654   1.269   1.694   6.530  0.1317  0.3875  1.2986
 8340SOL     OW36655   1.377   0.304   6.409  0.5215 -0.1422 -0.0376
 8340SOL    HW136656   1.439   0.331   6.477  3.3938 -3.0182 -1.5016
 8340SOL    HW236657   1.310   0.371   6.421  0.4589  0.0064 -1.2468
 8341SOL     OW36658   0.596   4.302   6.292 -0.2528 -0.2151  0.3283
 8341SOL    HW136659   0.578   4.384   6.246  0.3563 -0.2343  0.0545
 8341SOL    HW236660   0.631   4.337   6.375  4.2990  0.8421 -2.0172
 8342SOL     OW36661   1.196   4.723   6.225  0.2952 -0.6270 -0.0835
 8342SOL    HW136662   1.258   4.694   6.291  0.0998 -1.9054 -0.4609
 8342SOL    HW236663   1.258   0.010   6.157  0.7320  1.2394  1.0486
 8343SOL     OW36664   2.539   1.777   9.259  0.0988 -0.1998  0.0955
 8343SOL    HW136665   2.563   1.805   9.170 -0.9717 -1.4502 -0.5869
 8343SOL    HW236666   2.586   1.693   9.259  0.8138  0.1972 -1.4756
 8344SOL     OW36667   4.588   3.379   2.162 -0.2195 -0.0010 -0.8331
 8344SOL    HW136668   4.542   3.405   2.243  0.2016 -0.4171 -0.4646
 8344SOL    HW236669   4.536   3.429   2.099  0.3536  1.1267 -0.4184
 8345SOL     OW36670   2.138   3.882   0.162  0.2859  0.4243  0.3523
 8345SOL    HW136671   2.144   3.814   0.230 -0.0210  0.6762  0.6294
 8345SOL    HW236672   2.179   3.835   0.089 -1.2241  1.6761 -1.2817
 8346SOL     OW36673   0.544   3.416   5.666 -0.4013  0.0359  0.9701
 8346SOL    HW136674   0.621   3.449   5.620 -0.3282 -0.1329  0.9700
 8346SOL    HW236675   0.563   3.324   5.648 -1.1905  0.2727 -1.0468
 8347SOL     OW36676   1.815   1.449   3.258  0.9632 -0.0154  0.0272
 8347SOL    HW136677   1.738   1.453   3.201  0.5062 -1.8850  0.5370
 8347SOL    HW236678   1.794   1.367   3.302 -1.5828  0.2126 -0.7789
 8348SOL     OW36679   4.619   2.180   7.697  1.1406 -0.6947 -0.3537
 8348SOL    HW136680   4.562   2.122   7.748 -0.5078  2.8862  1.9247
 8348SOL    HW236681   4.577   2.263   7.719  0.8382 -0.6410 -1.1660
 8349SOL     OW36682   3.664   1.788   7.863 -0.5504  0.0058  0.3199
 8349SOL    HW136683   3.632   1.771   7.774  2.8527 -1.3849 -0.6316
 8349SOL    HW236684   3.726   1.717   7.877  1.0975  1.0999 -1.3561
 8350SOL     OW36685   2.418   1.370   6.441 -0.1195 -0.2604 -0.6089
 8350SOL    HW136686   2.417   1.276   6.424 -0.8648 -0.6293  1.4114
 8350SOL    HW236687   2.376   1.409   6.364  0.6725  0.5049 -0.6612
 8351SOL     OW36688   2.165   2.516  15.069 -0.0553  0.0613 -0.1789
 8351SOL    HW136689   2.111   2.532  15.146  1.5669  0.1560  0.9529
 8351SOL    HW236690   2.093   2.473  15.023 -0.6006 -0.4457  1.1226
 8352SOL     OW36691   2.677   4.429  14.125  0.0041 -0.3813 -0.3634
 8352SOL    HW136692   2.602   4.370  14.116 -0.7173  0.8093 -2.1971
 8352SOL    HW236693   2.749   4.369  14.105 -0.3543 -0.9265 -0.0308
 8353SOL     OW36694   4.417   1.571  15.853  0.5134  0.8354  0.5567
 8353SOL    HW136695   4.471   1.502  15.891  1.2198  0.3506 -1.3288
 8353SOL    HW236696   4.327   1.549  15.877  0.3392  2.0385  0.9965
 8354SOL     OW36697   0.242   0.059  12.248 -0.2227  0.2394 -1.0372
 8354SOL    HW136698   0.165   0.088  12.296  1.4936 -0.3357  2.0715
 8354SOL    HW236699   0.275   4.728  12.303 -1.3774 -1.5053 -2.5970
 8355SOL     OW36700   2.315   1.571   6.851  0.4746  0.2719  0.5530
 8355SOL    HW136701   2.390   1.516   6.827 -2.2109 -1.5168 -3.6464
 8355SOL    HW236702   2.308   1.537   6.940 -0.7215  0.9248  0.7085
 8356SOL     OW36703   2.367   0.919   3.374 -0.5008  0.6785 -0.4608
 8356SOL    HW136704   2.370   0.825   3.361 -1.4190  0.8812 -2.1607
 8356SOL    HW236705   2.290   0.930   3.430 -0.3298  0.2997 -0.1569
 8357SOL     OW36706   3.397   0.962   9.542 -0.2966 -0.2569  0.3212
 8357SOL    HW136707   3.420   1.040   9.493  1.0176  0.6309  2.3408
 8357SOL    HW236708   3.316   0.986   9.587 -1.2173  0.1140 -1.5395
 8358SOL     OW36709   1.738   2.982   2.561 -0.0214  0.7462 -0.2401
 8358SOL    HW136710   1.803   2.922   2.524 -0.5766 -0.1430  0.2354
 8358SOL    HW236711   1.796   3.055   2.582 -0.8385  1.3948 -0.2269
 8359SOL     OW36712   0.164   0.045  12.631  0.5125 -0.1843  0.2269
 8359SOL    HW136713   0.070   0.030  12.637  0.1135  2.3296  0.3442
 8359SOL    HW236714   0.194   4.728  12.560  0.4659 -0.7531  0.6696
 8360SOL     OW36715   2.676   3.186   0.601  0.5819  0.0203 -0.3601
 8360SOL    HW136716   2.695   3.260   0.659 -2.6835  0.8083 -0.2916
 8360SOL    HW236717   2.624   3.220   0.528  0.2930  0.2218 -0.0636
 8361SOL     OW36718   1.256   2.806   3.264 -0.2442 -0.0364  0.4699
 8361SOL    HW136719   1.275   2.800   3.358 -1.5822  0.0269  0.7458
 8361SOL    HW236720   1.184   2.744   3.258  0.1560 -0.5924  1.4092
 8362SOL     OW36721   4.624   3.848   6.812 -0.3678  0.2828 -0.2307
 8362SOL    HW136722   4.611   3.755   6.794  1.0955  0.3019 -1.3619
 8362SOL    HW236723   4.592   3.855   6.902 -2.0518 -1.9124 -0.6641
 8363SOL     OW36724   3.123   1.706  14.186 -0.7935 -0.0906 -0.0674
 8363SOL    HW136725   3.188   1.637  14.170 -0.2576  0.4424 -0.2079
 8363SOL    HW236726   3.178   1.770  14.231  0.9015 -0.5258 -1.5080
 8364SOL     OW36727   4.007   2.509   7.068 -0.7198  0.1994 -0.3435
 8364SOL    HW136728   4.015   2.598   7.033  0.6250  1.8445  4.1547
 8364SOL    HW236729   3.972   2.461   6.993 -1.5019  0.2634 -0.0133
 8365SOL     OW36730   3.592   1.813  12.372 -0.3709  0.5421 -0.5693
 8365SOL    HW136731   3.557   1.735  12.416 -0.0002  0.4370 -0.4621
 8365SOL    HW236732   3.610   1.868  12.448 -2.7933 -0.1652  0.5138
 8366SOL     OW36733   2.318   0.090   1.420 -0.1602 -0.9619 -0.8664
 8366SOL    HW136734   2.277   0.161   1.471 -1.9963 -1.2309 -1.9920
 8366SOL    HW236735   2.283   0.012   1.462  2.3043 -0.4809  2.0740
 8367SOL     OW36736   0.901   4.042   9.001  0.3681  0.4007 -0.3825
 8367SOL    HW136737   0.859   4.055   9.086 -0.6492 -0.4176 -0.7590
 8367SOL    HW236738   0.940   4.130   8.996  1.2805  0.1117  2.0958
 8368SOL     OW36739   3.282   3.417   8.749 -0.3812  0.0869  0.2275
 8368SOL    HW136740   3.346   3.481   8.778 -1.4241  0.7712  1.0343
 8368SOL    HW236741   3.291   3.418   8.653  1.1791  1.6818  0.4065
 8369SOL     OW36742   2.872   2.127   5.331  0.0465  0.1081 -0.0321
 8369SOL    HW136743   2.833   2.162   5.411 -2.5579  0.2914 -1.3682
 8369SOL    HW236744   2.940   2.194   5.324 -0.3206  0.6731  2.0189
 8370SOL     OW36745   1.034   0.654  16.217  0.3037  0.7784 -0.6940
 8370SOL    HW136746   1.071   0.589  16.278 -1.8952  0.9150  0.8029
 8370SOL    HW236747   0.999   0.598  16.148  1.0957 -0.8600  0.2165
 8371SOL     OW36748   3.079   2.903   6.927  0.6385 -0.0526 -0.0304
 8371SOL    HW136749   3.045   2.986   6.961  0.8833 -0.4877  1.3006
 8371SOL    HW236750   3.032   2.896   6.844  0.8268  0.5323 -0.1865
 8372SOL     OW36751   0.856   0.635   6.453 -0.1827 -0.0176 -0.0719
 8372SOL    HW136752   0.945   0.662   6.429  0.4215  0.1673  2.3450
 8372SOL    HW236753   0.816   0.717   6.425  1.6882  0.1151 -2.3445
 8373SOL     OW36754   4.481   3.098   8.639 -0.0960  0.4808  0.2635
 8373SOL    HW136755   4.458   3.005   8.645 -0.2575  0.6080  1.7122
 8373SOL    HW236756   4.569   3.099   8.601 -0.7913  0.2897 -1.3497
 8374SOL     OW36757   1.583   0.436   6.207 -0.1553  0.3622  0.7801
 8374SOL    HW136758   1.503   0.486   6.191  0.6324  1.0649 -0.8729
 8374SOL    HW236759   1.612   0.474   6.290 -0.6946 -1.4482  1.7951
 8375SOL     OW36760   4.616   0.129   4.269 -0.3651  0.0249  0.1300
 8375SOL    HW136761   4.594   0.044   4.307  2.0557 -0.6852 -0.0711
 8375SOL    HW236762   4.563   0.192   4.318 -0.2218  0.7266 -0.6100
 8376SOL     OW36763   1.696   4.610   5.321 -0.5543 -0.1115 -0.0957
 8376SOL    HW136764   1.702   4.612   5.417 -0.9423 -2.1910 -0.0156
 8376SOL    HW236765   1.674   4.696   5.287 -0.8788 -0.2600 -0.2646
 8377SOL     OW36766   4.445   1.806   8.227  0.6997  0.0557  0.4198
 8377SOL    HW136767   4.499   1.794   8.305  1.7182 -1.9479 -0.6020
 8377SOL    HW236768   4.355   1.792   8.256  1.1565  1.5090  2.5214
 8378SOL     OW36769   2.370   2.250  15.737 -0.5044  0.3725  0.4084
 8378SOL    HW136770   2.330   2.211  15.814  3.1744 -1.4053  1.4018
 8378SOL    HW236771   2.353   2.344  15.736 -1.3529  0.2415  1.9413
 8379SOL     OW36772   3.806   1.030   8.784  0.0052  0.5090 -1.0538
 8379SOL    HW136773   3.741   1.088   8.743 -0.5192  0.9510  0.4286
 8379SOL    HW236774   3.741   0.962   8.800  0.8004  0.3094  1.3045
 8380SOL     OW36775   1.311   4.017  10.041  0.7509  0.4003 -0.1230
 8380SOL    HW136776   1.279   3.928  10.023  1.0137 -0.2455  2.5564
 8380SOL    HW236777   1.231   4.070  10.042 -0.5372 -1.5430  0.4489
 8381SOL     OW36778   3.148   1.282  14.661 -0.1870  0.2794  0.0696
 8381SOL    HW136779   3.202   1.224  14.607 -0.6410  0.1809 -0.2796
 8381SOL    HW236780   3.099   1.335  14.599 -1.5884  0.3604  1.2333
 8382SOL     OW36781   2.301   1.262   1.575 -0.0775 -1.1061 -0.4020
 8382SOL    HW136782   2.229   1.207   1.542  0.3510 -2.4080  0.8319
 8382SOL    HW236783   2.370   1.200   1.597 -0.4496 -1.0365  0.9344
 8383SOL     OW36784   2.715   3.949   6.830 -0.0235  0.7277 -0.1008
 8383SOL    HW136785   2.661   3.991   6.897  0.0379  2.1380 -0.9394
 8383SOL    HW236786   2.801   3.949   6.871 -0.2942  0.1809  0.4905
 8384SOL     OW36787   0.723   2.081  13.139  0.5044 -0.4713  0.1859
 8384SOL    HW136788   0.634   2.054  13.162  0.8521 -0.5229  1.4501
 8384SOL    HW236789   0.763   2.087  13.226 -2.4071 -1.3254  1.5867
 8385SOL     OW36790   4.034   1.603   2.368  0.4994 -0.1785  0.2679
 8385SOL    HW136791   4.074   1.679   2.326 -0.9538  1.3027  1.5555
 8385SOL    HW236792   4.109   1.557   2.404  0.3673  1.8906  3.1988
 8386SOL     OW36793   2.916   4.470   3.678  0.0723 -0.1293  0.5834
 8386SOL    HW136794   2.928   4.450   3.771 -0.3796 -3.9448 -0.1645
 8386SOL    HW236795   2.868   4.553   3.685  0.8676  0.5305 -1.8963
 8387SOL     OW36796   1.678   1.625   7.765 -0.2651 -0.6723  0.5360
 8387SOL    HW136797   1.652   1.535   7.785  1.8022 -1.6349 -1.1382
 8387SOL    HW236798   1.732   1.652   7.839 -2.0310  0.8143  1.2957
 8388SOL     OW36799   1.395   0.189   9.824  0.1586 -0.1625 -0.2801
 8388SOL    HW136800   1.461   0.256   9.838  0.4878 -0.1357 -1.9124
 8388SOL    HW236801   1.421   0.122   9.887  0.2141 -0.5140 -0.6742
 8389SOL     OW36802   2.684   0.255   4.738 -0.4099 -0.3946  0.0263
 8389SOL    HW136803   2.702   0.193   4.809 -0.4552 -1.7910 -1.2011
 8389SOL    HW236804   2.628   0.324   4.773  2.4962  0.9329  2.0753
 8390SOL     OW36805   1.810   4.130  10.326 -0.8398 -0.2798 -0.0757
 8390SOL    HW136806   1.887   4.138  10.270  0.4013 -0.2356  1.6118
 8390SOL    HW236807   1.798   4.225  10.338  0.0466 -0.3221  1.1568
 8391SOL     OW36808   3.001   3.233   5.964 -0.5973 -0.3418 -0.0655
 8391SOL    HW136809   2.914   3.197   5.984 -1.0899  0.5469 -0.6119
 8391SOL    HW236810   3.005   3.234   5.869 -0.0213 -2.2079 -0.0529
 8392SOL     OW36811   1.637   1.316   2.799 -0.2258  0.4457 -0.1838
 8392SOL    HW136812   1.721   1.276   2.822 -0.1105 -0.3139 -1.8733
 8392SOL    HW236813   1.571   1.269   2.850  1.1599 -1.0039  0.2893
 8393SOL     OW36814   3.867   1.585  12.637  0.1204  0.4813  0.3036
 8393SOL    HW136815   3.913   1.572  12.554 -0.3730 -1.1296  0.2784
 8393SOL    HW236816   3.866   1.494  12.666  1.3265  0.7194  1.0551
 8394SOL     OW36817   3.353   1.641  12.430 -0.3489 -0.7136 -0.0504
 8394SOL    HW136818   3.274   1.638  12.484 -1.2298  1.1843 -1.2416
 8394SOL    HW236819   3.325   1.699  12.359  1.1721  1.5405  1.2193
 8395SOL     OW36820   0.276   2.896   3.627  0.2378  0.0913 -0.2610
 8395SOL    HW136821   0.355   2.914   3.576  1.0432 -0.6499  0.7320
 8395SOL    HW236822   0.214   2.954   3.582 -2.0438 -0.0734  2.6411
 8396SOL     OW36823   2.766   2.746   2.940 -0.2146 -0.4574 -0.1994
 8396SOL    HW136824   2.778   2.661   2.897 -1.6556 -0.7903  0.0705
 8396SOL    HW236825   2.841   2.798   2.910  1.6179 -2.2554  1.2350
 8397SOL     OW36826   0.600   1.694  11.224 -0.0400 -0.4409  0.2463
 8397SOL    HW136827   0.654   1.634  11.276 -0.8548 -0.3880  1.1719
 8397SOL    HW236828   0.620   1.777  11.268  0.0342  0.3202 -1.2330
 8398SOL     OW36829   3.897   4.699   4.266  0.3003 -0.3870 -0.6321
 8398SOL    HW136830   3.935   4.689   4.353  0.1138 -1.3962 -0.6664
 8398SOL    HW236831   3.806   4.722   4.288  0.5467 -0.6683  0.7088
 8399SOL     OW36832   2.091   1.564  16.380 -0.2578 -1.0883  0.8469
 8399SOL    HW136833   2.045   1.574  16.463  0.6703  1.8456  1.0221
 8399SOL    HW236834   2.020   1.604  16.329  2.2106  2.7910  0.4282
 8400SOL     OW36835   0.423   4.147   1.854 -0.0247  0.7369 -1.0270
 8400SOL    HW136836   0.473   4.081   1.805  1.6556 -0.4918  2.3816
 8400SOL    HW236837   0.499   4.204   1.865 -0.1378  0.9401 -1.3013
 8401SOL     OW36838   1.089   0.804   6.501 -0.3101  0.1458 -0.3815
 8401SOL    HW136839   1.091   0.818   6.596  0.0713  0.4331 -0.4316
 8401SOL    HW236840   1.173   0.845   6.479 -0.2495  0.5810  0.6448
 8402SOL     OW36841   3.735   4.726   4.560 -0.2569 -0.2564 -0.1348
 8402SOL    HW136842   3.702   4.649   4.606 -1.1541  0.8368  1.0485
 8402SOL    HW236843   3.828   4.704   4.554 -0.1250  0.1800  0.2793
 8403SOL     OW36844   1.183   3.870   4.665 -0.0804  0.0231 -0.3498
 8403SOL    HW136845   1.093   3.871   4.633  0.1062  0.6230 -0.8703
 8403SOL    HW236846   1.184   3.818   4.744  0.0840 -0.0797 -0.4192
 8404SOL     OW36847   3.875   4.691   9.118  0.3000 -0.0288 -0.2449
 8404SOL    HW136848   3.898   4.648   9.036  0.0323  0.4510 -0.5710
 8404SOL    HW236849   3.818   0.015   9.074 -0.5185 -1.6646 -1.5544
 8405SOL     OW36850   2.199   0.966   1.598 -0.8601 -0.2972 -0.0714
 8405SOL    HW136851   2.212   0.975   1.693 -0.7682  0.1657 -0.1259
 8405SOL    HW236852   2.110   1.000   1.606 -1.5128 -1.8066 -1.0712
 8406SOL     OW36853   1.968   2.872  10.514  0.2264  0.3046 -0.0012
 8406SOL    HW136854   1.972   2.799  10.576 -0.8195 -0.4318 -0.7872
 8406SOL    HW236855   2.013   2.939  10.564 -0.1829  1.1554 -0.7770
 8407SOL     OW36856   4.448   0.337   4.344 -0.3376  0.1091  0.0226
 8407SOL    HW136857   4.464   0.370   4.256  1.0785  1.9313  0.9693
 8407SOL    HW236858   4.381   0.393   4.384 -0.3456  1.2101 -1.5658
 8408SOL     OW36859   1.459   0.913   6.957  0.2821 -0.1317 -0.2861
 8408SOL    HW136860   1.509   0.987   6.991 -0.8380  1.1359 -1.4366
 8408SOL    HW236861   1.396   0.908   7.029  1.4987 -0.4900  0.7547
 8409SOL     OW36862   2.753   4.684  13.787 -0.1571 -0.2105 -0.3228
 8409SOL    HW136863   2.794   0.015  13.836  1.3830  0.8580 -3.2176
 8409SOL    HW236864   2.705   4.731  13.720  0.3137  0.2515 -0.3339
 8410SOL     OW36865   4.729   3.438   9.171 -0.0067  0.3307 -0.1715
 8410SOL    HW136866   0.082   3.461   9.160  0.3594 -0.9937  0.1868
 8410SOL    HW236867   4.695   3.505   9.230  1.6801  2.0391 -1.1246
 8411SOL     OW36868   1.639   2.534   6.792  0.3150 -0.0541  0.5989
 8411SOL    HW136869   1.586   2.479   6.735  1.6746 -1.7025  0.9328
 8411SOL    HW236870   1.640   2.616   6.742  0.3331 -0.2155  0.3372
 8412SOL     OW36871   0.738   2.365   6.218 -0.2292  0.0626 -0.5503
 8412SOL    HW136872   0.664   2.401   6.267  0.0331  0.3046 -0.3331
 8412SOL    HW236873   0.694   2.295   6.170  2.2755 -0.2921 -2.3435
 8413SOL     OW36874   3.299   0.225   5.316 -0.2872  0.0717  0.0245
 8413SOL    HW136875   3.244   0.292   5.275  0.2099  0.6166  0.2381
 8413SOL    HW236876   3.280   0.235   5.410 -3.8983  0.0155 -0.7093
 8414SOL     OW36877   1.305   1.248   8.664  0.1267 -0.1615 -0.1217
 8414SOL    HW136878   1.290   1.156   8.646 -0.3491  0.0695 -0.9506
 8414SOL    HW236879   1.352   1.263   8.582  2.0989  0.4488  1.1228
 8415SOL     OW36880   1.633   2.683   5.375 -0.4549  0.2239  0.5740
 8415SOL    HW136881   1.634   2.758   5.435 -0.5579  1.3408 -0.8316
 8415SOL    HW236882   1.723   2.667   5.349 -0.9351 -1.2116 -0.1938
 8416SOL     OW36883   4.475   1.753   1.635  1.1643 -0.0086 -0.0179
 8416SOL    HW136884   4.528   1.814   1.686 -1.3440  3.4734 -1.6134
 8416SOL    HW236885   4.532   1.676   1.639  0.2990 -0.6741 -0.3389
 8417SOL     OW36886   4.416   0.524   3.797 -0.2424 -0.1607  0.4392
 8417SOL    HW136887   4.364   0.449   3.825 -0.8246 -0.0719 -0.4069
 8417SOL    HW236888   4.352   0.593   3.784  0.6225  0.8325  1.4199
 8418SOL     OW36889   0.101   1.656   2.175  0.6003 -0.6234 -0.2900
 8418SOL    HW136890   0.138   1.743   2.161 -0.3490 -0.4213 -1.6162
 8418SOL    HW236891   0.180   1.606   2.195 -0.4975 -1.6531  1.4580
 8419SOL     OW36892   1.233   1.300   5.175 -0.3615  0.6864 -0.3424
 8419SOL    HW136893   1.255   1.377   5.122 -2.6957  0.5565 -1.4812
 8419SOL    HW236894   1.138   1.302   5.188  0.1854  0.2394  3.4905
 8420SOL     OW36895   1.462   4.236   4.007 -0.2329 -0.1021 -0.6038
 8420SOL    HW136896   1.414   4.162   3.969 -0.2608 -0.2778 -0.2240
 8420SOL    HW236897   1.505   4.275   3.930 -1.3668  1.9869 -0.1542
 8421SOL     OW36898   0.330   4.090   3.435  0.0161  0.5988  0.5148
 8421SOL    HW136899   0.383   4.143   3.494 -0.4015  0.5921  0.8929
 8421SOL    HW236900   0.250   4.135   3.461  0.4061  1.4330  0.2758
 8422SOL     OW36901   1.760   2.958  12.346 -0.2658  0.0959 -0.0978
 8422SOL    HW136902   1.839   3.002  12.378  1.7176 -2.9470 -0.7762
 8422SOL    HW236903   1.796   2.912  12.270 -0.3738  1.2105 -0.8220
 8423SOL     OW36904   0.904   4.436   7.917  0.0985  0.0188 -0.0836
 8423SOL    HW136905   0.898   4.489   7.837 -1.4381 -0.1768 -0.1024
 8423SOL    HW236906   0.997   4.412   7.918 -0.1350 -0.8531  1.4323
 8424SOL     OW36907   3.234   4.320   6.779 -0.0935  0.3619 -0.3441
 8424SOL    HW136908   3.324   4.303   6.753  0.2693  0.2456  1.0152
 8424SOL    HW236909   3.252   4.387   6.844 -0.3141 -0.9223  1.0285
 8425SOL     OW36910   0.292   0.529  14.954  0.6099 -0.1011  0.5295
 8425SOL    HW136911   0.278   0.560  15.044 -0.0672  1.3669 -0.0850
 8425SOL    HW236912   0.310   0.438  14.978 -0.2523 -0.5538 -0.5792
 8426SOL     OW36913   2.804   0.290   0.817 -0.4046  0.1847 -0.4489
 8426SOL    HW136914   2.795   0.234   0.740  3.8294 -0.5705 -0.3723
 8426SOL    HW236915   2.810   0.378   0.780  1.4079 -0.3522 -1.4109
 8427SOL     OW36916   2.905   2.902   1.783 -0.1515 -0.8041  0.1112
 8427SOL    HW136917   2.891   2.808   1.770  1.3146 -0.9221 -0.6476
 8427SOL    HW236918   2.897   2.923   1.690 -0.4674  1.5516  0.6827
 8428SOL     OW36919   3.630   1.480  16.125 -0.1251  0.5752 -0.4997
 8428SOL    HW136920   3.549   1.431  16.135  0.7313 -0.5243  1.0870
 8428SOL    HW236921   3.610   1.536  16.050 -2.1719  1.5331  0.7574
 8429SOL     OW36922   2.141   1.526  15.063  0.6248  0.0393 -0.4687
 8429SOL    HW136923   2.180   1.532  14.975 -0.2676 -0.0999 -0.8685
 8429SOL    HW236924   2.048   1.534  15.045  0.9131 -0.5680 -2.3258
 8430SOL     OW36925   3.038   2.892   8.058 -0.5402 -0.4326  0.2632
 8430SOL    HW136926   3.110   2.928   8.006 -2.3568  2.7790  0.0337
 8430SOL    HW236927   3.032   2.962   8.123  0.5527  1.2531 -1.4616
 8431SOL     OW36928   3.944   2.294   5.425  0.1036 -0.1166 -0.2071
 8431SOL    HW136929   3.862   2.248   5.442 -0.3761  0.9761  0.4352
 8431SOL    HW236930   3.922   2.379   5.463  0.1950  0.2416 -0.9567
 8432SOL     OW36931   3.764   0.948   2.148 -0.3862  0.8627  0.5087
 8432SOL    HW136932   3.835   1.005   2.117 -1.2277  1.0986 -0.9671
 8432SOL    HW236933   3.816   0.876   2.184 -0.4404  0.7069  0.2770
 8433SOL     OW36934   0.592   4.400   8.848 -0.3067 -0.0106 -0.4563
 8433SOL    HW136935   0.673   4.451   8.854 -0.6635  0.5837 -0.7592
 8433SOL    HW236936   0.533   4.456   8.899  2.7805  2.9406 -0.1159
 8434SOL     OW36937   4.482   4.286   7.449 -0.1664  0.1385  0.5197
 8434SOL    HW136938   4.452   4.367   7.489 -2.0324  0.1310 -0.8551
 8434SOL    HW236939   4.557   4.314   7.396 -0.5096  0.5331  0.2408
 8435SOL     OW36940   3.908   0.212  10.306  0.0231 -0.0413  0.0813
 8435SOL    HW136941   3.890   0.298  10.266  1.2701 -0.7502 -1.9659
 8435SOL    HW236942   3.819   0.176  10.303  0.7299 -1.8022  0.7226
 8436SOL     OW36943   1.335   4.287   6.907 -0.2687  0.3010  0.2947
 8436SOL    HW136944   1.292   4.217   6.858  0.9619 -0.1213 -0.1889
 8436SOL    HW236945   1.294   4.364   6.870  2.7823  1.3435 -0.8912
 8437SOL     OW36946   4.593   0.824   5.353  0.8227  0.1250 -0.0199
 8437SOL    HW136947   4.548   0.852   5.433 -0.5222 -1.3635 -0.2697
 8437SOL    HW236948   4.530   0.769   5.307  2.7684 -1.3868 -0.9130
 8438SOL     OW36949   1.719   1.626   8.054 -0.3517  0.4277  0.6606
 8438SOL    HW136950   1.740   1.692   8.121  0.1211 -0.5037  1.4357
 8438SOL    HW236951   1.767   1.552   8.091  0.5209  1.2960  1.2709
 8439SOL     OW36952   0.792   0.976   6.705  0.0481  0.0031 -0.3348
 8439SOL    HW136953   0.733   1.039   6.747 -2.1638 -2.7108  0.5792
 8439SOL    HW236954   0.849   0.945   6.775  2.3362 -0.4118 -2.3604
 8440SOL     OW36955   3.100   2.847  10.721 -0.0205  0.1485  0.0131
 8440SOL    HW136956   3.126   2.935  10.694  0.0178  0.4081  0.8855
 8440SOL    HW236957   3.024   2.859  10.779  0.9379 -2.4805  1.7676
 8441SOL     OW36958   3.499   0.152   1.929  0.5752  0.4946 -0.2503
 8441SOL    HW136959   3.512   0.111   2.014 -0.8698 -0.1184 -0.3280
 8441SOL    HW236960   3.457   0.082   1.878 -1.3221 -0.1387  2.1534
 8442SOL     OW36961   2.304   1.606  13.885  0.1962  0.2895  0.2286
 8442SOL    HW136962   2.230   1.617  13.944  0.0933  0.0350  0.1470
 8442SOL    HW236963   2.278   1.521  13.849 -0.3289  0.3231  0.5290
 8443SOL     OW36964   1.469   0.226  10.830  0.1553  0.1329  0.2855
 8443SOL    HW136965   1.410   0.213  10.904  1.3015 -1.6028  0.8625
 8443SOL    HW236966   1.548   0.176  10.849  0.1130 -0.9268 -2.2592
 8444SOL     OW36967   0.996   3.309   4.056  0.3737 -0.1880  0.1382
 8444SOL    HW136968   1.051   3.382   4.028 -0.5637  0.0156 -1.1601
 8444SOL    HW236969   0.963   3.345   4.138 -2.3732 -1.6910 -0.2949
 8445SOL     OW36970   3.917   0.546   3.094  0.8087  0.0602 -0.1997
 8445SOL    HW136971   3.967   0.500   3.027  0.5395 -0.7262  0.1462
 8445SOL    HW236972   3.829   0.531   3.059  0.6956 -0.2743  0.2282
 8446SOL     OW36973   1.365   0.735  11.821 -0.2315 -0.7966  0.8308
 8446SOL    HW136974   1.437   0.673  11.812 -1.4661 -2.3114  1.3033
 8446SOL    HW236975   1.337   0.725  11.912  4.1005 -3.3327  1.8840
 8447SOL     OW36976   2.082   2.655   5.002  0.4053 -0.0347 -0.3336
 8447SOL    HW136977   2.172   2.638   5.031  0.8535  0.3357 -1.4921
 8447SOL    HW236978   2.056   2.578   4.951  0.0353 -0.7152  0.8852
 8448SOL     OW36979   3.496   4.706   9.755  0.1765 -0.0179  0.5234
 8448SOL    HW136980   3.538   0.010   9.829 -0.9659  1.6503  0.1847
 8448SOL    HW236981   3.537   4.619   9.752  0.3868  0.0055  2.4886
 8449SOL     OW36982   1.282   0.529   8.690 -0.4072 -0.0629 -0.0516
 8449SOL    HW136983   1.209   0.587   8.668 -0.6111  0.3991  1.7919
 8449SOL    HW236984   1.346   0.595   8.714  0.3072 -0.7664 -0.0117
 8450SOL     OW36985   2.594   2.674   4.249  0.6363  0.4829  0.3163
 8450SOL    HW136986   2.618   2.621   4.174  0.0290  0.6925 -0.0259
 8450SOL    HW236987   2.560   2.750   4.202  0.1181  0.2343  0.2935
 8451SOL     OW36988   4.540   2.873   7.189  0.8227 -0.2049  0.2469
 8451SOL    HW136989   4.500   2.929   7.122 -2.4617 -1.4300  1.1491
 8451SOL    HW236990   4.577   2.801   7.137  2.0495 -0.4096  1.4011
 8452SOL     OW36991   0.866   0.666   2.385  0.0559 -0.1374 -0.2294
 8452SOL    HW136992   0.806   0.707   2.448 -0.5194 -0.7160 -0.4029
 8452SOL    HW236993   0.922   0.625   2.450  0.3005  0.8525  0.1768
 8453SOL     OW36994   0.333   0.305   0.761 -0.2226 -0.3695 -0.0117
 8453SOL    HW136995   0.274   0.357   0.815 -0.6545 -1.4412  0.5430
 8453SOL    HW236996   0.320   0.218   0.800  2.4243 -1.0127 -0.5934
 8454SOL     OW36997   1.052   0.177   1.629  0.1823  0.3205 -0.2625
 8454SOL    HW136998   0.960   0.149   1.622  0.2430 -0.0706  0.5882
 8454SOL    HW236999   1.051   0.161   1.723 -0.8534  2.0851  0.0429
 8455SOL     OW37000   0.399   1.297  10.227  0.5281  0.0142 -0.3533
 8455SOL    HW137001   0.327   1.328  10.173  1.1829  2.9445  0.4321
 8455SOL    HW237002   0.392   1.338  10.314 -1.0530  2.5782 -1.7072
 8456SOL     OW37003   3.519   3.725   5.298 -0.2574  0.8590  0.7375
 8456SOL    HW137004   3.542   3.809   5.258 -0.4198  0.6559  0.2167
 8456SOL    HW237005   3.594   3.697   5.349 -1.3583 -0.8666  1.3958
 8457SOL     OW37006   0.120   1.766   0.900  0.3288 -0.0248 -0.0829
 8457SOL    HW137007   0.100   1.819   0.976  0.8266  0.4918 -0.3103
 8457SOL    HW237008   0.147   1.681   0.935  4.2197  0.1772 -2.5853
 8458SOL     OW37009   4.251   2.233   4.272 -0.5061  0.2935 -0.3704
 8458SOL    HW137010   4.171   2.267   4.311 -0.1228  1.0969 -0.2791
 8458SOL    HW237011   4.306   2.311   4.264  0.0424 -0.1816 -1.2467
 8459SOL     OW37012   0.474   3.283  13.013 -0.1300 -0.1888 -0.6014
 8459SOL    HW137013   0.462   3.374  13.041  1.6018 -0.1557  0.0171
 8459SOL    HW237014   0.569   3.278  13.015  0.1066  3.4911 -2.7603
 8460SOL     OW37015   3.398   4.054   6.664  0.4612 -0.5577 -0.1081
 8460SOL    HW137016   3.427   4.020   6.748 -1.6754 -0.5804  0.6228
 8460SOL    HW237017   3.317   4.006   6.647  0.8290 -1.4054  0.5635
 8461SOL     OW37018   4.399   1.272   8.939 -0.2690  0.1254  0.5012
 8461SOL    HW137019   4.426   1.279   8.847 -2.3738 -1.4534 -0.2600
 8461SOL    HW237020   4.477   1.288   8.991 -0.8967  1.7450  0.9448
 8462SOL     OW37021   1.961   1.438  11.812  0.1810 -0.2950 -0.0269
 8462SOL    HW137022   1.925   1.517  11.773 -1.2991  0.1712  2.3175
 8462SOL    HW237023   1.974   1.474  11.899  1.2417 -0.9457  0.0819
 8463SOL     OW37024   1.778   3.165  13.523  0.0062  0.0856 -0.0973
 8463SOL    HW137025   1.865   3.125  13.531 -0.4464 -0.7345  0.6663
 8463SOL    HW237026   1.805   3.256  13.509 -1.0824  0.5267  0.6630
 8464SOL     OW37027   0.222   1.658   4.777 -0.6857  0.7745 -0.1172
 8464SOL    HW137028   0.129   1.653   4.756  0.0163  0.6075 -3.1791
 8464SOL    HW237029   0.203   1.644   4.869  1.1640  2.3461  0.5178
 8465SOL     OW37030   2.846   2.728   6.265 -0.3484 -0.4695  0.3836
 8465SOL    HW137031   2.800   2.812   6.258  2.6265  0.9654 -2.0116
 8465SOL    HW237032   2.813   2.672   6.195 -0.4479 -0.2858  0.2838
 8466SOL     OW37033   3.223   4.473   5.113 -0.1420 -0.2764 -0.0095
 8466SOL    HW137034   3.255   4.563   5.121 -1.0194  0.1768 -1.6035
 8466SOL    HW237035   3.169   4.470   5.192  0.0586 -1.9703  0.0699
 8467SOL     OW37036   0.335   2.997   6.953 -0.2547  0.5934  0.7746
 8467SOL    HW137037   0.341   3.018   6.860  0.8290  1.1471  0.9643
 8467SOL    HW237038   0.395   2.923   6.951 -1.7763 -0.5969 -1.2443
 8468SOL     OW37039   1.761   0.403  12.536  0.1338  0.7477  0.4401
 8468SOL    HW137040   1.794   0.440  12.618  0.7496 -2.3866  1.6072
 8468SOL    HW237041   1.777   0.478  12.479  0.2720 -0.0232 -0.5382
 8469SOL     OW37042   3.821   4.504  13.138 -0.2677  0.2626  0.2210
 8469SOL    HW137043   3.805   4.597  13.155 -3.3062 -0.3396  0.6337
 8469SOL    HW237044   3.916   4.510  13.131 -0.0779 -0.7243  1.9811
 8470SOL     OW37045   1.691   4.329  17.607  0.0687 -0.0456  0.0716
 8470SOL    HW137046   1.650   4.405  17.650 -0.8462 -0.0626 -0.7794
 8470SOL    HW237047   1.613   4.278  17.588  0.9272 -2.2228  2.3421
 8471SOL     OW37048   2.928   2.876  13.400 -0.0763  0.0658 -0.3343
 8471SOL    HW137049   3.021   2.901  13.398 -0.1155  0.3237  0.8524
 8471SOL    HW237050   2.934   2.786  13.432 -0.2763  0.0558 -0.3255
 8472SOL     OW37051   1.044   3.862   7.737  0.3455 -0.1369  0.2737
 8472SOL    HW137052   0.977   3.841   7.672 -0.6732  1.3198  0.8622
 8472SOL    HW237053   1.093   3.783   7.715  0.4270 -0.5352  1.8759
 8473SOL     OW37054   1.783   3.719   4.920 -0.3139 -0.5889  0.1553
 8473SOL    HW137055   1.794   3.794   4.978 -1.3461  0.5322 -1.1050
 8473SOL    HW237056   1.803   3.755   4.834 -1.9136  0.6966  0.3193
 8474SOL     OW37057   2.069   3.013   5.562  0.3976 -0.3504 -0.2789
 8474SOL    HW137058   2.108   2.950   5.502  0.1109 -1.1205  0.3302
 8474SOL    HW237059   1.990   3.044   5.517 -1.2899  0.8443  3.4591
 8475SOL     OW37060   0.831   4.053  14.339  1.1346 -0.5142  0.0857
 8475SOL    HW137061   0.739   4.067  14.316  1.5382 -0.4029 -1.4600
 8475SOL    HW237062   0.824   4.065  14.434  0.1504  2.3500 -0.3427
 8476SOL     OW37063   2.765   2.289   4.518 -0.1200 -0.0263 -0.1664
 8476SOL    HW137064   2.840   2.239   4.551  0.9705  0.3997 -2.0315
 8476SOL    HW237065   2.708   2.214   4.500  4.7463 -3.5903 -0.6146
 8477SOL     OW37066   0.425   2.545   2.071  0.5246  0.5281  0.0706
 8477SOL    HW137067   0.379   2.628   2.068 -0.4118 -0.0023 -0.2905
 8477SOL    HW237068   0.354   2.481   2.080 -0.7685  2.3916  2.7659
 8478SOL     OW37069   2.058   1.984   4.971  0.4390  0.1108  0.5088
 8478SOL    HW137070   1.964   1.975   4.988 -0.2799  2.3340 -2.2783
 8478SOL    HW237071   2.049   2.061   4.915 -0.4035 -0.0493  0.4253
 8479SOL     OW37072   2.085   3.578   3.919  0.2240 -0.6959  0.2465
 8479SOL    HW137073   2.129   3.641   3.863  1.1366 -1.5355  0.0184
 8479SOL    HW237074   2.069   3.498   3.869 -4.5855  0.3618  0.0889
 8480SOL     OW37075   0.420   1.101  16.479  0.3229 -0.1503 -0.5770
 8480SOL    HW137076   0.460   1.184  16.505  0.3425  0.1145 -1.4367
 8480SOL    HW237077   0.500   1.071  16.435  0.1505  0.6164 -1.4037
 8481SOL     OW37078   1.805   3.256   8.008  0.1902  0.4591  0.8610
 8481SOL    HW137079   1.865   3.182   7.997 -0.6461 -0.2643  1.1721
 8481SOL    HW237080   1.763   3.249   7.922  1.0517 -0.6545  0.5188
 8482SOL     OW37081   0.863   1.027   3.341  0.2389  0.2435 -0.0757
 8482SOL    HW137082   0.785   0.999   3.389  1.0117 -1.3960  0.2227
 8482SOL    HW237083   0.838   1.098   3.282 -1.5426  0.5108  1.0124
 8483SOL     OW37084   4.676   3.250   3.698 -0.5698  0.0368  0.6277
 8483SOL    HW137085   4.726   3.313   3.646 -2.7108  2.3468  1.3676
 8483SOL    HW237086   4.735   3.248   3.773  1.7039  1.1279 -1.1455
 8484SOL     OW37087   2.182   2.487  13.536 -0.8760 -0.0934 -0.1330
 8484SOL    HW137088   2.193   2.417  13.471  1.2923 -0.2968  0.4297
 8484SOL    HW237089   2.147   2.429  13.604 -0.8854 -0.3397 -0.3473
 8485SOL     OW37090   2.141   0.440   8.617 -0.1776  0.7163  0.0354
 8485SOL    HW137091   2.129   0.504   8.687 -0.6750 -1.1146  1.6409
 8485SOL    HW237092   2.056   0.397   8.632 -0.4921  0.5426 -2.2066
 8486SOL     OW37093   2.944   3.908   5.805 -0.5428 -0.3510 -0.0744
 8486SOL    HW137094   2.979   3.927   5.892 -0.4373  1.1974 -0.4526
 8486SOL    HW237095   3.002   3.955   5.746 -0.6431  0.5484  0.5467
 8487SOL     OW37096   2.407   4.567   6.862 -0.0904  0.5032  0.5341
 8487SOL    HW137097   2.354   4.598   6.789 -0.9741 -2.3119 -0.0098
 8487SOL    HW237098   2.468   4.639   6.880  0.8926 -0.3406  0.5520
 8488SOL     OW37099   0.909   0.691   0.794  0.0975 -0.0319  0.1724
 8488SOL    HW137100   0.868   0.616   0.751 -0.7027  0.8280 -0.5595
 8488SOL    HW237101   0.825   0.730   0.818  1.1350  2.4306 -0.2298
 8489SOL     OW37102   0.452   1.317   8.607 -0.3688  0.5769 -0.1485
 8489SOL    HW137103   0.497   1.394   8.571 -0.4700  1.2386  1.1437
 8489SOL    HW237104   0.382   1.313   8.541 -0.2168  0.5160 -0.3034
 8490SOL     OW37105   0.153   3.160   5.390  0.1797 -0.3364 -0.0537
 8490SOL    HW137106   0.210   3.173   5.314  0.4689  1.4377  0.4668
 8490SOL    HW237107   0.216   3.158   5.462 -1.6582 -2.0888  1.5292
 8491SOL     OW37108   4.119   1.396   8.169 -0.6652 -0.0555 -0.5581
 8491SOL    HW137109   4.142   1.325   8.109 -0.0853  0.5605 -1.0616
 8491SOL    HW237110   4.101   1.339   8.245  0.9115  1.0404  0.6329
 8492SOL     OW37111   4.130   3.906   6.916  0.1663 -0.5943 -0.0934
 8492SOL    HW137112   4.093   3.857   6.842 -0.8706 -2.7232  1.8577
 8492SOL    HW237113   4.071   3.894   6.990 -0.5481  0.7072 -0.4468
 8493SOL     OW37114   3.066   4.305   4.365 -0.4835  0.3600  0.0161
 8493SOL    HW137115   3.061   4.240   4.435 -0.7464 -1.3034 -1.5424
 8493SOL    HW237116   3.156   4.301   4.335 -1.1750  2.5674 -2.4279
 8494SOL     OW37117   3.801   3.806   0.114  0.4085  0.2350 -0.0914
 8494SOL    HW137118   3.713   3.786   0.082  0.1161 -0.5135  1.1714
 8494SOL    HW237119   3.843   3.789   0.030 -1.2605 -0.2750 -0.8377
 8495SOL     OW37120   3.225   0.617   2.349 -0.1450 -0.6513 -0.5884
 8495SOL    HW137121   3.228   0.616   2.253 -0.9795 -0.7790 -0.6141
 8495SOL    HW237122   3.181   0.698   2.373  3.6188  1.2167  0.0682
 8496SOL     OW37123   0.058   0.056   4.084 -0.3508 -0.3686  0.3015
 8496SOL    HW137124   4.737   0.003   4.032  1.1282  0.5166 -2.3220
 8496SOL    HW237125   0.001   0.079   4.157 -2.2799 -2.5383 -0.5336
 8497SOL     OW37126   1.266   2.791   4.600 -0.3270  0.7173  0.0890
 8497SOL    HW137127   1.301   2.864   4.549 -1.4056  0.6461 -0.7509
 8497SOL    HW237128   1.337   2.779   4.663  0.5017 -0.9879 -1.1705
 8498SOL     OW37129   2.577   0.214   9.138  0.8917  0.1204  0.2122
 8498SOL    HW137130   2.630   0.140   9.107  1.6792  0.6399  0.3079
 8498SOL    HW237131   2.624   0.284   9.093 -0.5009  1.6665  1.1944
 8499SOL     OW37132   3.988   4.220   7.792 -0.5355 -0.5607  1.0040
 8499SOL    HW137133   3.955   4.299   7.834 -1.1664 -0.9190  1.1712
 8499SOL    HW237134   4.065   4.209   7.847 -1.6706  1.3838  2.9541
 8500SOL     OW37135   0.819   3.877  16.051 -0.2458  0.5862  0.2347
 8500SOL    HW137136   0.748   3.891  16.114 -1.5274  0.3595 -1.1573
 8500SOL    HW237137   0.765   3.894  15.974 -0.0992 -1.8430 -0.3957
 8501SOL     OW37138   3.805   2.117  10.771 -0.6513 -0.1304  0.0066
 8501SOL    HW137139   3.882   2.116  10.713  0.0411 -1.4419  0.9595
 8501SOL    HW237140   3.746   2.050  10.737 -0.3675  0.1468 -1.0537
 8502SOL     OW37141   1.712   1.703   8.340  0.2162  0.2070  0.0842
 8502SOL    HW137142   1.617   1.696   8.345  0.1597  0.3460 -0.7176
 8502SOL    HW237143   1.744   1.712   8.429  1.8525 -0.0682 -0.4762
 8503SOL     OW37144   2.900   4.296  11.903  0.3715 -0.1325 -0.3890
 8503SOL    HW137145   2.876   4.204  11.897  0.7456 -0.2593  0.0838
 8503SOL    HW237146   2.879   4.319  11.994  1.6455  1.3906 -0.4668
 8504SOL     OW37147   2.703   3.069   9.490  0.3163 -0.4041  0.3973
 8504SOL    HW137148   2.744   3.022   9.562 -0.0088 -1.6956 -0.2551
 8504SOL    HW237149   2.641   3.135   9.523  0.2241  0.3175 -1.1860
 8505SOL     OW37150   2.838   3.585   5.153 -0.0914  0.4051  0.3920
 8505SOL    HW137151   2.922   3.611   5.189 -1.0027  2.4235  1.0778
 8505SOL    HW237152   2.839   3.494   5.183 -4.9665  0.1228 -0.2774
 8506SOL     OW37153   2.827   0.944   3.548 -0.0707 -0.1150  0.6415
 8506SOL    HW137154   2.743   0.920   3.588  0.9661 -3.8936  0.5860
 8506SOL    HW237155   2.802   1.027   3.507 -3.6028 -1.3758  0.1720
 8507SOL     OW37156   0.223   2.760   1.589  0.2475  0.2902 -0.7180
 8507SOL    HW137157   0.177   2.815   1.653  1.3937  1.6724 -1.0756
 8507SOL    HW237158   0.289   2.740   1.655 -1.2954  2.6792  1.6049
 8508SOL     OW37159   1.466   2.782  10.238  0.2535  0.3394 -0.0335
 8508SOL    HW137160   1.405   2.713  10.214 -0.0446  0.4371  0.4317
 8508SOL    HW237161   1.449   2.775  10.332  2.9962  2.1593  0.5792
 8509SOL     OW37162   3.841   1.587   7.939  0.0881  0.3763  0.0151
 8509SOL    HW137163   3.790   1.587   8.020  0.8390  0.1007  0.4814
 8509SOL    HW237164   3.873   1.497   7.936 -1.0611 -0.0100 -0.9106
 8510SOL     OW37165   0.758   3.157   3.123 -0.0979  0.3143 -0.0731
 8510SOL    HW137166   0.709   3.195   3.051 -1.0579  0.6077  0.7378
 8510SOL    HW237167   0.843   3.151   3.079 -1.5018  0.5619 -2.7759
 8511SOL     OW37168   0.038   4.123   3.528 -0.1288 -0.1148  0.1648
 8511SOL    HW137169   0.028   4.028   3.521 -1.8378  0.1461 -0.8258
 8511SOL    HW237170   4.697   4.154   3.568 -0.9458 -1.5450 -0.3602
 8512SOL     OW37171   1.707   0.986   2.914  0.1456  0.4616 -0.0914
 8512SOL    HW137172   1.714   1.047   2.987  0.3974  0.0922  0.1942
 8512SOL    HW237173   1.614   0.987   2.890  0.2812 -1.2114 -0.7259
 8513SOL     OW37174   0.911   4.522  11.772  0.2924  0.4040 -0.4562
 8513SOL    HW137175   0.853   4.472  11.714 -1.7382  1.1483  0.9176
 8513SOL    HW237176   0.969   4.455  11.808  0.3103  0.6773  0.0319
 8514SOL     OW37177   0.676   2.082   9.257  0.4786  0.2798 -0.2437
 8514SOL    HW137178   0.632   2.144   9.198  1.4145  1.3449  0.1653
 8514SOL    HW237179   0.626   2.003   9.235 -2.1970  1.6722  0.8383
 8515SOL     OW37180   2.412   0.279  13.158 -0.6628 -0.8461 -0.1301
 8515SOL    HW137181   2.366   0.348  13.109 -0.0251 -1.5479 -1.7262
 8515SOL    HW237182   2.389   0.208  13.098 -0.0505 -3.5481  2.8901
 8516SOL     OW37183   0.273   4.632   5.730  0.4549 -0.3272 -0.3604
 8516SOL    HW137184   0.284   4.546   5.689 -1.6387 -0.0832 -1.3930
 8516SOL    HW237185   0.346   4.679   5.689  1.5958 -0.6370  1.3019
 8517SOL     OW37186   0.329   3.608   6.099 -0.3104 -0.6064 -0.3933
 8517SOL    HW137187   0.370   3.569   6.021  0.2115 -0.4929 -0.1781
 8517SOL    HW237188   0.249   3.556   6.108 -0.9935  0.4851 -0.1337
 8518SOL     OW37189   2.302   0.965   7.048 -0.4924  0.3054  0.4611
 8518SOL    HW137190   2.295   0.870   7.051 -0.4057  0.3433  2.2423
 8518SOL    HW237191   2.340   0.980   7.135 -2.3029  2.0650  0.9608
 8519SOL     OW37192   2.355   4.073   2.825 -0.3032 -0.0307  0.2542
 8519SOL    HW137193   2.450   4.074   2.830 -0.3251 -0.7066  0.8131
 8519SOL    HW237194   2.337   4.124   2.904  0.8397  1.1994 -0.2884
 8520SOL     OW37195   1.317   4.336   1.926  0.1666  0.4967  0.3012
 8520SOL    HW137196   1.393   4.325   1.983  1.8434  2.0617 -1.6283
 8520SOL    HW237197   1.306   4.430   1.945  0.8264  0.7595 -0.6384
 8521SOL     OW37198   4.369   0.285  10.003 -0.7268 -0.6391  0.4417
 8521SOL    HW137199   4.308   0.325   9.940  0.3175  1.6147  0.8514
 8521SOL    HW237200   4.318   0.258  10.079 -0.3112 -0.7246  0.6895
 8522SOL     OW37201   0.367   0.466  17.360 -0.1846  0.4691 -0.4769
 8522SOL    HW137202   0.294   0.518  17.393  0.2040  1.7289 -1.6092
 8522SOL    HW237203   0.326   0.457  17.274 -1.3060 -1.0961  0.2128
 8523SOL     OW37204   4.405   3.181   1.731 -0.0933  0.0190 -0.1297
 8523SOL    HW137205   4.342   3.131   1.680  0.7994 -1.1292 -0.1093
 8523SOL    HW237206   4.448   3.240   1.669  1.2851 -2.4233 -1.5049
 8524SOL     OW37207   3.981   0.532   1.848 -0.2651 -0.7941  0.2122
 8524SOL    HW137208   3.915   0.550   1.781 -0.7117  0.1812  0.9229
 8524SOL    HW237209   3.935   0.465   1.898 -1.4361  1.2016  1.7725
 8525SOL     OW37210   1.229   4.272  12.086 -0.4176  0.0530  0.1316
 8525SOL    HW137211   1.233   4.279  12.181  1.5808  0.6888  0.0024
 8525SOL    HW237212   1.271   4.190  12.060 -0.9327 -0.4802  0.9803
 8526SOL     OW37213   2.656   4.128   2.834 -0.0153  0.5828 -0.7006
 8526SOL    HW137214   2.749   4.114   2.850  0.4346  2.5801 -1.4685
 8526SOL    HW237215   2.647   4.133   2.739 -2.2589 -1.4143 -0.5653
 8527SOL     OW37216   2.119   2.315   7.771  0.1280 -0.0383  0.3614
 8527SOL    HW137217   2.173   2.292   7.847 -0.1191  1.1027  0.8874
 8527SOL    HW237218   2.103   2.408   7.787 -1.0614 -0.0514 -0.7948
 8528SOL     OW37219   0.316   1.375   7.597 -0.8942  0.5228  0.2462
 8528SOL    HW137220   0.282   1.286   7.604  1.8740 -0.5050  0.5875
 8528SOL    HW237221   0.237   1.426   7.583 -0.3029  1.4949  0.4313
 8529SOL     OW37222   0.370   3.184   9.012 -0.0241  0.3190 -0.2217
 8529SOL    HW137223   0.328   3.102   9.037  0.1670 -0.3088 -1.9474
 8529SOL    HW237224   0.294   3.218   8.965  0.0693  0.0400 -0.5698
 8530SOL     OW37225   3.889   2.401   7.764 -0.3611  0.0632  0.5841
 8530SOL    HW137226   3.910   2.332   7.701 -0.7496  0.1005  0.4094
 8530SOL    HW237227   3.975   2.440   7.773 -0.3925  0.3834 -0.4423
 8531SOL     OW37228   3.085   1.707   5.196 -0.4302 -0.1231  0.2390
 8531SOL    HW137229   3.123   1.654   5.266 -0.1541 -0.4479 -0.1648
 8531SOL    HW237230   3.004   1.745   5.232  0.6730  0.5738  1.9719
 8532SOL     OW37231   1.603   3.031  13.661  0.0909  0.1043  0.1109
 8532SOL    HW137232   1.676   3.061  13.607 -0.6462  1.5690 -0.0646
 8532SOL    HW237233   1.595   2.937  13.644 -1.8201 -0.2940  3.1034
 8533SOL     OW37234   3.734   1.376   0.979 -0.2602  0.0123 -0.3489
 8533SOL    HW137235   3.767   1.310   1.039  1.0203  0.8977 -0.0898
 8533SOL    HW237236   3.770   1.345   0.896  0.4450 -0.3554  0.0949
 8534SOL     OW37237   1.821   1.401   8.649 -0.9195  0.0154 -0.0441
 8534SOL    HW137238   1.818   1.326   8.589 -2.2960 -0.3670  0.4960
 8534SOL    HW237239   1.909   1.434   8.632 -1.6456  3.0512  2.0693
 8535SOL     OW37240   4.711   2.265  12.694  0.4521 -0.0180  0.2157
 8535SOL    HW137241   0.002   2.220  12.772 -0.4035  1.4399  1.4042
 8535SOL    HW237242   0.052   2.285  12.648 -0.1702 -1.9463 -1.7178
 8536SOL     OW37243   1.495   1.063   9.535 -0.1093  0.3940  0.3690
 8536SOL    HW137244   1.578   1.106   9.517 -0.1756  0.9313  1.3527
 8536SOL    HW237245   1.457   1.144   9.570 -2.3939 -1.0445  1.2642
 8537SOL     OW37246   2.819   2.169   9.263  0.5055  0.3398  0.1637
 8537SOL    HW137247   2.792   2.102   9.325 -0.3354  0.2967 -0.2480
 8537SOL    HW237248   2.902   2.187   9.306  1.2995 -0.2358 -1.1052
 8538SOL     OW37249   0.884   4.238   6.344  0.4039  0.9648  0.5827
 8538SOL    HW137250   0.869   4.289   6.264  1.6100 -0.3370 -0.4763
 8538SOL    HW237251   0.844   4.300   6.405  0.7873 -0.1683  1.9936
 8539SOL     OW37252   0.267   1.145   5.988 -0.0959  0.0213 -0.1574
 8539SOL    HW137253   0.345   1.200   5.998  0.7786 -1.2358 -0.0857
 8539SOL    HW237254   0.201   1.198   6.032  1.6550  1.4474  0.7633
 8540SOL     OW37255   3.904   3.144   6.232  0.6125 -0.3884 -0.1689
 8540SOL    HW137256   3.913   3.224   6.181 -2.5135 -0.2094 -0.4350
 8540SOL    HW237257   3.811   3.141   6.256  0.2760  0.1017 -1.4063
 8541SOL     OW37258   4.466   0.025   6.282  0.7241  0.3394  0.6922
 8541SOL    HW137259   4.469   0.086   6.356 -0.6208  0.8483  0.3254
 8541SOL    HW237260   4.530   4.702   6.314  1.6943  0.8539 -0.2754
 8542SOL     OW37261   4.060   0.488   6.345  0.1306  0.4499 -0.2697
 8542SOL    HW137262   4.060   0.497   6.249 -0.7157 -0.7785 -0.3779
 8542SOL    HW237263   4.064   0.581   6.370 -0.5212  0.7336 -1.2303
 8543SOL     OW37264   2.386   0.808   8.319 -0.5313 -0.2752  0.0763
 8543SOL    HW137265   2.314   0.784   8.378  1.3144  1.2620  2.9731
 8543SOL    HW237266   2.366   0.898   8.295  0.4136  0.1905  1.0612
 8544SOL     OW37267   1.789   2.011  15.022 -0.2368  0.7034 -0.1937
 8544SOL    HW137268   1.785   1.993  15.116  0.3218  1.3809 -0.0396
 8544SOL    HW237269   1.755   2.100  15.023  1.5176  1.4360 -4.3152
 8545SOL     OW37270   3.172   3.823  12.083 -0.2040  0.3635 -0.4472
 8545SOL    HW137271   3.211   3.738  12.064  2.1638  1.5507 -0.8977
 8545SOL    HW237272   3.082   3.793  12.089  0.0109 -0.4800 -1.5202
 8546SOL     OW37273   2.402   4.198  12.799  0.0929 -0.1432  0.0191
 8546SOL    HW137274   2.322   4.154  12.828 -0.4362  0.7461 -0.0815
 8546SOL    HW237275   2.377   4.244  12.719 -1.6305  1.8967  1.7455
 8547SOL     OW37276   3.575   2.000   9.004  0.1717  0.3868  0.1699
 8547SOL    HW137277   3.620   1.917   9.021  2.6076  1.5389 -0.6104
 8547SOL    HW237278   3.575   2.038   9.092  1.1963 -0.3424  0.4808
 8548SOL     OW37279   1.845   1.556   5.058  0.5538  0.0012  0.3492
 8548SOL    HW137280   1.919   1.539   5.000 -1.3921  0.6534 -2.3508
 8548SOL    HW237281   1.781   1.582   4.991  0.7353  0.5589  0.3906
 8549SOL     OW37282   1.553   1.201  17.135  0.5090  0.1095 -0.4348
 8549SOL    HW137283   1.469   1.237  17.108  1.1433  1.7363 -0.2317
 8549SOL    HW237284   1.616   1.239  17.073  0.8190 -1.2847 -0.9750
 8550SOL     OW37285   3.368   2.581   8.094  0.4137  0.0182 -0.1030
 8550SOL    HW137286   3.412   2.539   8.168 -1.3396 -1.8712 -0.1279
 8550SOL    HW237287   3.428   2.650   8.066  0.7460 -0.2786 -0.1293
 8551SOL     OW37288   4.227   4.351   6.161  0.1471 -0.1850  0.4347
 8551SOL    HW137289   4.236   4.431   6.212  0.6861 -1.7205  2.7578
 8551SOL    HW237290   4.312   4.340   6.119  0.5902 -0.2711  1.3476
 8552SOL     OW37291   4.545   0.970   1.758 -0.2003  0.3518 -0.1810
 8552SOL    HW137292   4.479   0.985   1.691  0.4852 -2.4327 -1.4535
 8552SOL    HW237293   4.623   0.972   1.703  0.1883 -1.3656  0.3062
 8553SOL     OW37294   3.948   0.521  12.841 -0.3330 -0.1470 -0.4615
 8553SOL    HW137295   3.943   0.549  12.750 -1.2743  2.2095  0.3343
 8553SOL    HW237296   3.908   0.434  12.829  1.5973 -1.1909  0.5561
 8554SOL     OW37297   1.775   2.125   7.585 -0.3159 -0.1658 -0.3490
 8554SOL    HW137298   1.725   2.207   7.580  1.2401  0.6941 -1.9810
 8554SOL    HW237299   1.744   2.089   7.668  0.5452 -0.7344 -0.2746
 8555SOL     OW37300   0.139   3.462   2.543  0.2730 -0.4744  0.4859
 8555SOL    HW137301   0.158   3.550   2.578  1.8210 -0.3071 -0.7662
 8555SOL    HW237302   0.057   3.449   2.589  0.5256  0.3061  1.1581
 8556SOL     OW37303   0.438   1.035  15.480  0.0481  0.0056 -0.3890
 8556SOL    HW137304   0.391   1.119  15.482 -0.6074 -0.3164 -1.9126
 8556SOL    HW237305   0.513   1.057  15.425 -0.2264 -1.6058 -1.4047
 8557SOL     OW37306   0.046   0.621  14.877  0.6532  0.0734 -0.2762
 8557SOL    HW137307   0.134   0.593  14.904  1.1127  1.9488  0.2098
 8557SOL    HW237308   0.049   0.585  14.789  3.0950 -0.8469  0.1711
 8558SOL     OW37309   0.990   0.980   6.254  0.9189 -0.2930  0.0457
 8558SOL    HW137310   1.031   0.942   6.332  0.0784  1.8325  1.5407
 8558SOL    HW237311   0.900   0.949   6.253  0.1526  1.9585 -0.1384
 8559SOL     OW37312   4.055   4.565   8.529  0.1730 -0.3597 -0.2079
 8559SOL    HW137313   4.120   4.587   8.462  0.4711 -2.5823 -0.6409
 8559SOL    HW237314   4.088   4.610   8.607  2.5686  0.7914 -1.9028
 8560SOL     OW37315   0.199   0.466  10.812  0.4560  0.2783  0.2206
 8560SOL    HW137316   0.110   0.430  10.815 -0.0699  1.6514  1.5624
 8560SOL    HW237317   0.192   0.525  10.737  0.8908  0.7372  0.5362
 8561SOL     OW37318   2.163   1.048  16.906  0.1656  0.4084 -0.1500
 8561SOL    HW137319   2.238   1.073  16.852 -0.9094  0.9859 -1.3909
 8561SOL    HW237320   2.087   1.090  16.865  1.4686  0.2007 -2.8305
 8562SOL     OW37321   3.661   1.692  10.182 -0.5069 -0.1426  0.1602
 8562SOL    HW137322   3.588   1.630  10.182  0.6327 -1.4622  1.6428
 8562SOL    HW237323   3.661   1.712  10.088 -1.8681  2.3214  0.6722
 8563SOL     OW37324   4.643   2.068   0.916 -0.3200 -0.1397  0.1434
 8563SOL    HW137325   4.649   2.053   1.010 -0.7310  0.4637  0.2646
 8563SOL    HW237326   4.709   2.137   0.912  0.3249 -0.7751 -0.2403
 8564SOL     OW37327   0.189   1.134   7.645 -0.0157  0.1256  0.1435
 8564SOL    HW137328   0.243   1.055   7.641 -1.1679 -0.5868 -1.4884
 8564SOL    HW237329   0.148   1.115   7.729  0.2181 -0.4393  0.1264
 8565SOL     OW37330   3.946   0.058   3.751 -0.1315  0.2525  0.2350
 8565SOL    HW137331   3.895   0.131   3.716 -1.4336 -0.1291  1.3137
 8565SOL    HW237332   3.936   0.080   3.844 -0.1861 -2.0077  0.7523
 8566SOL     OW37333   3.147   1.331   9.154  0.3342 -0.2463  0.4673
 8566SOL    HW137334   3.109   1.382   9.082 -0.6091 -0.7153  0.6298
 8566SOL    HW237335   3.078   1.267   9.173 -0.1047  0.4942  1.3821
 8567SOL     OW37336   1.781   0.625  16.740 -0.2350  0.2601 -0.0340
 8567SOL    HW137337   1.801   0.662  16.826  1.7062  0.9976 -0.7904
 8567SOL    HW237338   1.690   0.654  16.737 -0.4416 -0.3408  0.4649
 8568SOL     OW37339   1.360   2.432   2.099 -0.0576 -0.0659  0.3627
 8568SOL    HW137340   1.339   2.386   2.180 -0.4454 -1.3627 -0.4692
 8568SOL    HW237341   1.402   2.355   2.060  1.7945 -0.2124  2.6300
 8569SOL     OW37342   3.994   4.353   6.031 -0.0586 -0.0964  0.6280
 8569SOL    HW137343   3.938   4.364   6.108 -1.1952 -0.9123 -0.0826
 8569SOL    HW237344   4.083   4.337   6.063  0.7587 -1.7277 -2.4694
 8570SOL     OW37345   3.524   1.558   9.376  0.3709  0.9207  0.0146
 8570SOL    HW137346   3.432   1.534   9.389  0.0970  2.1183  0.3093
 8570SOL    HW237347   3.517   1.586   9.285 -1.3916  1.6132  0.3714
 8571SOL     OW37348   3.838   3.693   6.313  0.4402  0.3572  0.0631
 8571SOL    HW137349   3.810   3.612   6.271 -0.3542  0.8924 -0.4301
 8571SOL    HW237350   3.932   3.701   6.294  0.2372 -2.9413 -2.3705
 8572SOL     OW37351   2.722   0.031   9.690 -0.1821 -0.4555  0.2859
 8572SOL    HW137352   2.811   0.046   9.658 -0.3431 -0.6158 -0.2356
 8572SOL    HW237353   2.729   4.687   9.736 -1.3959 -0.5431  0.2943
 8573SOL     OW37354   0.960   4.579   7.685  0.0375 -0.4047 -0.4840
 8573SOL    HW137355   0.948   4.673   7.678 -0.8164 -0.4410  0.4180
 8573SOL    HW237356   0.997   4.557   7.600  0.9693 -0.6765 -0.0027
 8574SOL     OW37357   1.887   0.740   0.402 -0.5630  0.1470  0.1542
 8574SOL    HW137358   1.942   0.679   0.451 -0.3292  0.1750 -0.0730
 8574SOL    HW237359   1.950   0.811   0.386  0.3572 -1.0284 -1.5269
 8575SOL     OW37360   2.272   2.264   5.607 -0.0558 -0.3664  0.3118
 8575SOL    HW137361   2.218   2.197   5.649  1.0565 -1.4208  0.0964
 8575SOL    HW237362   2.209   2.303   5.547  0.8468  1.8724  0.8230
 8576SOL     OW37363   3.160   0.862   8.145  0.0980 -0.3117  0.2310
 8576SOL    HW137364   3.115   0.778   8.152 -3.7263  1.7581  0.5441
 8576SOL    HW237365   3.098   0.920   8.190 -1.4834 -0.5811 -1.5577
 8577SOL     OW37366   0.261   0.446   8.955  0.3637  0.0175 -0.4690
 8577SOL    HW137367   0.221   0.370   8.996  1.9317 -1.0040 -0.8256
 8577SOL    HW237368   0.350   0.434   8.987  0.6441 -0.1161 -1.2820
 8578SOL     OW37369   4.216   0.740   7.665 -0.0745 -0.2392  0.4759
 8578SOL    HW137370   4.232   0.733   7.760  2.2428  2.5134  0.3037
 8578SOL    HW237371   4.124   0.724   7.645 -0.3286  2.1866 -0.2648
 8579SOL     OW37372   1.528   4.658   8.483 -0.0454  0.4147 -0.6074
 8579SOL    HW137373   1.434   4.655   8.501 -0.4567 -1.0209 -3.0526
 8579SOL    HW237374   1.549   4.632   8.572 -1.0476 -0.8361 -0.7284
 8580SOL     OW37375   0.938   3.048  13.124  0.6035 -0.2023 -0.4693
 8580SOL    HW137376   1.026   3.010  13.117  0.1784 -1.3331  0.3725
 8580SOL    HW237377   0.950   3.094  13.207  1.6540 -0.3753 -0.5130
 8581SOL     OW37378   0.501   3.930   1.414  0.1504  0.0140  0.0814
 8581SOL    HW137379   0.566   3.913   1.347 -2.8042 -0.2526 -2.7001
 8581SOL    HW237380   0.441   3.985   1.364 -1.9340 -2.7865 -0.5114
 8582SOL     OW37381   2.857   1.341   8.151 -0.6428 -0.2791  0.2136
 8582SOL    HW137382   2.877   1.290   8.230  1.1638 -2.2779 -1.5459
 8582SOL    HW237383   2.941   1.386   8.146  0.7923 -2.7960  1.6842
 8583SOL     OW37384   2.343   4.706   5.566  0.5491 -0.3651  0.5191
 8583SOL    HW137385   2.288   0.037   5.532 -0.1571 -1.1990 -0.0880
 8583SOL    HW237386   2.427   0.000   5.536 -0.3779  1.9125  0.4990
 8584SOL     OW37387   4.593   3.666   4.930 -0.1170  0.4645 -0.4685
 8584SOL    HW137388   4.587   3.739   4.869  1.4887 -0.6465 -1.9558
 8584SOL    HW237389   4.570   3.710   5.012  2.7945 -0.2535  0.7320
 8585SOL     OW37390   0.158   2.725   5.696 -0.3305  0.3839  0.4662
 8585SOL    HW137391   0.098   2.748   5.625 -0.2519  2.4874  1.0793
 8585SOL    HW237392   0.160   2.806   5.746  2.2709  1.3726 -1.2814
 8586SOL     OW37393   0.208   3.078   4.439 -0.1558  0.3956  0.2028
 8586SOL    HW137394   0.223   3.144   4.507  1.2962 -0.1877  0.4594
 8586SOL    HW237395   0.265   3.009   4.474  0.4182  0.3456 -0.8354
 8587SOL     OW37396   0.765   3.233  13.038  0.6654  0.5740 -0.1492
 8587SOL    HW137397   0.738   3.218  13.129 -1.3279 -1.4894 -1.0965
 8587SOL    HW237398   0.835   3.167  13.044 -0.0383 -0.2976 -1.5106
 8588SOL     OW37399   1.191   1.872   3.093  0.5049 -0.5702  0.1840
 8588SOL    HW137400   1.221   1.917   3.172  0.8190 -1.1706  0.4047
 8588SOL    HW237401   1.096   1.874   3.093  0.5241  1.1388 -0.5226
 8589SOL     OW37402   3.011   3.197   5.702 -0.6810  0.4481  0.0823
 8589SOL    HW137403   3.102   3.193   5.731 -1.0985 -1.6780  1.1439
 8589SOL    HW237404   2.998   3.112   5.660 -1.2990 -0.9314  3.0866
 8590SOL     OW37405   4.097   1.372   2.614  0.3824 -0.1066  0.1761
 8590SOL    HW137406   4.089   1.333   2.527  0.4619 -1.3043  0.7089
 8590SOL    HW237407   4.022   1.345   2.666  0.4152  0.4781  0.5164
 8591SOL     OW37408   2.968   2.875   3.325 -0.4625 -0.1438 -0.0360
 8591SOL    HW137409   3.048   2.913   3.288 -0.5305 -0.8123 -0.8572
 8591SOL    HW237410   2.949   2.800   3.269 -0.6503 -0.2918  0.2263
 8592SOL     OW37411   4.385   4.021  11.332 -0.3738  0.0895  0.1239
 8592SOL    HW137412   4.416   3.933  11.312  2.5759  1.2267 -0.3177
 8592SOL    HW237413   4.379   4.025  11.428  1.5271 -0.4491  0.2646
 8593SOL     OW37414   3.737   0.263   3.685 -0.3028 -0.2648  0.1246
 8593SOL    HW137415   3.695   0.190   3.729  0.7742  0.7431  2.8555
 8593SOL    HW237416   3.698   0.275   3.599 -0.0564  0.5949  0.1279
 8594SOL     OW37417   3.863   3.084   2.899 -1.0071  0.1265  0.1525
 8594SOL    HW137418   3.953   3.110   2.922 -0.8290  0.2887 -0.7224
 8594SOL    HW237419   3.848   3.031   2.978 -3.0563  0.8250  0.2088
 8595SOL     OW37420   1.241   3.718   2.868  0.1823 -0.4660 -0.5911
 8595SOL    HW137421   1.163   3.768   2.841  0.8138  1.9980  2.0583
 8595SOL    HW237422   1.278   3.776   2.935  0.4014 -2.2905  0.8541
 8596SOL     OW37423   3.648   4.281   7.340  0.3996 -0.1047 -0.5273
 8596SOL    HW137424   3.674   4.191   7.358 -1.6914 -0.6537 -0.1899
 8596SOL    HW237425   3.723   4.314   7.291  0.5254 -0.8040 -0.8066
 8597SOL     OW37426   3.466   2.377  12.812  0.6284  0.5449 -0.2135
 8597SOL    HW137427   3.508   2.343  12.891 -3.4363 -0.6978  1.3984
 8597SOL    HW237428   3.475   2.308  12.747 -0.3061  1.1220 -0.9476
 8598SOL     OW37429   3.952   1.677  16.785 -0.1663 -0.6022  0.6758
 8598SOL    HW137430   3.880   1.714  16.735 -0.4431 -1.2140  0.6271
 8598SOL    HW237431   3.939   1.727  16.866 -1.0330 -1.9297  1.3473
 8599SOL     OW37432   2.666   0.703   8.025 -0.1202 -0.0777 -0.8012
 8599SOL    HW137433   2.607   0.749   7.965  0.7394 -0.4487 -1.9233
 8599SOL    HW237434   2.604   0.652   8.077 -0.9302  1.3517 -0.3747
 8600SOL     OW37435   4.620   0.942   3.643 -0.2323  0.2783 -0.1066
 8600SOL    HW137436   4.696   0.889   3.666  0.2907  1.3769  0.7385
 8600SOL    HW237437   4.557   0.885   3.599  1.6204  0.2028 -2.6204
 8601SOL     OW37438   4.225   2.407   5.249  0.3881 -0.0834 -0.0885
 8601SOL    HW137439   4.163   2.480   5.241  0.0240 -0.2586  1.1135
 8601SOL    HW237440   4.179   2.329   5.218  1.2405 -1.0768  1.1814
 8602SOL     OW37441   0.223   0.275   6.534 -0.9881 -0.4668 -0.1978
 8602SOL    HW137442   0.196   0.334   6.464 -2.0524 -1.0483 -0.2755
 8602SOL    HW237443   0.195   0.191   6.497 -0.2538 -1.3068  1.1221
 8603SOL     OW37444   3.447   0.811   3.621 -0.5258  1.0808  0.0732
 8603SOL    HW137445   3.352   0.819   3.632 -0.8103 -3.2270  0.9299
 8603SOL    HW237446   3.463   0.826   3.714 -4.2643 -1.7810  1.2276
 8604SOL     OW37447   1.065   2.931  14.790 -0.2629 -0.0283 -0.1477
 8604SOL    HW137448   1.102   3.019  14.786 -0.2043  0.0513  1.9847
 8604SOL    HW237449   1.107   2.880  14.721  2.5387  1.0164  0.7701
 8605SOL     OW37450   3.131   1.053  13.421 -0.5631  0.1404 -0.1520
 8605SOL    HW137451   3.100   1.006  13.499  3.8646 -2.0249  0.3236
 8605SOL    HW237452   3.084   1.135  13.439  0.5398  0.7038  0.1783
 8606SOL     OW37453   0.435   3.045  12.881 -0.6013 -0.1886  0.6908
 8606SOL    HW137454   0.480   2.983  12.938 -1.0129  1.5779  2.9786
 8606SOL    HW237455   0.444   3.131  12.922 -1.1821  1.0449 -1.7555
 8607SOL     OW37456   3.916   1.575   4.955  0.1051  0.2733 -0.4116
 8607SOL    HW137457   3.903   1.668   4.976  1.0070 -0.0710  1.6792
 8607SOL    HW237458   3.856   1.560   4.882  0.4348 -0.0255 -0.6228
 8608SOL     OW37459   2.709   2.321   9.077  0.2395 -0.0918 -0.2690
 8608SOL    HW137460   2.638   2.258   9.071  0.1965 -0.0161 -0.5624
 8608SOL    HW237461   2.773   2.272   9.128  0.4071 -1.1932 -1.5367
 8609SOL     OW37462   2.793   1.499   6.254  0.4566 -0.7392  0.6969
 8609SOL    HW137463   2.713   1.517   6.206  1.2753  1.7634  0.2761
 8609SOL    HW237464   2.760   1.481   6.342  0.5172  0.2345  0.9183
 8610SOL     OW37465   3.129   0.156  15.847  0.2738  0.3625 -0.2329
 8610SOL    HW137466   3.209   0.206  15.835  0.9096 -0.6013  0.0296
 8610SOL    HW237467   3.060   0.220  15.864 -0.0016  0.1406 -0.5215
 8611SOL     OW37468   2.780   1.609  17.007 -0.1934 -0.3755 -0.3392
 8611SOL    HW137469   2.696   1.648  17.033 -0.0163  0.0956 -0.4780
 8611SOL    HW237470   2.773   1.611  16.912 -0.1447  2.2844 -0.2851
 8612SOL     OW37471   2.978   1.867   2.936  0.2451 -0.0447 -0.0917
 8612SOL    HW137472   3.042   1.859   2.865  0.1488  0.1019 -0.1955
 8612SOL    HW237473   3.048   1.876   3.001  1.1044 -0.4546 -0.9521
 8613SOL     OW37474   1.835   4.299   2.179 -0.5887 -0.3990 -0.2009
 8613SOL    HW137475   1.930   4.308   2.164 -0.4032  1.5893  2.1342
 8613SOL    HW237476   1.829   4.355   2.256 -0.3905  0.2549 -0.6602
 8614SOL     OW37477   1.008   1.143  11.022  0.4577  0.6601  0.0969
 8614SOL    HW137478   0.975   1.218  10.974 -0.1817  0.7934  0.7537
 8614SOL    HW237479   1.059   1.092  10.958  1.2127  1.1496  0.3081
 8615SOL     OW37480   1.754   1.901   3.794 -0.0176 -0.8311  0.0976
 8615SOL    HW137481   1.840   1.872   3.764  1.5039  0.9458  2.7293
 8615SOL    HW237482   1.749   1.992   3.767  2.2998 -0.0193  2.3449
 8616SOL     OW37483   1.875   3.801   6.205  0.0819  0.0086  0.4409
 8616SOL    HW137484   1.885   3.731   6.269 -1.1232 -3.3184 -3.0291
 8616SOL    HW237485   1.861   3.753   6.124  2.1367 -1.3220  0.8877
 8617SOL     OW37486   1.016   4.538  17.158  0.3844  0.0416  0.1272
 8617SOL    HW137487   0.963   4.515  17.081 -0.6035  0.4028  0.6975
 8617SOL    HW237488   1.009   4.633  17.156  0.9065  0.1294  3.2435
 8618SOL     OW37489   3.832   0.166  10.984  0.2787  0.2353  0.2547
 8618SOL    HW137490   3.919   0.127  10.987 -0.5144 -1.5194  0.4467
 8618SOL    HW237491   3.822   0.176  10.889  1.7856 -0.4282  0.0293
 8619SOL     OW37492   3.174   0.307   2.166 -0.4174  0.1727 -0.3520
 8619SOL    HW137493   3.179   0.255   2.086 -2.2607  1.6342 -1.4278
 8619SOL    HW237494   3.214   0.386   2.129  0.4431 -0.2628 -0.3516
 8620SOL     OW37495   2.069   4.672   9.169 -0.3980 -0.2756  0.0293
 8620SOL    HW137496   2.032   4.642   9.252 -0.5518 -2.4772 -0.8345
 8620SOL    HW237497   1.989   4.680   9.118  0.1542 -0.5543 -0.8664
 8621SOL     OW37498   0.180   4.546   1.533  0.0751 -0.1821 -0.0729
 8621SOL    HW137499   0.271   4.553   1.562 -0.9496  1.8322  2.5932
 8621SOL    HW237500   0.165   4.466   1.585  0.4053 -0.3747 -0.2708
 8622SOL     OW37501   3.703   0.345  16.231  0.1103  0.0960 -0.5423
 8622SOL    HW137502   3.790   0.359  16.195  1.3484 -0.3697  2.3339
 8622SOL    HW237503   3.651   0.411  16.183 -1.6623  0.6116  2.0888
 8623SOL     OW37504   0.982   4.285   6.836 -0.0465 -0.3072 -0.2506
 8623SOL    HW137505   0.895   4.264   6.802  0.1625 -0.6512 -0.5763
 8623SOL    HW237506   1.029   4.306   6.754  0.9544 -0.5855  0.2471
 8624SOL     OW37507   1.559   3.227   8.668  0.3420  0.3255 -0.8793
 8624SOL    HW137508   1.509   3.306   8.687  1.0947  1.0132 -1.7176
 8624SOL    HW237509   1.624   3.263   8.607 -0.2939 -0.9747 -2.3535
 8625SOL     OW37510   4.571   4.491   2.495 -0.4230 -0.5931  0.9442
 8625SOL    HW137511   4.501   4.479   2.559 -0.4787  1.3628  1.2549
 8625SOL    HW237512   4.638   4.521   2.558 -1.0500  0.1825  1.2325
 8626SOL     OW37513   0.424   1.211  12.829  0.3158  0.0661 -0.1839
 8626SOL    HW137514   0.377   1.175  12.755 -0.5479 -0.0807  0.4355
 8626SOL    HW237515   0.369   1.178  12.900  0.6930 -0.1944 -0.0142
 8627SOL     OW37516   0.375   4.329  13.160 -0.5837  0.6428 -0.5801
 8627SOL    HW137517   0.384   4.318  13.255  2.0579  0.4641 -0.8631
 8627SOL    HW237518   0.437   4.260  13.136 -1.9837  0.1915 -2.8911
 8628SOL     OW37519   0.476   1.880   6.784 -0.4316 -0.7864 -0.4089
 8628SOL    HW137520   0.545   1.934   6.823 -0.1482 -0.8911 -0.7677
 8628SOL    HW237521   0.399   1.908   6.834  0.3831  3.9266 -1.8041
 8629SOL     OW37522   4.179   3.065   7.920 -0.6353 -0.7788  0.2175
 8629SOL    HW137523   4.176   2.982   7.872 -1.9548 -0.8763  0.4760
 8629SOL    HW237524   4.141   3.039   8.004  0.0396  1.4676  1.2137
 8630SOL     OW37525   0.942   4.114   7.023  0.0202  0.2659  0.0334
 8630SOL    HW137526   0.964   4.157   6.940  0.2984 -0.7824 -0.4367
 8630SOL    HW237527   0.964   4.022   7.011 -1.0742 -0.0369  0.3668
 8631SOL     OW37528   2.264   4.154   2.262 -0.1010  0.0990  0.2994
 8631SOL    HW137529   2.235   4.063   2.251  2.7394 -0.7954  0.2552
 8631SOL    HW237530   2.345   4.159   2.212 -1.3447 -1.4250 -1.8789
 8632SOL     OW37531   3.716   3.738   6.574  0.1922  1.1898 -0.4558
 8632SOL    HW137532   3.731   3.694   6.491  0.8018 -1.4564  1.0704
 8632SOL    HW237533   3.635   3.695   6.601  0.0128  2.4223  0.9881
 8633SOL     OW37534   0.757   0.645   5.226  0.3379  0.3745 -0.2866
 8633SOL    HW137535   0.833   0.694   5.193  1.2133 -1.1791 -0.5425
 8633SOL    HW237536   0.794   0.559   5.246 -1.3346 -0.0559  0.8666
 8634SOL     OW37537   1.412   2.035  12.093  0.4568 -0.5139  0.2904
 8634SOL    HW137538   1.334   2.024  12.038  1.1866 -2.3173 -0.4179
 8634SOL    HW237539   1.422   2.128  12.110 -1.4433 -0.0099 -1.2757
 8635SOL     OW37540   0.654   4.244   7.052 -0.2084 -0.4914  0.1163
 8635SOL    HW137541   0.693   4.300   6.985  0.4299 -1.9822 -0.7747
 8635SOL    HW237542   0.589   4.205   6.993 -1.4358 -1.2765  1.9840
 8636SOL     OW37543   2.072   4.062   1.195  0.1332  0.0953 -0.4741
 8636SOL    HW137544   2.030   4.068   1.281  1.1300 -3.5243  0.2296
 8636SOL    HW237545   2.001   4.034   1.137 -0.0447  0.5352 -0.4755
 8637SOL     OW37546   3.362   3.652   7.432  0.1524 -0.2902 -0.2953
 8637SOL    HW137547   3.380   3.644   7.338 -2.8556  0.8313 -0.9470
 8637SOL    HW237548   3.443   3.685   7.471  0.4804 -1.5709  0.0978
 8638SOL     OW37549   0.740   0.218   5.991 -0.0503  0.3761 -0.0210
 8638SOL    HW137550   0.819   0.226   5.936 -0.5977 -2.4791 -1.2012
 8638SOL    HW237551   0.681   0.273   5.939 -0.9331 -0.7940 -0.2422
 8639SOL     OW37552   3.517   4.021  12.083 -0.1737 -0.3775 -0.6139
 8639SOL    HW137553   3.434   4.017  12.131  0.1310 -0.7368 -0.1141
 8639SOL    HW237554   3.573   4.078  12.136 -3.1545  1.0530  1.0127
 8640SOL     OW37555   1.172   2.659   6.426  0.7675  0.1756  0.3652
 8640SOL    HW137556   1.203   2.657   6.516  0.6605  0.0384  0.3972
 8640SOL    HW237557   1.215   2.738   6.391  1.3505  0.8793  2.7022
 8641SOL     OW37558   2.538   1.563   2.191 -0.1762 -0.4071 -0.5429
 8641SOL    HW137559   2.607   1.500   2.172 -0.8387 -0.2594 -3.4159
 8641SOL    HW237560   2.549   1.628   2.121  2.2579  1.5163  1.6317
 8642SOL     OW37561   3.582   2.459   4.998  0.1172  0.6429 -0.8328
 8642SOL    HW137562   3.587   2.364   4.998  1.3786  0.7202 -0.4985
 8642SOL    HW237563   3.677   2.470   4.997  0.3117 -1.0656  0.6148
 8643SOL     OW37564   1.996   0.916  15.034 -0.2192  0.1629 -0.2666
 8643SOL    HW137565   2.043   0.860  14.972 -1.0009 -2.1173  1.1990
 8643SOL    HW237566   1.986   0.999  14.986 -0.9672  1.6081  2.4131
 8644SOL     OW37567   2.038   1.043   0.525  0.1865 -0.0811  0.0498
 8644SOL    HW137568   2.052   1.006   0.438 -1.0217  1.4536 -0.7858
 8644SOL    HW237569   2.129   1.062   0.550  1.4009 -1.6899 -3.1695
 8645SOL     OW37570   2.292   2.931   3.741  0.1045 -0.1364 -0.7757
 8645SOL    HW137571   2.333   2.957   3.824  0.4157 -2.7100 -0.1287
 8645SOL    HW237572   2.361   2.875   3.707  0.8351 -0.7011  1.6538
 8646SOL     OW37573   2.941   1.812   5.630  0.1262 -0.1622 -0.3811
 8646SOL    HW137574   2.959   1.726   5.593 -1.6130 -0.3158 -0.8524
 8646SOL    HW237575   2.916   1.860   5.552 -2.5290 -0.6148  0.2042
 8647SOL     OW37576   2.833   3.933   7.600 -0.0564 -0.0808  0.5922
 8647SOL    HW137577   2.741   3.952   7.584 -0.2658 -0.6074  1.1889
 8647SOL    HW237578   2.843   3.874   7.526  0.5949  1.1588 -0.3167
 8648SOL     OW37579   4.701   1.358   4.794  0.1088 -0.7741 -0.1866
 8648SOL    HW137580   0.016   1.320   4.725  1.9815  0.4239  0.6503
 8648SOL    HW237581   4.677   1.275   4.837  1.5818 -0.0705  2.0216
 8649SOL     OW37582   2.231   2.526   6.764  1.0538 -0.4186 -0.2014
 8649SOL    HW137583   2.281   2.579   6.701 -0.2259  0.4292 -0.5062
 8649SOL    HW237584   2.255   2.440   6.730  2.5276  0.0254 -0.2710
 8650SOL     OW37585   1.732   1.688   0.304 -0.4094  0.0874 -0.2429
 8650SOL    HW137586   1.756   1.607   0.349 -0.1499 -0.8976 -2.1610
 8650SOL    HW237587   1.753   1.741   0.381 -2.1946  0.8187 -0.2480
 8651SOL     OW37588   2.852   2.437   8.203  0.4330 -0.2741 -0.0464
 8651SOL    HW137589   2.759   2.425   8.220  0.4370  1.0390  0.9785
 8651SOL    HW237590   2.860   2.503   8.133 -0.3936  0.4713  0.5614
 8652SOL     OW37591   4.023   0.979  12.872  0.0481 -0.0841  0.3213
 8652SOL    HW137592   4.053   0.996  12.962  0.8860 -1.5649  0.3261
 8652SOL    HW237593   3.968   0.901  12.881  1.6401 -1.3400 -0.9436
 8653SOL     OW37594   0.869   3.566   5.869  0.2971  0.4339  0.0997
 8653SOL    HW137595   0.899   3.490   5.919  2.1659  1.4388  0.5187
 8653SOL    HW237596   0.834   3.515   5.796  0.1549  0.1480  0.3692
 8654SOL     OW37597   2.548   0.397   8.387 -0.7732  0.3347 -0.0103
 8654SOL    HW137598   2.591   0.402   8.472  0.5972  1.1161 -0.7318
 8654SOL    HW237599   2.468   0.351   8.413  0.1735 -1.4931 -0.3570
 8655SOL     OW37600   1.930   1.855   2.211 -0.1828  0.3817  0.0380
 8655SOL    HW137601   1.922   1.783   2.273  2.0568 -0.2540 -0.4150
 8655SOL    HW237602   2.024   1.874   2.219 -0.3346  2.0367 -2.0466
 8656SOL     OW37603   1.085   3.426   7.503  0.1918 -0.0659  0.3608
 8656SOL    HW137604   1.037   3.351   7.467 -1.4646  1.5370 -0.7169
 8656SOL    HW237605   1.020   3.491   7.478 -0.4549 -0.3388  1.3373
 8657SOL     OW37606   2.633   0.655  17.603  0.3205 -0.0154 -0.2121
 8657SOL    HW137607   2.648   0.562  17.614  1.8733  0.1189 -1.0103
 8657SOL    HW237608   2.693   0.703  17.661 -0.1315 -2.2972  2.1087
 8658SOL     OW37609   4.481   4.611   1.750 -0.2547 -0.0038 -0.5525
 8658SOL    HW137610   4.491   4.525   1.790  1.1958  1.6524  2.6223
 8658SOL    HW237611   4.389   4.624   1.775  0.2537 -0.3638  1.4732
 8659SOL     OW37612   0.268   4.041   8.829  0.1856 -0.1147  0.5464
 8659SOL    HW137613   0.354   4.050   8.871  0.3817 -3.1953  0.8209
 8659SOL    HW237614   0.297   3.988   8.754  0.0741  1.6346 -0.7315
 8660SOL     OW37615   2.616   2.905   8.725 -0.1707  0.3934  0.0327
 8660SOL    HW137616   2.628   2.832   8.665 -0.0906  0.4985 -0.0812
 8660SOL    HW237617   2.630   2.983   8.671  0.2997  1.1902  1.3076
 8661SOL     OW37618   1.638   2.120   2.840  0.2028 -0.2724 -0.0606
 8661SOL    HW137619   1.572   2.157   2.782 -0.7798 -0.4541  0.9293
 8661SOL    HW237620   1.634   2.190   2.906 -0.9567 -1.0340  0.6787
 8662SOL     OW37621   4.336   2.348  12.240  0.0395  0.4007  0.2140
 8662SOL    HW137622   4.407   2.285  12.254 -1.8491 -1.9672 -0.8251
 8662SOL    HW237623   4.260   2.290  12.235 -0.3771  1.2656 -3.5461
 8663SOL     OW37624   4.210   3.943   2.530  0.0950 -0.5644 -0.2237
 8663SOL    HW137625   4.291   3.984   2.500 -0.5839  0.1941 -1.0411
 8663SOL    HW237626   4.175   3.882   2.464  0.8681  0.5003 -1.6255
 8664SOL     OW37627   4.079   1.474   5.319  0.7207 -0.2018  0.7177
 8664SOL    HW137628   3.999   1.427   5.294 -0.7340  2.5791  0.1867
 8664SOL    HW237629   4.055   1.566   5.325  0.0167 -0.3037 -0.4756
 8665SOL     OW37630   0.406   2.765   8.425  0.0545  0.1056  0.1242
 8665SOL    HW137631   0.380   2.687   8.474  1.0035 -0.9913 -1.1438
 8665SOL    HW237632   0.401   2.731   8.336  0.8983  2.1160 -0.6810
 8666SOL     OW37633   2.127   1.087   7.954  0.0120  0.3120  0.2192
 8666SOL    HW137634   2.215   1.118   7.939 -0.2519  0.4008 -1.0738
 8666SOL    HW237635   2.081   1.165   7.985  1.2530  2.1400 -2.6835
 8667SOL     OW37636   2.170   2.505   0.156 -0.3182 -0.4103  0.1485
 8667SOL    HW137637   2.116   2.523   0.233  0.0798 -3.0275  1.0501
 8667SOL    HW237638   2.105   2.490   0.087  1.2399 -0.0575 -1.4008
 8668SOL     OW37639   0.395   1.993   6.316 -0.0214 -0.5454 -0.2756
 8668SOL    HW137640   0.319   2.026   6.362 -1.8208 -3.3973 -1.2027
 8668SOL    HW237641   0.403   2.051   6.240 -1.4947  2.4364  1.8761
 8669SOL     OW37642   3.395   1.596   7.061 -0.3581  0.0616  0.6093
 8669SOL    HW137643   3.310   1.558   7.040 -0.3260  0.1791  0.2501
 8669SOL    HW237644   3.386   1.637   7.147  0.3202  0.5767  0.4332
 8670SOL     OW37645   0.129   2.566   9.075  0.1128 -0.3416 -0.8953
 8670SOL    HW137646   0.135   2.661   9.069  0.3402 -0.3461 -0.7297
 8670SOL    HW237647   0.034   2.563   9.064 -0.0803  2.0863 -0.0248
 8671SOL     OW37648   2.713   1.484  16.284 -0.2066 -0.1592 -0.5824
 8671SOL    HW137649   2.650   1.532  16.339 -0.7596  0.7126 -1.9906
 8671SOL    HW237650   2.726   1.408  16.341  0.9401 -0.3658 -1.1258
 8672SOL     OW37651   4.209   2.839   8.765  0.1915 -0.5614  0.0244
 8672SOL    HW137652   4.300   2.827   8.794  0.6346  1.0064 -0.7196
 8672SOL    HW237653   4.223   2.851   8.671 -2.4448  2.8844  0.0586
 8673SOL     OW37654   1.689   2.984   4.782 -0.1439  0.4385 -0.3376
 8673SOL    HW137655   1.643   3.004   4.864  0.1979 -0.2058  0.0097
 8673SOL    HW237656   1.660   3.052   4.721 -2.4278 -0.8024 -0.6205
 8674SOL     OW37657   3.844   3.913  17.091  0.0987 -0.2230 -0.5157
 8674SOL    HW137658   3.935   3.936  17.109 -0.5522  2.4626 -0.6472
 8674SOL    HW237659   3.834   3.992  17.038  2.2341 -0.4390 -1.2233
 8675SOL     OW37660   2.834   4.282   2.199  0.1047 -0.6318  0.1167
 8675SOL    HW137661   2.923   4.280   2.234 -0.4140 -3.1850  1.2675
 8675SOL    HW237662   2.801   4.366   2.231  0.2402 -1.0911  1.4656
 8676SOL     OW37663   1.973   4.142  11.463  0.2703  0.4266  0.0444
 8676SOL    HW137664   1.902   4.096  11.417  1.3284  0.8114 -1.9704
 8676SOL    HW237665   2.056   4.103  11.436 -0.0088 -1.0935  1.3876
 8677SOL     OW37666   4.562   2.458  16.063  0.4007  0.1423  0.1238
 8677SOL    HW137667   4.597   2.542  16.092 -1.5824  0.7988  0.6537
 8677SOL    HW237668   4.588   2.460  15.971  1.5263  2.7458  0.4892
 8678SOL     OW37669   1.468   3.348   1.031  0.0378 -0.3061  0.1490
 8678SOL    HW137670   1.444   3.374   0.942  1.1443 -2.3548 -0.7374
 8678SOL    HW237671   1.560   3.325   1.021 -0.2860 -1.4501 -0.1018
 8679SOL     OW37672   0.925   1.548   1.555  0.5994 -0.1659 -0.0838
 8679SOL    HW137673   0.952   1.623   1.504 -0.4607  1.3406  1.5670
 8679SOL    HW237674   0.848   1.593   1.590 -0.2711 -0.8844 -1.0835
 8680SOL     OW37675   0.106   2.237   0.851  0.3715 -0.0802 -0.0589
 8680SOL    HW137676   0.197   2.209   0.862  0.1334 -0.7908  0.1658
 8680SOL    HW237677   0.105   2.315   0.907 -0.5816  2.6835 -3.9552
 8681SOL     OW37678   0.679   0.656  14.542  0.5456 -0.2324  0.5569
 8681SOL    HW137679   0.684   0.752  14.540 -0.4068 -0.1955 -0.1875
 8681SOL    HW237680   0.595   0.638  14.584  0.3829 -1.3200 -0.2390
 8682SOL     OW37681   1.267   3.463   1.252  0.0059  0.2161 -0.0808
 8682SOL    HW137682   1.296   3.392   1.195 -1.2934 -1.7263  1.6915
 8682SOL    HW237683   1.300   3.540   1.205  1.1319  1.3342  2.5375
 8683SOL     OW37684   1.448   0.178   9.360  0.7132 -0.1088 -0.0312
 8683SOL    HW137685   1.491   0.262   9.376 -3.3333  1.9021  0.3745
 8683SOL    HW237686   1.396   0.193   9.281  1.3856 -2.6750 -0.9474
 8684SOL     OW37687   3.802   1.765   8.559 -0.2927  0.1928 -0.9837
 8684SOL    HW137688   3.802   1.767   8.464 -3.7239  1.1340 -0.9670
 8684SOL    HW237689   3.882   1.810   8.587 -1.4767  2.9301 -1.9994
 8685SOL     OW37690   4.419   3.918   0.698 -0.1591 -0.5476 -0.4800
 8685SOL    HW137691   4.324   3.912   0.691 -0.3133  0.6398  0.6125
 8685SOL    HW237692   4.441   3.838   0.746  2.1728  0.8060  0.7111
 8686SOL     OW37693   4.728   2.949   2.683  0.2136  0.2706 -0.2125
 8686SOL    HW137694   0.003   3.023   2.742 -1.0355 -0.4179  0.9681
 8686SOL    HW237695   4.657   2.988   2.632 -0.2576  0.0396  0.2711
 8687SOL     OW37696   0.654   3.052   8.515 -0.7309  0.6764  0.4006
 8687SOL    HW137697   0.730   3.110   8.518 -0.1379 -0.0842 -0.1302
 8687SOL    HW237698   0.689   2.997   8.445  0.5020  0.8550  0.8742
 8688SOL     OW37699   1.967   3.997   3.323  0.1701 -0.4828  0.0440
 8688SOL    HW137700   2.053   4.011   3.283 -0.0384  2.0703  0.5078
 8688SOL    HW237701   2.008   4.005   3.410 -1.2402 -1.0698  0.7653
 8689SOL     OW37702   4.131   3.845   0.669  0.1720 -0.0789 -0.1830
 8689SOL    HW137703   4.134   3.827   0.575  0.5294 -1.5742  0.1210
 8689SOL    HW237704   4.057   3.789   0.693  0.1411  0.5359  1.1251
 8690SOL     OW37705   2.892   1.428   7.493 -0.7134 -0.0774 -0.2115
 8690SOL    HW137706   2.954   1.381   7.549 -0.7177 -0.8760 -0.8771
 8690SOL    HW237707   2.924   1.517   7.478  3.6286 -1.7853 -1.3125
 8691SOL     OW37708   2.143   4.536  14.747 -0.4917 -0.0258  0.0777
 8691SOL    HW137709   2.127   4.446  14.775  1.9649 -0.2932  0.5907
 8691SOL    HW237710   2.222   4.542  14.693 -0.4034  0.2145  0.2328
 8692SOL     OW37711   4.630   4.388   5.667 -0.2278  0.6091  0.0391
 8692SOL    HW137712   4.678   4.387   5.750 -0.7323 -2.4929  0.2970
 8692SOL    HW237713   4.637   4.475   5.628 -0.6680 -0.6715 -2.8553
 8693SOL     OW37714   1.224   1.205   0.687 -0.6404 -0.4930  0.2932
 8693SOL    HW137715   1.301   1.235   0.638  0.0467 -1.9384  0.4959
 8693SOL    HW237716   1.187   1.147   0.619 -0.7872  1.3548 -1.2093
 8694SOL     OW37717   1.670   3.748  11.631  0.3373 -0.1819  0.2911
 8694SOL    HW137718   1.646   3.673  11.685 -0.3231  0.8901  1.4737
 8694SOL    HW237719   1.664   3.719  11.540  2.4709  2.5580 -0.7271
 8695SOL     OW37720   3.428   1.913   9.304  0.4695  0.6536 -0.1869
 8695SOL    HW137721   3.420   1.848   9.234 -2.1888  1.0424 -0.2521
 8695SOL    HW237722   3.351   1.904   9.360  0.0069 -0.8949 -1.0650
 8696SOL     OW37723   4.441   3.015   4.094  0.2072  0.3407  0.5707
 8696SOL    HW137724   4.469   2.988   4.006  2.9456  1.2766  1.1591
 8696SOL    HW237725   4.509   3.077   4.121  2.8481 -1.5045 -1.7196
 8697SOL     OW37726   1.980   0.859   9.082  0.0848 -0.1492 -0.1243
 8697SOL    HW137727   2.067   0.873   9.045  0.3754  1.0297  1.0072
 8697SOL    HW237728   1.993   0.777   9.130  0.7463 -0.6512 -1.1540
 8698SOL     OW37729   1.285   2.455   0.106 -0.6035  0.5900 -0.0255
 8698SOL    HW137730   1.351   2.469   0.038 -0.3346 -1.0033 -0.0840
 8698SOL    HW237731   1.227   2.529   0.086 -0.7702  0.8706  1.4626
 8699SOL     OW37732   2.545   3.741   0.134 -0.2360  0.7248 -0.9790
 8699SOL    HW137733   2.475   3.766   0.073 -1.6630  2.3059  1.3162
 8699SOL    HW237734   2.587   3.663   0.097 -2.8580 -0.3221 -1.7310
 8700SOL     OW37735   2.845   3.917   7.255 -0.0610 -0.3081  0.4330
 8700SOL    HW137736   2.773   3.885   7.200  0.2323 -0.0225 -0.1208
 8700SOL    HW237737   2.860   3.850   7.322 -0.4157 -1.6051 -0.7939
 8701SOL     OW37738   1.539   3.338  11.149 -0.5154 -0.3651 -0.1894
 8701SOL    HW137739   1.579   3.423  11.169 -0.0314 -0.4188 -0.9386
 8701SOL    HW237740   1.551   3.328  11.055 -2.8605  1.0980 -0.6509
 8702SOL     OW37741   0.099   4.133  16.865 -0.0365  0.4028 -0.1197
 8702SOL    HW137742   0.051   4.054  16.888  0.0914  0.4016  0.1493
 8702SOL    HW237743   0.049   4.202  16.908  0.5009  2.1188 -2.2168
 8703SOL     OW37744   4.069   3.411   6.338  0.0918  0.0116  0.4456
 8703SOL    HW137745   4.052   3.501   6.366 -0.4067  0.5666 -1.6531
 8703SOL    HW237746   4.103   3.372   6.418 -0.0835 -1.5967 -0.2683
 8704SOL     OW37747   3.076   2.285   7.731 -0.0421  0.4061 -0.4461
 8704SOL    HW137748   3.011   2.353   7.713  0.1117  0.8572  0.7365
 8704SOL    HW237749   3.093   2.293   7.825 -0.4455 -1.8799 -0.1864
 8705SOL     OW37750   0.192   1.300  11.728  0.4871  0.8735  0.1247
 8705SOL    HW137751   0.280   1.335  11.742  1.7828 -1.7229 -1.6181
 8705SOL    HW237752   0.136   1.371  11.759 -0.5402 -0.1045  0.5169
 8706SOL     OW37753   0.588   3.075  14.946  0.4641 -0.1771 -0.1790
 8706SOL    HW137754   0.626   3.080  14.858  0.3258  2.2948 -0.1214
 8706SOL    HW237755   0.649   3.128  14.997 -0.4131  2.1227 -1.5148
 8707SOL     OW37756   3.228   0.532  17.052 -0.2220  0.4989  0.1830
 8707SOL    HW137757   3.169   0.580  17.110  0.8520 -1.1053  2.5790
 8707SOL    HW237758   3.210   0.439  17.066  0.5526  0.3054 -0.1006
 8708SOL     OW37759   0.172   4.053   2.819  0.0219  0.4729  0.8715
 8708SOL    HW137760   0.089   4.006   2.813  1.5384 -2.1149  0.5606
 8708SOL    HW237761   0.154   4.146   2.805 -0.7574  0.1093 -0.4886
 8709SOL     OW37762   2.854   2.246   7.375 -0.5232 -0.7829  0.5843
 8709SOL    HW137763   2.910   2.200   7.439 -1.0598 -0.2518  1.4293
 8709SOL    HW237764   2.900   2.225   7.294  0.0565 -0.1237  0.7432
 8710SOL     OW37765   0.990   3.069   8.707  0.5659  0.6182 -0.0173
 8710SOL    HW137766   0.931   2.995   8.720  0.8319 -0.0652 -2.7482
 8710SOL    HW237767   1.054   3.035   8.643  0.3785 -2.2415  1.3139
 8711SOL     OW37768   1.079   0.879   7.604  0.4335 -0.2507 -0.0127
 8711SOL    HW137769   1.098   0.940   7.533 -0.3745 -1.9835 -1.7118
 8711SOL    HW237770   1.161   0.856   7.648  0.3750  0.0468  0.2548
 8712SOL     OW37771   0.103   0.878   5.709 -0.0200 -0.1909  0.3930
 8712SOL    HW137772   0.125   0.786   5.729 -0.7379 -0.1783  1.2306
 8712SOL    HW237773   0.099   0.884   5.614 -1.0049 -1.5992  0.3409
 8713SOL     OW37774   1.124   0.089   6.918 -0.5487  0.2559  0.4637
 8713SOL    HW137775   1.078   0.166   6.952 -1.4776  0.0490 -0.2985
 8713SOL    HW237776   1.049   0.038   6.887  0.1503 -0.2330 -0.4278
 8714SOL     OW37777   2.761   3.873   0.818 -0.5565 -0.1297 -0.1665
 8714SOL    HW137778   2.697   3.833   0.758 -0.6626  1.7344 -1.2765
 8714SOL    HW237779   2.706   3.941   0.858  0.3693  1.2723 -1.2834
 8715SOL     OW37780   3.010   4.497  14.136  0.4083  0.1143 -0.4258
 8715SOL    HW137781   3.101   4.519  14.116  0.2214  0.0636 -1.3445
 8715SOL    HW237782   2.999   4.438  14.061  0.5117 -0.3550 -0.0715
 8716SOL     OW37783   0.934   2.011   2.531  0.7445  0.3262 -0.8643
 8716SOL    HW137784   0.953   2.085   2.474  1.5609  0.7057 -0.1059
 8716SOL    HW237785   0.961   2.048   2.615 -1.4400  1.4770 -0.6684
 8717SOL     OW37786   3.720   2.770   2.359  0.2443  0.2295  0.2304
 8717SOL    HW137787   3.801   2.741   2.400  0.2698  1.1368  0.8220
 8717SOL    HW237788   3.739   2.861   2.335 -1.3393  0.2255 -1.0471
 8718SOL     OW37789   4.607   3.938   4.868 -0.2760  0.3733 -0.6230
 8718SOL    HW137790   4.696   3.918   4.895 -0.5926  1.8015  1.4556
 8718SOL    HW237791   4.623   3.961   4.777  1.2451 -1.7085 -0.8914
 8719SOL     OW37792   4.095   0.620  16.725 -0.2334 -0.3919  0.5750
 8719SOL    HW137793   4.064   0.561  16.794  0.5522 -1.9519 -0.3943
 8719SOL    HW237794   4.012   0.664  16.705 -0.5373 -0.5832  1.4343
 8720SOL     OW37795   2.386   1.591  10.177 -0.3312 -0.1118 -0.4036
 8720SOL    HW137796   2.400   1.685  10.171 -0.5412 -0.1461 -1.3771
 8720SOL    HW237797   2.314   1.581  10.115  1.2949 -0.2101 -2.2552
 8721SOL     OW37798   4.737   1.437   6.360  0.1102  0.3149 -0.1021
 8721SOL    HW137799   4.689   1.512   6.324 -0.3816  0.3055  0.5260
 8721SOL    HW237800   4.670   1.391   6.411  0.5291 -1.0824 -0.8084
 8722SOL     OW37801   2.672   1.834   6.902  0.1837  0.1815 -0.3124
 8722SOL    HW137802   2.748   1.891   6.913 -0.5838  1.1532 -0.0427
 8722SOL    HW237803   2.711   1.755   6.866 -1.3750 -0.5577 -0.3671
 8723SOL     OW37804   3.084   3.196   9.967 -0.8666  0.0784 -0.2663
 8723SOL    HW137805   3.071   3.257  10.040 -1.3012 -0.5994  0.2217
 8723SOL    HW237806   3.029   3.226   9.895 -1.5154  2.9571  1.4096
 8724SOL     OW37807   1.822   2.857   4.220  0.4988  0.3760  0.4297
 8724SOL    HW137808   1.840   2.949   4.240 -0.9309  0.1774  2.5339
 8724SOL    HW237809   1.877   2.828   4.147 -0.4519 -1.5471  0.4854
 8725SOL     OW37810   3.259   2.840  16.879  0.2906 -0.4799  0.2717
 8725SOL    HW137811   3.237   2.933  16.880  1.8949 -0.1057 -0.2703
 8725SOL    HW237812   3.304   2.836  16.963 -2.1745 -0.2576  1.5938
 8726SOL     OW37813   4.357   4.006  15.897 -0.4803 -0.1475 -0.2350
 8726SOL    HW137814   4.429   3.944  15.908  0.1544  0.6078 -0.2384
 8726SOL    HW237815   4.378   4.045  15.813  0.6013 -0.5237 -0.1372
 8727SOL     OW37816   0.895   2.819   6.319  0.3543 -0.4109  0.2484
 8727SOL    HW137817   0.946   2.758   6.266 -0.4710 -2.3514  1.6857
 8727SOL    HW237818   0.808   2.807   6.281 -0.8448  1.6554  2.3911
 8728SOL     OW37819   3.236   2.804   2.696  0.3100 -0.6675 -0.1054
 8728SOL    HW137820   3.205   2.873   2.755 -0.8866 -0.8487 -0.5441
 8728SOL    HW237821   3.330   2.820   2.709  0.7546 -1.8030 -1.9373
 8729SOL     OW37822   1.482   2.583   1.560  0.4830  0.1483  0.1536
 8729SOL    HW137823   1.457   2.544   1.644  0.6369  0.1995  0.2232
 8729SOL    HW237824   1.434   2.521   1.505  1.5656 -1.0168  0.5464
 8730SOL     OW37825   1.861   0.002   9.846  0.5198  0.2912 -0.2021
 8730SOL    HW137826   1.893   4.652   9.859  2.0924  1.0576  1.1232
 8730SOL    HW237827   1.770   4.730   9.816  0.0999  2.5105  0.2387
 8731SOL     OW37828   3.086   1.278   2.987 -0.2799 -0.2138 -0.6164
 8731SOL    HW137829   3.068   1.357   3.037  1.6402 -0.2647  0.1611
 8731SOL    HW237830   3.114   1.306   2.900 -0.1243 -1.0914 -0.8517
 8732SOL     OW37831   1.700   1.682  15.103  0.2786 -0.4626 -0.2790
 8732SOL    HW137832   1.685   1.748  15.171  1.1312 -1.6234  1.0198
 8732SOL    HW237833   1.643   1.614  15.138 -0.0433  0.7126  1.4556
 8733SOL     OW37834   1.445   4.482   5.318  0.3734 -0.7936 -0.3662
 8733SOL    HW137835   1.535   4.515   5.320  0.1752 -0.2637  0.1086
 8733SOL    HW237836   1.475   4.393   5.337 -0.3772 -1.3843 -1.9900
 8734SOL     OW37837   3.343   3.378  15.943  0.1472 -0.0623 -0.1973
 8734SOL    HW137838   3.296   3.374  15.859  1.6431  2.6882 -1.1460
 8734SOL    HW237839   3.278   3.431  15.988 -0.4518 -0.5823 -0.4366
 8735SOL     OW37840   4.234   3.351   8.967  0.5248 -0.3412  0.3609
 8735SOL    HW137841   4.155   3.297   8.955  1.4175 -1.5028 -0.2805
 8735SOL    HW237842   4.297   3.282   8.988 -0.9859 -1.8355 -0.0073
 8736SOL     OW37843   4.350   2.672   2.731  0.1617 -0.1172 -0.1202
 8736SOL    HW137844   4.442   2.674   2.757  0.6677 -0.6529 -1.8547
 8736SOL    HW237845   4.361   2.585   2.692 -1.3880 -0.8068  0.9868
 8737SOL     OW37846   2.899   1.906   6.181  0.4258 -0.3424  0.3328
 8737SOL    HW137847   2.935   1.817   6.177  2.7227  0.6145 -0.2145
 8737SOL    HW237848   2.815   1.908   6.135  0.4789  1.6021  0.3304
 8738SOL     OW37849   1.311   0.431   8.942 -0.0573 -0.3647 -0.1003
 8738SOL    HW137850   1.264   0.384   8.873  0.6408 -2.2692  0.7182
 8738SOL    HW237851   1.253   0.506   8.950 -0.2387 -0.7853  2.5064
 8739SOL     OW37852   3.539   1.521   6.554 -0.2347  0.1358 -0.5532
 8739SOL    HW137853   3.533   1.428   6.572 -0.2743  0.1963 -0.2624
 8739SOL    HW237854   3.453   1.560   6.569 -0.2780 -0.3784  0.5315
 8740SOL     OW37855   0.336   1.056   6.483  0.2670  0.1607  0.0919
 8740SOL    HW137856   0.338   1.086   6.574 -1.1260 -1.0458  0.5300
 8740SOL    HW237857   0.360   0.964   6.486  1.0337  0.4101  1.8951
 8741SOL     OW37858   1.403   0.018   6.425 -0.2484  0.3150 -0.6610
 8741SOL    HW137859   1.367   4.733   6.510  2.9398 -1.2947  0.2576
 8741SOL    HW237860   1.378   0.110   6.424 -0.7631  0.1934  2.4010
 8742SOL     OW37861   0.507   3.723  13.364  0.3537  0.6279  0.3365
 8742SOL    HW137862   0.577   3.751  13.423  1.3010 -2.5018  0.7042
 8742SOL    HW237863   0.536   3.634  13.341  0.8542  1.0608 -0.7103
 8743SOL     OW37864   2.778   1.029  10.673  0.2739 -0.4603 -0.5812
 8743SOL    HW137865   2.802   1.052  10.763 -0.0404 -1.9004 -0.1293
 8743SOL    HW237866   2.840   0.960  10.652  1.7971  0.9784 -0.7401
 8744SOL     OW37867   2.323   3.202   1.446 -0.1960 -0.5741 -0.0533
 8744SOL    HW137868   2.378   3.131   1.479 -0.9475  0.6672  3.9157
 8744SOL    HW237869   2.245   3.161   1.410 -0.8795 -0.3470  1.1861
 8745SOL     OW37870   3.385   2.713   2.285 -0.2164 -0.4563 -0.1416
 8745SOL    HW137871   3.435   2.714   2.366 -1.6682 -1.4611  0.7680
 8745SOL    HW237872   3.434   2.764   2.220 -1.1290  1.2803  0.5369
 8746SOL     OW37873   2.700   2.740   8.093  0.3616  0.3480 -0.1292
 8746SOL    HW137874   2.719   2.816   8.148  0.1668  0.4533 -0.2078
 8746SOL    HW237875   2.789   2.709   8.077 -0.5797 -1.7798 -1.2103
 8747SOL     OW37876   4.678   2.196   3.173  0.4122  0.3626  0.4128
 8747SOL    HW137877   4.697   2.211   3.081  2.6323 -2.4528  0.4002
 8747SOL    HW237878   4.613   2.262   3.199 -0.3630 -1.1515  2.3748
 8748SOL     OW37879   0.737   3.552   9.766 -0.2941  0.3834  0.4919
 8748SOL    HW137880   0.693   3.472   9.736 -1.5027  0.7634  1.2641
 8748SOL    HW237881   0.800   3.508   9.823 -0.3968 -0.6291 -0.1680
 8749SOL     OW37882   0.916   2.683   8.218 -0.1548  0.2830 -0.0622
 8749SOL    HW137883   1.007   2.680   8.189 -0.7763 -2.7200 -1.7673
 8749SOL    HW237884   0.907   2.593   8.250 -0.3376  0.6436  0.8899
 8750SOL     OW37885   3.107   3.935   7.668 -0.2815 -0.4507  0.0894
 8750SOL    HW137886   3.023   3.945   7.623 -0.2596  1.5283  0.4815
 8750SOL    HW237887   3.169   3.960   7.600  0.2431 -3.7555 -0.6366
 8751SOL     OW37888   3.566   1.898  14.678 -0.0357  0.7362 -0.5339
 8751SOL    HW137889   3.568   1.929  14.587 -0.2044 -0.4761 -0.9489
 8751SOL    HW237890   3.643   1.930  14.724 -1.3062 -0.1915  2.2414
 8752SOL     OW37891   4.623   3.490  13.236  0.3217  1.0008  0.0381
 8752SOL    HW137892   4.613   3.490  13.140 -2.1709  0.9122  0.2931
 8752SOL    HW237893   4.714   3.513  13.253 -0.2488  1.4601  2.3398
 8753SOL     OW37894   3.705   1.118   4.745 -0.2518  0.1393  0.0172
 8753SOL    HW137895   3.793   1.101   4.709  0.6584  2.1937  1.3268
 8753SOL    HW237896   3.705   1.088   4.836 -0.0281 -1.0163 -0.3596
 8754SOL     OW37897   1.028   0.097   3.997  0.4395 -0.0819  0.1040
 8754SOL    HW137898   1.078   0.077   4.076 -2.1111  0.0419  1.7423
 8754SOL    HW237899   0.981   0.014   3.987  0.3344  0.1054 -0.9224
 8755SOL     OW37900   3.577   1.851   9.674  0.6543  0.0767  1.0040
 8755SOL    HW137901   3.511   1.808   9.728  0.1404  0.4226  0.6529
 8755SOL    HW237902   3.654   1.831   9.726 -0.8977 -0.1880  3.1759
 8756SOL     OW37903   4.454   4.374  14.505  0.1375 -0.0614 -0.5878
 8756SOL    HW137904   4.452   4.470  14.503 -0.0933 -0.0621 -0.3301
 8756SOL    HW237905   4.528   4.359  14.564 -0.1973 -0.8612 -0.3787
 8757SOL     OW37906   0.285   1.896   8.505 -0.2429 -0.4050  0.1508
 8757SOL    HW137907   0.335   1.856   8.434 -1.3459  2.6473 -2.3368
 8757SOL    HW237908   0.358   1.940   8.548 -2.0536  0.3013  2.4869
 8758SOL     OW37909   3.281   4.695   1.428  0.2123  0.1098 -0.8217
 8758SOL    HW137910   3.266   4.601   1.436 -1.2585  0.4234  0.2543
 8758SOL    HW237911   3.309   4.694   1.337  2.2275  1.2455 -0.2292
 8759SOL     OW37912   1.743   1.212   4.958  0.4244  0.0115 -0.0185
 8759SOL    HW137913   1.781   1.267   4.890 -1.0698 -1.0770 -1.7079
 8759SOL    HW237914   1.696   1.144   4.911  2.0073  0.9015 -2.8407
 8760SOL     OW37915   2.478   3.552   6.819  0.9191  0.0968  0.6348
 8760SOL    HW137916   2.527   3.534   6.738 -0.5345 -1.9874  0.2249
 8760SOL    HW237917   2.550   3.586   6.873 -0.3092  3.5441  0.0792
 8761SOL     OW37918   4.143   2.901   6.630  0.6256  0.0757 -0.2393
 8761SOL    HW137919   4.141   2.953   6.550 -0.6973 -0.1563 -0.3511
 8761SOL    HW237920   4.058   2.858   6.625  1.0571 -0.6567 -1.1963
 8762SOL     OW37921   2.501   3.841  14.868 -0.3256 -0.0774 -0.1990
 8762SOL    HW137922   2.573   3.781  14.848  1.1699  1.1434  1.4853
 8762SOL    HW237923   2.478   3.872  14.781  0.5390  1.0699 -0.0204
 8763SOL     OW37924   0.339   3.187   6.478  0.2265 -0.2568  0.5749
 8763SOL    HW137925   0.253   3.217   6.448  1.1082  0.3916 -1.2845
 8763SOL    HW237926   0.360   3.117   6.416  0.2043  0.9310 -0.7724
 8764SOL     OW37927   3.912   3.141   4.478  0.0810  0.2150  0.3696
 8764SOL    HW137928   3.960   3.064   4.447 -0.6563 -1.4523  3.3537
 8764SOL    HW237929   3.828   3.102   4.503  0.2442 -1.1008 -1.1687
 8765SOL     OW37930   1.578   2.499   0.342  0.0254 -0.0187 -0.5182
 8765SOL    HW137931   1.620   2.583   0.325 -0.5475  0.3233 -0.2101
 8765SOL    HW237932   1.613   2.492   0.431 -0.8670 -0.7900 -0.2291
 8766SOL     OW37933   1.222   0.062   5.876  0.2308  0.3503 -0.1718
 8766SOL    HW137934   1.273   0.135   5.840  0.2910  1.1471  1.5168
 8766SOL    HW237935   1.272   0.043   5.956 -2.8175 -0.9008  1.4288
 8767SOL     OW37936   1.589   3.853   4.708  0.0336 -0.4009 -0.1599
 8767SOL    HW137937   1.582   3.889   4.797  0.7111  2.1295 -1.1296
 8767SOL    HW237938   1.663   3.905   4.675 -0.1062 -0.7889 -1.0757
 8768SOL     OW37939   0.312   2.472   6.148 -0.4415  0.0314  0.1397
 8768SOL    HW137940   0.344   2.395   6.099  0.0234  0.3172 -0.0079
 8768SOL    HW237941   0.276   2.527   6.079  1.4864  1.6729  0.4549
 8769SOL     OW37942   2.274   0.187   9.536  0.2058 -0.4915 -0.3978
 8769SOL    HW137943   2.274   0.137   9.454 -2.7515 -2.0794  0.5302
 8769SOL    HW237944   2.180   0.182   9.557  0.9893 -0.6167  3.1187
 8770SOL     OW37945   0.301   1.485   2.223 -0.4907  0.0651 -0.0158
 8770SOL    HW137946   0.380   1.522   2.262 -0.0561  2.3503 -3.0927
 8770SOL    HW237947   0.289   1.397   2.259 -1.2584 -0.2156 -0.9594
 8771SOL     OW37948   2.563   3.504   3.490 -0.1845 -0.1209  0.8310
 8771SOL    HW137949   2.518   3.493   3.406  0.2520  0.5427  0.5012
 8771SOL    HW237950   2.534   3.594   3.507  0.4547  0.0678  0.9120
 8772SOL     OW37951   0.193   2.874  14.655  0.0802 -0.4234 -0.8273
 8772SOL    HW137952   0.144   2.906  14.580  1.1250  0.1198 -1.2733
 8772SOL    HW237953   0.227   2.953  14.696  1.5750 -0.1673 -2.6035
 8773SOL     OW37954   2.807   0.233   3.226  0.5287 -0.2743  0.2951
 8773SOL    HW137955   2.746   0.168   3.190 -2.6652  2.0790  1.4452
 8773SOL    HW237956   2.868   0.166   3.257  0.5928  0.4290  1.6895
 8774SOL     OW37957   1.952   0.038  14.559  0.5008  0.6222 -0.0956
 8774SOL    HW137958   1.962   4.715  14.487 -1.5790  1.0463 -0.7548
 8774SOL    HW237959   2.034   0.040  14.609  0.8354 -1.4155 -0.5935
 8775SOL     OW37960   2.874   4.133   7.779 -0.6918  0.4633  0.5212
 8775SOL    HW137961   2.871   4.063   7.715  2.6460  1.9109 -1.2289
 8775SOL    HW237962   2.912   4.211   7.739  2.0814 -0.2955  1.6616
 8776SOL     OW37963   0.349   3.760   3.461  0.1650 -0.0332  0.5395
 8776SOL    HW137964   0.402   3.682   3.476  0.5208  0.2176  0.5893
 8776SOL    HW237965   0.417   3.823   3.437  0.9378  0.2116  3.4202
 8777SOL     OW37966   3.706   3.410   2.314  0.2536 -0.1675 -0.1881
 8777SOL    HW137967   3.682   3.411   2.407  0.9620  1.6541 -0.0273
 8777SOL    HW237968   3.627   3.441   2.271 -1.8401 -3.1838  1.5123
 8778SOL     OW37969   2.656   4.119   9.012 -0.0538  0.3489 -0.0405
 8778SOL    HW137970   2.700   4.040   8.982  2.4839  2.1258 -0.9848
 8778SOL    HW237971   2.661   4.104   9.106  1.9250  0.0865 -0.1908
 8779SOL     OW37972   3.644   1.578   8.162  0.7426 -0.1943 -0.1268
 8779SOL    HW137973   3.702   1.644   8.199 -1.1149  0.3245  1.8728
 8779SOL    HW237974   3.580   1.578   8.234  2.7797 -0.1970  1.6697
 8780SOL     OW37975   2.528   1.208  13.189  0.3061  0.1844 -0.3204
 8780SOL    HW137976   2.599   1.222  13.253 -0.9312  1.3113  0.8184
 8780SOL    HW237977   2.517   1.300  13.165 -0.3261 -0.1028 -1.1010
 8781SOL     OW37978   0.822   1.390   5.817  0.3676  0.1337  0.1169
 8781SOL    HW137979   0.903   1.357   5.856  0.0059  0.5930  1.2785
 8781SOL    HW237980   0.826   1.354   5.729  1.8357 -1.9313  1.0170
 8782SOL     OW37981   4.012   0.403   2.878 -0.0536  0.1763 -0.3844
 8782SOL    HW137982   4.076   0.362   2.820  0.3518 -1.1343  0.9832
 8782SOL    HW237983   3.931   0.356   2.860  0.4738 -0.5510 -0.8548
 8783SOL     OW37984   0.002   1.104   6.653 -0.0318  0.4121 -0.4130
 8783SOL    HW137985   4.712   1.025   6.697  1.1317  0.1966  0.0073
 8783SOL    HW237986   0.068   1.138   6.714 -2.3873  2.2238  1.0796
 8784SOL     OW37987   0.132   2.294   7.882  0.2336 -0.1229  0.6199
 8784SOL    HW137988   0.045   2.333   7.881  0.2047 -0.2312 -1.5868
 8784SOL    HW237989   0.122   2.226   7.949  0.1572 -0.4346  0.2918
 8785SOL     OW37990   2.079   0.085   8.483  0.1057  0.7245  0.5401
 8785SOL    HW137991   2.086   0.121   8.571 -1.5304  1.0031  0.5503
 8785SOL    HW237992   2.156   0.028   8.479 -0.3763  0.0955  0.0626
 8786SOL     OW37993   0.722   3.544  16.208 -0.1540  0.1294 -0.3223
 8786SOL    HW137994   0.685   3.458  16.187  0.0658  0.0558 -0.4045
 8786SOL    HW237995   0.670   3.560  16.287  0.6425 -2.7745  0.7811
 8787SOL     OW37996   3.101   4.118  11.001 -0.0120  0.0256  0.4954
 8787SOL    HW137997   3.124   4.211  11.003  0.4903 -0.1090  0.8846
 8787SOL    HW237998   3.009   4.116  11.027  0.0513 -0.0147  0.7172
 8788SOL     OW37999   3.109   0.285  17.148  0.1663 -0.4666 -0.9246
 8788SOL    HW138000   3.116   0.190  17.152  1.0105 -0.3936 -0.5535
 8788SOL    HW238001   3.086   0.315  17.236 -1.4085 -1.2026 -1.0838
 8789SOL     OW38002   1.489   3.394   6.493  0.1640 -0.4175  0.7609
 8789SOL    HW138003   1.469   3.424   6.582  0.9171  1.5931  0.2623
 8789SOL    HW238004   1.452   3.306   6.491  1.0534 -0.7925  0.7191
 8790SOL     OW38005   3.350   0.807   2.724  0.2003 -0.2886 -0.4892
 8790SOL    HW138006   3.327   0.868   2.654  0.0313  0.2947  0.0826
 8790SOL    HW238007   3.445   0.819   2.731 -0.1616  2.0477  0.3684
 8791SOL     OW38008   1.958   2.619   6.606  0.0816  0.4865  0.0431
 8791SOL    HW138009   2.005   2.701   6.590  2.2098 -0.9290 -0.9361
 8791SOL    HW238010   2.018   2.575   6.665  0.7139  1.4517  0.1121
 8792SOL     OW38011   2.760   2.133   3.866 -0.8415  0.4990 -0.4414
 8792SOL    HW138012   2.737   2.047   3.901 -0.7535  0.7307  0.1786
 8792SOL    HW238013   2.855   2.135   3.870 -0.8163 -0.3134 -0.6751
 8793SOL     OW38014   4.101   4.474  13.102  0.1194  0.5454 -0.2038
 8793SOL    HW138015   4.090   4.544  13.166  2.0193  1.0198 -0.4033
 8793SOL    HW238016   4.121   4.522  13.021  5.0458 -1.7732 -0.3760
 8794SOL     OW38017   1.529   0.520   6.559  0.4726  0.4258 -0.2415
 8794SOL    HW138018   1.497   0.606   6.584  0.7865  0.9518 -1.6183
 8794SOL    HW238019   1.587   0.493   6.631  0.6036  0.8618 -0.1859
 8795SOL     OW38020   4.411   1.699   7.126 -0.1278  0.3028 -0.0771
 8795SOL    HW138021   4.411   1.656   7.211 -0.8067 -0.9902 -0.7357
 8795SOL    HW238022   4.472   1.772   7.137  1.5119 -1.1909  0.7262
 8796SOL     OW38023   4.432   1.985   6.451 -0.1600  0.0779  0.3639
 8796SOL    HW138024   4.451   1.992   6.358 -0.7239  1.0566  0.3299
 8796SOL    HW238025   4.407   2.069   6.489  3.1188  0.3350  1.9738
 8797SOL     OW38026   2.948   2.650   7.996 -0.0381 -0.2841  0.4474
 8797SOL    HW138027   2.994   2.733   8.009 -0.4368  0.0344 -0.1881
 8797SOL    HW238028   2.928   2.634   7.904  1.3018 -1.6719  0.4019
 8798SOL     OW38029   2.728   4.493   6.404 -0.3439  0.3822  0.0426
 8798SOL    HW138030   2.685   4.577   6.419  0.4664  0.8939 -0.4605
 8798SOL    HW238031   2.796   4.529   6.346  0.2876 -0.4416  0.2614
 8799SOL     OW38032   1.449   1.744   4.637  0.6126 -0.2665  0.3748
 8799SOL    HW138033   1.503   1.718   4.563 -0.9655  1.1640 -1.2691
 8799SOL    HW238034   1.430   1.655   4.668 -1.1701  0.0318  0.1311
 8800SOL     OW38035   1.809   4.331   5.276 -0.0741  0.1856  0.0277
 8800SOL    HW138036   1.726   4.285   5.282 -0.8374  1.5601 -0.0001
 8800SOL    HW238037   1.786   4.405   5.332 -0.3698  1.3133 -1.5942
 8801SOL     OW38038   1.160   0.678   8.981 -0.1193 -0.0849  0.0739
 8801SOL    HW138039   1.140   0.714   9.068  0.8292 -2.4436  1.2836
 8801SOL    HW238040   1.232   0.735   8.957 -0.6645  0.8696  0.7237
 8802SOL     OW38041   0.003   3.413   5.287 -0.4130 -0.1889 -0.1358
 8802SOL    HW138042   4.695   3.413   5.204 -0.4938 -0.3526 -0.0884
 8802SOL    HW238043   0.083   3.364   5.263  0.9561  2.1292 -0.2745
 8803SOL     OW38044   3.044   2.893   6.504  0.1249  0.1155 -0.3195
 8803SOL    HW138045   2.967   2.949   6.511 -0.8005 -0.8893 -2.3407
 8803SOL    HW238046   3.082   2.915   6.419  0.6988 -1.3642 -0.4584
 8804SOL     OW38047   2.509   0.939   9.037 -0.1656 -0.3460 -0.0511
 8804SOL    HW138048   2.576   0.974   8.978 -0.6125  0.5061 -0.0518
 8804SOL    HW238049   2.519   1.010   9.101  0.9521 -1.5471  1.1126
 8805SOL     OW38050   1.646   0.129  17.359  0.0699  0.6732  0.3525
 8805SOL    HW138051   1.674   0.049  17.403  0.9256  0.9696  0.3489
 8805SOL    HW238052   1.663   0.190  17.431  1.0393 -0.4700  1.0761
 8806SOL     OW38053   1.687   4.604  11.934 -0.5256  0.6870 -0.0680
 8806SOL    HW138054   1.664   4.662  12.006 -0.9786  0.4066  0.0090
 8806SOL    HW238055   1.597   4.586  11.909 -0.2310  0.4464 -0.9619
 8807SOL     OW38056   2.543   2.439   4.460 -0.0074 -0.0610 -0.2288
 8807SOL    HW138057   2.555   2.503   4.390  0.6284  1.5830  1.3982
 8807SOL    HW238058   2.630   2.400   4.471 -1.3725 -3.0747  0.0392
 8808SOL     OW38059   4.443   3.580  12.906 -0.4680 -0.1608  0.3585
 8808SOL    HW138060   4.481   3.662  12.875  0.1403 -0.5189  0.1644
 8808SOL    HW238061   4.516   3.531  12.943 -0.9485  0.0523  1.6045
 8809SOL     OW38062   0.549   4.449   3.628  0.4354 -0.0867  0.3151
 8809SOL    HW138063   0.485   4.389   3.589 -1.3446  3.4683 -2.2650
 8809SOL    HW238064   0.494   4.526   3.643 -0.1376 -0.5868  0.7716
 8810SOL     OW38065   3.215   0.395   6.857  0.4182 -0.4762 -0.0799
 8810SOL    HW138066   3.246   0.436   6.776  0.7815  0.8815  0.7532
 8810SOL    HW238067   3.131   0.362   6.827  0.6346  1.4184 -2.8003
 8811SOL     OW38068   0.842   1.186   3.603  0.5462 -0.2673  0.5481
 8811SOL    HW138069   0.868   1.125   3.534  0.6973 -1.7586  1.9042
 8811SOL    HW238070   0.844   1.129   3.680 -0.5310 -0.6371  0.3055
 8812SOL     OW38071   1.561   1.408   7.012  0.5305  0.1464 -0.1831
 8812SOL    HW138072   1.482   1.357   7.027  1.9426 -1.8153  0.5128
 8812SOL    HW238073   1.536   1.501   7.014  2.0677  0.5390  0.7232
 8813SOL     OW38074   3.029   4.575  13.844  0.2935 -0.1852  0.7479
 8813SOL    HW138075   2.948   4.619  13.820  0.4573 -0.5410 -0.4887
 8813SOL    HW238076   3.096   4.629  13.801 -1.1791  1.8331  1.0169
 8814SOL     OW38077   3.293   4.402   1.413 -0.4700 -0.0248 -0.2250
 8814SOL    HW138078   3.327   4.314   1.396 -0.6449  0.6203 -3.9031
 8814SOL    HW238079   3.236   4.375   1.485 -0.4066 -0.0565 -0.1867
 8815SOL     OW38080   1.343   2.932  13.969  0.1935  0.0455 -0.3991
 8815SOL    HW138081   1.431   2.939  13.932  0.2599  0.8689 -0.0810
 8815SOL    HW238082   1.340   3.020  14.005  0.3258  0.6054 -1.7443
 8816SOL     OW38083   4.381   3.490   9.353  0.3327  0.1068 -0.1678
 8816SOL    HW138084   4.440   3.564   9.341 -1.0677  1.6511  2.7335
 8816SOL    HW238085   4.431   3.419   9.312 -1.0730 -1.8801  1.6048
 8817SOL     OW38086   4.203   4.113   4.708 -0.1242 -0.3932 -0.5231
 8817SOL    HW138087   4.271   4.151   4.764 -0.0373 -0.3056 -0.6863
 8817SOL    HW238088   4.158   4.053   4.767  2.0107 -0.6483  0.8370
 8818SOL     OW38089   1.162   0.180  11.476  0.2547 -0.3697  0.0832
 8818SOL    HW138090   1.254   0.156  11.470 -0.5615 -3.1151 -1.7396
 8818SOL    HW238091   1.167   0.263  11.522 -1.2686  0.2132 -0.7960
 8819SOL     OW38092   1.062   0.646   3.520 -0.1980  0.3995 -0.4588
 8819SOL    HW138093   1.024   0.611   3.440  0.0315 -1.2941  0.1637
 8819SOL    HW238094   1.048   0.567   3.573  0.9443 -0.7028 -1.7936
 8820SOL     OW38095   2.420   0.207  16.848  0.3320  0.3464 -0.1216
 8820SOL    HW138096   2.502   0.235  16.808 -0.6739  0.8239 -1.8672
 8820SOL    HW238097   2.392   0.128  16.801  0.2296  1.1669 -1.4464
 8821SOL     OW38098   4.553   0.436   6.734 -0.2168  0.7197  0.2129
 8821SOL    HW138099   4.532   0.371   6.802 -1.2478 -1.7941 -2.5420
 8821SOL    HW238100   4.622   0.394   6.683 -1.2147  1.3680 -1.6565
 8822SOL     OW38101   3.416   3.115  11.246  0.0203 -0.0609  0.4781
 8822SOL    HW138102   3.328   3.145  11.222  0.0822  1.2024  1.7945
 8822SOL    HW238103   3.452   3.194  11.286  0.0643 -0.4252  1.1535
 8823SOL     OW38104   2.175   4.054   5.563 -0.1293  0.1558  0.1783
 8823SOL    HW138105   2.240   4.124   5.571 -0.8513  0.8273  0.2300
 8823SOL    HW238106   2.104   4.103   5.522 -1.0361 -1.4630 -0.1668
 8824SOL     OW38107   1.408   4.604   7.521 -0.0892 -0.7462  0.3667
 8824SOL    HW138108   1.359   4.686   7.524  2.3256  0.6467  1.2232
 8824SOL    HW238109   1.335   4.542   7.514 -1.0110  0.1030  2.4252
 8825SOL     OW38110   1.454   0.961   2.820  0.1830  0.2065 -0.5724
 8825SOL    HW138111   1.408   1.044   2.833  0.0712  0.4559 -2.5426
 8825SOL    HW238112   1.384   0.899   2.801 -0.5305  0.7437  0.2799
 8826SOL     OW38113   0.052   1.391   0.898 -0.1759 -0.4611  0.5290
 8826SOL    HW138114   0.145   1.415   0.896 -0.5221  0.9054  0.7058
 8826SOL    HW238115   0.067   1.296   0.896 -2.3678 -0.7935  0.0301
 8827SOL     OW38116   4.134   3.229   8.566 -0.0485 -0.0819 -0.3737
 8827SOL    HW138117   4.088   3.156   8.524 -0.1845  0.2260 -0.7646
 8827SOL    HW238118   4.138   3.189   8.652  0.5294  0.4040 -0.1764
 8828SOL     OW38119   1.324   0.681   2.933 -0.3959  0.1551 -0.6873
 8828SOL    HW138120   1.393   0.734   2.973 -1.0738  0.6705 -0.1808
 8828SOL    HW238121   1.239   0.704   2.971  1.9067  1.8612  3.4777
 8829SOL     OW38122   2.352   2.671   5.164  0.0773 -0.4289  0.3377
 8829SOL    HW138123   2.431   2.682   5.217  0.1869 -2.8114  0.6352
 8829SOL    HW238124   2.390   2.625   5.090  0.9089 -1.1711  1.2322
 8830SOL     OW38125   1.258   1.735   9.067 -0.2750 -0.1456 -0.1560
 8830SOL    HW138126   1.214   1.653   9.048 -1.9757  1.0415 -1.3324
 8830SOL    HW238127   1.234   1.725   9.159 -3.0093 -1.5731 -1.0334
 8831SOL     OW38128   2.555   0.509   4.805 -0.2351  0.5061  0.5932
 8831SOL    HW138129   2.553   0.594   4.849  1.1259 -0.9053  3.3601
 8831SOL    HW238130   2.567   0.526   4.711  1.1346  0.9120  0.8501
 8832SOL     OW38131   4.091   4.287   8.870 -0.0762 -0.1570  0.1400
 8832SOL    HW138132   4.135   4.265   8.952 -1.1275 -1.1068  0.4535
 8832SOL    HW238133   4.160   4.316   8.810 -0.7164  0.3989 -0.3180
 8833SOL     OW38134   1.780   4.213   3.507  0.5102  0.4065 -0.6255
 8833SOL    HW138135   1.751   4.301   3.531 -0.6010 -0.7142  2.2049
 8833SOL    HW238136   1.868   4.229   3.473 -0.5527  0.8466 -3.1577
 8834SOL     OW38137   1.927   3.679   2.528  0.0110  0.3835 -0.2743
 8834SOL    HW138138   1.885   3.647   2.608 -1.5713 -0.6469 -1.5058
 8834SOL    HW238139   1.934   3.774   2.535  0.1323  0.3393  0.1745
 8835SOL     OW38140   1.568   0.420   9.411  0.1135 -0.4579  0.4021
 8835SOL    HW138141   1.580   0.507   9.451 -0.4519 -0.2752  0.1747
 8835SOL    HW238142   1.565   0.454   9.321 -1.2988 -1.7910 -0.0470
 8836SOL     OW38143   4.666   2.155  14.575  0.1305  0.7283 -0.2417
 8836SOL    HW138144   4.724   2.118  14.509  2.1868  1.5187  1.0993
 8836SOL    HW238145   4.601   2.193  14.516  0.8490  1.2056 -0.7302
 8837SOL     OW38146   0.495   2.547  12.768  0.5537 -0.0584 -0.8170
 8837SOL    HW138147   0.421   2.496  12.734  1.0326 -0.5999 -1.0466
 8837SOL    HW238148   0.453   2.631  12.749 -1.6720 -0.9363  0.1707
 8838SOL     OW38149   2.713   0.921   7.638  0.4958  0.3950 -0.0773
 8838SOL    HW138150   2.809   0.926   7.639  0.5423 -0.2557 -0.9155
 8838SOL    HW238151   2.699   0.853   7.572  1.5658  0.0497  0.0514
 8839SOL     OW38152   0.678   0.931  14.457  0.1801  0.7103 -0.1589
 8839SOL    HW138153   0.692   0.951  14.365  1.9629  0.9057  0.1675
 8839SOL    HW238154   0.653   1.018  14.489 -0.7062  0.1456  0.7071
 8840SOL     OW38155   3.353   2.711   8.870  0.2843  0.0687  0.7062
 8840SOL    HW138156   3.283   2.662   8.827 -0.8391  0.7270  1.8088
 8840SOL    HW238157   3.421   2.646   8.850  0.5460  0.4079  0.5008
 8841SOL     OW38158   2.408   3.752   1.287  0.2819  0.0390  0.5614
 8841SOL    HW138159   2.363   3.684   1.236 -1.1786  0.0567  1.8272
 8841SOL    HW238160   2.489   3.705   1.307  0.8368  2.5292  4.2137
 8842SOL     OW38161   1.073   0.283  13.165 -0.0291  0.0163 -0.9093
 8842SOL    HW138162   1.168   0.285  13.177  0.0702  2.5473 -2.1562
 8842SOL    HW238163   1.043   0.290  13.256 -0.7576 -1.6552 -1.0335
 8843SOL     OW38164   2.381   3.511   3.260  0.0894 -0.0122 -0.0362
 8843SOL    HW138165   2.322   3.436   3.252 -0.6365  0.0104  4.8834
 8843SOL    HW238166   2.352   3.574   3.194  2.0212  0.9318  0.0188
 8844SOL     OW38167   0.864   0.279  11.714 -0.1967 -0.0697  0.1793
 8844SOL    HW138168   0.904   0.201  11.677  1.3084 -0.2973  2.2879
 8844SOL    HW238169   0.813   0.230  11.779 -0.4345 -0.5943 -0.3981
 8845SOL     OW38170   2.750   0.557   1.811  0.4433 -0.2550 -0.0446
 8845SOL    HW138171   2.774   0.572   1.902  2.8011  4.4237 -1.4532
 8845SOL    HW238172   2.826   0.597   1.769  0.1971 -0.9663 -1.1741
 8846SOL     OW38173   2.693   0.638   8.712  0.2602  0.3042  0.0247
 8846SOL    HW138174   2.662   0.716   8.667 -2.4554 -1.5822 -1.3347
 8846SOL    HW238175   2.656   0.565   8.663  2.3829 -0.9225  0.1992
 8847SOL     OW38176   1.917   4.199   6.326 -0.7575 -0.2657 -0.2239
 8847SOL    HW138177   1.900   4.269   6.389 -0.3164  0.1435 -0.5501
 8847SOL    HW238178   1.843   4.144   6.349 -0.9268  0.3804  0.7510
 8848SOL     OW38179   2.954   3.530   9.263  0.1317 -0.2223 -0.1096
 8848SOL    HW138180   2.988   3.608   9.307  0.0485 -0.0740 -0.3088
 8848SOL    HW238181   2.903   3.572   9.194 -0.1929 -1.8999 -0.8961
 8849SOL     OW38182   0.229   4.570   4.914  0.0870  0.7318  0.2513
 8849SOL    HW138183   0.283   4.588   4.991  2.2319  1.1296 -1.3528
 8849SOL    HW238184   0.148   4.621   4.917 -0.2567  0.1293  1.1554
 8850SOL     OW38185   4.128   4.072   0.828 -0.0247 -0.0093 -0.6542
 8850SOL    HW138186   4.157   3.993   0.783 -0.9603 -0.6883 -0.0781
 8850SOL    HW238187   4.076   4.122   0.766  0.2717 -2.5955 -2.9604
 8851SOL     OW38188   2.218   0.014   7.451 -0.3227  0.4171  0.1338
 8851SOL    HW138189   2.133   0.034   7.490 -0.4819 -4.4592  2.2198
 8851SOL    HW238190   2.276   0.055   7.516 -0.4536 -0.0217  0.5229
 8852SOL     OW38191   0.328   1.106   0.844 -0.0613  0.0534 -0.2473
 8852SOL    HW138192   0.364   1.091   0.932  2.6778 -1.6694 -1.6507
 8852SOL    HW238193   0.394   1.147   0.788 -0.4922  0.4431 -0.4708
 8853SOL     OW38194   1.801   0.538   6.422 -0.7489 -0.1624 -0.1893
 8853SOL    HW138195   1.711   0.524   6.452 -0.7809  1.0507  0.3086
 8853SOL    HW238196   1.842   0.456   6.450 -0.8343  0.0544  0.5625
 8854SOL     OW38197   1.320   0.124   7.543  0.7641  0.4244 -0.1890
 8854SOL    HW138198   1.398   0.149   7.594 -0.3355  1.1148  1.1748
 8854SOL    HW238199   1.354   0.162   7.462 -0.5657  3.1337  0.5026
 8855SOL     OW38200   0.208   0.660   2.905 -0.1784 -0.7104 -0.0851
 8855SOL    HW138201   0.274   0.612   2.856  1.0547  0.3837  0.5059
 8855SOL    HW238202   0.135   0.671   2.844  1.1038  0.3639 -1.4291
 8856SOL     OW38203   0.939   0.347  16.568 -0.0094 -0.1598 -0.2905
 8856SOL    HW138204   1.020   0.319  16.611 -0.4449 -0.2735  0.4693
 8856SOL    HW238205   0.886   0.363  16.647 -0.1121 -0.2848 -0.3345
 8857SOL     OW38206   3.242   1.665   2.559  0.5444  0.2075  0.1451
 8857SOL    HW138207   3.158   1.673   2.515 -0.4250 -1.0742  1.7611
 8857SOL    HW238208   3.303   1.707   2.498  0.4765 -1.2450 -0.9161
 8858SOL     OW38209   1.089   1.563   0.822 -0.7996  0.6434 -0.2358
 8858SOL    HW138210   1.070   1.470   0.835  1.4113  0.3546  0.7900
 8858SOL    HW238211   1.019   1.596   0.879  0.3587 -0.2227  1.6675
 8859SOL     OW38212   1.685   3.733   1.564 -0.1378 -0.7040  0.3519
 8859SOL    HW138213   1.768   3.710   1.607  0.7102  1.3636 -0.1638
 8859SOL    HW238214   1.695   3.813   1.512  3.7161  0.3993  2.7615
 8860SOL     OW38215   1.988   3.664   2.171 -0.5692  0.0985 -0.1293
 8860SOL    HW138216   1.911   3.607   2.169  0.0748 -0.7872  0.2785
 8860SOL    HW238217   2.028   3.635   2.089 -1.0122  0.9447 -0.6427
 8861SOL     OW38218   1.743   1.746   7.540 -0.3084 -0.1820 -0.3649
 8861SOL    HW138219   1.702   1.711   7.619 -0.4663 -0.1772 -0.4440
 8861SOL    HW238220   1.777   1.666   7.501  0.6311 -1.0397  2.2198
 8862SOL     OW38221   2.868   2.361   6.820  0.1775  0.2002 -0.4535
 8862SOL    HW138222   2.888   2.293   6.755  0.9386  0.4707 -0.5019
 8862SOL    HW238223   2.814   2.323   6.889  0.9354  0.0537  0.0489
 8863SOL     OW38224   3.507   3.395   3.451  0.4347 -0.8198  0.1222
 8863SOL    HW138225   3.421   3.355   3.455 -0.2474  0.4771 -1.3273
 8863SOL    HW238226   3.558   3.338   3.508 -1.0919 -0.7375  1.5541
 8864SOL     OW38227   1.230   0.523   3.969  0.0201  0.4589  0.2827
 8864SOL    HW138228   1.279   0.518   4.051  0.1217 -0.9588  0.1348
 8864SOL    HW238229   1.259   0.443   3.926  0.2029  1.3272 -1.2290
 8865SOL     OW38230   2.455   1.408  16.577 -0.0539  0.0420 -0.5088
 8865SOL    HW138231   2.371   1.362  16.586  0.4690 -1.1088 -1.4416
 8865SOL    HW238232   2.520   1.342  16.602  0.9426  1.0609 -0.4349
 8866SOL     OW38233   2.259   1.408   2.167 -0.0787 -0.7153  0.2152
 8866SOL    HW138234   2.187   1.374   2.220 -1.5454 -2.2189 -2.7490
 8866SOL    HW238235   2.307   1.459   2.233 -1.6283 -0.1474  0.9013
 8867SOL     OW38236   2.446   1.911   2.438 -0.0192  0.8139  0.0327
 8867SOL    HW138237   2.540   1.894   2.449 -0.5392 -1.8421  0.4317
 8867SOL    HW238238   2.423   1.952   2.521 -1.1020 -1.6459  0.9365
 8868SOL     OW38239   2.875   1.252   3.649 -0.6648 -0.1041 -1.0459
 8868SOL    HW138240   2.836   1.254   3.562 -0.7101 -0.5520 -1.0338
 8868SOL    HW238241   2.807   1.216   3.706 -1.1042  2.6045  0.1259
 8869SOL     OW38242   0.444   3.025   1.490 -0.1530  0.0334 -0.5493
 8869SOL    HW138243   0.486   2.945   1.522 -1.1780  0.1239  1.0160
 8869SOL    HW238244   0.422   3.078   1.567  2.4606 -1.2587  1.0837
 8870SOL     OW38245   1.316   1.534  10.223  0.3777  0.3709  0.1603
 8870SOL    HW138246   1.388   1.473  10.238  1.0291  1.4321  1.3022
 8870SOL    HW238247   1.272   1.486  10.153  0.1594 -0.7474  1.0697
 8871SOL     OW38248   0.958   0.218  17.409  0.3458 -0.1630  0.4271
 8871SOL    HW138249   0.912   0.159  17.469 -0.8600  1.5488  1.1994
 8871SOL    HW238250   1.045   0.228  17.446  0.6039 -0.3054 -0.1407
 8872SOL     OW38251   4.514   3.786   5.176  0.0272 -0.1057 -0.1797
 8872SOL    HW138252   4.458   3.776   5.253  0.0378  0.6342 -0.0760
 8872SOL    HW238253   4.496   3.878   5.156  1.0259 -0.0622 -0.8662
 8873SOL     OW38254   3.356   0.167   5.847 -0.2446  0.1178 -0.1738
 8873SOL    HW138255   3.278   0.176   5.901  0.2544 -1.7753  0.8804
 8873SOL    HW238256   3.407   0.231   5.897  0.3988 -0.7335  0.2646
 8874SOL     OW38257   2.122   2.787   8.902  0.3557  0.1546 -0.1712
 8874SOL    HW138258   2.118   2.878   8.872  0.6444  0.2449  0.0625
 8874SOL    HW238259   2.216   2.776   8.913  0.0142 -2.3860  0.0585
 8875SOL     OW38260   0.486   0.798   7.256 -0.0374  0.1799  0.0083
 8875SOL    HW138261   0.467   0.812   7.349  3.1690  2.0159  0.3588
 8875SOL    HW238262   0.580   0.786   7.260 -0.0317  0.0840 -0.3442
 8876SOL     OW38263   4.197   0.649   9.012 -0.2488  0.2074 -0.1710
 8876SOL    HW138264   4.202   0.566   8.965  1.7889 -0.4113  1.1311
 8876SOL    HW238265   4.187   0.705   8.935  0.4275 -2.1458 -1.9503
 8877SOL     OW38266   1.778   3.996   8.684  0.0229 -0.1614 -0.1051
 8877SOL    HW138267   1.871   3.975   8.686 -0.1748 -1.0386  0.1178
 8877SOL    HW238268   1.742   3.916   8.723  0.4965 -0.4930 -0.3542
 8878SOL     OW38269   0.325   3.296  15.628  0.0472  0.1868 -0.4807
 8878SOL    HW138270   0.284   3.212  15.609  0.6742 -0.9062  2.9140
 8878SOL    HW238271   0.261   3.366  15.611 -1.3994 -0.9336  0.3081
 8879SOL     OW38272   3.242   2.793   7.659 -0.0707  0.3360 -0.0297
 8879SOL    HW138273   3.288   2.713   7.634  1.9408  1.2924  0.6339
 8879SOL    HW238274   3.166   2.791   7.601  0.5787  0.4136 -0.8811
 8880SOL     OW38275   2.702   3.961  13.689 -0.3717 -0.0789  0.1561
 8880SOL    HW138276   2.688   3.945  13.596 -2.6249  0.3537  0.4130
 8880SOL    HW238277   2.628   4.014  13.720  0.7308  1.2897  0.4343
 8881SOL     OW38278   3.183   2.578  14.632 -0.2021  0.9919 -0.6230
 8881SOL    HW138279   3.129   2.498  14.629  1.4962 -0.1423 -0.9358
 8881SOL    HW238280   3.260   2.543  14.677  0.5441  3.2498 -0.1705
 8882SOL     OW38281   0.204   1.876   7.199 -0.1001  0.2771  0.0071
 8882SOL    HW138282   0.145   1.807   7.169 -0.3148  0.7229 -0.6091
 8882SOL    HW238283   0.221   1.846   7.288 -0.8436  2.1909  0.7967
 8883SOL     OW38284   4.144   3.484   5.533  0.7153  0.3077 -0.0793
 8883SOL    HW138285   4.159   3.502   5.440 -5.1759 -0.1057 -1.1209
 8883SOL    HW238286   4.225   3.436   5.548 -0.2896 -0.8681  1.6388
 8884SOL     OW38287   1.188   4.478   2.522 -0.9245 -0.1741  0.0955
 8884SOL    HW138288   1.235   4.400   2.553 -1.6595 -0.1599  1.2586
 8884SOL    HW238289   1.221   4.480   2.432 -0.9057  1.5498  0.1347
 8885SOL     OW38290   3.703   0.968  15.095 -0.3416 -0.1109 -0.1498
 8885SOL    HW138291   3.791   0.958  15.059 -0.6111 -1.2869 -0.4997
 8885SOL    HW238292   3.653   0.976  15.014 -2.0797  2.7374  1.2061
 8886SOL     OW38293   3.244   3.458  10.037  0.2239 -0.5183 -0.2542
 8886SOL    HW138294   3.286   3.373  10.052  2.8598  1.1363  1.8303
 8886SOL    HW238295   3.242   3.460   9.942  0.9383 -1.0061 -0.2825
 8887SOL     OW38296   0.649   4.698   8.509 -0.4680  0.1420 -0.0396
 8887SOL    HW138297   0.666   0.024   8.576 -0.5126 -0.9685  1.0622
 8887SOL    HW238298   0.562   4.672   8.541 -1.2974  1.0045 -1.6257
 8888SOL     OW38299   3.288   2.227   0.939  0.0663  0.1449 -0.2556
 8888SOL    HW138300   3.195   2.208   0.926  0.1132 -0.9680  1.0833
 8888SOL    HW238301   3.305   2.261   1.027 -2.8350  0.0141  0.3605
 8889SOL     OW38302   0.319   4.062   4.192 -0.0620 -0.5920 -0.2622
 8889SOL    HW138303   0.295   4.056   4.100 -0.3665  1.0193 -0.3019
 8889SOL    HW238304   0.265   3.987   4.217 -0.5270  0.0044  0.5623
 8890SOL     OW38305   3.283   4.062  12.194 -0.0163  0.2844 -0.4519
 8890SOL    HW138306   3.223   4.073  12.268 -1.9649  0.1970 -2.0250
 8890SOL    HW238307   3.246   3.983  12.154 -0.0187  0.1315 -0.1448
 8891SOL     OW38308   0.144   0.581  12.609 -0.3563  0.1608  0.6142
 8891SOL    HW138309   0.209   0.568  12.540  1.2970 -2.4560  2.6914
 8891SOL    HW238310   0.163   0.670  12.638  0.3571 -0.3408  1.7038
 8892SOL     OW38311   3.551   0.145   7.133  0.0215  0.0216  0.0849
 8892SOL    HW138312   3.497   0.068   7.148 -1.5633  1.2501  0.7189
 8892SOL    HW238313   3.532   0.168   7.043  1.4057  1.0705  0.0544
 8893SOL     OW38314   2.574   1.497   1.885 -0.0725  0.1375 -0.4070
 8893SOL    HW138315   2.650   1.547   1.914  0.2430 -0.5033 -0.1405
 8893SOL    HW238316   2.584   1.403   1.897  2.2802  0.5080  0.4259
 8894SOL     OW38317   4.421   4.685   5.183  0.5572  0.4410  0.7849
 8894SOL    HW138318   4.512   4.662   5.164 -0.6381 -2.7078 -1.0251
 8894SOL    HW238319   4.424   0.037   5.210  2.5683  0.7424 -0.4403
 8895SOL     OW38320   2.170   0.772   5.818  0.8607 -0.6424 -0.0797
 8895SOL    HW138321   2.102   0.753   5.754  0.8835 -0.1857 -0.2391
 8895SOL    HW238322   2.201   0.857   5.789  2.9833 -1.5570 -0.4538
 8896SOL     OW38323   0.267   1.369   2.778 -0.1057 -0.2644 -0.6215
 8896SOL    HW138324   0.187   1.337   2.820  0.3115 -0.3908  0.0679
 8896SOL    HW238325   0.257   1.463   2.790  1.8622 -0.3862  1.7463
 8897SOL     OW38326   2.682   0.784   3.208 -0.0474  0.3104 -0.4005
 8897SOL    HW138327   2.777   0.771   3.203 -0.1680 -0.3073 -0.9919
 8897SOL    HW238328   2.668   0.700   3.250 -0.5884 -1.7563 -4.7330
 8898SOL     OW38329   3.748   0.179   9.016  0.6721 -0.0267 -0.3166
 8898SOL    HW138330   3.718   0.255   8.966  1.9339  0.1625 -0.7984
 8898SOL    HW238331   3.668   0.127   9.022  1.4255 -1.1930 -0.4222
 8899SOL     OW38332   4.188   3.942   6.282  0.5165  0.3078 -0.1294
 8899SOL    HW138333   4.252   3.986   6.338  0.4981  0.3541 -0.1445
 8899SOL    HW238334   4.121   4.011   6.276 -0.8473 -1.0849 -1.1630
 8900SOL     OW38335   3.078   4.471   2.610  0.3483 -0.2435  0.0779
 8900SOL    HW138336   3.100   4.542   2.550 -0.4620  0.3846  0.5205
 8900SOL    HW238337   3.081   4.526   2.689  2.4462 -1.5116  0.8781
 8901SOL     OW38338   3.511   3.411   7.811 -0.3043 -0.1495 -0.5041
 8901SOL    HW138339   3.501   3.359   7.891 -2.3192  0.8307 -0.1328
 8901SOL    HW238340   3.422   3.425   7.782 -0.9162 -1.8067  0.5602
 8902SOL     OW38341   1.753   4.582   7.135  0.3442 -1.0434 -0.3794
 8902SOL    HW138342   1.679   4.617   7.184  1.3641  1.8945 -0.9329
 8902SOL    HW238343   1.751   4.500   7.184  2.3334 -0.3361  0.8895
 8903SOL     OW38344   1.171   0.720   0.109 -0.1728 -0.6822  0.4537
 8903SOL    HW138345   1.177   0.716   0.014 -0.7270  1.2088  0.3389
 8903SOL    HW238346   1.262   0.743   0.126 -0.8670  2.4879 -0.2224
 8904SOL     OW38347   1.148   4.415   4.278 -0.4049  0.0891 -0.4437
 8904SOL    HW138348   1.101   4.403   4.196  0.3574 -2.8002 -0.4594
 8904SOL    HW238349   1.109   4.358   4.345  0.6841 -1.8510 -1.4492
 8905SOL     OW38350   1.583   3.232  10.905 -0.2206  0.6196  0.1841
 8905SOL    HW138351   1.579   3.138  10.922 -0.0728  0.1967 -2.1680
 8905SOL    HW238352   1.568   3.232  10.810  1.4932  0.9671 -0.0856
 8906SOL     OW38353   4.574   4.617   9.410 -0.2206  0.3066  0.0681
 8906SOL    HW138354   4.607   4.696   9.454 -2.1100  0.7047  0.7760
 8906SOL    HW238355   4.496   4.654   9.369 -0.0381  0.0522 -0.4932
 8907SOL     OW38356   4.076   2.636   3.658 -0.3222  0.0046 -0.1062
 8907SOL    HW138357   4.067   2.540   3.657 -0.3699  0.0133 -1.0696
 8907SOL    HW238358   4.134   2.642   3.733 -0.3946 -1.1137  0.0505
 8908SOL     OW38359   4.719   3.949   3.769 -0.5825  0.0304 -0.5167
 8908SOL    HW138360   4.736   3.898   3.689 -0.6528  1.6478 -1.5547
 8908SOL    HW238361   4.667   4.022   3.736  0.2351  0.5019 -0.7699
 8909SOL     OW38362   0.439   0.669   1.752 -0.3399 -0.0614 -0.6421
 8909SOL    HW138363   0.415   0.614   1.826 -0.0947 -0.0583 -0.5595
 8909SOL    HW238364   0.518   0.624   1.722 -0.4425 -0.4128 -0.3866
 8910SOL     OW38365   1.309   2.353   7.879  0.4278 -0.3065  0.1923
 8910SOL    HW138366   1.225   2.360   7.833 -0.1144  0.1763  1.2378
 8910SOL    HW238367   1.339   2.286   7.817  0.9216  0.0122  0.0878
 8911SOL     OW38368   0.516   3.522   3.435 -0.3085 -0.1724 -0.5579
 8911SOL    HW138369   0.487   3.441   3.477 -0.7181  0.1193 -0.2859
 8911SOL    HW238370   0.529   3.484   3.349 -1.6764  1.4899 -1.4925
 8912SOL     OW38371   2.079   3.392   7.118  0.2846 -0.6184 -0.4850
 8912SOL    HW138372   2.120   3.458   7.063 -2.5452  0.6250 -1.0989
 8912SOL    HW238373   1.998   3.364   7.074 -1.7597  2.2733  1.4307
 8913SOL     OW38374   3.817   0.609   8.895 -0.3270  0.2132 -0.0906
 8913SOL    HW138375   3.819   0.660   8.976 -2.6715 -0.0766  0.1490
 8913SOL    HW238376   3.905   0.616   8.858 -0.0749  1.5153  0.7994
 8914SOL     OW38377   3.175   3.209   3.036  0.2679  0.3069 -0.1870
 8914SOL    HW138378   3.243   3.276   3.026  0.1380  0.8001  2.2197
 8914SOL    HW238379   3.128   3.249   3.108  1.7276 -0.8960  1.4278
 8915SOL     OW38380   3.216   1.868   2.757  0.1626 -0.1784 -0.1656
 8915SOL    HW138381   3.311   1.883   2.757  0.2581 -0.7527  1.8728
 8915SOL    HW238382   3.195   1.810   2.684 -0.3411 -0.7824  0.4523
 8916SOL     OW38383   2.805   0.501   6.376  0.2510  0.2361  0.0330
 8916SOL    HW138384   2.871   0.435   6.356  0.4210  1.1889 -2.4585
 8916SOL    HW238385   2.723   0.458   6.352  2.1079 -2.0227 -2.0919
 8917SOL     OW38386   4.322   0.084   7.185 -0.4049  0.5482 -0.6302
 8917SOL    HW138387   4.249   0.091   7.123 -1.2473 -0.0225  0.3106
 8917SOL    HW238388   4.370   0.166   7.172  0.5088  0.1242  0.0714
 8918SOL     OW38389   2.344   1.831   3.390 -0.3348  0.5107  0.2277
 8918SOL    HW138390   2.311   1.788   3.311  0.2066 -1.9514  1.3290
 8918SOL    HW238391   2.266   1.880   3.419  0.3560  0.6974  1.7501
 8919SOL     OW38392   2.798   3.705   3.960  0.0978 -0.1307 -0.2757
 8919SOL    HW138393   2.760   3.730   3.875  1.2004 -0.0946 -0.7556
 8919SOL    HW238394   2.861   3.638   3.932  0.5000  0.6963 -1.3417
 8920SOL     OW38395   1.120   1.211   5.617  0.0525 -0.4206  0.2945
 8920SOL    HW138396   1.192   1.245   5.565 -1.8808  0.3241 -1.8730
 8920SOL    HW238397   1.132   1.116   5.628 -1.1045 -0.3579  2.1663
 8921SOL     OW38398   4.697   4.235   3.168  0.4181  0.6847 -0.7509
 8921SOL    HW138399   4.641   4.271   3.237 -0.2276  0.5665 -1.2222
 8921SOL    HW238400   4.723   4.316   3.124  2.6790  0.3064 -0.1356
 8922SOL     OW38401   0.239   0.422  17.108  0.1492 -0.2205 -0.6747
 8922SOL    HW138402   0.309   0.437  17.045  1.5651  1.4549  1.2605
 8922SOL    HW238403   0.171   0.466  17.057  1.0439  3.2049  1.0447
 8923SOL     OW38404   4.084   2.280  15.737  0.2767  0.6849 -0.1216
 8923SOL    HW138405   4.026   2.356  15.745  0.2270  0.7872 -1.3961
 8923SOL    HW238406   4.089   2.242  15.824  1.8482 -0.7391 -0.8530
 8924SOL     OW38407   2.176   2.509   7.324 -0.1713  0.0543 -0.6327
 8924SOL    HW138408   2.118   2.434   7.337 -0.6582  0.2913 -1.4652
 8924SOL    HW238409   2.119   2.583   7.347  0.6455 -0.3770  2.8102
 8925SOL     OW38410   1.986   0.211   4.939 -0.1899  0.1525 -0.1420
 8925SOL    HW138411   1.911   0.152   4.931 -1.5189  2.1431 -2.5964
 8925SOL    HW238412   1.953   0.294   4.902  0.8906  0.2066 -0.9880
 8926SOL     OW38413   2.577   4.361   6.782  0.2134 -0.1674 -0.1660
 8926SOL    HW138414   2.489   4.400   6.780  0.8646  1.2856 -0.8857
 8926SOL    HW238415   2.570   4.323   6.694  1.0399 -0.2983 -0.1718
 8927SOL     OW38416   3.638   3.372   8.294 -0.3379 -0.3295 -0.5272
 8927SOL    HW138417   3.689   3.452   8.283 -0.2520  0.1165  2.8896
 8927SOL    HW238418   3.562   3.392   8.349 -1.4929  0.2206 -2.3158
 8928SOL     OW38419   2.971   1.986  16.212 -0.0836 -0.1624  0.4135
 8928SOL    HW138420   2.924   1.905  16.190 -0.8772  0.0906  1.1541
 8928SOL    HW238421   2.900   2.049  16.203 -1.3260 -1.8226 -1.3495
 8929SOL     OW38422   0.262   0.228   4.208 -0.2648 -0.2188 -0.9226
 8929SOL    HW138423   0.202   0.189   4.145  2.5269 -4.0790 -1.1602
 8929SOL    HW238424   0.226   0.188   4.287  0.2671  1.6765  0.2956
 8930SOL     OW38425   1.196   0.422   2.870 -0.1053 -0.0512 -0.0697
 8930SOL    HW138426   1.227   0.513   2.870  2.2098 -0.8557 -0.3274
 8930SOL    HW238427   1.169   0.414   2.962  0.7068  0.1120  0.1796
 8931SOL     OW38428   3.162   3.717   4.901  0.3756  0.3231  0.0259
 8931SOL    HW138429   3.169   3.663   4.822 -2.4304  1.3535 -0.9318
 8931SOL    HW238430   3.110   3.648   4.940 -0.9738  0.9169 -0.7302
 8932SOL     OW38431   4.355   0.673  16.280 -1.2000 -0.2717 -0.4672
 8932SOL    HW138432   4.297   0.621  16.335 -1.4003  0.2920 -0.1409
 8932SOL    HW238433   4.324   0.760  16.307 -0.9672 -1.6762  4.2775
 8933SOL     OW38434   2.008   2.452   5.199  0.0009  0.3623  0.3139
 8933SOL    HW138435   2.004   2.439   5.105  1.4961  2.5610 -0.0743
 8933SOL    HW238436   1.937   2.394   5.227 -1.2018  0.7341 -1.9870
 8934SOL     OW38437   4.397   3.422   5.519 -0.1848  0.5031 -0.1084
 8934SOL    HW138438   4.444   3.339   5.524  0.5916  0.9094 -0.7439
 8934SOL    HW238439   4.419   3.462   5.435 -0.6559  0.0892 -0.4292
 8935SOL     OW38440   3.106   1.303   4.918  0.1552  0.2785 -0.4631
 8935SOL    HW138441   3.063   1.351   4.847 -1.0507  1.3665  0.9924
 8935SOL    HW238442   3.190   1.276   4.880 -1.2864 -0.1134 -3.3307
 8936SOL     OW38443   2.154   4.554   1.909  0.1854 -0.3120 -0.3080
 8936SOL    HW138444   2.144   4.505   1.828  0.5974 -0.3286 -0.3471
 8936SOL    HW238445   2.074   4.523   1.952  0.8332 -0.6651  0.6588
 8937SOL     OW38446   3.507   3.927   0.735  0.0855  0.0934  0.2982
 8937SOL    HW138447   3.416   3.927   0.764 -0.0988 -2.0090 -0.2573
 8937SOL    HW238448   3.548   3.960   0.815  0.9895 -2.3117  0.8270
 8938SOL     OW38449   3.987   3.079  15.596 -0.4786  0.3071  0.5030
 8938SOL    HW138450   4.069   3.031  15.606 -0.1954  0.2450 -2.1625
 8938SOL    HW238451   3.987   3.104  15.503  2.1087  1.7203  0.8765
 8939SOL     OW38452   0.499   2.667  16.760 -0.5454  0.1773 -0.1879
 8939SOL    HW138453   0.567   2.732  16.742 -0.4736  0.2867  0.4926
 8939SOL    HW238454   0.516   2.604  16.690  4.2517 -0.0451  1.1698
 8940SOL     OW38455   3.492   2.404   3.905 -0.1410  0.0208  0.4219
 8940SOL    HW138456   3.492   2.308   3.900  1.0320  0.0799 -0.5647
 8940SOL    HW238457   3.417   2.428   3.850  0.2456  1.9653  0.7323
 8941SOL     OW38458   3.753   1.451   3.042  0.4019  0.3713  0.8445
 8941SOL    HW138459   3.766   1.401   3.123  0.3002 -1.2772 -0.1406
 8941SOL    HW238460   3.657   1.457   3.039  0.2949 -1.9596 -0.4306
 8942SOL     OW38461   3.573   3.967  10.515  0.1478  0.2512  0.1909
 8942SOL    HW138462   3.648   3.974  10.456  1.4133 -0.5642  1.7241
 8942SOL    HW238463   3.535   3.882  10.491  0.4197 -0.6948  3.1550
 8943SOL     OW38464   2.391   3.149   0.730  0.2487 -0.6740  0.1880
 8943SOL    HW138465   2.447   3.218   0.693 -2.0998 -0.2239 -2.4698
 8943SOL    HW238466   2.452   3.110   0.794  0.2607 -0.2647  0.4252
 8944SOL     OW38467   2.375   1.822   4.932 -0.3732  0.3020 -0.3391
 8944SOL    HW138468   2.409   1.778   5.010 -0.1240  1.8473  0.4362
 8944SOL    HW238469   2.346   1.899   4.982  1.2423  0.7853 -0.1387
 8945SOL     OW38470   3.794   0.793   5.759 -0.0559  0.4269  0.1339
 8945SOL    HW138471   3.743   0.869   5.788  0.1549  1.3613 -1.9353
 8945SOL    HW238472   3.875   0.791   5.809 -0.0691 -1.4290  0.0735
 8946SOL     OW38473   4.604   0.216  15.663  0.3479 -0.0713  0.4436
 8946SOL    HW138474   4.665   0.276  15.705 -0.2402 -0.7022  2.2132
 8946SOL    HW238475   4.672   0.154  15.636  1.2111  1.5073 -0.9921
 8947SOL     OW38476   3.736   1.329   3.290 -0.3207 -0.6354 -0.2661
 8947SOL    HW138477   3.789   1.298   3.364  0.0983  0.1795 -0.2311
 8947SOL    HW238478   3.673   1.383   3.337  0.0197 -1.3508  1.0487
 8948SOL     OW38479   3.619   0.602   4.643  0.5086 -0.2827 -0.2789
 8948SOL    HW138480   3.712   0.585   4.658  0.8948  1.9507 -0.2072
 8948SOL    HW238481   3.574   0.555   4.714  0.3009  0.6414  0.2048
 8949SOL     OW38482   3.834   3.096   0.263 -0.2983 -0.1803  0.1580
 8949SOL    HW138483   3.829   3.158   0.335 -0.1380  0.4086 -0.3421
 8949SOL    HW238484   3.878   3.019   0.300  1.1055  0.3833 -0.3377
 8950SOL     OW38485   2.450   2.600   8.036  0.2151 -0.1089  0.1773
 8950SOL    HW138486   2.475   2.577   7.947 -1.2574  0.0403 -0.2777
 8950SOL    HW238487   2.527   2.649   8.064  0.9447 -1.4051  0.4729
 8951SOL     OW38488   1.661   3.298   5.248 -0.0933  0.5713  0.4258
 8951SOL    HW138489   1.672   3.381   5.201 -1.1782  0.9777  0.8807
 8951SOL    HW238490   1.747   3.257   5.243 -1.6846 -2.3949 -3.0170
 8952SOL     OW38491   4.382   3.068   8.373  0.1859  0.3189 -0.1274
 8952SOL    HW138492   4.394   3.105   8.461 -0.8718 -1.3031  0.6835
 8952SOL    HW238493   4.363   3.144   8.318 -0.9168 -0.4449 -0.7895
 8953SOL     OW38494   1.176   3.353  12.064 -0.2200  0.4892 -0.1388
 8953SOL    HW138495   1.260   3.347  12.111 -0.7200 -0.8534  0.5790
 8953SOL    HW238496   1.204   3.300  11.990 -1.7870 -1.3345  0.5933
 8954SOL     OW38497   3.043   2.160  17.650 -0.3375 -0.3594 -0.7179
 8954SOL    HW138498   2.956   2.121  17.660 -1.0965  0.6451 -3.5779
 8954SOL    HW238499   3.102   2.088  17.674 -0.2976 -0.1781 -0.2822
 8955SOL     OW38500   3.323   0.744  16.891  0.3107  0.2679  0.2700
 8955SOL    HW138501   3.300   0.699  16.973  0.2700  0.3883  0.3258
 8955SOL    HW238502   3.418   0.742  16.895  0.3425 -0.3157 -1.0756
 8956SOL     OW38503   4.191   0.855  16.715  0.4790  0.1965 -0.3355
 8956SOL    HW138504   4.202   0.882  16.624  1.9179 -1.9795 -0.7996
 8956SOL    HW238505   4.177   0.760  16.710 -0.7701  0.3765 -0.1486
 8957SOL     OW38506   0.937   1.362   8.767  0.8166  0.0773  0.3084
 8957SOL    HW138507   0.970   1.399   8.849  0.8861 -0.4497  0.5194
 8957SOL    HW238508   0.971   1.272   8.774 -4.3725 -1.9754 -1.2488
 8958SOL     OW38509   1.762   1.979   2.078 -0.4017 -0.2553 -0.0198
 8958SOL    HW138510   1.711   1.916   2.026  0.4487  1.4396 -2.9022
 8958SOL    HW238511   1.816   1.924   2.135 -0.9482 -0.8145 -0.0465
 8959SOL     OW38512   0.703   3.799  13.509  0.1813  0.1518 -0.4317
 8959SOL    HW138513   0.791   3.805  13.473 -0.3500  1.7093 -1.4791
 8959SOL    HW238514   0.725   3.794  13.602 -1.3021  1.5823  0.0234
 8960SOL     OW38515   4.712   0.279   0.598 -0.2401  1.2467 -0.2180
 8960SOL    HW138516   4.725   0.198   0.646 -0.3372  1.2658 -0.1591
 8960SOL    HW238517   0.060   0.289   0.562 -0.0041 -0.6720 -0.1632
 8961SOL     OW38518   3.156   0.824   3.386  0.1719  0.4022  0.1787
 8961SOL    HW138519   3.241   0.789   3.358  0.5378  1.5106 -0.1048
 8961SOL    HW238520   3.188   0.895   3.442 -0.8769  0.8154  0.2556
 8962SOL     OW38521   3.001   0.012  13.553 -0.5916  0.5544 -0.2041
 8962SOL    HW138522   2.986   0.082  13.489 -0.1622 -0.5279 -1.4695
 8962SOL    HW238523   3.039   4.691  13.490  0.1646 -0.8768  1.6276
 8963SOL     OW38524   1.956   4.140  11.101  0.1138 -0.0629  0.0393
 8963SOL    HW138525   1.890   4.206  11.120  1.6524  1.2599  0.7068
 8963SOL    HW238526   1.892   4.070  11.112  1.0378 -0.6189  1.9669
 8964SOL     OW38527   0.223   2.996   7.530 -0.6846 -0.0607 -0.2337
 8964SOL    HW138528   0.290   3.064   7.528  0.1166 -0.9038 -2.3355
 8964SOL    HW238529   0.147   3.051   7.550  0.0626  0.5271  0.9570
 8965SOL     OW38530   3.943   1.844   2.105  0.0186 -0.0164 -0.0613
 8965SOL    HW138531   3.968   1.838   2.013 -1.5304  0.0344 -0.4815
 8965SOL    HW238532   4.020   1.810   2.150  0.7386  1.2027 -0.3783
 8966SOL     OW38533   2.859   4.226   0.403  0.0343  0.1927  0.0709
 8966SOL    HW138534   2.809   4.293   0.357  1.1111  0.8479 -0.1503
 8966SOL    HW238535   2.841   4.148   0.350 -0.3833  2.0802 -2.5664
 8967SOL     OW38536   1.861   4.380  11.911 -0.1772 -0.5189 -0.1352
 8967SOL    HW138537   1.810   4.459  11.927  0.2853 -0.0177 -1.1372
 8967SOL    HW238538   1.844   4.363  11.818 -1.7638 -2.6549  0.5524
 8968SOL     OW38539   2.890   0.669   8.440  0.3295  0.0122  0.4779
 8968SOL    HW138540   2.831   0.656   8.365 -1.3658  0.5228  1.7329
 8968SOL    HW238541   2.971   0.625   8.414  1.0568  2.2050 -1.0207
 8969SOL     OW38542   1.156   2.518  10.695 -0.1229  0.5151  0.5354
 8969SOL    HW138543   1.247   2.495  10.681 -1.1048 -2.1379 -1.4037
 8969SOL    HW238544   1.150   2.610  10.721  1.0636  0.8708 -0.5100
 8970SOL     OW38545   0.429   4.667   2.001  0.6240  0.1223  0.1299
 8970SOL    HW138546   0.377   4.708   2.071  0.7597 -0.7303  0.7342
 8970SOL    HW238547   0.470   4.598   2.053  0.1804  0.0891  0.4364
 8971SOL     OW38548   2.592   3.019   2.185 -0.2822  0.1812  0.2182
 8971SOL    HW138549   2.654   3.066   2.129 -0.2405 -0.8915 -0.6284
 8971SOL    HW238550   2.513   3.072   2.190  0.8242  1.8936 -0.5863
 8972SOL     OW38551   0.737   0.339  10.364  0.2559  0.3194 -0.1266
 8972SOL    HW138552   0.670   0.363  10.427 -0.0993 -0.0249 -0.3741
 8972SOL    HW238553   0.784   0.422  10.359 -1.1978  1.1438 -0.1192
 8973SOL     OW38554   1.807   4.279   5.899 -0.7674 -0.6005  0.3836
 8973SOL    HW138555   1.901   4.275   5.917 -1.1094 -2.7862  1.7225
 8973SOL    HW238556   1.811   4.222   5.822  1.4572  0.3097 -0.1530
 8974SOL     OW38557   4.337   2.125   6.700  0.1259 -0.0787 -0.1630
 8974SOL    HW138558   4.282   2.127   6.778  0.5183  3.3118  0.0335
 8974SOL    HW238559   4.365   2.034   6.692  0.2450  0.0884 -1.7175
 8975SOL     OW38560   4.560   0.114   3.364 -0.7985  0.2994  0.7178
 8975SOL    HW138561   4.477   0.069   3.348 -0.2040 -0.3384 -0.6467
 8975SOL    HW238562   4.546   0.203   3.332  2.0264  0.9069  1.2113
 8976SOL     OW38563   2.134   4.201   8.982  0.4904 -0.8398  0.1600
 8976SOL    HW138564   2.045   4.234   8.986  0.8702  0.2680 -0.2907
 8976SOL    HW238565   2.157   4.196   8.889  1.1796  2.9940  0.1203
 8977SOL     OW38566   3.697   2.702  17.373  0.5882 -0.6209  0.1902
 8977SOL    HW138567   3.605   2.688  17.398  0.7381  1.6749  2.0393
 8977SOL    HW238568   3.691   2.769  17.305  0.4564 -0.8748 -0.0475
 8978SOL     OW38569   1.331   0.573   6.167  0.2654 -0.1486  0.0526
 8978SOL    HW138570   1.346   0.652   6.114 -0.0870 -0.6179 -0.7553
 8978SOL    HW238571   1.286   0.613   6.241  0.9941  0.5912  0.1008
 8979SOL     OW38572   1.899   0.796   3.393  0.1793 -0.4737 -0.5670
 8979SOL    HW138573   1.983   0.806   3.438  0.9272  2.7248 -2.6295
 8979SOL    HW238574   1.846   0.752   3.458 -2.1202  0.0839 -2.0542
 8980SOL     OW38575   1.448   2.550  17.646 -0.5535  0.3615  0.2307
 8980SOL    HW138576   1.469   2.643  17.656 -1.1191  0.2174  2.7236
 8980SOL    HW238577   1.417   2.545  17.556 -0.2892  1.3752  0.0723
 8981SOL     OW38578   4.586   2.783  17.298  0.2538  0.6419 -0.6782
 8981SOL    HW138579   4.678   2.797  17.321  0.2345 -1.3452  0.5794
 8981SOL    HW238580   4.580   2.690  17.276  1.4073  1.2806 -3.7050
 8982SOL     OW38581   4.364   3.283   8.198 -0.1359  0.0627  0.4303
 8982SOL    HW138582   4.416   3.334   8.135 -0.5723 -0.0472 -0.0243
 8982SOL    HW238583   4.281   3.331   8.200  0.2453  0.7534 -0.4736
 8983SOL     OW38584   3.840   3.833   2.173  0.2430  0.5294 -0.1375
 8983SOL    HW138585   3.803   3.920   2.187  0.6635  0.9536 -1.6452
 8983SOL    HW238586   3.754   3.792   2.161 -0.5162  2.2380 -0.6024
 8984SOL     OW38587   3.440   1.431   8.641  0.5783  0.2782 -0.0289
 8984SOL    HW138588   3.389   1.429   8.722  3.5768  1.8482  1.9232
 8984SOL    HW238589   3.518   1.480   8.667  1.3009 -1.2053  0.6281
 8985SOL     OW38590   4.087   2.446   9.663 -0.3974  0.4776  0.0275
 8985SOL    HW138591   4.056   2.391   9.735  2.6139 -1.5727 -0.2549
 8985SOL    HW238592   4.036   2.527   9.671 -0.7722  0.3524 -1.1124
 8986SOL     OW38593   1.472   1.265   4.670  0.0936  0.3970  0.6345
 8986SOL    HW138594   1.456   1.341   4.726 -2.1500 -0.9069  1.7564
 8986SOL    HW238595   1.515   1.308   4.596 -0.7230 -1.6865 -1.0629
 8987SOL     OW38596   3.318   3.645   4.424 -0.7901  0.0934  0.0193
 8987SOL    HW138597   3.373   3.616   4.351  2.7875  0.8141  2.4061
 8987SOL    HW238598   3.369   3.611   4.498 -0.8036  1.3773  0.6118
 8988SOL     OW38599   1.009   1.897   8.087  0.0958  0.0822  0.2633
 8988SOL    HW138600   1.069   1.838   8.042 -2.5903 -1.0331 -1.8698
 8988SOL    HW238601   1.074   1.966   8.095 -0.9670  0.9713  1.2785
 8989SOL     OW38602   2.933   4.112   3.340 -0.6523  0.2317  0.1114
 8989SOL    HW138603   2.953   4.148   3.426  1.8297 -0.4944 -0.1832
 8989SOL    HW238604   2.837   4.108   3.343 -0.6275 -0.2992  0.1958
 8990SOL     OW38605   4.007   3.018   8.428 -0.3434  0.3766  0.8291
 8990SOL    HW138606   3.915   3.044   8.425  0.1289  1.8414 -1.0073
 8990SOL    HW238607   4.036   3.016   8.337  0.5028  1.6516  1.0691
 8991SOL     OW38608   3.231   1.337   5.172 -0.1320  0.0086 -0.4197
 8991SOL    HW138609   3.192   1.326   5.086 -0.1984  1.2082 -0.5417
 8991SOL    HW238610   3.276   1.252   5.176  1.1050  0.5218 -3.5262
 8992SOL     OW38611   1.093   1.319   6.781  0.8418  0.4575  0.2279
 8992SOL    HW138612   1.161   1.263   6.819 -0.4985  0.7170  3.0636
 8992SOL    HW238613   1.064   1.267   6.706  0.9234 -1.5939  1.5951
 8993SOL     OW38614   4.054   2.561   6.146  0.5357  0.1193  0.0204
 8993SOL    HW138615   4.142   2.591   6.122  0.1641  0.9287 -0.3273
 8993SOL    HW238616   4.033   2.508   6.069 -0.0111  2.7733 -1.6710
 8994SOL     OW38617   3.101   0.142   1.559  0.4702  0.4014 -0.5301
 8994SOL    HW138618   3.135   0.068   1.509  1.3274  1.1196 -1.0161
 8994SOL    HW238619   3.017   0.108   1.588  0.3378  1.2015  0.0301
 8995SOL     OW38620   3.199   3.077   2.022 -0.2046  0.2755  0.8470
 8995SOL    HW138621   3.159   3.164   2.025 -1.3979 -0.3272  2.2812
 8995SOL    HW238622   3.200   3.052   2.115  1.8268 -0.9386  0.5013
 8996SOL     OW38623   0.375   1.566   4.489 -0.1715  0.1824 -0.0561
 8996SOL    HW138624   0.399   1.599   4.403  0.7722 -2.2705 -0.7388
 8996SOL    HW238625   0.433   1.492   4.507 -0.5366 -0.3731 -1.1932
 8997SOL     OW38626   0.170   3.009   0.167 -0.1941 -0.2741 -0.0641
 8997SOL    HW138627   0.194   2.971   0.252  1.9081  1.0653 -0.0546
 8997SOL    HW238628   0.196   3.100   0.182 -1.7654 -0.0190  1.1541
 8998SOL     OW38629   1.986   1.495  15.536 -0.2837  0.2718  0.0752
 8998SOL    HW138630   1.892   1.513  15.534  0.2002  2.5863 -1.7789
 8998SOL    HW238631   2.017   1.530  15.452 -1.4150 -1.8012 -1.2162
 8999SOL     OW38632   0.065   0.106  15.515 -0.0326 -0.2650 -0.3185
 8999SOL    HW138633   0.134   0.067  15.569 -0.1563 -2.0472 -1.4430
 8999SOL    HW238634   0.121   0.165  15.464  0.0463  0.3716  0.5102
 9000SOL     OW38635   3.525   2.306   4.703 -0.3683  0.3489 -0.4397
 9000SOL    HW138636   3.467   2.378   4.677  0.7614  1.4821  0.1259
 9000SOL    HW238637   3.470   2.294   4.780  0.2665  2.2328  0.3155
 9001SOL     OW38638   1.489   3.567   1.994 -0.4637 -0.4229 -0.2795
 9001SOL    HW138639   1.408   3.617   1.991 -1.5152 -2.0468  2.1023
 9001SOL    HW238640   1.469   3.511   2.069 -0.5043  0.2889  0.2421
 9002SOL     OW38641   2.428   3.925   6.378 -0.3155 -0.2784  0.4561
 9002SOL    HW138642   2.493   3.943   6.309 -0.1445  0.6578  0.8559
 9002SOL    HW238643   2.456   3.992   6.440  0.7914 -0.3744  0.0711
 9003SOL     OW38644   3.522   1.767  17.134  0.3352 -0.2897 -0.1230
 9003SOL    HW138645   3.455   1.811  17.082  0.9680  0.1390 -0.5629
 9003SOL    HW238646   3.564   1.704  17.076  0.1041 -0.1316 -0.4611
 9004SOL     OW38647   3.150   4.105   5.642 -0.1445  0.3682 -0.4367
 9004SOL    HW138648   3.132   4.193   5.676 -2.4579  0.4521 -1.8300
 9004SOL    HW238649   3.246   4.107   5.642 -0.1636  1.5652 -0.6254
 9005SOL     OW38650   3.920   0.734  10.213 -0.1832  0.2187 -0.5630
 9005SOL    HW138651   3.918   0.801  10.144  0.7719  1.4996  0.6598
 9005SOL    HW238652   3.830   0.747  10.244 -1.1424  0.9579 -3.6194
 9006SOL     OW38653   0.309   0.277  12.096  0.2316  0.0089 -0.4499
 9006SOL    HW138654   0.291   0.206  12.158  0.4782  0.6743  0.3770
 9006SOL    HW238655   0.260   0.346  12.140 -1.8461 -1.2062 -0.8863
 9007SOL     OW38656   2.381   3.799  15.152 -0.5695  0.2611 -0.0483
 9007SOL    HW138657   2.286   3.808  15.146 -0.3082  1.7550 -1.9672
 9007SOL    HW238658   2.413   3.833  15.068 -1.2165 -0.6063 -0.6465
 9008SOL     OW38659   3.669   2.609   4.286 -0.0412  0.5388 -0.2326
 9008SOL    HW138660   3.650   2.686   4.339  1.8543 -1.5257  3.4619
 9008SOL    HW238661   3.608   2.627   4.215 -1.1056  2.5030  1.1845
 9009SOL     OW38662   4.032   1.953   2.946 -0.5988  0.3192 -0.2656
 9009SOL    HW138663   4.077   2.005   2.879 -0.1264  1.4413  0.9123
 9009SOL    HW238664   4.109   1.931   2.999 -0.7984 -2.0063 -0.9667
 9010SOL     OW38665   1.594   4.014   1.442 -0.4040 -0.4142  0.4284
 9010SOL    HW138666   1.568   4.103   1.419 -0.5074 -0.8081 -0.9567
 9010SOL    HW238667   1.667   3.990   1.385  0.7137 -1.8871  2.4451
 9011SOL     OW38668   0.945   1.197   4.818  0.3096 -0.0887 -0.0879
 9011SOL    HW138669   0.966   1.104   4.828 -1.0488 -0.2538  1.1002
 9011SOL    HW238670   0.869   1.208   4.875 -0.6816 -2.8031 -0.8726
 9012SOL     OW38671   2.952   0.131  13.820 -0.2537 -0.1014 -0.7400
 9012SOL    HW138672   2.978   0.119  13.728 -1.1619 -2.2828 -0.7166
 9012SOL    HW238673   3.022   0.083  13.863 -0.6748 -1.1002 -1.1609
 9013SOL     OW38674   1.629   3.366   6.201 -0.3597 -0.0826  0.6942
 9013SOL    HW138675   1.668   3.286   6.166 -0.6498  0.2845 -0.4685
 9013SOL    HW238676   1.682   3.367   6.281  1.6238 -3.6877 -0.5764
 9014SOL     OW38677   1.996   2.987   5.900 -0.6239 -0.0750  0.3513
 9014SOL    HW138678   1.913   2.954   5.934 -0.4820  2.4330  3.0810
 9014SOL    HW238679   2.021   2.918   5.838  0.0590  0.4240  0.0587
 9015SOL     OW38680   2.833   0.894   1.716  0.3184 -0.3866 -0.2819
 9015SOL    HW138681   2.895   0.822   1.705  0.4866 -0.1478 -0.9042
 9015SOL    HW238682   2.754   0.841   1.724 -0.3670  0.5326 -0.9785
 9016SOL     OW38683   1.865   0.885   0.703 -0.3666 -0.2313  0.0155
 9016SOL    HW138684   1.896   0.794   0.708 -0.8587 -0.3777  0.4500
 9016SOL    HW238685   1.930   0.935   0.654 -0.7939  1.2954  1.0398
 9017SOL     OW38686   1.351   2.761   7.252  0.2257 -0.1781 -0.1742
 9017SOL    HW138687   1.304   2.833   7.210  0.4400 -1.0675 -1.9356
 9017SOL    HW238688   1.288   2.727   7.315  0.2873 -1.0909 -0.6037
 9018SOL     OW38689   0.743   3.589   6.969  0.1909 -0.5302 -0.3492
 9018SOL    HW138690   0.838   3.586   6.965  0.2417  0.6687 -0.2146
 9018SOL    HW238691   0.731   3.629   6.883 -3.8374  2.6169  1.6359
 9019SOL     OW38692   2.413   4.399   3.366  0.2878  0.4371 -0.3236
 9019SOL    HW138693   2.405   4.492   3.344 -0.3582  0.5235  0.2867
 9019SOL    HW238694   2.438   4.362   3.281  0.2672  0.5175 -0.3657
 9020SOL     OW38695   4.103   4.198  14.033 -0.5748  0.5735 -0.2965
 9020SOL    HW138696   4.150   4.131  13.984  0.4032  1.9848 -1.2684
 9020SOL    HW238697   4.015   4.194  13.995 -0.3044  0.2303 -0.8741
 9021SOL     OW38698   3.818   4.498  16.796  0.3536  0.0857  0.1215
 9021SOL    HW138699   3.799   4.467  16.707 -0.4225 -1.2920  0.7735
 9021SOL    HW238700   3.743   4.552  16.819  1.3060  0.5865  2.0587
 9022SOL     OW38701   1.747   3.141   3.077  0.1045 -0.2164 -0.0427
 9022SOL    HW138702   1.745   3.093   2.994 -0.3292 -1.0911  0.4675
 9022SOL    HW238703   1.683   3.207   3.050 -0.9736 -0.6593  1.3988
 9023SOL     OW38704   2.404   0.353   9.346 -0.2210 -0.4656  0.3590
 9023SOL    HW138705   2.355   0.285   9.391  1.1982  0.0162  2.6716
 9023SOL    HW238706   2.478   0.306   9.308  0.4367  2.2248 -1.7489
 9024SOL     OW38707   4.200   1.522   4.929  0.2928 -0.2559 -0.2799
 9024SOL    HW138708   4.215   1.502   4.837 -1.5419  2.3012 -1.1458
 9024SOL    HW238709   4.107   1.539   4.945  0.6676 -0.2417  1.9014
 9025SOL     OW38710   3.860   0.330   2.085 -0.6079 -0.3078 -0.3734
 9025SOL    HW138711   3.946   0.290   2.076  0.0246  1.7726 -3.6348
 9025SOL    HW238712   3.864   0.417   2.125 -0.5812 -1.2887  1.7541
 9026SOL     OW38713   3.024   2.975   5.529 -0.0590  0.4207  0.0966
 9026SOL    HW138714   2.989   2.895   5.490  0.1326  1.3885 -2.0537
 9026SOL    HW238715   3.020   3.041   5.460 -1.1388  0.7010  0.4163
 9027SOL     OW38716   4.588   4.042   2.231  0.2001 -0.0626 -0.4935
 9027SOL    HW138717   4.568   3.949   2.220  0.4230 -0.2323  0.4856
 9027SOL    HW238718   4.591   4.079   2.143 -1.2013  0.1891 -0.4296
 9028SOL     OW38719   0.429   2.293   7.844 -0.8706 -0.1264  0.2180
 9028SOL    HW138720   0.343   2.332   7.862 -1.0049  0.3283 -1.4563
 9028SOL    HW238721   0.473   2.316   7.926 -2.3643  0.1712  0.9452
 9029SOL     OW38722   3.532   4.364   8.037 -0.2172 -0.0133 -0.3653
 9029SOL    HW138723   3.531   4.425   7.964  0.1052  2.9785  2.1063
 9029SOL    HW238724   3.502   4.417   8.112  0.2702  1.2327 -1.0452
 9030SOL     OW38725   3.947   4.190   3.955  0.0811  0.3783 -0.2926
 9030SOL    HW138726   4.005   4.122   3.921  2.2395  2.3542 -0.5285
 9030SOL    HW238727   3.893   4.203   3.877  1.0532 -0.1105 -1.0399
 9031SOL     OW38728   2.904   0.787  14.820  0.2038 -0.1895  0.0195
 9031SOL    HW138729   2.983   0.821  14.862 -1.4399  3.1445  0.4842
 9031SOL    HW238730   2.907   0.821  14.730 -1.6033  2.6554  1.0133
 9032SOL     OW38731   3.574   2.756   7.993  0.4457 -0.2824  0.4300
 9032SOL    HW138732   3.667   2.761   8.013  0.1555  0.5409  1.5588
 9032SOL    HW238733   3.579   2.693   7.921  0.8925  0.0260  0.1852
 9033SOL     OW38734   1.200   1.270   1.949 -0.1891  0.7078  1.1013
 9033SOL    HW138735   1.145   1.327   1.895  1.2168 -1.3786 -2.5548
 9033SOL    HW238736   1.286   1.305   1.928  1.0609 -3.6612 -0.9971
 9034SOL     OW38737   4.512   4.368  14.230  0.4955 -0.0111 -0.1389
 9034SOL    HW138738   4.450   4.442  14.224  1.9106  1.3355  1.9004
 9034SOL    HW238739   4.482   4.337  14.316 -1.0240  4.0247  0.8122
 9035SOL     OW38740   4.590   0.544   7.304  0.4341  0.3071  0.3897
 9035SOL    HW138741   4.667   0.600   7.291 -0.9195  2.2254  0.7951
 9035SOL    HW238742   4.567   0.557   7.395 -1.5372  0.6870 -0.1685
 9036SOL     OW38743   1.452   3.509   7.082  0.4659  0.0320  0.1525
 9036SOL    HW138744   1.534   3.483   7.124 -0.5529 -2.4947  0.6322
 9036SOL    HW238745   1.445   3.599   7.114  1.9567 -0.2677  1.3086
 9037SOL     OW38746   1.938   0.302   5.995  0.4718 -0.3998  0.5284
 9037SOL    HW138747   1.963   0.283   6.086 -0.1878  1.3178  1.0505
 9037SOL    HW238748   2.018   0.352   5.978  0.5118  0.8607  4.3966
 9038SOL     OW38749   2.426   2.399   9.908 -0.4974 -0.1674 -0.1610
 9038SOL    HW138750   2.338   2.435   9.919 -0.3472  0.6753 -1.7421
 9038SOL    HW238751   2.478   2.470   9.944 -0.7785 -0.4025  0.7216
 9039SOL     OW38752   3.821   3.322  17.533 -0.1305 -0.3776  0.3131
 9039SOL    HW138753   3.834   3.227  17.534  2.6561 -0.0263 -0.7419
 9039SOL    HW238754   3.743   3.324  17.588  0.3305  1.5509  0.9121
 9040SOL     OW38755   4.408   4.373   5.097 -0.2064  0.2859 -0.2988
 9040SOL    HW138756   4.409   4.325   5.180  2.9411  0.0510 -0.4651
 9040SOL    HW238757   4.343   4.441   5.112  0.1787  0.5925 -0.0272
 9041SOL     OW38758   2.652   1.986   7.510  0.2543  0.2924 -1.0961
 9041SOL    HW138759   2.672   2.039   7.434  2.8882 -1.0796 -1.3786
 9041SOL    HW238760   2.594   2.048   7.553  3.1367  2.2987 -0.0786
 9042SOL     OW38761   4.725   1.526   8.114 -0.3436  0.9869  0.3823
 9042SOL    HW138762   4.630   1.531   8.104 -0.1801  1.5727 -0.9558
 9042SOL    HW238763   0.005   1.559   8.026  1.0521 -0.1130  0.2933
 9043SOL     OW38764   3.657   0.145   9.879  0.0495 -0.1713  0.3718
 9043SOL    HW138765   3.680   0.238   9.868 -0.6380  0.0385  0.7286
 9043SOL    HW238766   3.723   0.105   9.823  0.1314 -0.5288  0.7283
 9044SOL     OW38767   0.730   4.601   5.262  0.0889 -1.1592 -0.5931
 9044SOL    HW138768   0.777   4.670   5.308 -0.0928 -1.7151  0.4151
 9044SOL    HW238769   0.725   4.535   5.331  1.6469 -1.8579 -1.1541
 9045SOL     OW38770   0.595   1.183  11.896  0.5394 -0.3172  0.8790
 9045SOL    HW138771   0.627   1.128  11.824 -0.4104 -0.6564  0.7141
 9045SOL    HW238772   0.654   1.147  11.962  0.6072 -2.1663 -0.1982
 9046SOL     OW38773   2.198   1.361   7.740 -0.0982 -0.1455  0.2349
 9046SOL    HW138774   2.251   1.330   7.813 -0.8787 -2.4404 -0.1643
 9046SOL    HW238775   2.265   1.364   7.672  1.3749 -1.4520  1.6258
 9047SOL     OW38776   2.772   4.168   7.201  0.2262  0.6909 -0.4707
 9047SOL    HW138777   2.824   4.226   7.257  1.6753 -2.0147  0.9975
 9047SOL    HW238778   2.821   4.086   7.205 -0.6523  0.3966  4.0144
 9048SOL     OW38779   4.165   3.201   4.887  0.1146  0.1993 -0.3476
 9048SOL    HW138780   4.220   3.156   4.823 -1.7264 -0.6329 -1.3478
 9048SOL    HW238781   4.125   3.268   4.832 -0.8347 -0.1859 -0.1335
 9049SOL     OW38782   2.980   1.151  15.803 -0.1931 -0.0998  0.8036
 9049SOL    HW138783   2.952   1.241  15.822  2.2661  0.7508  0.4752
 9049SOL    HW238784   2.972   1.153  15.708 -1.4851 -0.7805  0.8976
 9050SOL     OW38785   1.304   2.665   0.313 -0.2986  0.2617 -0.8465
 9050SOL    HW138786   1.347   2.593   0.266  0.6503  1.3026 -1.5902
 9050SOL    HW238787   1.285   2.721   0.238 -0.5105  0.5475 -0.5776
 9051SOL     OW38788   3.631   3.052  14.302 -0.1398 -0.6494 -0.1186
 9051SOL    HW138789   3.722   3.044  14.272 -0.8186  1.9721 -2.8643
 9051SOL    HW238790   3.599   3.088  14.219 -0.6741 -2.4075 -0.6673
 9052SOL     OW38791   0.714   3.295  10.593  0.1257  0.1582 -0.5544
 9052SOL    HW138792   0.628   3.283  10.553 -1.0753  1.2700  1.7275
 9052SOL    HW238793   0.730   3.388  10.578 -1.8309  1.0203  2.6961
 9053SOL     OW38794   4.714   4.295   7.082 -0.0461  0.0627  0.6001
 9053SOL    HW138795   4.707   4.335   7.169 -1.2567 -0.6375  0.8215
 9053SOL    HW238796   0.031   4.225   7.114  1.0823  1.3926  1.5455
 9054SOL     OW38797   0.353   0.859   6.027 -0.2615 -0.1966 -0.0522
 9054SOL    HW138798   0.327   0.907   5.948 -2.5610 -1.4647 -0.0795
 9054SOL    HW238799   0.274   0.865   6.080  0.3214  1.9837  0.5803
 9055SOL     OW38800   1.673   2.119   6.119 -0.0550 -0.0294 -0.1764
 9055SOL    HW138801   1.700   2.043   6.068  2.5106  1.7075 -1.4009
 9055SOL    HW238802   1.659   2.083   6.207  3.3893 -1.8998 -0.4222
 9056SOL     OW38803   0.224   2.485   7.458  0.7820  0.2145 -0.1316
 9056SOL    HW138804   0.170   2.476   7.380  1.7344 -0.3887 -0.7127
 9056SOL    HW238805   0.271   2.567   7.447  1.8535 -0.3393  0.3106
 9057SOL     OW38806   4.696   1.449   2.187  0.6137 -0.2070 -0.1705
 9057SOL    HW138807   0.017   1.523   2.188 -0.1952  0.4387  0.8459
 9057SOL    HW238808   4.690   1.425   2.280  0.9145 -0.6793 -0.2748
 9058SOL     OW38809   1.223   2.480   6.897  0.2290  0.1102 -0.4028
 9058SOL    HW138810   1.299   2.538   6.898  0.7386 -0.5966  1.1950
 9058SOL    HW238811   1.177   2.510   6.976  0.6898 -1.6354  0.5291
 9059SOL     OW38812   2.250   0.861  12.600 -0.1868 -0.2740 -0.2908
 9059SOL    HW138813   2.187   0.830  12.666 -0.1023  1.0273  0.3921
 9059SOL    HW238814   2.301   0.781  12.587  0.1591 -0.0309 -0.4088
 9060SOL     OW38815   4.088   0.145   3.108 -0.0924 -0.5717 -0.0761
 9060SOL    HW138816   4.008   0.092   3.105 -0.4407 -0.2471  3.3424
 9060SOL    HW238817   4.116   0.152   3.017 -0.7587 -2.1109 -0.4119
 9061SOL     OW38818   3.339   2.300   7.678 -0.7337 -0.0296 -0.4083
 9061SOL    HW138819   3.374   2.339   7.759 -0.7054 -0.8464 -0.0234
 9061SOL    HW238820   3.253   2.277   7.712  0.7708 -0.3922  3.1892
 9062SOL     OW38821   0.284   2.916   9.866 -0.4583  0.3142 -0.1036
 9062SOL    HW138822   0.287   2.850   9.797  4.6936  0.1732  0.2398
 9062SOL    HW238823   0.214   2.971   9.832 -0.9277 -0.6914 -0.7800
 9063SOL     OW38824   1.032   0.175   6.204  0.5153 -0.3830 -0.0728
 9063SOL    HW138825   1.082   0.093   6.200 -0.7313 -1.0693 -1.6955
 9063SOL    HW238826   1.090   0.238   6.159  2.2425 -1.8590  0.1009
 9064SOL     OW38827   0.456   0.906   2.755 -0.2837  0.2398 -0.0763
 9064SOL    HW138828   0.462   0.973   2.686 -0.0902  0.0058 -0.2894
 9064SOL    HW238829   0.373   0.925   2.797  0.2176 -1.0119  1.4605
 9065SOL     OW38830   0.306   0.550   0.044  0.3256 -0.6601 -0.2820
 9065SOL    HW138831   0.273   0.639   0.051 -0.0396 -0.9246  1.4682
 9065SOL    HW238832   0.252   0.508   0.112  0.4408 -3.1556 -1.7120
 9066SOL     OW38833   0.608   3.240   8.917  0.4419  0.6562 -0.4587
 9066SOL    HW138834   0.523   3.202   8.942  0.5784  1.5710  1.3506
 9066SOL    HW238835   0.660   3.162   8.932 -0.1595  1.0250  3.5927
 9067SOL     OW38836   4.667   3.080   4.396 -0.1783  0.4637 -0.1045
 9067SOL    HW138837   4.705   3.113   4.314 -2.6275  2.2703 -0.5043
 9067SOL    HW238838   0.004   3.083   4.453  1.4298  0.9132 -2.2690
 9068SOL     OW38839   4.107   4.404   4.319  0.5292  0.2820  0.0314
 9068SOL    HW138840   4.082   4.380   4.408 -2.0875 -0.9298 -1.0476
 9068SOL    HW238841   4.104   4.318   4.277  3.1175  1.3653 -2.4155
 9069SOL     OW38842   4.522   3.365  15.606 -0.0203 -0.2417  0.4252
 9069SOL    HW138843   4.527   3.354  15.511 -0.4178  0.7750  0.2889
 9069SOL    HW238844   4.572   3.290  15.640 -0.5717 -0.4545  0.7574
 9070SOL     OW38845   1.393   0.666  10.570 -0.2165 -0.5655 -0.4902
 9070SOL    HW138846   1.436   0.728  10.630  0.7565 -0.7561 -0.9965
 9070SOL    HW238847   1.395   0.720  10.491  3.4676 -1.6542 -1.1196
 9071SOL     OW38848   4.719   0.183   5.880 -0.0418 -0.1003  0.0161
 9071SOL    HW138849   0.001   0.217   5.967 -0.7771  1.2112 -0.3093
 9071SOL    HW238850   0.003   0.090   5.884 -2.2012 -0.7648 -2.6671
 9072SOL     OW38851   0.275   1.362   4.686 -0.1840 -0.1878 -0.0781
 9072SOL    HW138852   0.256   1.379   4.778  0.1376  0.2328 -0.0878
 9072SOL    HW238853   0.270   1.454   4.661 -1.5657 -0.3741 -0.4804
 9073SOL     OW38854   3.187   3.581   3.622  0.1040 -0.2291  0.1592
 9073SOL    HW138855   3.250   3.522   3.581  1.2560  1.0592  0.0512
 9073SOL    HW238856   3.233   3.659   3.654  1.6041 -0.6110 -1.0813
 9074SOL     OW38857   4.430   0.453   2.867 -0.1099 -0.5439  0.1590
 9074SOL    HW138858   4.512   0.502   2.870 -0.1990 -0.4574  1.1695
 9074SOL    HW238859   4.361   0.513   2.896 -0.9409 -1.4345  0.0277
 9075SOL     OW38860   2.398   4.512   3.839  0.1447 -0.0995 -1.0661
 9075SOL    HW138861   2.477   4.565   3.831  1.2716 -1.9714 -2.2394
 9075SOL    HW238862   2.413   4.451   3.767 -0.5508 -0.1077 -1.2054
 9076SOL     OW38863   2.954   3.454   8.858 -0.5352 -0.1390 -0.0490
 9076SOL    HW138864   2.975   3.518   8.790  1.1722  1.1843  1.7595
 9076SOL    HW238865   3.040   3.443   8.898  0.0700  0.7050 -1.1212
 9077SOL     OW38866   3.571   2.615  11.195  0.1751 -0.3550 -0.1007
 9077SOL    HW138867   3.495   2.567  11.228  0.9639 -1.1017  0.6394
 9077SOL    HW238868   3.538   2.704  11.192  1.7051  0.2046 -0.5131
 9078SOL     OW38869   4.562   0.012   2.354  0.6565 -0.0502  0.3335
 9078SOL    HW138870   4.588   4.706   2.434 -1.7498  0.0852  1.2074
 9078SOL    HW238871   4.541   4.678   2.297  0.9164 -0.0907  0.2904
 9079SOL     OW38872   0.731   3.386   8.758  0.0798  0.0290  0.0497
 9079SOL    HW138873   0.679   3.328   8.814  2.0171 -0.5649  1.2224
 9079SOL    HW238874   0.683   3.363   8.679 -4.6648 -2.0896  3.5694
 9080SOL     OW38875   2.940   0.453   6.790  0.2331  0.0947 -0.6349
 9080SOL    HW138876   2.881   0.513   6.835  0.8155  0.5360 -0.4545
 9080SOL    HW238877   3.000   0.523   6.764  0.6018 -0.9302 -2.4834
 9081SOL     OW38878   0.162   0.425   4.481 -0.0564  0.7311  0.0254
 9081SOL    HW138879   0.203   0.436   4.395  0.2659 -1.4845 -0.0972
 9081SOL    HW238880   0.137   0.333   4.475 -2.0196  1.2374  0.5695
 9082SOL     OW38881   4.159   0.436  12.589  0.0578 -0.2698 -0.3537
 9082SOL    HW138882   4.248   0.464  12.613 -0.2962  2.0176 -1.6938
 9082SOL    HW238883   4.108   0.516  12.578 -0.7558 -0.6258  0.8413
 9083SOL     OW38884   1.787   3.671   2.803 -0.1696  0.0145  0.0109
 9083SOL    HW138885   1.699   3.634   2.806  0.7892 -2.2044  1.0012
 9083SOL    HW238886   1.829   3.585   2.793 -1.9973 -0.5555 -2.7135
 9084SOL     OW38887   0.507   1.486  10.915  0.3728  0.4907  0.4591
 9084SOL    HW138888   0.510   1.420  10.846 -0.1017  0.8893  0.0529
 9084SOL    HW238889   0.479   1.561  10.863  0.4543 -0.3053 -0.7272
 9085SOL     OW38890   4.421   0.077   5.583  0.3467  0.5340 -0.0869
 9085SOL    HW138891   4.337   0.030   5.583  0.9476 -0.5520  0.6152
 9085SOL    HW238892   4.430   0.113   5.671  1.5479 -0.0670  0.0463
 9086SOL     OW38893   3.638   4.527   5.129  0.3203  0.0092  0.0996
 9086SOL    HW138894   3.608   4.477   5.054  0.3250 -1.0684  0.8155
 9086SOL    HW238895   3.646   4.453   5.190  0.3612  0.2785  0.4253
 9087SOL     OW38896   1.727   0.624   2.543 -0.4195 -0.2252 -0.1355
 9087SOL    HW138897   1.752   0.685   2.612 -0.3851  2.6133 -2.6439
 9087SOL    HW238898   1.695   0.551   2.597 -1.1723  0.8727  0.9056
 9088SOL     OW38899   2.799   3.025   6.551  0.0522 -0.3124 -0.6839
 9088SOL    HW138900   2.709   2.996   6.539 -0.1934 -0.5295  1.6674
 9088SOL    HW238901   2.789   3.113   6.514  2.1914 -0.2927 -1.2053
 9089SOL     OW38902   4.182   0.552  16.459 -0.5054  0.0321 -0.2455
 9089SOL    HW138903   4.161   0.566  16.552 -0.2509 -2.8252  0.2252
 9089SOL    HW238904   4.092   0.563  16.429 -1.4826 -0.8863  2.3688
 9090SOL     OW38905   1.316   2.304  12.345  0.0649  0.2962  0.2876
 9090SOL    HW138906   1.262   2.225  12.340  1.1742 -0.3587 -1.0977
 9090SOL    HW238907   1.378   2.281  12.276 -1.6226 -0.4128 -0.9870
 9091SOL     OW38908   1.844   2.442  16.481 -0.7652  0.3525 -0.0732
 9091SOL    HW138909   1.892   2.399  16.552 -1.2355  0.9416  0.6029
 9091SOL    HW238910   1.763   2.390  16.484 -1.0588  0.8257  0.2753
 9092SOL     OW38911   1.323   1.538   7.441  0.0552  0.1364 -0.8109
 9092SOL    HW138912   1.378   1.460   7.437 -0.0578  0.0492 -0.6938
 9092SOL    HW238913   1.292   1.533   7.532  2.1021  0.4088 -0.1005
 9093SOL     OW38914   1.578   4.564   2.648 -0.2626 -0.6002  0.7330
 9093SOL    HW138915   1.542   4.475   2.653  1.2980 -1.3536 -1.2273
 9093SOL    HW238916   1.575   4.582   2.742  1.6578 -0.9173  0.8591
 9094SOL     OW38917   1.508   1.623   0.156  0.4010  0.0428  0.1466
 9094SOL    HW138918   1.591   1.636   0.203  1.1443 -3.6955 -0.1369
 9094SOL    HW238919   1.513   1.534   0.122 -2.2268 -1.4563  3.5844
 9095SOL     OW38920   2.644   3.527   0.028 -0.1161 -0.3510  0.6308
 9095SOL    HW138921   2.731   3.498   0.001 -0.4375  0.8625 -1.7255
 9095SOL    HW238922   2.586   3.457  17.753  0.9755 -0.1662 -1.7313
 9096SOL     OW38923   3.760   2.631   2.979  0.0979  0.0162 -0.0235
 9096SOL    HW138924   3.732   2.561   2.920  2.2977 -2.6919  2.1311
 9096SOL    HW238925   3.807   2.687   2.918 -1.5155  1.9777  0.5323
 9097SOL     OW38926   2.340   2.325   6.596 -0.2967 -0.3841 -0.1006
 9097SOL    HW138927   2.296   2.330   6.511  1.3337 -0.8468 -0.9701
 9097SOL    HW238928   2.376   2.237   6.592 -1.1098 -0.8322  2.3562
 9098SOL     OW38929   0.580   4.442   3.892  0.5159  0.6529 -0.0546
 9098SOL    HW138930   0.489   4.444   3.922  0.0926  2.5442 -1.4678
 9098SOL    HW238931   0.576   4.432   3.797  2.5407 -2.8438  0.2274
 9099SOL     OW38932   2.476   2.170   9.080 -0.2020  0.3264 -0.2786
 9099SOL    HW138933   2.462   2.091   9.028  0.8933  1.0335 -1.6536
 9099SOL    HW238934   2.400   2.218   9.046  1.0543  3.2418  1.0128
 9100SOL     OW38935   2.682   2.531  11.772 -0.0104  0.0892  0.3953
 9100SOL    HW138936   2.631   2.526  11.691  0.4841  0.8793  0.0420
 9100SOL    HW238937   2.730   2.613  11.764  2.2505 -1.1107  1.6290
 9101SOL     OW38938   1.968   2.285  16.756 -0.2204  0.2290 -0.0770
 9101SOL    HW138939   1.983   2.198  16.792 -0.6909 -0.0335 -0.5274
 9101SOL    HW238940   2.048   2.332  16.779 -0.8617  0.6411  1.3317
 9102SOL     OW38941   2.060   1.815   6.984 -0.2650 -0.6928  0.0476
 9102SOL    HW138942   2.148   1.854   6.989 -0.1978 -1.0286  1.4772
 9102SOL    HW238943   2.069   1.737   7.038  0.2521 -0.3441  0.4654
 9103SOL     OW38944   1.882   2.107   6.617  0.5400 -0.2929  0.5201
 9103SOL    HW138945   1.896   2.194   6.654 -0.1254  0.8161 -1.8734
 9103SOL    HW238946   1.792   2.089   6.645  0.8688 -0.5542  1.4121
 9104SOL     OW38947   3.475   0.312   6.082  0.1186 -0.0884  0.7315
 9104SOL    HW138948   3.545   0.251   6.102 -0.1165 -0.9916 -1.1817
 9104SOL    HW238949   3.524   0.394   6.086  1.3927 -0.6786 -2.3198
 9105SOL     OW38950   2.846   1.220  11.357  0.4501 -0.3086  0.2486
 9105SOL    HW138951   2.778   1.281  11.387  0.4406 -0.9317  1.5036
 9105SOL    HW238952   2.856   1.174  11.441  0.0653  0.9790  1.0030
 9106SOL     OW38953   1.954   2.044  16.904  0.7113  0.5853  0.7654
 9106SOL    HW138954   2.016   2.100  16.950  0.8643  0.0198  1.2496
 9106SOL    HW238955   1.999   1.960  16.909  0.4695  0.3511 -1.0604
 9107SOL     OW38956   3.455   2.864  11.118  0.2184  0.2613  0.1934
 9107SOL    HW138957   3.423   2.898  11.034  0.1943 -0.8316 -0.2396
 9107SOL    HW238958   3.454   2.945  11.169 -0.6549  0.8111 -0.6852
 9108SOL     OW38959   1.765   3.022  17.165  0.3709  0.0492  0.3604
 9108SOL    HW138960   1.736   3.113  17.162  0.0934 -0.0204  0.9333
 9108SOL    HW238961   1.743   3.002  17.256 -1.2017 -0.4140 -0.1314
 9109SOL     OW38962   4.373   4.292   3.736  0.3794  0.5865 -0.5819
 9109SOL    HW138963   4.340   4.300   3.647 -2.2222  2.8311  0.5936
 9109SOL    HW238964   4.355   4.377   3.775  1.8922  0.2458  0.8728
 9110SOL     OW38965   2.542   1.988   9.631 -0.4053 -0.1765 -0.2547
 9110SOL    HW138966   2.456   1.969   9.593 -1.5458  2.1731  1.1825
 9110SOL    HW238967   2.528   2.080   9.653  1.2486 -0.4053  1.7635
 9111SOL     OW38968   2.475   0.672   5.876  0.5729 -0.4307  0.0029
 9111SOL    HW138969   2.464   0.577   5.887 -1.7912 -0.0152  1.1882
 9111SOL    HW238970   2.405   0.684   5.812  2.4196  2.6856 -1.4082
 9112SOL     OW38971   0.333   4.330   6.064  0.0381 -0.1437  0.1454
 9112SOL    HW138972   0.292   4.339   5.978 -1.6363  0.3966  0.9982
 9112SOL    HW238973   0.369   4.241   6.064  0.2847 -0.0480  1.6865
 9113SOL     OW38974   4.029   0.614   9.224 -0.1508 -0.1139  0.2116
 9113SOL    HW138975   4.089   0.644   9.155 -0.5324 -1.8223 -0.8623
 9113SOL    HW238976   3.971   0.550   9.182  2.3496 -1.6289 -0.9364
 9114SOL     OW38977   1.907   0.552   2.917 -0.0708 -0.1427 -0.3924
 9114SOL    HW138978   1.930   0.582   3.005  0.3220 -0.3576 -0.4201
 9114SOL    HW238979   1.995   0.520   2.896  0.1106 -0.4273  0.7790
 9115SOL     OW38980   2.460   3.209   6.574 -0.3386 -0.5946 -0.0806
 9115SOL    HW138981   2.506   3.284   6.538 -1.2566  0.7580  1.5589
 9115SOL    HW238982   2.476   3.139   6.511  0.5647 -1.1638  0.7730
 9116SOL     OW38983   4.462   1.182   1.281  0.4194  0.4408  0.1731
 9116SOL    HW138984   4.478   1.269   1.315 -0.4825 -0.0260  1.8038
 9116SOL    HW238985   4.543   1.136   1.301  0.5790  1.1054  1.0389
 9117SOL     OW38986   0.061   1.992  13.434 -0.5182 -0.5314 -0.0949
 9117SOL    HW138987   0.022   2.074  13.463 -0.6389 -0.7073  0.2353
 9117SOL    HW238988   4.718   1.950  13.412 -1.0099  0.2187  0.3530
 9118SOL     OW38989   3.910   3.587   3.171  0.3178  0.0159  0.4588
 9118SOL    HW138990   3.838   3.527   3.191 -1.8085  1.6728 -2.1586
 9118SOL    HW238991   3.965   3.534   3.114 -0.1264  0.2045 -0.1554
 9119SOL     OW38992   2.641   1.513   1.493 -0.2005 -1.0932  0.1284
 9119SOL    HW138993   2.635   1.418   1.500 -0.7092 -1.1275 -0.7925
 9119SOL    HW238994   2.727   1.519   1.534 -0.0335 -0.1882 -0.3541
 9120SOL     OW38995   4.439   0.472   3.444 -0.3217 -0.8342 -0.1945
 9120SOL    HW138996   4.434   0.414   3.368  1.0766  1.7421 -2.2448
 9120SOL    HW238997   4.383   0.421   3.502  0.4332  0.0920  1.3340
 9121SOL     OW38998   0.398   1.679  12.143  0.1271 -0.0499  0.1647
 9121SOL    HW138999   0.403   1.675  12.048 -1.8823 -1.4792  0.1189
 9121SOL    HW239000   0.405   1.584  12.152  0.0908 -0.1672 -1.0279
 9122SOL     OW39001   2.639   0.004   4.544  0.0469  0.1978  0.1243
 9122SOL    HW139002   2.674   0.035   4.627 -1.8938 -0.0897  1.0458
 9122SOL    HW239003   2.556   0.051   4.544  1.1405  2.1078  1.0573
 9123SOL     OW39004   0.718   3.457  15.424  0.2261 -0.5825  0.2679
 9123SOL    HW139005   0.783   3.520  15.390 -1.5775  0.7177 -0.7974
 9123SOL    HW239006   0.716   3.475  15.518  0.8073  0.6505  0.0516
 9124SOL     OW39007   3.784   4.291   9.134 -0.5454  0.1353 -0.0186
 9124SOL    HW139008   3.835   4.274   9.213  2.3758  2.2244 -1.4650
 9124SOL    HW239009   3.710   4.233   9.153 -0.4125 -0.2602 -0.7298
 9125SOL     OW39010   3.043   0.734   6.110  0.6233  0.2636  0.1391
 9125SOL    HW139011   3.016   0.713   6.200  0.4556  0.7150  0.1898
 9125SOL    HW239012   2.960   0.714   6.067  0.6038  2.3286 -0.7635
 9126SOL     OW39013   0.865   4.057   5.530 -0.5578  0.2755 -0.3764
 9126SOL    HW139014   0.917   4.130   5.495 -1.5175  0.3801 -1.5777
 9126SOL    HW239015   0.846   4.094   5.616 -2.3674 -0.7366 -0.3438
 9127SOL     OW39016   3.020   3.950   3.755 -0.1164 -0.1478 -0.3849
 9127SOL    HW139017   3.081   3.987   3.819  2.5022 -4.8353 -0.2041
 9127SOL    HW239018   2.945   4.007   3.769 -1.7611 -1.2321 -4.9969
 9128SOL     OW39019   1.677   3.565  16.894  0.0449  0.2076 -0.0152
 9128SOL    HW139020   1.742   3.532  16.832 -3.4648 -3.0851 -1.8892
 9128SOL    HW239021   1.737   3.602  16.960  1.5941  0.6595 -1.6609
 9129SOL     OW39022   2.524   2.891   3.183 -0.0303  0.7720 -0.7625
 9129SOL    HW139023   2.561   2.836   3.252  0.2252  1.5147 -0.3130
 9129SOL    HW239024   2.600   2.923   3.134 -0.0155 -1.4288 -2.2281
 9130SOL     OW39025   1.995   0.025   7.624 -0.0904  0.2592  0.1854
 9130SOL    HW139026   1.974   4.674   7.647 -1.1755  0.9974  2.0984
 9130SOL    HW239027   2.010   0.062   7.711 -0.6735 -0.4113  0.5722
 9131SOL     OW39028   0.674   3.246   1.010 -0.2516  0.6675  0.7119
 9131SOL    HW139029   0.718   3.212   0.933 -0.8797 -1.7067  1.4130
 9131SOL    HW239030   0.584   3.266   0.985 -1.4957 -0.8633  3.9579
 9132SOL     OW39031   1.903   2.835  15.110  0.3338 -0.0798  0.1276
 9132SOL    HW139032   1.882   2.897  15.040  1.4157  0.0306 -0.0937
 9132SOL    HW239033   1.823   2.783  15.114 -0.3301  0.8453 -1.2779
 9133SOL     OW39034   0.335   4.285   6.589  0.0368  0.0675 -0.1776
 9133SOL    HW139035   0.424   4.300   6.619  0.1021  0.4876 -0.5796
 9133SOL    HW239036   0.348   4.226   6.515 -0.5470 -1.4966  0.9863
 9134SOL     OW39037   0.135   3.097   9.124 -0.4560 -0.0222  0.0905
 9134SOL    HW139038   0.165   3.174   9.172 -3.3841  1.2263 -0.0490
 9134SOL    HW239039   0.055   3.076   9.172 -0.2410 -2.1180 -0.4767
 9135SOL     OW39040   0.391   1.585   9.117 -0.4799  0.1901 -0.4558
 9135SOL    HW139041   0.390   1.500   9.071 -1.7081  1.0192 -1.9743
 9135SOL    HW239042   0.328   1.628   9.059 -0.7657  0.2211 -0.1258
 9136SOL     OW39043   1.279   3.827   6.955 -0.5279 -0.0748 -0.3750
 9136SOL    HW139044   1.319   3.785   7.031  1.8535  1.6293 -0.7096
 9136SOL    HW239045   1.357   3.836   6.900 -2.0820  1.0787 -2.3770
 9137SOL     OW39046   1.520   1.624   9.165 -0.4508 -0.2242  0.4271
 9137SOL    HW139047   1.454   1.620   9.233 -0.3683 -0.6701  0.4785
 9137SOL    HW239048   1.516   1.718   9.146 -0.5443 -0.1206  0.9628
 9138SOL     OW39049   2.941   4.085   0.163  0.7270 -0.0535 -1.0222
 9138SOL    HW139050   3.029   4.112   0.189  0.6331 -1.4677  0.7526
 9138SOL    HW239051   2.909   4.160   0.113  3.0411  0.9621 -0.9604
 9139SOL     OW39052   4.735   2.150   5.706 -0.6841  0.2144 -0.1620
 9139SOL    HW139053   0.005   2.061   5.670  0.4696  0.0647  0.5271
 9139SOL    HW239054   0.034   2.199   5.634  1.4086  1.4789  1.8411
 9140SOL     OW39055   3.768   4.218   3.759 -0.4097  0.1978  0.3584
 9140SOL    HW139056   3.737   4.283   3.696 -0.8769 -0.5984 -0.2318
 9140SOL    HW239057   3.713   4.236   3.835 -2.5806 -5.3219  0.0504
 9141SOL     OW39058   0.217   1.606   8.274 -0.5706  0.0989  0.2666
 9141SOL    HW139059   0.257   1.688   8.244 -1.6410  0.7591  0.6442
 9141SOL    HW239060   0.143   1.602   8.215  0.1863 -0.3915 -0.6462
 9142SOL     OW39061   3.069   1.841  12.735  0.2838  0.1114  0.3132
 9142SOL    HW139062   3.045   1.908  12.671 -2.8596 -1.7731 -0.5046
 9142SOL    HW239063   3.130   1.882  12.795  0.8734  0.2622 -0.3831
 9143SOL     OW39064   3.070   3.384  14.834 -0.1347  0.6888  0.5777
 9143SOL    HW139065   3.042   3.475  14.848  3.1581  1.7587  0.1785
 9143SOL    HW239066   3.113   3.398  14.750 -2.2042  1.0497 -0.4247
 9144SOL     OW39067   0.368   3.706   3.730 -0.0481 -0.2840 -0.1597
 9144SOL    HW139068   0.366   3.740   3.640  2.8296 -0.8897 -0.4754
 9144SOL    HW239069   0.372   3.787   3.781 -1.2561 -2.0182  2.6463
 9145SOL     OW39070   4.031   4.287   8.499 -0.1846 -0.4099 -0.3383
 9145SOL    HW139071   4.037   4.352   8.569 -1.7024  0.0224 -0.6127
 9145SOL    HW239072   3.957   4.321   8.449 -0.2360  0.9531  0.6440
 9146SOL     OW39073   3.194   0.642  12.314 -0.0970 -0.1860 -0.8105
 9146SOL    HW139074   3.239   0.660  12.231 -0.2383  1.6004 -0.5034
 9146SOL    HW239075   3.103   0.652  12.284  0.2567  2.4704 -1.0313
 9147SOL     OW39076   2.134   4.460  12.676  0.1276  0.5675  0.3470
 9147SOL    HW139077   2.076   4.533  12.653  1.5249  1.1721 -1.2110
 9147SOL    HW239078   2.084   4.382  12.652  1.4440 -0.2981  0.4324
 9148SOL     OW39079   0.963   0.820   5.172  0.0236 -0.0408  0.0144
 9148SOL    HW139080   1.055   0.798   5.186 -0.1702 -0.5818  0.4369
 9148SOL    HW239081   0.968   0.897   5.230  0.9193  0.6931 -1.0214
 9149SOL     OW39082   2.648   3.392   7.761 -0.2535  0.3411 -0.1346
 9149SOL    HW139083   2.600   3.316   7.727  0.3477  0.8020 -2.0635
 9149SOL    HW239084   2.696   3.408   7.679 -0.0620 -1.3810 -0.3614
 9150SOL     OW39085   4.625   0.690   4.155 -0.0941  0.0796  0.5659
 9150SOL    HW139086   4.602   0.770   4.109  2.5103  0.2835 -0.3908
 9150SOL    HW239087   4.656   0.729   4.238 -0.9700 -2.9321  2.2955
 9151SOL     OW39088   3.475   0.142   2.597  0.3436 -0.0659  0.3742
 9151SOL    HW139089   3.414   0.147   2.523  2.1811 -0.2222 -1.1413
 9151SOL    HW239090   3.471   0.236   2.613  3.5408  0.1607 -0.1712
 9152SOL     OW39091   1.746   0.734   7.565 -0.7570  0.3723  0.1287
 9152SOL    HW139092   1.811   0.803   7.555 -1.8778  1.2234 -1.1647
 9152SOL    HW239093   1.669   0.773   7.605 -0.3817  0.4285  0.7986
 9153SOL     OW39094   1.546   4.056   7.609 -0.4034 -0.1793  0.1732
 9153SOL    HW139095   1.600   4.014   7.675  0.4652 -0.3872 -0.6689
 9153SOL    HW239096   1.478   4.105   7.655  0.5022  2.1893 -1.0577
 9154SOL     OW39097   4.668   4.056  14.430  0.0966 -0.4252 -0.1712
 9154SOL    HW139098   0.016   4.041  14.393  0.4278 -1.0806  0.8962
 9154SOL    HW239099   4.610   4.030  14.358  2.3047 -1.4798 -1.5793
 9155SOL     OW39100   0.493   0.522   7.929 -0.2737  0.0035 -0.1154
 9155SOL    HW139101   0.478   0.436   7.967  4.2162 -0.4782  0.5973
 9155SOL    HW239102   0.405   0.540   7.896 -0.3431  2.8362  1.6333
 9156SOL     OW39103   4.413   1.582   5.282  0.5072  0.1245 -0.6500
 9156SOL    HW139104   4.471   1.654   5.254 -0.2877  0.7953 -0.5680
 9156SOL    HW239105   4.346   1.637   5.323  1.0152 -0.2858  0.7227
 9157SOL     OW39106   1.260   0.501  17.289  0.0096 -0.0060 -0.3416
 9157SOL    HW139107   1.235   0.474  17.201 -2.8537  0.9903  0.1746
 9157SOL    HW239108   1.256   0.596  17.280 -1.1874  0.1319  1.6112
 9158SOL     OW39109   1.608   0.902  14.735 -0.3426  0.3584 -0.0002
 9158SOL    HW139110   1.601   0.958  14.659  1.1448 -1.1328 -1.2357
 9158SOL    HW239111   1.659   0.962  14.789 -2.0143 -1.2251  3.4207
 9159SOL     OW39112   4.521   2.802   8.389  0.3703  0.6408  0.1994
 9159SOL    HW139113   4.605   2.834   8.423  1.1550 -1.3096  0.0952
 9159SOL    HW239114   4.496   2.880   8.339 -0.3982  1.0374  1.2149
 9160SOL     OW39115   2.568   1.926   5.632  0.1942  0.2721 -0.0520
 9160SOL    HW139116   2.549   2.013   5.666  0.2715 -0.3969  1.6876
 9160SOL    HW239117   2.511   1.925   5.555  0.1253  0.4277 -0.0033
 9161SOL     OW39118   2.625   1.316   0.829  0.4065  0.1975  0.4648
 9161SOL    HW139119   2.590   1.352   0.911 -3.0477 -1.3949 -0.3331
 9161SOL    HW239120   2.635   1.223   0.849  1.1950  0.4263  1.1827
 9162SOL     OW39121   3.056   2.549   7.294  0.5763 -0.0896  0.5968
 9162SOL    HW139122   3.123   2.495   7.252 -0.6705 -0.3618 -1.0276
 9162SOL    HW239123   3.049   2.625   7.237  2.5007 -1.0374 -0.9070
 9163SOL     OW39124   3.893   3.487  17.313 -0.9238  1.1013 -0.1719
 9163SOL    HW139125   3.976   3.500  17.359 -1.8468 -2.4553  2.5302
 9163SOL    HW239126   3.849   3.425  17.371 -0.1975 -0.2944 -1.1383
 9164SOL     OW39127   2.839   4.451   4.815  0.1339  0.0608 -0.0415
 9164SOL    HW139128   2.831   4.365   4.774 -1.0093  0.3327 -0.4178
 9164SOL    HW239129   2.933   4.464   4.821  0.1791 -0.3122  0.0137
 9165SOL     OW39130   2.227   1.616  15.360 -0.7324 -0.6678 -0.0824
 9165SOL    HW139131   2.183   1.631  15.443 -1.6668 -1.1890 -0.4852
 9165SOL    HW239132   2.165   1.660  15.302 -1.2082 -1.8366 -0.4553
 9166SOL     OW39133   0.269   1.217   2.315  0.2205  0.2829  0.0936
 9166SOL    HW139134   0.351   1.170   2.325 -0.7721 -1.9224 -1.9990
 9166SOL    HW239135   0.228   1.153   2.257 -0.2663  1.2859 -0.6782
 9167SOL     OW39136   2.466   0.824  10.833  0.1549  0.1447 -0.2884
 9167SOL    HW139137   2.512   0.849  10.913  3.4454 -1.9069 -1.5471
 9167SOL    HW239138   2.490   0.731  10.836  2.6390  0.8039  0.2087
 9168SOL     OW39139   2.508   0.734   1.326  0.6191 -0.3445  0.0174
 9168SOL    HW139140   2.445   0.665   1.347 -0.6553  0.6228 -0.6412
 9168SOL    HW239141   2.564   0.692   1.261  0.2971 -0.6619 -0.0545
 9169SOL     OW39142   0.980   4.305   0.202  0.2290 -0.6411 -0.5155
 9169SOL    HW139143   1.066   4.267   0.188  1.3969  1.5848  0.6387
 9169SOL    HW239144   0.961   4.335   0.113  2.1068 -0.9675 -1.0293
 9170SOL     OW39145   1.209   2.065  12.360  0.7343  0.2366  0.3313
 9170SOL    HW139146   1.224   1.990  12.302 -2.8498  1.1750 -1.8444
 9170SOL    HW239147   1.114   2.075  12.356  0.6989  0.0047  0.6413
 9171SOL     OW39148   1.545   2.955   5.846  0.5888  0.3024  0.1886
 9171SOL    HW139149   1.525   2.916   5.762  3.0842 -0.3355 -0.1208
 9171SOL    HW239150   1.519   3.046   5.836 -2.4950 -0.8880 -2.3813
 9172SOL     OW39151   2.061   4.116   2.647  0.3288 -0.4359  0.2417
 9172SOL    HW139152   2.100   4.187   2.595  1.5344 -1.3657 -0.1246
 9172SOL    HW239153   2.033   4.057   2.576  2.8561 -0.9913 -0.3095
 9173SOL     OW39154   3.951   3.645  12.144 -0.4183 -0.0780 -0.2611
 9173SOL    HW139155   3.911   3.620  12.061  0.8121 -1.3955 -0.4510
 9173SOL    HW239156   3.958   3.562  12.191  0.3317  0.4812  0.6131
 9174SOL     OW39157   4.345   3.302   7.479  0.3143 -0.0532  0.0502
 9174SOL    HW139158   4.355   3.208   7.493  0.9173 -0.1057 -0.7146
 9174SOL    HW239159   4.260   3.302   7.524  0.7522  0.5304  0.8862
 9175SOL     OW39160   3.623   0.075   4.149 -0.0473  0.5166 -0.3591
 9175SOL    HW139161   3.560   0.132   4.106 -1.5626  0.0411  1.2394
 9175SOL    HW239162   3.688   0.140   4.176  0.1104  0.2127 -0.0134
 9176SOL     OW39163   0.784   2.950   7.027  0.2596  0.1953 -0.6546
 9176SOL    HW139164   0.795   2.863   6.987  1.3807  0.8060 -1.6843
 9176SOL    HW239165   0.764   2.998   6.946  0.5748  1.7747  0.2018
 9177SOL     OW39166   2.168   4.650   1.529  0.3016  0.2936 -0.7202
 9177SOL    HW139167   2.082   4.636   1.489 -0.6943  2.4576  0.6652
 9177SOL    HW239168   2.138   4.618   1.615 -0.9331  1.2501 -0.8014
 9178SOL     OW39169   0.489   2.856   3.136 -0.1574 -0.2939 -0.1649
 9178SOL    HW139170   0.578   2.886   3.152  0.5947 -1.2875 -2.5012
 9178SOL    HW239171   0.490   2.768   3.173  3.2227  1.0609  2.9354
 9179SOL     OW39172   1.960   0.192   0.704  0.5140 -0.0190  0.1738
 9179SOL    HW139173   1.885   0.154   0.751  1.2805 -0.9415  0.6473
 9179SOL    HW239174   1.921   0.275   0.677  1.6707  0.6046  0.4541
 9180SOL     OW39175   0.930   0.897   4.918  0.1121  0.0588 -0.2095
 9180SOL    HW139176   1.009   0.849   4.894 -0.5242 -1.0166 -0.1507
 9180SOL    HW239177   0.933   0.886   5.013  1.5219 -0.7028 -0.3381
 9181SOL     OW39178   0.264   1.778   5.519  0.1135  0.1355  0.3389
 9181SOL    HW139179   0.191   1.754   5.575  0.8233 -0.4267  1.0206
 9181SOL    HW239180   0.344   1.762   5.569  0.1119  2.1645  1.0026
 9182SOL     OW39181   0.372   4.392   5.540 -0.1536  0.5848 -0.4565
 9182SOL    HW139182   0.380   4.450   5.465  2.0112 -1.2925 -1.6788
 9182SOL    HW239183   0.407   4.311   5.504 -0.8019  1.1959 -2.4247
 9183SOL     OW39184   4.315   1.381   7.667  0.7412  0.8653  0.5162
 9183SOL    HW139185   4.382   1.396   7.600 -0.3838  0.5508 -0.6757
 9183SOL    HW239186   4.353   1.321   7.731 -1.0001  0.6781  1.3549
 9184SOL     OW39187   1.577   0.405   9.786 -0.3121  0.7070  0.3255
 9184SOL    HW139188   1.607   0.466   9.853 -1.1603  1.4625  0.0206
 9184SOL    HW239189   1.490   0.440   9.765 -1.9501 -3.1337  0.7451
 9185SOL     OW39190   1.572   3.085   6.873 -0.0640 -0.1923  0.0649
 9185SOL    HW139191   1.614   3.166   6.847  1.5999 -0.9580  0.3739
 9185SOL    HW239192   1.502   3.065   6.810 -2.0940 -0.6554  2.4219
 9186SOL     OW39193   4.716   4.668   4.988 -0.7800  0.3631  0.3475
 9186SOL    HW139194   4.732   0.008   5.038 -2.0191  1.0610 -0.3834
 9186SOL    HW239195   4.683   4.615   5.060 -0.5014 -0.4785 -0.1346
 9187SOL     OW39196   4.518   4.081   8.818 -0.0671  0.4948  0.1677
 9187SOL    HW139197   4.586   4.015   8.802  1.5666  2.5418 -1.3449
 9187SOL    HW239198   4.503   4.064   8.911 -0.3643  0.8315  0.1788
 9188SOL     OW39199   1.861   1.914   4.084  0.7001  0.2229 -0.4044
 9188SOL    HW139200   1.831   1.905   3.994 -3.1613  0.7236  0.8048
 9188SOL    HW239201   1.896   2.003   4.088  2.1486 -0.5046  2.8403
 9189SOL     OW39202   0.311   2.782   9.350  0.1657 -0.0996  0.4283
 9189SOL    HW139203   0.241   2.803   9.287 -0.8868 -0.6009  1.4292
 9189SOL    HW239204   0.314   2.864   9.399 -1.4666 -0.4441  1.1126
 9190SOL     OW39205   1.238   3.304  13.572 -0.4175 -0.0969  0.4661
 9190SOL    HW139206   1.233   3.332  13.664 -1.7949  1.8693 -0.2052
 9190SOL    HW239207   1.332   3.293  13.561 -0.5364 -0.9167  0.2813
 9191SOL     OW39208   4.564   0.828   9.787  0.1134  0.0075  0.1020
 9191SOL    HW139209   4.519   0.756   9.830  1.1531  0.4069  1.8549
 9191SOL    HW239210   4.575   0.896   9.854  2.9406 -1.9470  1.6037
 9192SOL     OW39211   3.744   0.171   5.858  1.0789 -0.6502  0.3212
 9192SOL    HW139212   3.717   0.203   5.772 -1.3370 -0.6241  1.0924
 9192SOL    HW239213   3.750   0.076   5.844 -1.3639 -0.9044  0.9631
 9193SOL     OW39214   4.133   3.681  13.344  0.0638  0.3913  0.4840
 9193SOL    HW139215   4.068   3.652  13.409  1.5399  1.9900  2.7057
 9193SOL    HW239216   4.081   3.695  13.265 -2.3540 -0.5598  1.8995
 9194SOL     OW39217   4.197   0.794  10.239  0.1096  0.3624  0.1000
 9194SOL    HW139218   4.104   0.772  10.233 -0.0773  0.9014  0.9796
 9194SOL    HW239219   4.198   0.880  10.197  1.8062  2.7029  4.8735
 9195SOL     OW39220   0.263   1.114  11.921  0.3551 -0.0112 -0.1997
 9195SOL    HW139221   0.353   1.143  11.907  0.0265  1.8781  1.5090
 9195SOL    HW239222   0.216   1.149  11.846  1.4982  0.3707 -0.7236
 9196SOL     OW39223   0.664   4.173  12.848  0.4664 -0.1544 -0.1717
 9196SOL    HW139224   0.690   4.152  12.758  0.9608 -0.6007  0.0739
 9196SOL    HW239225   0.739   4.229  12.870  1.8046 -0.2594 -4.4884
 9197SOL     OW39226   1.696   4.057  14.835  0.5302 -0.4068  0.3191
 9197SOL    HW139227   1.733   3.969  14.841 -3.0944 -1.9562 -0.2341
 9197SOL    HW239228   1.725   4.081  14.748 -1.5755  1.6397  0.1751
 9198SOL     OW39229   1.948   3.680   4.648  0.0834 -0.1391  0.4553
 9198SOL    HW139230   1.904   3.684   4.563 -0.9502 -1.1713  0.9448
 9198SOL    HW239231   2.005   3.605   4.637 -1.9168 -1.3178 -1.8486
 9199SOL     OW39232   4.478   1.771   7.911  0.5237  0.2025 -0.2261
 9199SOL    HW139233   4.464   1.682   7.943  0.9745 -0.6184 -2.3089
 9199SOL    HW239234   4.564   1.765   7.869 -0.3302  0.4349 -2.0156
 9200SOL     OW39235   0.620   1.166  10.338  0.3977 -0.0219  0.4021
 9200SOL    HW139236   0.590   1.217  10.413  0.8295  2.3622 -1.0430
 9200SOL    HW239237   0.582   1.217  10.266  3.0679 -2.7647 -2.9628
 9201SOL     OW39238   1.518   0.168   7.360  0.3108  0.0721 -0.3370
 9201SOL    HW139239   1.548   0.082   7.330  1.6155  0.4842 -0.2099
 9201SOL    HW239240   1.577   0.221   7.305 -1.2539  0.8779 -1.2292
 9202SOL     OW39241   3.144   4.298   7.994  0.3474  0.2688  0.1539
 9202SOL    HW139242   3.144   4.330   8.084 -1.0488  2.6950 -0.7007
 9202SOL    HW239243   3.070   4.354   7.971 -0.2776 -0.8554 -0.5562
 9203SOL     OW39244   0.137   0.906   5.079  0.2523 -0.2967 -0.2818
 9203SOL    HW139245   0.185   0.958   5.143  1.0373 -1.1042 -0.2118
 9203SOL    HW239246   0.172   0.819   5.096 -2.9514 -1.4517  0.4030
 9204SOL     OW39247   0.532   4.548   2.446 -0.4705  0.1653  0.0171
 9204SOL    HW139248   0.491   4.632   2.463  2.8061  2.0380 -1.2794
 9204SOL    HW239249   0.580   4.555   2.364  1.1797 -0.9687  0.8858
 9205SOL     OW39250   3.077   2.623  17.146  0.2749 -0.2050  0.5782
 9205SOL    HW139251   3.152   2.682  17.146 -0.4081  0.6779  0.9121
 9205SOL    HW239252   3.090   2.559  17.216 -2.3545  2.4075  3.4592
 9206SOL     OW39253   4.131   2.438   8.123  0.0926  0.2159  0.0670
 9206SOL    HW139254   4.070   2.369   8.097  1.0191  0.1584 -1.9172
 9206SOL    HW239255   4.087   2.521   8.136  0.0623  0.6211 -2.5683
 9207SOL     OW39256   1.173   1.614   9.853  0.0627 -0.1275 -0.2849
 9207SOL    HW139257   1.081   1.632   9.869 -0.5400 -1.4619 -2.3155
 9207SOL    HW239258   1.204   1.691   9.902  1.1577 -1.6484  1.4041
 9208SOL     OW39259   3.276   3.023   9.843  0.0668 -0.9379 -0.9310
 9208SOL    HW139260   3.196   3.048   9.890  0.0713  1.1379 -2.0460
 9208SOL    HW239261   3.338   3.087   9.877 -0.0987 -0.6938 -1.0940
 9209SOL     OW39262   3.070   0.243   7.701 -0.3583  0.2109 -0.5731
 9209SOL    HW139263   3.099   0.199   7.781 -1.1177 -0.4708 -0.6725
 9209SOL    HW239264   3.005   0.184   7.663 -2.5466  0.9339  2.0599
 9210SOL     OW39265   4.582   3.404   8.026  0.3057 -0.3300  0.2644
 9210SOL    HW139266   4.619   3.429   8.110  1.1266 -1.8365  0.3626
 9210SOL    HW239267   4.511   3.467   8.017  0.4098 -0.4099 -1.1695
 9211SOL     OW39268   1.188   1.844   4.324  0.0984 -0.2172 -0.7218
 9211SOL    HW139269   1.167   1.816   4.234 -0.3017  0.5945 -0.8796
 9211SOL    HW239270   1.112   1.813   4.372  2.3780 -2.2797  1.5682
 9212SOL     OW39271   1.094   1.124  11.270  0.7384  0.4990  0.2745
 9212SOL    HW139272   1.059   1.131  11.181 -0.6209 -0.3086  0.7454
 9212SOL    HW239273   1.178   1.086  11.247  0.0782 -0.6642 -0.2024
 9213SOL     OW39274   1.495   0.565   7.227  0.2719  0.2700  0.7321
 9213SOL    HW139275   1.454   0.601   7.306 -2.6488  0.1899 -0.7883
 9213SOL    HW239276   1.574   0.619   7.230  0.7542 -0.4162  0.2633
 9214SOL     OW39277   0.365   2.242  12.037 -0.7714  0.1823 -0.0451
 9214SOL    HW139278   0.331   2.242  11.948 -1.5392 -0.9128  0.2533
 9214SOL    HW239279   0.458   2.226  12.021 -0.5879  0.1454  1.0241
 9215SOL     OW39280   0.669   3.387   7.176  0.5015  0.3843  0.5396
 9215SOL    HW139281   0.634   3.317   7.121  0.7371  2.1115 -1.8068
 9215SOL    HW239282   0.664   3.462   7.117  0.6092 -1.1132 -1.3317
 9216SOL     OW39283   1.464   2.433  14.941 -0.7693  0.4747  0.4571
 9216SOL    HW139284   1.491   2.507  14.888  3.9006 -0.2766  1.7689
 9216SOL    HW239285   1.377   2.463  14.967 -1.5995  0.6771 -2.6143
 9217SOL     OW39286   2.469   2.424   5.488  0.3236  0.0477 -0.3568
 9217SOL    HW139287   2.449   2.496   5.548  3.0187  0.7562 -0.2879
 9217SOL    HW239288   2.409   2.358   5.522  0.3746  0.5291  0.6665
 9218SOL     OW39289   0.198   4.066   5.802 -0.2740  0.0381  0.2237
 9218SOL    HW139290   0.127   4.028   5.750  0.7166 -0.5895 -0.6577
 9218SOL    HW239291   0.273   4.008   5.791  1.5386  2.4574 -0.0367
 9219SOL     OW39292   3.356   0.368   6.346  0.3594 -0.3929 -0.2104
 9219SOL    HW139293   3.388   0.363   6.255 -0.1570  1.2597 -0.4873
 9219SOL    HW239294   3.290   0.299   6.342  0.7143 -0.7173 -0.4315
 9220SOL     OW39295   3.702   1.524   7.637 -0.3369 -0.1563 -0.2797
 9220SOL    HW139296   3.786   1.561   7.664  0.2650 -2.6783  1.2968
 9220SOL    HW239297   3.732   1.467   7.567 -0.0591  1.3521 -1.3947
 9221SOL     OW39298   0.942   2.130   6.045  0.5292  0.4793 -0.3727
 9221SOL    HW139299   0.934   2.092   6.133 -1.9216  2.9106  0.4691
 9221SOL    HW239300   0.915   2.055   5.993  0.6494  1.4935 -1.8878
 9222SOL     OW39301   0.870   4.516   5.056 -0.2503  0.5097  0.0994
 9222SOL    HW139302   0.804   4.541   5.121 -1.2035 -0.0893 -0.6251
 9222SOL    HW239303   0.866   4.421   5.047  0.4511  0.5590 -0.6878
 9223SOL     OW39304   3.051   1.373   3.841  0.5007 -0.4519  0.7539
 9223SOL    HW139305   3.000   1.317   3.782  3.0732  1.8393 -3.5953
 9223SOL    HW239306   3.115   1.398   3.774  1.5845 -2.9286  0.8618
 9224SOL     OW39307   3.274   1.234   8.578 -0.0023 -0.1114  0.3590
 9224SOL    HW139308   3.343   1.299   8.586 -0.1923  0.0277  0.9354
 9224SOL    HW239309   3.321   1.167   8.529 -2.2250 -1.8215  0.5313
 9225SOL     OW39310   3.616   4.643   3.315 -0.2655  0.6623  0.0461
 9225SOL    HW139311   3.678   4.640   3.389  0.1750 -0.6938 -0.3744
 9225SOL    HW239312   3.644   4.560   3.275 -0.0671  0.7984 -0.0957
 9226SOL     OW39313   2.323   2.525  15.749  0.5609 -0.3844 -0.1562
 9226SOL    HW139314   2.366   2.584  15.687 -0.6181  0.2844 -0.3422
 9226SOL    HW239315   2.237   2.565  15.762  0.0362 -0.8021 -2.2994
 9227SOL     OW39316   2.829   4.328   5.793 -0.6317  0.1472  0.0950
 9227SOL    HW139317   2.917   4.345   5.759  0.0410 -1.5383  0.9704
 9227SOL    HW239318   2.860   4.302   5.880  2.4570  0.1136 -1.0060
 9228SOL     OW39319   0.264   2.296   5.166  0.3916 -0.2619  0.0068
 9228SOL    HW139320   0.209   2.291   5.088 -0.1281 -1.8718  0.4785
 9228SOL    HW239321   0.251   2.208   5.202 -0.6281  0.3979  1.2829
 9229SOL     OW39322   2.029   2.748  15.442  0.0822 -0.6310  0.0408
 9229SOL    HW139323   2.038   2.666  15.394 -1.0598 -1.0963  0.6070
 9229SOL    HW239324   2.100   2.799  15.404  0.6516 -0.6540  1.0715
 9230SOL     OW39325   4.562   2.049   5.920 -0.3557  0.2353 -0.5800
 9230SOL    HW139326   4.653   2.021   5.929 -0.8639 -1.7038 -1.4143
 9230SOL    HW239327   4.557   2.071   5.827  0.5966 -0.2515 -0.7500
 9231SOL     OW39328   0.393   4.478  10.098 -0.3707  0.1058  0.3985
 9231SOL    HW139329   0.345   4.435  10.170 -1.9325  1.1903  0.0258
 9231SOL    HW239330   0.358   4.429  10.024 -1.6744  0.3352  0.8607
 9232SOL     OW39331   3.552   0.226  12.728  0.4165 -0.2810  0.2308
 9232SOL    HW139332   3.502   0.211  12.808 -0.4988  1.7149  0.0386
 9232SOL    HW239333   3.497   0.176  12.666  0.3299  0.1632 -0.0501
 9233SOL     OW39334   2.173   4.274  11.147  0.1792  0.0902  0.2585
 9233SOL    HW139335   2.096   4.220  11.130  0.5278 -0.1549 -0.5582
 9233SOL    HW239336   2.209   4.272  11.059  1.3534 -1.1634  0.7699
 9234SOL     OW39337   3.432   4.615   4.806 -0.1011 -0.1354  0.3368
 9234SOL    HW139338   3.395   4.626   4.719  0.0058 -3.9348 -0.2039
 9234SOL    HW239339   3.401   4.690   4.857  1.0239  0.1929  0.5462
 9235SOL     OW39340   1.275   2.099   2.516  0.0586  0.3941  0.0673
 9235SOL    HW139341   1.200   2.097   2.576 -0.0300 -0.3605 -0.0716
 9235SOL    HW239342   1.278   2.005   2.496 -0.0953  0.3602  0.2022
 9236SOL     OW39343   3.440   0.733   4.398 -0.5831 -0.0722  0.0282
 9236SOL    HW139344   3.377   0.764   4.332 -0.9490  0.0387  0.4311
 9236SOL    HW239345   3.437   0.802   4.464 -0.8762  1.5260 -1.6466
 9237SOL     OW39346   2.926   0.840   8.645 -0.4341 -0.1846  0.2240
 9237SOL    HW139347   2.835   0.867   8.633 -0.1929  0.9506  0.9517
 9237SOL    HW239348   2.923   0.781   8.569 -0.9995  0.3347 -0.1580
 9238SOL     OW39349   3.901   3.655   9.393 -0.1267  0.7040 -0.4408
 9238SOL    HW139350   3.958   3.579   9.386 -1.5505 -0.2729 -1.4727
 9238SOL    HW239351   3.881   3.662   9.486  1.1307  1.3614 -0.2190
 9239SOL     OW39352   1.996   1.015   4.519 -0.4660  0.3102 -0.0948
 9239SOL    HW139353   2.029   1.050   4.601  1.3300 -4.4975  1.2269
 9239SOL    HW239354   2.004   1.096   4.469  2.4651 -0.0680 -0.2527
 9240SOL     OW39355   2.190   0.362   6.769  0.3634  0.0241 -0.2624
 9240SOL    HW139356   2.167   0.287   6.824 -0.7608  1.4124  1.1787
 9240SOL    HW239357   2.145   0.433   6.816  1.6575  1.7928 -1.6718
 9241SOL     OW39358   1.809   0.662  17.711 -0.4016  0.1236 -0.3762
 9241SOL    HW139359   1.847   0.612  17.639 -0.0566  1.3384 -1.0247
 9241SOL    HW239360   1.728   0.610  17.719  0.2779 -0.6662  1.2786
 9242SOL     OW39361   0.459   3.175   7.437 -0.3027  0.3867 -0.5603
 9242SOL    HW139362   0.503   3.102   7.392 -0.0379  0.4647 -0.4304
 9242SOL    HW239363   0.527   3.240   7.418  0.0200  0.2585  0.1856
 9243SOL     OW39364   0.816   4.443   6.495 -0.2433  0.3379  0.4622
 9243SOL    HW139365   0.893   4.497   6.511  0.7067 -0.3611 -1.7615
 9243SOL    HW239366   0.753   4.505   6.530 -0.3549  0.8227 -0.5952
 9244SOL     OW39367   2.952   4.287   6.029 -0.0731 -0.5486 -0.2230
 9244SOL    HW139368   3.010   4.357   5.998  1.2801 -1.8426 -0.6121
 9244SOL    HW239369   3.000   4.251   6.103 -0.8862  1.4639  1.2812
 9245SOL     OW39370   3.881   3.560  17.638  0.5077  0.1217 -0.2172
 9245SOL    HW139371   3.877   3.474  17.596 -0.9830  1.7723 -3.4132
 9245SOL    HW239372   3.792   3.589  17.621  0.1609 -1.5252 -1.1613
 9246SOL     OW39373   1.588   2.721   3.553 -0.0209  0.3253 -0.3131
 9246SOL    HW139374   1.679   2.726   3.580  0.1256 -1.2027 -0.4819
 9246SOL    HW239375   1.543   2.758   3.629  1.3109 -0.5653  0.9163
 9247SOL     OW39376   2.885   4.062   3.003 -0.1307  0.3624 -0.5205
 9247SOL    HW139377   2.976   4.065   2.975  0.5841 -1.0368  1.6810
 9247SOL    HW239378   2.895   4.001   3.076  2.3868  1.4991  0.0888
 9248SOL     OW39379   3.996   0.608   4.423  0.1165 -0.4150 -0.2171
 9248SOL    HW139380   4.052   0.631   4.349  2.2078 -0.6400  1.3202
 9248SOL    HW239381   4.018   0.678   4.484  1.5026 -0.9246 -0.1358
 9249SOL     OW39382   4.052   1.517   9.525 -0.5106 -0.1613 -0.6083
 9249SOL    HW139383   3.984   1.526   9.459 -1.4330 -2.0014  0.0852
 9249SOL    HW239384   4.122   1.500   9.462 -1.5380 -1.6930 -1.3155
 9250SOL     OW39385   1.267   2.542   4.407  0.2515  0.3532 -0.2399
 9250SOL    HW139386   1.290   2.624   4.450 -0.4000  0.6110 -0.3737
 9250SOL    HW239387   1.187   2.572   4.363  0.8205  1.8483 -0.2463
 9251SOL     OW39388   3.452   0.471  16.103 -0.2780 -0.2684  0.0298
 9251SOL    HW139389   3.480   0.498  16.015  1.6056  1.5025  1.1526
 9251SOL    HW239390   3.363   0.505  16.107 -0.6124 -1.3236  1.4948
 9252SOL     OW39391   1.010   2.934  16.494  0.2209 -0.1008 -0.3616
 9252SOL    HW139392   1.062   2.911  16.571 -0.2519 -0.3912 -0.1335
 9252SOL    HW239393   1.071   2.900  16.429  1.3326 -0.4654  0.8701
 9253SOL     OW39394   1.840   1.569   0.989  0.3304  0.5313  0.0102
 9253SOL    HW139395   1.923   1.589   1.031 -0.3425  0.0193  1.5689
 9253SOL    HW239396   1.832   1.632   0.917  1.9011  1.6463  0.8207
 9254SOL     OW39397   4.717   4.540   6.965  0.0215  0.3990 -0.0602
 9254SOL    HW139398   4.732   4.453   7.001 -1.7351  0.0770 -0.1289
 9254SOL    HW239399   4.696   4.600   7.037 -0.9261 -1.3897  1.1495
 9255SOL     OW39400   1.781   3.458   1.371 -0.2302  0.1617 -0.3460
 9255SOL    HW139401   1.699   3.494   1.335 -0.0094  0.5804 -0.4319
 9255SOL    HW239402   1.774   3.363   1.374  1.2666 -0.0081 -2.2715
 9256SOL     OW39403   0.156   0.780   1.941 -0.3273  0.0502 -0.4107
 9256SOL    HW139404   0.161   0.687   1.922  0.4021  0.0743 -0.3516
 9256SOL    HW239405   0.064   0.789   1.964  0.4701  2.7822  1.7615
 9257SOL     OW39406   1.254   3.924   2.657  0.3382 -0.7238 -0.0704
 9257SOL    HW139407   1.262   3.944   2.564  1.1158 -2.1266 -0.3115
 9257SOL    HW239408   1.347   3.915   2.676  0.3424 -1.6916 -0.5500
 9258SOL     OW39409   4.423   1.361   4.453  0.4208  0.3308  0.2214
 9258SOL    HW139410   4.510   1.365   4.491  1.4063 -2.5702 -1.6994
 9258SOL    HW239411   4.396   1.271   4.434  2.2099  0.0894 -1.1879
 9259SOL     OW39412   0.548   3.985   1.681  0.0637 -0.0472  0.6392
 9259SOL    HW139413   0.540   3.977   1.586 -0.9870  1.2825  0.6192
 9259SOL    HW239414   0.616   3.918   1.693 -1.8441 -1.9251  0.9394
 9260SOL     OW39415   3.132   4.687   2.061  0.3420 -0.2352 -0.6688
 9260SOL    HW139416   3.135   0.033   2.020  1.3762 -0.1879 -0.4931
 9260SOL    HW239417   3.051   4.698   2.111  1.1506 -0.0149  0.5962
 9261SOL     OW39418   0.510   1.164   8.308  0.3557 -0.3683  0.2254
 9261SOL    HW139419   0.439   1.228   8.310  0.0899 -0.6708  0.4961
 9261SOL    HW239420   0.580   1.188   8.247 -0.5768  1.0676 -0.2910
 9262SOL     OW39421   4.548   3.361   1.553  0.8047  0.2275  0.0543
 9262SOL    HW139422   4.523   3.367   1.461 -2.4332 -3.0455  0.7176
 9262SOL    HW239423   4.630   3.410   1.548 -0.2214  1.8741 -0.5684
 9263SOL     OW39424   3.243   4.041   7.944 -0.0480 -0.3424  0.2922
 9263SOL    HW139425   3.239   4.134   7.967  0.6765 -0.7796  2.1496
 9263SOL    HW239426   3.177   4.032   7.875  2.8760  0.9377 -2.6481
 9264SOL     OW39427   1.620   3.502   7.324  0.6328  0.1087 -0.0219
 9264SOL    HW139428   1.585   3.491   7.413  1.4242  1.8191  0.4969
 9264SOL    HW239429   1.656   3.590   7.336  1.3380 -0.1919  0.0566
 9265SOL     OW39430   2.331   4.559   3.002  0.1921 -0.3104 -0.7184
 9265SOL    HW139431   2.323   4.591   2.912 -1.4938  0.5962 -0.2363
 9265SOL    HW239432   2.291   4.632   3.048  0.8324  0.7129 -1.7720
 9266SOL     OW39433   0.296   2.668  10.054  0.2564  0.2230 -0.1787
 9266SOL    HW139434   0.203   2.687  10.061  0.4015  1.5062 -1.9823
 9266SOL    HW239435   0.313   2.619  10.135  1.1806  1.1126  0.1666
 9267SOL     OW39436   2.304   4.232   3.037 -0.6555 -0.5833  0.2795
 9267SOL    HW139437   2.244   4.305   3.018 -1.0587 -0.9951 -0.0159
 9267SOL    HW239438   2.263   4.189   3.113  0.6260 -2.6497 -0.2080
 9268SOL     OW39439   2.319   2.866  15.365  0.1474  0.0508 -0.3717
 9268SOL    HW139440   2.315   2.958  15.339 -0.9724  0.3791  0.9384
 9268SOL    HW239441   2.363   2.823  15.292  0.4594 -2.1060  1.0584
 9269SOL     OW39442   0.157   1.369   1.976  0.4954  0.5613  0.2260
 9269SOL    HW139443   0.080   1.399   1.928  0.7864 -1.2989 -1.3980
 9269SOL    HW239444   0.134   1.401   2.063 -0.3284  0.6014 -0.0066
 9270SOL     OW39445   3.919   0.359   2.555  0.1811  0.3732  0.2332
 9270SOL    HW139446   3.850   0.401   2.503 -0.8915  0.5658  1.8285
 9270SOL    HW239447   3.882   0.360   2.643  0.6134 -0.2791  0.4212
 9271SOL     OW39448   0.125   2.033   4.423 -0.5451 -0.1142  0.2566
 9271SOL    HW139449   0.219   2.049   4.432 -0.6391 -0.2711  1.4527
 9271SOL    HW239450   0.126   1.942   4.451 -0.1212  0.0042  0.6296
 9272SOL     OW39451   2.282   0.501  17.536  0.3163 -0.0385  0.0896
 9272SOL    HW139452   2.321   0.414  17.528  1.7057  0.5052  0.9708
 9272SOL    HW239453   2.246   0.523  17.450 -0.8382  0.3521  0.6736
 9273SOL     OW39454   3.750   3.996   8.673  0.4096 -0.2591  0.0028
 9273SOL    HW139455   3.826   4.024   8.621  0.8748  1.2729  1.5423
 9273SOL    HW239456   3.781   4.030   8.757  2.0862  3.6759 -2.2149
 9274SOL     OW39457   1.468   0.830   9.902 -0.4235  0.3424  0.3742
 9274SOL    HW139458   1.488   0.921   9.926  1.1932  0.4580 -1.4481
 9274SOL    HW239459   1.471   0.819   9.807  0.7260  2.3940  0.1627
 9275SOL     OW39460   0.396   2.408  15.649  0.6082 -0.3434 -0.1138
 9275SOL    HW139461   0.431   2.381  15.564 -2.4063 -0.4313 -1.3030
 9275SOL    HW239462   0.483   2.418  15.688 -0.8812  5.4903  1.7043
 9276SOL     OW39463   4.270   4.587   2.492  0.3970  0.1593 -0.3040
 9276SOL    HW139464   4.246   4.511   2.440 -0.9757  0.0135  0.5497
 9276SOL    HW239465   4.289   4.532   2.568 -3.6869 -2.2190 -1.0633
 9277SOL     OW39466   3.163   2.487   5.503 -0.0076 -0.2595  0.2413
 9277SOL    HW139467   3.141   2.491   5.410 -1.7400  2.9199  0.7670
 9277SOL    HW239468   3.074   2.476   5.536  0.0251  0.4947  0.5868
 9278SOL     OW39469   2.327   1.742   8.480  0.0731 -0.1237 -0.1267
 9278SOL    HW139470   2.319   1.833   8.453  0.0092 -0.7176 -2.1777
 9278SOL    HW239471   2.237   1.716   8.501  0.6196 -0.4306  1.7934
 9279SOL     OW39472   0.650   1.754   9.446 -0.0317 -0.2477  0.0301
 9279SOL    HW139473   0.589   1.684   9.423  0.4442  0.2211 -2.6737
 9279SOL    HW239474   0.591   1.828   9.456  1.1460  0.4191  2.2204
 9280SOL     OW39475   2.467   2.683  15.565  0.0496 -0.0206 -0.4721
 9280SOL    HW139476   2.418   2.752  15.522  0.2125  0.3845 -0.0071
 9280SOL    HW239477   2.553   2.724  15.570 -0.1490  0.3038  0.3116
 9281SOL     OW39478   2.128   0.161   6.962 -0.1768 -0.7216  0.3217
 9281SOL    HW139479   2.198   0.170   7.027 -0.1952 -1.1250  0.3926
 9281SOL    HW239480   2.059   0.127   7.018 -1.2394 -0.5808 -0.9144
 9282SOL     OW39481   0.715   0.165   8.700 -0.2951 -0.3782  0.1287
 9282SOL    HW139482   0.732   0.256   8.724 -0.1885 -0.3648  0.0100
 9282SOL    HW239483   0.636   0.144   8.748  1.0526 -1.3773  1.9013
 9283SOL     OW39484   2.081   4.086  10.858 -0.0513 -0.2322 -0.0793
 9283SOL    HW139485   2.016   4.109  10.925  1.9150  1.4215  1.2487
 9283SOL    HW239486   2.047   4.132  10.782  0.6004 -2.4724 -1.7503
 9284SOL     OW39487   4.238   0.303   2.753  0.0643 -0.1220  0.3604
 9284SOL    HW139488   4.225   0.326   2.661  0.1304 -0.5631  0.2386
 9284SOL    HW239489   4.313   0.351   2.789  1.6722 -1.3470 -1.3168
 9285SOL     OW39490   1.777   1.235  10.193  0.3002  0.0794  0.3637
 9285SOL    HW139491   1.844   1.222  10.125  2.9984  0.9088  2.8748
 9285SOL    HW239492   1.758   1.143  10.210  1.5709 -0.5101 -1.4050
 9286SOL     OW39493   1.558   0.397   1.167 -0.0837 -0.1309  0.0995
 9286SOL    HW139494   1.475   0.414   1.212  1.0350  0.6377  1.8925
 9286SOL    HW239495   1.622   0.414   1.237 -0.9183 -0.2459  0.8972
 9287SOL     OW39496   2.324   4.679   2.776  0.1983  0.0217  0.1613
 9287SOL    HW139497   2.267   4.698   2.702  1.1186 -1.0772 -0.8125
 9287SOL    HW239498   2.409   4.682   2.732 -0.1730  0.3931 -0.5294
 9288SOL     OW39499   0.430   1.370   6.000  0.2512 -0.2690 -0.1994
 9288SOL    HW139500   0.394   1.360   6.089 -0.4464  0.0286 -0.4491
 9288SOL    HW239501   0.524   1.366   6.019 -0.4510 -1.4300  3.0176
 9289SOL     OW39502   2.762   0.917  13.896 -0.2495 -0.0407 -0.4078
 9289SOL    HW139503   2.703   0.954  13.962  1.9123  1.7864  0.5011
 9289SOL    HW239504   2.794   0.839  13.940 -0.7551 -1.7749 -3.1003
 9290SOL     OW39505   1.507   2.324  10.426 -0.3180 -0.5950 -0.3317
 9290SOL    HW139506   1.497   2.345  10.519  0.5417 -2.4314  0.1781
 9290SOL    HW239507   1.551   2.400  10.389 -1.2996 -0.0531 -0.3745
 9291SOL     OW39508   0.148   2.199   4.638  0.0190 -0.3329  0.4070
 9291SOL    HW139509   0.115   2.149   4.563 -0.5912  1.2119 -0.3596
 9291SOL    HW239510   0.227   2.151   4.664  0.3289  0.9933  1.8559
 9292SOL     OW39511   1.268   2.635   6.677 -0.3434 -0.1141 -0.3456
 9292SOL    HW139512   1.257   2.568   6.744  0.6811  0.7326  0.6635
 9292SOL    HW239513   1.239   2.714   6.723 -0.5458 -0.7116  0.5506
 9293SOL     OW39514   1.168   1.988   5.503  0.3156 -0.2233  0.0488
 9293SOL    HW139515   1.135   2.029   5.423  1.4892  0.5878 -0.0106
 9293SOL    HW239516   1.256   2.022   5.519 -0.5794  1.6590  0.9855
 9294SOL     OW39517   1.837   2.792  12.135  0.2788 -0.7433 -0.5074
 9294SOL    HW139518   1.830   2.728  12.205 -1.0565  0.2155  0.2273
 9294SOL    HW239519   1.788   2.748  12.066 -1.4942  0.3469  0.0523
 9295SOL     OW39520   3.229   3.911   1.992  0.7308  0.3870  0.2368
 9295SOL    HW139521   3.157   3.974   1.990 -0.3174 -0.7920  1.5195
 9295SOL    HW239522   3.259   3.910   1.901  0.9091  2.5312  0.2635
 9296SOL     OW39523   2.804   2.268   2.319  0.4386  0.1903  0.2918
 9296SOL    HW139524   2.722   2.243   2.276  1.4520 -1.7081 -0.4945
 9296SOL    HW239525   2.844   2.184   2.341  0.5501  0.3134  0.5664
 9297SOL     OW39526   2.628   1.054   5.826 -0.2162  0.0365 -0.3429
 9297SOL    HW139527   2.598   1.142   5.849  2.6352  0.3064  2.4095
 9297SOL    HW239528   2.584   1.032   5.744  3.2512 -0.9893 -1.9363
 9298SOL     OW39529   0.839   3.486   1.934 -0.4083 -0.0265  0.2831
 9298SOL    HW139530   0.863   3.515   2.023 -1.9165  1.5948  0.1425
 9298SOL    HW239531   0.744   3.495   1.931 -0.5331 -1.6116 -0.4422
 9299SOL     OW39532   0.842   2.456   7.160 -0.8332  0.1410 -0.3092
 9299SOL    HW139533   0.927   2.415   7.146 -0.1039  2.0148 -1.4862
 9299SOL    HW239534   0.797   2.386   7.206  1.1267 -0.3455  0.8673
 9300SOL     OW39535   1.552   1.869   8.703 -0.2871 -0.9683  0.0634
 9300SOL    HW139536   1.495   1.799   8.734 -1.8924  1.1403  1.9540
 9300SOL    HW239537   1.485   1.922   8.659 -0.1179 -0.9298 -0.1424
 9301SOL     OW39538   4.388   3.446   0.906  0.6393  0.5534  0.1526
 9301SOL    HW139539   4.438   3.376   0.949 -0.7735  0.1370  1.0917
 9301SOL    HW239540   4.303   3.409   0.926  0.6199 -0.1988 -1.2968
 9302SOL     OW39541   2.189   2.683  12.723  0.0380 -0.4648 -0.1101
 9302SOL    HW139542   2.282   2.663  12.720 -0.2133 -1.6549  0.0026
 9302SOL    HW239543   2.175   2.685  12.817  0.7473  2.9879 -0.0810
 9303SOL     OW39544   2.343   1.637   1.430  0.0644 -0.3242 -0.1572
 9303SOL    HW139545   2.436   1.617   1.439  0.4806  0.6606 -2.2374
 9303SOL    HW239546   2.332   1.691   1.509  2.5890  1.7916 -1.2747
 9304SOL     OW39547   2.855   1.552   1.799  0.2466 -0.1521  0.0519
 9304SOL    HW139548   2.905   1.478   1.833 -0.3217 -2.0828 -3.3309
 9304SOL    HW239549   2.872   1.542   1.705  1.6789 -0.1516  0.3051
 9305SOL     OW39550   4.379   3.026   5.861  0.2427 -0.0682  0.2387
 9305SOL    HW139551   4.433   3.033   5.940  0.1197 -3.7179  0.6502
 9305SOL    HW239552   4.297   3.069   5.884  1.8125  2.3422  1.2813
 9306SOL     OW39553   0.602   2.639   6.578 -0.1666 -0.3036 -0.0554
 9306SOL    HW139554   0.626   2.547   6.570  4.0746  0.7547  0.6938
 9306SOL    HW239555   0.530   2.628   6.640  0.4820  1.5067  1.0216
 9307SOL     OW39556   4.449   2.987   3.335  0.4361 -0.0606  0.5068
 9307SOL    HW139557   4.496   2.992   3.418 -1.4685 -0.2119  1.6047
 9307SOL    HW239558   4.361   3.005   3.367  0.6345  0.6832  0.6388
 9308SOL     OW39559   0.725   1.016  17.590 -0.2360  0.1588 -0.0272
 9308SOL    HW139560   0.670   0.983  17.662 -0.8433  2.4926  0.5856
 9308SOL    HW239561   0.648   1.051  17.544 -0.0065  1.3712  0.5090
 9309SOL     OW39562   0.972   2.419   9.191  0.3977 -0.4257 -0.3701
 9309SOL    HW139563   0.893   2.436   9.242  0.6652  1.6520 -0.6580
 9309SOL    HW239564   1.013   2.504   9.174 -2.2675  0.2183 -3.5116
 9310SOL     OW39565   4.496   1.381   8.700 -0.2241  0.4686 -0.0282
 9310SOL    HW139566   4.457   1.422   8.624 -0.0247  1.5597  0.4487
 9310SOL    HW239567   4.476   1.451   8.762  0.7163 -1.0144  1.9872
 9311SOL     OW39568   2.306   0.132   2.978 -0.2913  0.2383 -0.0825
 9311SOL    HW139569   2.373   0.183   2.931 -1.5115  1.5205 -0.4335
 9311SOL    HW239570   2.294   0.062   2.914  0.9190 -0.2281  0.2010
 9312SOL     OW39571   3.342   3.626   6.886 -0.0454  0.3484 -0.1120
 9312SOL    HW139572   3.272   3.573   6.849  0.0709  1.4618 -1.9316
 9312SOL    HW239573   3.356   3.690   6.816 -1.0069  0.4070 -0.2551
 9313SOL     OW39574   2.083   0.608  16.565 -0.8913 -0.2986  0.9419
 9313SOL    HW139575   2.122   0.588  16.480 -2.2501 -0.3722  0.3368
 9313SOL    HW239576   2.096   0.703  16.568  1.3660 -0.5598 -0.1843
 9314SOL     OW39577   0.569   1.566   5.260  0.1909 -0.4729  0.7941
 9314SOL    HW139578   0.546   1.505   5.330 -1.2154 -1.1092 -0.2409
 9314SOL    HW239579   0.549   1.650   5.301 -0.4114 -0.1317 -0.2132
 9315SOL     OW39580   0.979   3.518  16.674 -0.2253 -0.5319 -0.0390
 9315SOL    HW139581   1.035   3.594  16.690 -0.9792  0.0340 -0.0798
 9315SOL    HW239582   1.038   3.460  16.627 -0.1030  0.8222 -1.5343
 9316SOL     OW39583   3.447   1.350   5.466  0.6955  0.0787 -0.5812
 9316SOL    HW139584   3.455   1.256   5.450  0.2113 -0.3538  1.6843
 9316SOL    HW239585   3.432   1.338   5.560  1.9109  0.2775 -0.3717
 9317SOL     OW39586   2.952   4.689  11.417 -0.9466  0.6846 -0.0616
 9317SOL    HW139587   2.987   4.684  11.328 -3.4936  1.9844 -1.1308
 9317SOL    HW239588   2.859   4.672  11.399 -1.2550  1.5106  0.7898
 9318SOL     OW39589   1.401   2.678  16.739 -0.5167 -0.0017 -0.3009
 9318SOL    HW139590   1.485   2.717  16.764  0.0026 -2.0017  1.0836
 9318SOL    HW239591   1.426   2.586  16.748  0.3863  0.3269  0.5361
 9319SOL     OW39592   2.500   1.115  11.058  0.4698 -0.7617 -0.4472
 9319SOL    HW139593   2.565   1.179  11.087  1.3795 -2.1082  0.5056
 9319SOL    HW239594   2.553   1.037  11.040  0.1397 -0.8892 -0.8868
 9320SOL     OW39595   4.402   2.746   6.323  0.0625 -0.3134  0.4618
 9320SOL    HW139596   4.345   2.686   6.371  0.2495 -0.8214  0.0434
 9320SOL    HW239597   4.364   2.831   6.347 -0.9893 -0.8920  0.8478
 9321SOL     OW39598   0.671   0.737   4.711  0.5044  0.4115 -0.2595
 9321SOL    HW139599   0.692   0.820   4.754 -0.7668  1.1238 -1.0145
 9321SOL    HW239600   0.586   0.710   4.747  0.2414  0.3499 -0.9422
 9322SOL     OW39601   0.787   2.744   6.852 -0.1675 -0.4021  0.0502
 9322SOL    HW139602   0.778   2.791   6.769  0.9874 -2.1042 -1.0454
 9322SOL    HW239603   0.832   2.663   6.829 -0.5477 -0.8875  1.0035
 9323SOL     OW39604   0.700   4.067   6.161  0.2149  0.4128 -0.8954
 9323SOL    HW139605   0.790   4.084   6.133  0.3730 -1.2668 -1.4035
 9323SOL    HW239606   0.685   4.146   6.213  0.4110 -0.7833  0.9712
 9324SOL     OW39607   1.937   3.415   2.434  0.1421 -0.0612  0.3867
 9324SOL    HW139608   1.847   3.411   2.403  0.0887  3.0950  0.1009
 9324SOL    HW239609   1.959   3.509   2.434 -0.0243 -0.0226  1.0546
 9325SOL     OW39610   3.271   1.090   2.953 -0.5144 -0.0917  0.2946
 9325SOL    HW139611   3.232   1.171   2.984 -0.6745 -0.6797  1.6091
 9325SOL    HW239612   3.196   1.031   2.964  0.2253 -1.3078 -1.1378
 9326SOL     OW39613   3.553   2.404  10.697  0.2865  0.0410 -0.1682
 9326SOL    HW139614   3.562   2.499  10.698  0.4295  0.0236  1.2759
 9326SOL    HW239615   3.567   2.390  10.604  1.1503  1.5847 -0.2709
 9327SOL     OW39616   0.941   1.253   6.120  0.3001  0.3784 -0.1000
 9327SOL    HW139617   1.017   1.217   6.074 -1.5396 -1.7796 -1.4835
 9327SOL    HW239618   0.979   1.294   6.197 -0.7932  0.0969  0.5972
 9328SOL     OW39619   1.397   0.535   4.203  0.1596 -0.2441 -0.3706
 9328SOL    HW139620   1.488   0.565   4.200  0.2604 -0.3491  1.4452
 9328SOL    HW239621   1.403   0.439   4.204  0.8100 -0.1974 -0.1649
 9329SOL     OW39622   2.302   1.952  10.703  0.5172 -0.0829  0.1069
 9329SOL    HW139623   2.214   1.966  10.738  0.2961  0.5940 -0.7397
 9329SOL    HW239624   2.280   1.893  10.631  0.5543 -0.3924  0.3489
 9330SOL     OW39625   1.885   4.730   2.380  0.7587 -0.4689 -0.0953
 9330SOL    HW139626   1.964   0.034   2.411  1.2719 -0.8694 -0.8366
 9330SOL    HW239627   1.817   0.010   2.445  0.9100 -0.7094  0.1398
 9331SOL     OW39628   2.086   3.969  11.914 -0.2801  0.5406  0.5975
 9331SOL    HW139629   2.010   4.013  11.953  0.0841 -1.3301  3.4473
 9331SOL    HW239630   2.135   4.048  11.890  1.6289 -0.3450  1.5204
 9332SOL     OW39631   4.393   2.193   5.700  0.2025  0.6773  0.0323
 9332SOL    HW139632   4.310   2.215   5.658  0.6713  0.4327 -1.0025
 9332SOL    HW239633   4.436   2.277   5.688  0.4983 -0.0308 -3.8703
 9333SOL     OW39634   3.549   1.458   7.870 -0.2652 -0.1367  0.0623
 9333SOL    HW139635   3.608   1.421   7.936  1.5209  2.3949 -0.1262
 9333SOL    HW239636   3.607   1.483   7.799 -0.3888  0.6457  0.2340
 9334SOL     OW39637   1.210   4.036   6.789  0.0082 -0.7263  0.6439
 9334SOL    HW139638   1.223   3.956   6.840 -0.4223 -1.6623 -0.7297
 9334SOL    HW239639   1.205   3.995   6.703  1.5766  0.5884 -0.0811
 9335SOL     OW39640   2.347   0.570   7.762 -0.4899 -0.6385  0.1950
 9335SOL    HW139641   2.306   0.612   7.837  0.5013 -1.4315  1.1805
 9335SOL    HW239642   2.381   0.490   7.803 -1.1615  0.8920  3.7297
 9336SOL     OW39643   3.970   1.780   3.166 -0.3666  0.1468  0.7981
 9336SOL    HW139644   3.940   1.833   3.092  0.9033  0.4735  0.5227
 9336SOL    HW239645   4.013   1.716   3.109  0.6539  3.3817 -2.0570
 9337SOL     OW39646   2.692   2.432  14.481 -0.4784 -0.2461  0.6904
 9337SOL    HW139647   2.666   2.397  14.566  0.9881  1.0420  1.6644
 9337SOL    HW239648   2.625   2.393  14.425  0.4900  0.7122 -1.1408
 9338SOL     OW39649   0.910   4.246   0.527 -0.3130  0.2333 -0.0422
 9338SOL    HW139650   1.003   4.267   0.533 -0.5565  0.9291  1.1927
 9338SOL    HW239651   0.914   4.151   0.512  1.1619  0.3078 -0.1177
 9339SOL     OW39652   3.787   1.545   4.156 -0.4926 -0.7739 -0.5414
 9339SOL    HW139653   3.710   1.602   4.157  0.1861  0.1283  0.6393
 9339SOL    HW239654   3.757   1.461   4.189  1.3805 -0.4050  2.1278
 9340SOL     OW39655   1.802   4.192   4.337  0.0790  0.1210 -0.7405
 9340SOL    HW139656   1.708   4.201   4.320  0.6797  3.9867 -2.1044
 9340SOL    HW239657   1.849   4.199   4.254  0.6128  1.6543 -0.3168
 9341SOL     OW39658   2.954   4.055  16.499  0.4939  0.7384  0.2244
 9341SOL    HW139659   2.913   4.141  16.498 -2.7915 -0.7961  0.3265
 9341SOL    HW239660   2.893   4.006  16.555 -0.1789  1.7623  0.3963
 9342SOL     OW39661   0.765   1.126   9.209 -0.5572  0.3109  0.2816
 9342SOL    HW139662   0.729   1.040   9.231 -2.8262  0.9802 -0.7719
 9342SOL    HW239663   0.691   1.184   9.228  1.0912  2.5380 -0.0339
 9343SOL     OW39664   2.138   0.902  15.250 -0.2013  0.4659 -0.0196
 9343SOL    HW139665   2.083   0.890  15.172  0.9378 -1.3610 -0.5316
 9343SOL    HW239666   2.126   0.996  15.264 -0.9202  0.4453 -0.5180
 9344SOL     OW39667   3.654   1.488  15.494  0.0153  0.2615  0.3763
 9344SOL    HW139668   3.564   1.504  15.464  0.3152 -1.0640 -1.2145
 9344SOL    HW239669   3.665   1.411  15.439  2.2111 -0.1150  1.3385
 9345SOL     OW39670   3.168   0.721   8.702 -0.0061 -0.0833  0.1845
 9345SOL    HW139671   3.108   0.789   8.671  0.0266 -0.5717 -0.9293
 9345SOL    HW239672   3.249   0.770   8.688  0.9825 -1.1716  2.1191
 9346SOL     OW39673   0.184   3.044  17.328  0.6922  0.4551  0.2726
 9346SOL    HW139674   0.184   2.994  17.247 -0.1964 -0.0669  0.6009
 9346SOL    HW239675   0.184   3.133  17.293 -1.6780 -0.6480 -2.4842
 9347SOL     OW39676   3.356   2.630  12.003 -0.0101  0.3177 -0.3145
 9347SOL    HW139677   3.389   2.719  11.996  0.6516  0.0292 -0.9090
 9347SOL    HW239678   3.306   2.628  11.921 -0.1952 -0.4180 -0.1835
 9348SOL     OW39679   3.421   0.486   7.567 -0.1645  0.0385 -0.1024
 9348SOL    HW139680   3.424   0.413   7.628  1.7150 -0.4390 -0.7655
 9348SOL    HW239681   3.437   0.448   7.481  0.9551  0.1370  0.0580
 9349SOL     OW39682   2.447   0.481   7.012  0.4271  1.0411  0.4846
 9349SOL    HW139683   2.411   0.415   7.072 -1.2746 -0.9403 -2.6785
 9349SOL    HW239684   2.491   0.537   7.076 -1.9606  0.7389  2.4105
 9350SOL     OW39685   2.449   2.977   8.194 -0.3115  0.8180  0.3582
 9350SOL    HW139686   2.427   2.890   8.227 -1.7129  1.1121  0.2012
 9350SOL    HW239687   2.542   2.969   8.217 -0.0526 -0.4176 -1.0850
 9351SOL     OW39688   3.298   4.399   8.460 -0.0383  0.0648 -0.6958
 9351SOL    HW139689   3.339   4.459   8.523  0.0022  0.1861 -0.8374
 9351SOL    HW239690   3.368   4.338   8.437  0.2625  0.3427 -0.5120
 9352SOL     OW39691   4.477   3.465  17.383 -0.1831 -0.5382  0.4128
 9352SOL    HW139692   4.480   3.392  17.321 -2.7647 -1.4714  1.3890
 9352SOL    HW239693   4.438   3.532  17.327 -0.8569 -0.8053  0.5684
 9353SOL     OW39694   4.225   0.959   2.578 -0.0053  0.2043  0.2549
 9353SOL    HW139695   4.274   0.880   2.556  0.4323  0.3612  0.6660
 9353SOL    HW239696   4.183   0.941   2.662 -1.5346  2.1466 -0.0814
 9354SOL     OW39697   2.581   0.856   3.744 -0.4374 -0.3492  0.0359
 9354SOL    HW139698   2.562   0.921   3.676  1.3055 -0.9834 -1.0672
 9354SOL    HW239699   2.565   0.779   3.690  2.3102 -0.4527 -0.6687
 9355SOL     OW39700   2.486   2.610   9.097  0.9632 -0.0255 -0.1962
 9355SOL    HW139701   2.571   2.583   9.130  0.4355  0.8762  1.9466
 9355SOL    HW239702   2.476   2.690   9.150 -1.8980  0.1562 -1.0001
 9356SOL     OW39703   2.107   3.613   5.919 -0.3939 -0.3744 -0.2646
 9356SOL    HW139704   2.017   3.642   5.904 -0.6752 -0.4928  1.1150
 9356SOL    HW239705   2.099   3.570   6.005 -0.5170  0.0098 -0.0853
 9357SOL     OW39706   0.314   0.892   8.856  0.5428 -0.2511 -0.3246
 9357SOL    HW139707   0.257   0.908   8.781 -0.2639 -4.3848 -0.6296
 9357SOL    HW239708   0.279   0.810   8.892  1.2264 -1.0277 -1.4040
 9358SOL     OW39709   2.646   0.055   5.161  0.2493  0.6096 -0.0228
 9358SOL    HW139710   2.581   0.043   5.091  1.1527 -1.1305 -0.5406
 9358SOL    HW239711   2.724   0.079   5.112  1.2345  0.1978  1.3402
 9359SOL     OW39712   2.553   3.275   9.628  0.3117  0.1200  0.7428
 9359SOL    HW139713   2.636   3.322   9.618  0.2933 -0.2393 -1.2500
 9359SOL    HW239714   2.488   3.342   9.609 -0.0225 -0.1732  0.8569
 9360SOL     OW39715   0.844   3.729  12.057 -0.3195 -0.4372  0.3110
 9360SOL    HW139716   0.887   3.655  12.016  0.6534  1.3984 -1.9665
 9360SOL    HW239717   0.762   3.735  12.009 -0.2978  1.4897  0.4795
 9361SOL     OW39718   3.571   2.512   5.557 -0.4129  0.0656  0.1845
 9361SOL    HW139719   3.506   2.464   5.609  2.0252  0.0151  3.1750
 9361SOL    HW239720   3.539   2.500   5.468 -0.9640 -0.4397  0.4495
 9362SOL     OW39721   3.281   1.715   6.071  0.4278  0.0879 -0.0280
 9362SOL    HW139722   3.296   1.623   6.093 -2.0335 -0.7149 -1.7326
 9362SOL    HW239723   3.193   1.710   6.035 -0.9068  1.2985  3.0620
 9363SOL     OW39724   0.322   0.084   0.178  0.3868 -0.0898 -0.5105
 9363SOL    HW139725   0.238   0.131   0.178  0.4514  0.0101  0.8899
 9363SOL    HW239726   0.301   4.737   0.143 -1.0196 -0.1653  0.5262
 9364SOL     OW39727   3.266   1.404   9.404  0.2417 -0.2283 -0.4031
 9364SOL    HW139728   3.248   1.367   9.318  0.0966  1.5179 -1.1232
 9364SOL    HW239729   3.187   1.458   9.407  1.8048  2.1188 -1.4755
 9365SOL     OW39730   1.012   0.316   1.269 -0.0467 -0.1290 -0.1309
 9365SOL    HW139731   0.989   0.373   1.343  0.9088 -0.4255  0.3894
 9365SOL    HW239732   0.989   0.230   1.305  1.9865 -1.0791 -1.1076
 9366SOL     OW39733   3.424   4.530   6.561 -0.6320 -0.0195  0.1507
 9366SOL    HW139734   3.425   4.620   6.590  0.5451 -0.0889  0.3306
 9366SOL    HW239735   3.515   4.503   6.571 -0.3885  0.5221 -0.6334
 9367SOL     OW39736   3.965   3.099   6.516 -0.1963 -0.0287  0.2806
 9367SOL    HW139737   3.950   3.093   6.422  0.6837  1.1435  0.0613
 9367SOL    HW239738   3.875   3.098   6.548  0.7398  0.8557  2.9316
 9368SOL     OW39739   4.434   1.266   8.345  0.0416  0.0809 -0.4251
 9368SOL    HW139740   4.356   1.259   8.399  1.7896 -1.2308  1.9340
 9368SOL    HW239741   4.450   1.359   8.361 -0.1657 -0.2184  1.5121
 9369SOL     OW39742   1.314   3.070  13.409 -0.0027 -0.8572  0.5849
 9369SOL    HW139743   1.403   3.094  13.431 -0.8499  0.3740  2.5942
 9369SOL    HW239744   1.264   3.129  13.465 -0.2409  0.0106 -0.5464
 9370SOL     OW39745   1.794   1.916   4.853 -0.0898  0.0683  0.5598
 9370SOL    HW139746   1.767   1.910   4.761  2.4391 -1.5831 -0.0988
 9370SOL    HW239747   1.782   1.826   4.883 -2.2703 -0.5461 -2.1729
 9371SOL     OW39748   0.704   2.700   4.627  0.1659  0.4844 -0.6303
 9371SOL    HW139749   0.611   2.715   4.609 -0.5582 -0.6183  2.1054
 9371SOL    HW239750   0.750   2.732   4.549 -1.0222  1.9344 -0.7470
 9372SOL     OW39751   4.152   0.098   4.289  0.2418  0.1510 -0.1830
 9372SOL    HW139752   4.063   0.066   4.276  0.5408 -0.6386 -0.2835
 9372SOL    HW239753   4.134   0.184   4.327 -1.2052 -0.3217  0.1735
 9373SOL     OW39754   3.735   4.437  16.531  0.2431 -0.6754  0.1335
 9373SOL    HW139755   3.689   4.521  16.530 -1.8146 -1.7949 -0.8948
 9373SOL    HW239756   3.712   4.406  16.443 -1.0847  0.3122  0.1292
 9374SOL     OW39757   3.947   2.308   8.999  0.2618  0.4164  0.4136
 9374SOL    HW139758   3.926   2.401   8.991  0.8966  0.5966  0.7916
 9374SOL    HW239759   3.872   2.282   9.053  0.2200  1.5380  0.9113
 9375SOL     OW39760   0.439   4.035   7.039 -0.0613 -0.0636 -0.2019
 9375SOL    HW139761   0.401   4.018   7.125  0.6704  1.3676  0.4210
 9375SOL    HW239762   0.399   4.122   7.030  0.4857  0.2167  0.1070
 9376SOL     OW39763   2.925   3.013   7.321 -0.7478 -0.3736 -0.0236
 9376SOL    HW139764   2.919   3.047   7.232  1.2240  1.5692  0.5856
 9376SOL    HW239765   2.988   3.072   7.362 -1.5948  0.6199 -0.1310
 9377SOL     OW39766   0.986   1.622   7.504  0.1054 -0.2770  0.0748
 9377SOL    HW139767   1.048   1.553   7.529 -1.0780 -1.0653  0.8118
 9377SOL    HW239768   1.048   1.695   7.504  1.7922 -1.6893 -0.5188
 9378SOL     OW39769   0.035   2.784   2.460  0.3430 -0.3015  0.3022
 9378SOL    HW139770   4.714   2.717   2.491 -1.3778  0.8776 -0.4997
 9378SOL    HW239771   0.017   2.861   2.514 -0.6140 -0.6666  0.4994
 9379SOL     OW39772   1.283   3.936   2.400 -0.3049 -0.2085 -0.3724
 9379SOL    HW139773   1.368   3.927   2.358 -1.0783 -2.2449 -1.5135
 9379SOL    HW239774   1.263   4.018   2.355 -0.5894 -0.1108 -0.0704
 9380SOL     OW39775   3.245   3.011   1.055 -0.5913  0.1561  0.5575
 9380SOL    HW139776   3.303   3.035   1.127  0.8622 -1.8260  0.0651
 9380SOL    HW239777   3.185   3.085   1.045  0.6010  0.9959 -0.3397
 9381SOL     OW39778   4.448   0.667   5.151 -0.0971 -0.2924  0.1437
 9381SOL    HW139779   4.457   0.701   5.062  0.5966 -0.2410  0.2318
 9381SOL    HW239780   4.354   0.649   5.158 -0.0402 -1.1622 -1.3947
 9382SOL     OW39781   0.975   3.960  14.141  0.3366 -0.3197  0.2017
 9382SOL    HW139782   0.993   3.867  14.155 -0.6291 -0.9103 -2.6507
 9382SOL    HW239783   0.933   3.990  14.222 -1.2653  1.1882 -1.1945
 9383SOL     OW39784   2.449   4.405   2.219  0.0532  0.0397 -0.3749
 9383SOL    HW139785   2.420   4.441   2.303 -1.8673 -1.8849 -0.2258
 9383SOL    HW239786   2.530   4.455   2.209  0.8253 -0.9787  0.7764
 9384SOL     OW39787   0.864   2.152   3.349 -0.1297 -0.5928 -0.4674
 9384SOL    HW139788   0.787   2.096   3.349 -0.0822 -0.6566  1.9892
 9384SOL    HW239789   0.934   2.088   3.333  0.1488 -0.4631  0.2434
 9385SOL     OW39790   2.969   2.930   4.495  0.7498 -0.2696 -0.5345
 9385SOL    HW139791   2.975   3.019   4.460  0.4299 -0.0850 -0.1288
 9385SOL    HW239792   2.907   2.944   4.567  0.8162 -0.4643 -0.4407
 9386SOL     OW39793   0.050   3.831   6.142 -0.1259  0.4402 -0.0581
 9386SOL    HW139794   4.708   3.802   6.183 -0.3533  0.0834 -0.7619
 9386SOL    HW239795   0.080   3.744   6.115 -0.7067  0.7830 -1.8061
 9387SOL     OW39796   0.911   3.638   3.006  0.6621  0.5504 -0.2708
 9387SOL    HW139797   0.964   3.579   3.060  0.2682  1.1183  0.7504
 9387SOL    HW239798   0.885   3.701   3.073  0.2300 -0.0483  0.1290
 9388SOL     OW39799   4.341   4.446   9.199  0.4082  0.5279 -0.8256
 9388SOL    HW139800   4.310   4.478   9.115 -0.4969  0.2323 -0.5976
 9388SOL    HW239801   4.335   4.533   9.238 -0.2437  0.8282 -1.6095
 9389SOL     OW39802   3.298   0.828   6.833  0.2105  0.4786 -0.6293
 9389SOL    HW139803   3.220   0.830   6.778  0.8618 -0.3823 -1.5827
 9389SOL    HW239804   3.265   0.885   6.903 -1.6407 -1.0946 -0.2139
 9390SOL     OW39805   1.266   2.677   2.812 -0.0245 -0.0078  0.3989
 9390SOL    HW139806   1.342   2.700   2.866  0.3785 -0.8814  0.2056
 9390SOL    HW239807   1.194   2.658   2.871 -3.3391  2.6111 -2.7435
 9391SOL     OW39808   2.664   2.081  14.897  0.0142 -0.0504 -0.0247
 9391SOL    HW139809   2.727   2.084  14.969 -0.4319  1.1210  0.3205
 9391SOL    HW239810   2.597   2.031  14.943 -1.1700  1.9142  0.4050
 9392SOL     OW39811   3.654   1.614   8.709  0.2115  0.6147 -0.1051
 9392SOL    HW139812   3.578   1.673   8.705 -1.9646 -2.2525 -1.8232
 9392SOL    HW239813   3.711   1.661   8.648  1.1339  0.3583  0.5750
 9393SOL     OW39814   3.535   3.517  12.798 -0.6202 -0.7740 -0.8515
 9393SOL    HW139815   3.568   3.490  12.884 -0.3839 -0.3012 -0.7911
 9393SOL    HW239816   3.536   3.612  12.789  0.3783 -0.7288 -0.3268
 9394SOL     OW39817   0.691   3.708   7.233 -0.1970  0.0470 -0.4455
 9394SOL    HW139818   0.714   3.678   7.145  0.8217 -0.3512 -0.0458
 9394SOL    HW239819   0.699   3.802   7.217  2.1224  0.0102  0.4166
 9395SOL     OW39820   2.925   2.326  12.595  0.0521 -0.1379 -0.2569
 9395SOL    HW139821   2.874   2.355  12.670 -1.2012 -0.1162 -1.1344
 9395SOL    HW239822   2.992   2.394  12.585 -0.9988  0.7576 -1.0383
 9396SOL     OW39823   2.683   2.063   5.081 -0.5538 -0.1940 -0.3794
 9396SOL    HW139824   2.731   2.045   5.162 -0.0398  1.8867 -0.2359
 9396SOL    HW239825   2.636   2.138   5.117  0.2132  0.6344 -1.1054
 9397SOL     OW39826   0.270   2.411  12.714  0.5818 -0.2914  0.2045
 9397SOL    HW139827   0.239   2.385  12.627 -0.1819  0.2049  0.3271
 9397SOL    HW239828   0.273   2.327  12.760  1.2016 -0.5699 -0.3362
 9398SOL     OW39829   1.480   1.705   6.523 -0.2974  0.1799  0.4127
 9398SOL    HW139830   1.472   1.705   6.619 -3.2521  2.1640  0.1699
 9398SOL    HW239831   1.561   1.756   6.510 -0.1252  0.0081  0.8113
 9399SOL     OW39832   4.448   0.113  15.888  0.3876  0.2624  0.1525
 9399SOL    HW139833   4.500   0.169  15.831  2.4836 -1.4686  0.3456
 9399SOL    HW239834   4.508   0.038  15.888  1.2570  0.9605 -0.6037
 9400SOL     OW39835   4.011   1.794   5.921  0.4810  0.4015  0.1987
 9400SOL    HW139836   4.059   1.768   5.843  1.0449 -0.4009  0.8123
 9400SOL    HW239837   3.988   1.709   5.957  1.5705  0.1994  0.4151
 9401SOL     OW39838   0.735   1.121   5.362 -0.1751 -0.4100 -0.7578
 9401SOL    HW139839   0.705   1.082   5.280  0.6415 -2.0592 -0.2673
 9401SOL    HW239840   0.672   1.192   5.376 -0.1947 -0.8097  1.1647
 9402SOL     OW39841   2.005   3.964   2.432 -0.2709  0.0950  0.2287
 9402SOL    HW139842   2.065   3.945   2.359 -1.3012 -4.0355  0.4339
 9402SOL    HW239843   1.925   3.986   2.384 -1.1261 -1.9415  0.7304
 9403SOL     OW39844   4.353   1.401  13.504  0.0549 -0.1236  0.6552
 9403SOL    HW139845   4.360   1.449  13.422  0.1500  0.7950  1.1977
 9403SOL    HW239846   4.307   1.462  13.562 -0.6460  0.6627 -0.7449
 9404SOL     OW39847   4.460   1.541   8.113  0.3359 -0.1473 -0.3267
 9404SOL    HW139848   4.437   1.614   8.170  0.1475  1.0683 -1.9491
 9404SOL    HW239849   4.376   1.515   8.075 -0.4837  0.1921  1.2424
 9405SOL     OW39850   2.027   1.574   4.842  0.3788 -0.1168  0.4602
 9405SOL    HW139851   2.048   1.647   4.783  1.9167 -1.3379 -0.5030
 9405SOL    HW239852   2.095   1.589   4.907  0.3759  0.1267  0.4070
 9406SOL     OW39853   4.167   2.359   7.564 -0.3121  0.2035 -0.3277
 9406SOL    HW139854   4.135   2.418   7.497 -0.3529  0.0090 -0.4809
 9406SOL    HW239855   4.121   2.284   7.526 -0.9814  1.2939 -1.6292
 9407SOL     OW39856   3.540   2.343   4.363 -0.1407 -0.3057 -0.5222
 9407SOL    HW139857   3.599   2.345   4.438 -1.1651 -3.6350  0.4113
 9407SOL    HW239858   3.509   2.433   4.366 -0.2057 -0.4170  2.8042
 9408SOL     OW39859   0.717   2.435  17.156 -0.0790 -0.1726  0.3601
 9408SOL    HW139860   0.719   2.512  17.099 -2.8555 -1.4461 -1.4361
 9408SOL    HW239861   0.635   2.394  17.129 -1.1787  0.3069  2.9741
 9409SOL     OW39862   4.614   0.811   1.968  0.6608  0.2034  0.4105
 9409SOL    HW139863   4.574   0.733   1.929 -1.3100  0.4836  1.9189
 9409SOL    HW239864   4.585   0.877   1.905 -0.5582 -1.5030 -0.8075
 9410SOL     OW39865   3.365   1.968   0.941 -0.3935  0.3012  0.0327
 9410SOL    HW139866   3.439   1.995   0.888 -0.5233  2.1048  0.7704
 9410SOL    HW239867   3.328   2.054   0.962 -0.1699  0.7542 -1.4349
 9411SOL     OW39868   4.515   3.354   2.961 -0.0260  0.2309  0.4812
 9411SOL    HW139869   4.434   3.397   2.935  0.9914  1.9189  0.1253
 9411SOL    HW239870   4.506   3.344   3.056 -0.5037 -0.4472  0.3667
 9412SOL     OW39871   4.410   3.805   4.288 -0.5739  0.0917 -0.0876
 9412SOL    HW139872   4.434   3.800   4.381 -1.1205 -2.1970 -0.0705
 9412SOL    HW239873   4.409   3.716   4.254 -2.6198  0.5484 -1.2773
 9413SOL     OW39874   1.168   0.534   6.751 -0.5685  0.4415 -0.1678
 9413SOL    HW139875   1.220   0.574   6.821  1.7344 -0.0157 -1.6166
 9413SOL    HW239876   1.233   0.529   6.680  0.3544  0.0139  0.7076
 9414SOL     OW39877   2.273   4.295   7.316  0.1170  0.0550 -0.8083
 9414SOL    HW139878   2.296   4.241   7.241  2.6676  0.3948 -0.2664
 9414SOL    HW239879   2.320   4.273   7.396 -1.9997 -0.3318  0.3310
 9415SOL     OW39880   1.036   2.994   5.956 -0.2159  0.0981 -0.2134
 9415SOL    HW139881   1.049   3.016   6.048  1.2715 -2.9989  0.3308
 9415SOL    HW239882   1.088   3.059   5.909  0.5288 -0.7576 -0.5763
 9416SOL     OW39883   2.263   3.543   6.643  0.3996  0.6014 -0.2183
 9416SOL    HW139884   2.340   3.568   6.695  1.0996 -2.2211  0.0948
 9416SOL    HW239885   2.276   3.582   6.556 -1.1599 -2.8430 -1.9665
 9417SOL     OW39886   1.405   0.570   0.688  0.0598  0.2919  0.0164
 9417SOL    HW139887   1.364   0.529   0.612 -2.1298  2.5798 -0.0157
 9417SOL    HW239888   1.340   0.553   0.756 -0.6208  0.0832 -0.6926
 9418SOL     OW39889   1.442   4.290   4.623  0.5183 -0.3246 -0.0510
 9418SOL    HW139890   1.382   4.246   4.563 -0.4485 -1.6268  1.8657
 9418SOL    HW239891   1.524   4.243   4.607  1.3279  0.0375  2.9342
 9419SOL     OW39892   4.042   1.677   5.639  0.1168 -0.2361 -0.2668
 9419SOL    HW139893   4.102   1.603   5.651  0.7910  0.0106 -2.1346
 9419SOL    HW239894   3.958   1.634   5.656 -1.3781  2.3463 -1.1316
 9420SOL     OW39895   2.509   3.286   6.924 -0.1634  0.4527 -0.2827
 9420SOL    HW139896   2.447   3.304   6.994 -0.4343  3.0971 -1.1971
 9420SOL    HW239897   2.478   3.345   6.855 -1.4145  0.9237  0.6992
 9421SOL     OW39898   0.096   2.086  14.804 -0.3506 -0.1410 -0.3905
 9421SOL    HW139899   0.034   2.081  14.731 -0.5145 -1.0825 -0.1867
 9421SOL    HW239900   0.040   2.103  14.881  1.0980  0.2351  0.5709
 9422SOL     OW39901   2.473   1.647   4.759 -0.1217 -0.0365 -0.0327
 9422SOL    HW139902   2.436   1.703   4.827  1.2760  0.0587  0.6469
 9422SOL    HW239903   2.397   1.638   4.701  0.6724  1.0158 -1.2217
 9423SOL     OW39904   3.702   2.670   3.493  0.2967  0.2979 -0.2940
 9423SOL    HW139905   3.757   2.719   3.554 -0.4098  1.6293 -0.7289
 9423SOL    HW239906   3.691   2.736   3.425  0.6741  0.1883 -0.4623
 9424SOL     OW39907   0.713   1.707   2.820 -0.6160 -0.0565  0.4153
 9424SOL    HW139908   0.668   1.634   2.778 -0.0730  0.4515 -1.0720
 9424SOL    HW239909   0.689   1.694   2.912  1.4239 -1.2024  0.8002
 9425SOL     OW39910   3.180   3.649   2.099  0.2030 -0.3215 -0.2543
 9425SOL    HW139911   3.255   3.601   2.065  0.3628 -0.8696  0.8786
 9425SOL    HW239912   3.194   3.727   2.045  2.5716 -0.9831 -0.5714
 9426SOL     OW39913   0.630   2.810   1.271 -0.6484 -0.4153  0.0933
 9426SOL    HW139914   0.699   2.873   1.250 -1.5571 -0.3856 -2.8426
 9426SOL    HW239915   0.681   2.731   1.286 -0.1339 -0.1265 -0.1553
 9427SOL     OW39916   2.739   3.194   6.019  0.3566 -0.1773  0.5620
 9427SOL    HW139917   2.704   3.264   5.964  1.4138  0.3177  0.5190
 9427SOL    HW239918   2.707   3.116   5.974  1.9965 -0.4483 -0.1676
 9428SOL     OW39919   4.244   2.208   3.995  0.2798  0.0292  0.1992
 9428SOL    HW139920   4.252   2.198   4.090 -1.2321  0.3072  0.3574
 9428SOL    HW239921   4.320   2.155   3.970 -0.7269 -1.3341  0.0357
 9429SOL     OW39922   2.444   1.152   5.644  0.4359  0.0848  0.1725
 9429SOL    HW139923   2.439   1.243   5.674 -0.3844  0.6417 -1.6170
 9429SOL    HW239924   2.471   1.164   5.553 -0.5931  2.7752  0.2256
 9430SOL     OW39925   0.786   0.859   7.424 -0.0672 -0.0827  0.2709
 9430SOL    HW139926   0.827   0.773   7.415  1.9244  0.7983  1.0434
 9430SOL    HW239927   0.835   0.900   7.352  1.6983  2.2932  2.8052
 9431SOL     OW39928   3.635   1.401   2.438  0.3019  0.1670 -0.7452
 9431SOL    HW139929   3.681   1.483   2.454 -0.2713  0.6600 -1.6111
 9431SOL    HW239930   3.690   1.347   2.495 -0.5259 -0.1516 -0.2522
 9432SOL     OW39931   1.993   4.623  14.338 -0.1705  0.6488  0.5044
 9432SOL    HW139932   2.030   4.564  14.273  1.6843  1.6223  0.6683
 9432SOL    HW239933   1.997   4.708  14.293  0.8326  0.3282 -0.0156
 9433SOL     OW39934   0.456   0.124   0.414  0.0790  0.1106  0.0995
 9433SOL    HW139935   0.432   0.079   0.333 -1.3423  1.8484 -0.4558
 9433SOL    HW239936   0.444   0.052   0.475  3.8801 -1.6476 -1.2694
 9434SOL     OW39937   0.287   2.502   5.614 -0.0509  0.0813 -0.2936
 9434SOL    HW139938   0.264   2.588   5.647  0.4319 -0.8163  2.3677
 9434SOL    HW239939   0.312   2.518   5.523  1.2185  3.1409  0.6059
 9435SOL     OW39940   3.997   3.742   4.438 -0.5278 -0.4391 -0.0757
 9435SOL    HW139941   4.006   3.837   4.432 -0.7378 -0.4813 -1.1822
 9435SOL    HW239942   3.974   3.713   4.349 -1.6039 -0.3462  0.1799
 9436SOL     OW39943   3.438   3.821   7.777  0.0112 -0.6253  0.3283
 9436SOL    HW139944   3.438   3.861   7.864 -1.7815 -1.6891  0.8098
 9436SOL    HW239945   3.375   3.752   7.794 -2.0438  1.4400  1.0241
 9437SOL     OW39946   1.922   1.013   7.620 -0.3981  0.6798  0.2801
 9437SOL    HW139947   1.896   1.049   7.535  1.0377 -0.4445 -0.6255
 9437SOL    HW239948   1.958   1.092   7.660 -0.3946  1.6453 -1.6594
 9438SOL     OW39949   3.339   2.224  16.627  0.0773  0.2845 -0.4784
 9438SOL    HW139950   3.280   2.294  16.598 -0.7169 -0.3994 -0.5112
 9438SOL    HW239951   3.278   2.160  16.663 -0.0128  0.9334  0.5350
 9439SOL     OW39952   3.840   1.250  16.410  0.7348 -0.0620 -0.3633
 9439SOL    HW139953   3.828   1.180  16.346  1.7686 -0.0314 -0.5796
 9439SOL    HW239954   3.747   1.262  16.432 -0.0108 -0.9634 -3.0128
 9440SOL     OW39955   3.328   2.573   9.512 -0.1321  0.0138  0.4505
 9440SOL    HW139956   3.332   2.647   9.451 -3.3419  0.2724  0.5400
 9440SOL    HW239957   3.382   2.507   9.469 -1.4568 -0.2807 -0.7345
 9441SOL     OW39958   3.569   2.534   2.456  0.2430 -0.1686  0.4438
 9441SOL    HW139959   3.582   2.572   2.543 -0.7281  0.0087  0.5140
 9441SOL    HW239960   3.609   2.606   2.407 -0.2582  0.1119  0.4463
 9442SOL     OW39961   0.755   0.879  12.359 -0.1808 -0.0042 -0.9655
 9442SOL    HW139962   0.834   0.861  12.309  0.5713 -2.0880  0.9803
 9442SOL    HW239963   0.762   0.807  12.422  2.7274  1.4597  0.3688
 9443SOL     OW39964   1.743   3.503   5.070  0.2785  0.0239 -0.3020
 9443SOL    HW139965   1.756   3.579   5.128  0.1988 -1.3277  1.4768
 9443SOL    HW239966   1.768   3.551   4.991 -2.6890  2.1301  0.0204
 9444SOL     OW39967   2.803   3.730   9.133  0.0099  0.4434 -0.5437
 9444SOL    HW139968   2.765   3.781   9.204 -1.7616 -0.2248 -1.0085
 9444SOL    HW239969   2.824   3.791   9.062 -2.0295 -2.3325 -3.5534
 9445SOL     OW39970   2.439   2.522  17.588 -0.4333 -0.0706  0.4121
 9445SOL    HW139971   2.517   2.554  17.543 -0.5712 -0.5485 -0.1668
 9445SOL    HW239972   2.486   2.469  17.651  0.2685 -1.4799 -1.3034
 9446SOL     OW39973   1.211   3.793   0.084 -0.2756 -0.7343 -0.1949
 9446SOL    HW139974   1.184   3.701   0.075  1.2432 -1.0295 -1.9126
 9446SOL    HW239975   1.184   3.813  17.751  1.1011 -1.5807 -0.7974
 9447SOL     OW39976   4.336   1.493   4.164 -0.0438  0.1668 -0.1527
 9447SOL    HW139977   4.285   1.413   4.155 -0.0471  0.2611 -0.9514
 9447SOL    HW239978   4.366   1.504   4.074  0.1950  0.8252  0.0049
 9448SOL     OW39979   3.623   0.621   1.944  0.5260 -0.1257 -0.1596
 9448SOL    HW139980   3.609   0.526   1.948  1.2300 -0.2887 -1.3241
 9448SOL    HW239981   3.667   0.643   2.026 -3.0936 -0.5086  1.9090
 9449SOL     OW39982   0.380   0.748  11.262 -0.2391 -0.9056 -0.1198
 9449SOL    HW139983   0.440   0.746  11.337 -2.6710  0.7121  1.8806
 9449SOL    HW239984   0.375   0.838  11.231 -2.2142 -0.7859  0.5578
 9450SOL     OW39985   3.001   2.867   4.975  0.4404 -0.1110 -0.7310
 9450SOL    HW139986   3.043   2.791   5.015  2.2075  0.7886 -0.8999
 9450SOL    HW239987   2.993   2.837   4.884 -1.2066  0.9540 -0.9422
 9451SOL     OW39988   2.609   4.136   6.980 -0.0035 -0.1775  0.9918
 9451SOL    HW139989   2.591   4.211   6.924 -1.8644 -1.8991 -0.7289
 9451SOL    HW239990   2.663   4.176   7.048  0.5852  0.4864  0.1294
 9452SOL     OW39991   3.092   1.871  14.574 -0.1542  0.1730  0.2584
 9452SOL    HW139992   3.043   1.916  14.642  3.6731  1.6982  1.9688
 9452SOL    HW239993   3.028   1.803  14.553 -0.5359  0.5426  0.2289
 9453SOL     OW39994   4.553   1.119   8.145 -0.3025  0.2284 -0.9829
 9453SOL    HW139995   4.508   1.041   8.177  0.8276 -0.6533 -1.5524
 9453SOL    HW239996   4.533   1.177   8.219 -0.2441  0.2433 -0.9783
 9454SOL     OW39997   3.231   4.278   9.076  0.0136 -0.3610 -0.4268
 9454SOL    HW139998   3.286   4.356   9.064  1.0644 -0.7831  1.7347
 9454SOL    HW239999   3.144   4.320   9.079  0.5332  0.6156  1.3928
 9455SOL     OW40000   4.732   0.045   3.580  0.2822 -0.4346 -0.5959
 9455SOL    HW140001   4.702   0.049   3.489 -2.4275 -2.6630  0.2118
 9455SOL    HW240002   4.654   0.066   3.631  0.7085 -1.2127  0.3792
 9456SOL     OW40003   4.236   1.624  12.405  0.0155 -0.0513 -0.0142
 9456SOL    HW140004   4.145   1.593  12.408 -0.0252  0.1844  1.2919
 9456SOL    HW240005   4.233   1.691  12.337  0.3739 -0.7699 -0.7285
 9457SOL     OW40006   2.776   3.236  13.714 -0.0068  0.2147 -0.2870
 9457SOL    HW140007   2.770   3.316  13.663 -0.5912 -0.0561 -0.6533
 9457SOL    HW240008   2.702   3.242  13.775  0.4049  2.4278 -0.0144
 9458SOL     OW40009   0.534   3.424   2.487 -0.4323 -0.3299 -0.3555
 9458SOL    HW140010   0.548   3.482   2.562  2.6261 -1.3923 -0.1219
 9458SOL    HW240011   0.609   3.365   2.490 -0.0794  0.0608 -1.6470
 9459SOL     OW40012   3.629   1.215  15.800 -0.0166 -0.3358  0.0857
 9459SOL    HW140013   3.714   1.255  15.780 -0.8786  1.6499  0.4247
 9459SOL    HW240014   3.659   1.176  15.882  0.6645  1.9385  0.9213
 9460SOL     OW40015   4.240   1.192   5.933 -0.5020 -0.4636 -0.1417
 9460SOL    HW140016   4.300   1.156   5.868  0.1832  1.3144 -0.4963
 9460SOL    HW240017   4.272   1.156   6.016 -0.3986 -0.2556 -0.0930
 9461SOL     OW40018   2.819   2.910   7.691 -0.4924  0.7053  0.6740
 9461SOL    HW140019   2.747   2.869   7.738  0.9637 -1.7459  0.7722
 9461SOL    HW240020   2.870   2.838   7.653  1.3992  1.8564  1.0192
 9462SOL     OW40021   0.751   0.963  14.191 -0.4763 -0.2675  0.1868
 9462SOL    HW140022   0.692   1.018  14.139  0.0363 -0.8487 -1.0047
 9462SOL    HW240023   0.820   0.955  14.125 -1.6504 -3.5351 -0.6269
 9463SOL     OW40024   3.821   0.289  12.779 -0.3312 -0.2300  0.2477
 9463SOL    HW140025   3.852   0.301  12.689 -2.5823  1.0742 -0.3803
 9463SOL    HW240026   3.729   0.265  12.766 -0.2223 -0.6004  0.1683
 9464SOL     OW40027   2.682   0.525   9.283  0.1121 -0.2490  0.5822
 9464SOL    HW140028   2.653   0.573   9.205 -0.8484  1.6645  2.1106
 9464SOL    HW240029   2.606   0.535   9.340 -1.2348  2.2162 -1.6386
 9465SOL     OW40030   0.970   2.265  16.595 -0.5373 -0.6598  0.3967
 9465SOL    HW140031   0.981   2.358  16.617 -1.8474 -0.5264  0.4628
 9465SOL    HW240032   0.966   2.269  16.500  0.2655  0.3238  0.4036
 9466SOL     OW40033   3.362   4.078   2.164 -0.3047  0.0771  0.1604
 9466SOL    HW140034   3.329   3.996   2.128  1.1647  0.2899 -1.6522
 9466SOL    HW240035   3.306   4.084   2.241 -0.0058  2.7711  0.1511
 9467SOL     OW40036   0.260   3.273  11.774  0.3376 -0.1999  0.4318
 9467SOL    HW140037   0.171   3.278  11.739  1.3539  1.4611 -1.9082
 9467SOL    HW240038   0.279   3.179  11.781  0.8679 -0.1405 -0.2832
 9468SOL     OW40039   0.304   3.863  13.153  0.2339 -0.4222  0.4329
 9468SOL    HW140040   0.361   3.925  13.108  0.4486 -1.5428 -0.8409
 9468SOL    HW240041   0.313   3.895  13.243  2.1905 -0.8902  0.3912
 9469SOL     OW40042   4.700   4.230   5.229  0.0699  0.5325  0.2603
 9469SOL    HW140043   0.020   4.242   5.302 -2.2891  0.7244  2.1377
 9469SOL    HW240044   0.015   4.244   5.152  1.5344  0.9760  1.4053
 9470SOL     OW40045   4.184   4.584   6.775 -0.3613  0.6315 -0.1530
 9470SOL    HW140046   4.235   4.506   6.795 -1.6998 -0.4158 -0.8053
 9470SOL    HW240047   4.172   4.631   6.857  0.1508 -1.3036  1.0255
 9471SOL     OW40048   2.615   4.588   7.745 -0.0437  0.5689  0.3520
 9471SOL    HW140049   2.552   4.516   7.740  2.1689 -1.3327 -0.1592
 9471SOL    HW240050   2.588   4.643   7.671  3.9048 -0.2125 -1.6635
 9472SOL     OW40051   4.713   2.218   2.535  0.1859  0.4574  0.3095
 9472SOL    HW140052   4.642   2.277   2.510  0.2966  0.3334 -0.3152
 9472SOL    HW240053   0.050   2.254   2.490  2.6834  0.1055  4.3013
 9473SOL     OW40054   0.668   3.866   6.379  0.0257 -0.1704 -0.2441
 9473SOL    HW140055   0.589   3.837   6.425  1.9679 -1.6713  2.0996
 9473SOL    HW240056   0.629   3.906   6.300  1.4257  1.2112 -0.2310
 9474SOL     OW40057   3.743   3.135   9.261  0.2208  0.0157 -0.6760
 9474SOL    HW140058   3.832   3.100   9.268 -0.4068 -0.8756  3.1980
 9474SOL    HW240059   3.717   3.146   9.353  3.2748 -1.0153  0.3529
 9475SOL     OW40060   4.688   3.964   5.676  0.5618 -0.3898 -0.8199
 9475SOL    HW140061   4.734   3.959   5.593  0.9200  1.4762 -0.7342
 9475SOL    HW240062   4.620   4.031   5.667  1.7829  1.0803  0.8945
 9476SOL     OW40063   0.891   3.167  16.623  0.4499  0.5918  0.2333
 9476SOL    HW140064   0.919   3.158  16.714  1.4547 -0.6811 -0.2204
 9476SOL    HW240065   0.940   3.094  16.586 -0.2440  0.1168  0.2460
 9477SOL     OW40066   1.246   4.385   9.278 -0.2038  0.0349  0.0075
 9477SOL    HW140067   1.229   4.472   9.313 -1.6005  0.3029 -1.3075
 9477SOL    HW240068   1.181   4.333   9.325 -0.4421  0.1286 -0.2192
 9478SOL     OW40069   1.167   2.695   8.122 -0.1034 -0.1082  0.1899
 9478SOL    HW140070   1.184   2.779   8.080  0.1169 -0.8488 -1.2206
 9478SOL    HW240071   1.239   2.648   8.080  0.7413  1.1933  0.2012
 9479SOL     OW40072   4.164   4.493  11.166 -0.4294 -0.4456  0.1015
 9479SOL    HW140073   4.142   4.522  11.077 -1.7829 -0.4014  0.4493
 9479SOL    HW240074   4.256   4.466  11.165 -0.9943 -2.3594  0.9788
 9480SOL     OW40075   2.888   3.325   6.223  0.2059  0.3080  0.4917
 9480SOL    HW140076   2.877   3.257   6.157 -0.8222  1.6832 -0.7804
 9480SOL    HW240077   2.944   3.388   6.177 -1.4304  0.1498 -1.7584
 9481SOL     OW40078   2.083   2.104  13.183  0.2868  0.2815 -0.2447
 9481SOL    HW140079   2.080   2.029  13.123 -1.8680  0.8155 -0.7909
 9481SOL    HW240080   1.994   2.133  13.164 -0.0597 -1.7535 -1.7818
 9482SOL     OW40081   1.982   1.125  12.899  0.0804 -0.1607 -1.2088
 9482SOL    HW140082   2.050   1.157  12.840  1.8985 -1.0039  0.4472
 9482SOL    HW240083   1.987   1.180  12.977 -1.1639  1.6556 -2.4302
 9483SOL     OW40084   2.623   2.768   4.536  0.1023  0.0625  0.4585
 9483SOL    HW140085   2.628   2.859   4.564 -0.3884  0.3724 -0.4687
 9483SOL    HW240086   2.596   2.774   4.444 -0.3288  1.3290  0.6672
 9484SOL     OW40087   3.739   4.590   1.765 -0.3412 -0.3404  0.4510
 9484SOL    HW140088   3.726   4.649   1.691  2.2224 -0.0919  0.1993
 9484SOL    HW240089   3.652   4.550   1.771 -0.1556 -0.9426 -0.9918
 9485SOL     OW40090   0.336   4.733   7.708  0.1125  0.2492 -0.6213
 9485SOL    HW140091   0.290   4.670   7.763  3.1691 -2.8557 -1.6645
 9485SOL    HW240092   0.262   0.026   7.657  1.6494  0.2098 -2.8580
 9486SOL     OW40093   3.157   2.859   1.876 -0.1686 -0.0594 -0.0454
 9486SOL    HW140094   3.185   2.942   1.914  1.8717 -0.0096 -1.6830
 9486SOL    HW240095   3.068   2.892   1.859  0.4997  0.9665 -1.5818
 9487SOL     OW40096   2.824   2.723   5.838 -0.0992  0.2419 -0.1040
 9487SOL    HW140097   2.884   2.755   5.906 -0.5016 -0.0984  0.4163
 9487SOL    HW240098   2.883   2.694   5.769  0.5085 -0.7444  0.8301
 9488SOL     OW40099   2.279   3.793   4.815 -0.3844  0.5090  0.3835
 9488SOL    HW140100   2.330   3.714   4.832  1.9924  1.9269 -0.1257
 9488SOL    HW240101   2.300   3.858   4.882  2.9818  0.7657 -0.9018
 9489SOL     OW40102   2.852   0.105   7.573  0.5433 -0.1760 -0.1689
 9489SOL    HW140103   2.813   0.151   7.648 -0.7245 -1.2896 -0.1353
 9489SOL    HW240104   2.774   0.092   7.519  2.2926 -2.6554 -2.0529
 9490SOL     OW40105   0.549   0.915  13.024 -1.1307 -0.7375  0.5286
 9490SOL    HW140106   0.607   0.991  13.013 -2.6574  0.5837  1.5967
 9490SOL    HW240107   0.598   0.862  13.086  2.1682  0.1274 -1.3036
 9491SOL     OW40108   2.298   2.974   4.780 -0.4888 -0.1983 -0.2225
 9491SOL    HW140109   2.208   2.941   4.779 -1.4276  2.4042 -1.7028
 9491SOL    HW240110   2.343   2.927   4.850 -2.1903 -1.0651  0.2895
 9492SOL     OW40111   0.597   3.486  13.290 -0.5787  0.3478 -0.1184
 9492SOL    HW140112   0.664   3.421  13.309 -1.2585 -0.4468 -0.4617
 9492SOL    HW240113   0.521   3.430  13.306  0.0770 -0.4871  0.0526
 9493SOL     OW40114   1.776   0.331   9.616  0.0466  0.3401 -0.3746
 9493SOL    HW140115   1.706   0.335   9.680 -0.8289 -2.3708 -1.1383
 9493SOL    HW240116   1.716   0.342   9.542 -1.6643  2.4006  1.3286
 9494SOL     OW40117   4.185   1.235   7.969 -0.1674 -0.2265  0.7855
 9494SOL    HW140118   4.149   1.153   7.935  0.8618 -0.0067 -0.8256
 9494SOL    HW240119   4.279   1.227   7.951 -0.3715  0.5923 -0.5857
 9495SOL     OW40120   1.021   3.821   5.809 -0.4371 -0.0298 -0.3530
 9495SOL    HW140121   1.036   3.785   5.721 -1.2720 -3.8469  1.0893
 9495SOL    HW240122   0.964   3.754   5.847 -0.4666  0.1540 -0.0767
 9496SOL     OW40123   1.903   2.168   4.135  1.0479 -0.1005  0.1104
 9496SOL    HW140124   1.985   2.208   4.166  2.7587 -2.5771 -1.1843
 9496SOL    HW240125   1.841   2.208   4.196 -0.1653  1.7754 -2.3264
 9497SOL     OW40126   1.714   3.307  17.198 -1.2165  0.0029  0.7734
 9497SOL    HW140127   1.711   3.293  17.293 -0.4652 -0.4146  0.7370
 9497SOL    HW240128   1.787   3.370  17.203 -0.2376 -0.9083 -2.1029
 9498SOL     OW40129   4.148   0.713   6.505  0.3104 -0.4697  0.4615
 9498SOL    HW140130   4.214   0.723   6.437 -1.8525  1.2785 -1.3912
 9498SOL    HW240131   4.206   0.692   6.578  0.4567 -1.8171 -0.0374
 9499SOL     OW40132   3.511   2.961   6.622  0.0966 -0.3277 -0.0617
 9499SOL    HW140133   3.549   2.923   6.701 -0.1763  2.4757  1.4545
 9499SOL    HW240134   3.571   3.035   6.632  1.8349 -1.6912 -0.6492
 9500SOL     OW40135   1.301   2.530   9.116  0.0200 -0.2389 -0.5405
 9500SOL    HW140136   1.287   2.537   9.022  0.9862 -2.6028 -0.8433
 9500SOL    HW240137   1.389   2.565   9.132 -1.9617  4.5188 -0.0743
 9501SOL     OW40138   1.172   2.419   3.093  0.2845 -0.2680 -0.0359
 9501SOL    HW140139   1.207   2.419   3.182 -2.2338 -1.4317  0.9479
 9501SOL    HW240140   1.108   2.348   3.098 -0.1573  0.0359 -1.2150
 9502SOL     OW40141   3.920   4.466   7.877  0.1072 -0.1972  0.1011
 9502SOL    HW140142   3.915   4.512   7.793 -1.8741 -1.8624 -0.7165
 9502SOL    HW240143   3.846   4.507   7.920  0.0636  0.4973 -0.6317
 9503SOL     OW40144   3.678   0.460  12.150 -0.4685  0.5235  0.3722
 9503SOL    HW140145   3.758   0.501  12.180  0.0009  0.5430 -0.8856
 9503SOL    HW240146   3.637   0.437  12.233 -1.9473 -0.7523 -0.6881
 9504SOL     OW40147   4.232   1.152  15.810 -0.0028 -0.3453 -0.2322
 9504SOL    HW140148   4.227   1.169  15.716 -1.4221  0.2620 -0.0561
 9504SOL    HW240149   4.324   1.126  15.804  0.0509 -0.3122  0.4821
 9505SOL     OW40150   1.017   1.330   7.328  0.2253 -0.1674  0.2368
 9505SOL    HW140151   0.995   1.299   7.415 -1.9770  1.1560  0.1569
 9505SOL    HW240152   0.945   1.301   7.273 -0.4019  2.2945 -0.2600
 9506SOL     OW40153   3.700   1.737   8.985 -0.4957  0.4010 -0.2670
 9506SOL    HW140154   3.795   1.750   8.983 -0.8158  3.0888  2.1486
 9506SOL    HW240155   3.687   1.687   8.904  1.6352 -1.3266  0.4317
 9507SOL     OW40156   0.699   4.198   7.885  0.6273  0.1143 -0.4825
 9507SOL    HW140157   0.713   4.162   7.973 -1.1738  3.4408  1.1683
 9507SOL    HW240158   0.752   4.278   7.883 -0.1101  0.5750 -1.5578
 9508SOL     OW40159   1.827   1.730  12.569  0.2519 -1.1893  0.6584
 9508SOL    HW140160   1.889   1.658  12.580  2.5200  0.4512 -1.4047
 9508SOL    HW240161   1.846   1.768  12.484  1.7783 -1.1436  1.0085
 9509SOL     OW40162   2.519   2.174   5.704  0.4719 -0.6731  0.3320
 9509SOL    HW140163   2.493   2.170   5.796 -0.6347 -0.1550  0.0329
 9509SOL    HW240164   2.434   2.187   5.664 -0.4060 -0.5670  2.2163
 9510SOL     OW40165   2.031   0.569  12.286 -0.5179 -0.9351  0.2923
 9510SOL    HW140166   1.994   0.656  12.268 -0.3182 -0.7099  0.9621
 9510SOL    HW240167   2.008   0.511  12.214 -1.7334  0.6887 -0.6246
 9511SOL     OW40168   0.245   3.731   6.666 -0.3378 -0.1665 -0.3732
 9511SOL    HW140169   0.220   3.823   6.670 -0.5211 -0.0957 -3.6554
 9511SOL    HW240170   0.336   3.731   6.637 -0.7451 -0.1723 -1.6324
 9512SOL     OW40171   2.845   0.697  14.055  0.2745 -0.0258 -0.7988
 9512SOL    HW140172   2.776   0.633  14.076  0.2089  0.4533  0.3870
 9512SOL    HW240173   2.921   0.656  14.097  1.1735  2.2253 -0.2782
 9513SOL     OW40174   0.144   3.809   4.935  0.1555 -0.1333 -0.2662
 9513SOL    HW140175   0.184   3.849   5.012 -0.9200 -0.2886  0.3751
 9513SOL    HW240176   0.178   3.720   4.944 -1.4903 -0.6911  0.4877
 9514SOL     OW40177   3.929   1.498  16.135 -0.2092 -0.2048 -0.1282
 9514SOL    HW140178   3.902   1.548  16.057  0.7353 -0.8659 -0.8758
 9514SOL    HW240179   3.841   1.499  16.173 -0.5532 -1.6193 -0.8950
 9515SOL     OW40180   3.075   3.537   2.320 -0.7700  0.1854  0.1599
 9515SOL    HW140181   3.098   3.594   2.247 -1.8677  3.7835  2.6091
 9515SOL    HW240182   3.159   3.520   2.363  0.3424 -3.1490 -3.3654
 9516SOL     OW40183   4.359   2.330   2.716  0.0378 -0.0634 -0.0763
 9516SOL    HW140184   4.342   2.352   2.625  1.1447  3.3419  0.5352
 9516SOL    HW240185   4.448   2.363   2.720 -0.0370  0.4783 -3.4137
 9517SOL     OW40186   4.048   0.951   6.552  0.6379 -0.2198 -0.2977
 9517SOL    HW140187   4.085   0.865   6.532  2.7275  0.6221 -0.0521
 9517SOL    HW240188   4.055   0.985   6.463  0.4950  2.2774  0.6655
 9518SOL     OW40189   2.928   4.366   7.688  0.7968 -0.5892  0.2912
 9518SOL    HW140190   2.902   4.446   7.641  0.5167  0.2512  1.8622
 9518SOL    HW240191   2.924   4.394   7.780 -0.1360  0.3503 -0.0236
 9519SOL     OW40192   1.034   2.430   6.343 -0.0399 -0.1800 -0.0525
 9519SOL    HW140193   0.978   2.483   6.288 -0.5875 -0.6188  0.0818
 9519SOL    HW240194   1.076   2.497   6.397 -0.8240  0.4668 -0.2542
 9520SOL     OW40195   0.707   0.853   0.875 -0.2264 -0.1132 -0.0468
 9520SOL    HW140196   0.655   0.773   0.873  1.4976 -1.3392  3.4930
 9520SOL    HW240197   0.646   0.905   0.824  0.3468  0.2568 -0.3544
 9521SOL     OW40198   2.080   0.161   2.504  0.7266 -0.0932  0.2750
 9521SOL    HW140199   2.038   0.197   2.582 -2.1970  0.9172 -1.7499
 9521SOL    HW240200   2.132   0.238   2.482  0.2421 -0.1052 -0.9074
 9522SOL     OW40201   2.535   3.386   4.656 -0.0291 -0.1659  0.3011
 9522SOL    HW140202   2.458   3.350   4.700 -1.8368  2.7883 -0.4325
 9522SOL    HW240203   2.520   3.481   4.655 -2.0096 -0.4856  0.4435
 9523SOL     OW40204   2.250   1.115   2.333  0.3990 -0.4773 -0.0075
 9523SOL    HW140205   2.280   1.129   2.423 -1.3097  0.4003  0.4246
 9523SOL    HW240206   2.166   1.160   2.333  0.3088 -0.6576  0.8183
 9524SOL     OW40207   2.467   0.457  17.746  0.1604  0.2803 -0.2100
 9524SOL    HW140208   2.485   0.530   0.048 -0.5763  0.4907 -0.2491
 9524SOL    HW240209   2.434   0.497  17.666  2.6755 -0.4920 -1.6384
 9525SOL     OW40210   4.440   2.638   4.531 -0.2567 -0.4344 -0.4393
 9525SOL    HW140211   4.419   2.545   4.537  1.4981 -0.9220 -1.8325
 9525SOL    HW240212   4.464   2.656   4.622 -1.6990  0.8382 -0.3093
 9526SOL     OW40213   3.913   0.778  15.831  0.0910 -0.1855 -0.1595
 9526SOL    HW140214   3.949   0.865  15.815  0.2559 -0.4222 -1.0917
 9526SOL    HW240215   3.969   0.754  15.905  0.4641  0.2320 -0.3059
 9527SOL     OW40216   4.327   2.713   3.885  0.8278 -0.1329  0.0717
 9527SOL    HW140217   4.385   2.709   3.809 -1.4295  2.0576 -1.7726
 9527SOL    HW240218   4.286   2.627   3.877 -0.5944  0.3989  1.7095
 9528SOL     OW40219   1.384   0.617   7.473 -0.3108  0.2258  0.7619
 9528SOL    HW140220   1.421   0.576   7.552  1.5946 -0.1112 -0.3046
 9528SOL    HW240221   1.295   0.586   7.484 -0.8939  1.6294 -0.0383
 9529SOL     OW40222   2.747   1.649   7.825  0.6221 -0.5819  0.4948
 9529SOL    HW140223   2.666   1.629   7.778  1.0667 -1.5337  0.1488
 9529SOL    HW240224   2.791   1.703   7.759  0.8647 -0.3825  0.8211
 9530SOL     OW40225   3.946   0.507   9.656  0.0697 -0.0296 -0.1757
 9530SOL    HW140226   3.942   0.589   9.608 -1.8679 -0.1150 -0.1746
 9530SOL    HW240227   3.928   0.447   9.583 -1.8806 -2.8814  2.6049
 9531SOL     OW40228   2.961   2.453   7.531  0.1750 -0.4668 -0.3255
 9531SOL    HW140229   2.889   2.425   7.474  0.8147 -3.1997  0.1911
 9531SOL    HW240230   3.005   2.495   7.458  2.5229 -2.2066  0.0741
 9532SOL     OW40231   0.188   4.392   8.541  0.3555 -0.3801  0.0573
 9532SOL    HW140232   0.117   4.329   8.531  0.1096  0.0720 -1.0699
 9532SOL    HW240233   0.203   4.370   8.633 -1.9218  1.3623  0.8644
 9533SOL     OW40234   1.154   0.347   5.902 -0.2584 -0.3212  0.1829
 9533SOL    HW140235   1.072   0.305   5.877 -0.1498 -1.9673  2.6200
 9533SOL    HW240236   1.180   0.308   5.985 -3.5931 -2.7398  0.0800
 9534SOL     OW40237   0.233   4.301   7.267 -0.2126 -0.4893 -0.3703
 9534SOL    HW140238   0.207   4.212   7.247 -0.0301 -0.3740 -1.1141
 9534SOL    HW240239   0.322   4.289   7.298  0.0367 -0.1296 -0.9528
 9535SOL     OW40240   4.476   2.059  10.843 -0.1607  0.1105 -0.4390
 9535SOL    HW140241   4.525   2.136  10.815  2.8539 -0.9269  1.9628
 9535SOL    HW240242   4.466   2.077  10.937 -2.6524  1.5496 -0.9673
 9536SOL     OW40243   0.622   0.467   7.118 -0.3287 -0.7587  0.5408
 9536SOL    HW140244   0.656   0.409   7.050  0.3923  0.5820 -0.2361
 9536SOL    HW240245   0.546   0.502   7.071  0.6916  0.7156 -0.0085
 9537SOL     OW40246   2.431   3.454   2.437 -0.0806  0.6001  0.0400
 9537SOL    HW140247   2.352   3.506   2.420  0.1484 -0.5589 -4.4704
 9537SOL    HW240248   2.384   3.381   2.478 -1.3226  1.3779  0.0126
 9538SOL     OW40249   1.050   4.476   3.948  0.1552 -0.5489 -0.4457
 9538SOL    HW140250   1.004   4.405   3.993 -1.7284 -0.4424 -2.1684
 9538SOL    HW240251   0.978   4.530   3.915 -0.5582 -1.2714 -0.0910
 9539SOL     OW40252   3.996   2.133   3.307  0.2636 -0.5610 -0.2509
 9539SOL    HW140253   4.071   2.130   3.247 -0.7073  0.6866 -1.5069
 9539SOL    HW240254   4.025   2.203   3.365 -2.3288  0.0253  0.3320
 9540SOL     OW40255   3.280   2.931   5.354  0.1687  0.0359 -0.4339
 9540SOL    HW140256   3.351   2.898   5.299  0.1596  1.0402 -1.0432
 9540SOL    HW240257   3.275   2.867   5.425  2.3861 -0.6973 -0.9329
 9541SOL     OW40258   1.925   4.543   1.487 -0.2214  0.1677  0.1875
 9541SOL    HW140259   1.843   4.535   1.536  0.4059 -1.5700  0.9571
 9541SOL    HW240260   1.901   4.529   1.395  0.7099  0.6465 -0.1234
 9542SOL     OW40261   3.936   0.594  16.388 -0.1435 -0.1378 -0.0178
 9542SOL    HW140262   3.873   0.648  16.340  0.9114  1.9808  0.9740
 9542SOL    HW240263   3.918   0.619  16.478  1.1840  1.7817 -0.2981
 9543SOL     OW40264   3.139   2.387   6.529 -0.1735 -0.0811 -0.4313
 9543SOL    HW140265   3.115   2.357   6.441  1.0592 -0.4985 -0.6214
 9543SOL    HW240266   3.079   2.458   6.551 -0.2059 -0.4155  0.5488
 9544SOL     OW40267   1.317   1.899   8.549  0.1298  0.0546  0.3053
 9544SOL    HW140268   1.249   1.960   8.579  1.5757  1.4056  0.8311
 9544SOL    HW240269   1.280   1.813   8.569 -2.1256  0.0119 -4.1094
 9545SOL     OW40270   4.376   0.426   6.345 -0.1688  0.2718  0.5220
 9545SOL    HW140271   4.364   0.433   6.440 -1.5049  1.8875  0.2327
 9545SOL    HW240272   4.443   0.492   6.326  0.4447 -0.6014 -0.3753
 9546SOL     OW40273   1.097   1.987  15.602 -0.3480 -0.1981  0.2594
 9546SOL    HW140274   1.183   1.956  15.631 -0.9465 -0.8173  1.4236
 9546SOL    HW240275   1.092   1.940  15.519 -1.0410 -0.5206  0.4817
 9547SOL     OW40276   1.192   0.382   9.575  0.4993 -0.1456  0.3849
 9547SOL    HW140277   1.126   0.435   9.620  0.5851 -0.4696  0.8900
 9547SOL    HW240278   1.271   0.423   9.611  0.1909  2.4771 -1.8997
 9548SOL     OW40279   2.243   0.091   8.165  0.2694  0.0334 -0.3442
 9548SOL    HW140280   2.153   0.057   8.172  0.3596  0.2246  1.7315
 9548SOL    HW240281   2.226   0.185   8.163  0.7032  0.0976 -0.9317
 9549SOL     OW40282   3.165   1.598  13.892 -0.1836  0.1488 -0.6263
 9549SOL    HW140283   3.154   1.674  13.835 -0.0309  1.4242  1.0112
 9549SOL    HW240284   3.191   1.530  13.830  0.0882 -1.4657  1.2417
 9550SOL     OW40285   3.616   1.522  17.063  0.0332  0.0181  0.4794
 9550SOL    HW140286   3.652   1.485  16.982 -0.5142  0.9372 -0.1962
 9550SOL    HW240287   3.689   1.514  17.124  1.6940  1.4567 -1.3269
 9551SOL     OW40288   2.078   0.958   8.199  0.2025 -0.1331 -0.5162
 9551SOL    HW140289   2.073   1.015   8.122  1.9633  1.6437  0.6665
 9551SOL    HW240290   2.166   0.988   8.221  0.3291  0.5353 -1.9103
 9552SOL     OW40291   1.225   1.482   7.719  0.1184 -0.2239  0.3221
 9552SOL    HW140292   1.136   1.491   7.752 -0.0695  0.7213 -0.4542
 9552SOL    HW240293   1.281   1.460   7.793 -1.0785 -0.3098  1.1973
 9553SOL     OW40294   0.451   0.374   0.354 -0.1475  0.2263  0.4888
 9553SOL    HW140295   0.429   0.281   0.357 -0.1015  0.2293  0.8993
 9553SOL    HW240296   0.456   0.391   0.260 -0.0827  0.1493  0.4777
 9554SOL     OW40297   2.089   1.950  13.431 -0.1315  0.2043 -0.3060
 9554SOL    HW140298   2.026   2.007  13.387  1.6148  2.4132  0.0764
 9554SOL    HW240299   2.160   1.964  13.369 -1.4989  2.3588 -1.3728
 9555SOL     OW40300   2.659   0.727   5.636  0.0041 -0.0201 -0.1927
 9555SOL    HW140301   2.582   0.753   5.687 -0.8605 -0.5865 -1.1966
 9555SOL    HW240302   2.724   0.709   5.703  0.1126  0.4680 -0.1696
 9556SOL     OW40303   4.106   2.377  15.459 -0.1899  0.2013 -0.5495
 9556SOL    HW140304   4.202   2.374  15.451 -0.1513 -1.0646  0.2508
 9556SOL    HW240305   4.082   2.309  15.522  0.8595 -0.3507 -0.7461
 9557SOL     OW40306   4.468   2.042   2.291 -0.4196  0.0151  0.5203
 9557SOL    HW140307   4.522   1.974   2.250 -2.1925 -0.6813 -0.6558
 9557SOL    HW240308   4.384   2.049   2.246 -0.8116  2.8966  1.7422
 9558SOL     OW40309   4.678   3.263  15.902  0.1312 -0.6812  0.5957
 9558SOL    HW140310   4.659   3.239  15.812 -0.0171 -1.1922  0.7605
 9558SOL    HW240311   4.611   3.327  15.924  0.5560 -0.2830  0.7266
 9559SOL     OW40312   4.583   1.373  15.102  0.3688  0.5148  0.5089
 9559SOL    HW140313   4.654   1.351  15.042  0.1239  3.1898 -0.7619
 9559SOL    HW240314   4.576   1.468  15.091 -1.2614  0.3466  0.0559
 9560SOL     OW40315   3.017   2.626   8.783  0.4303  0.1872 -0.0671
 9560SOL    HW140316   3.005   2.566   8.857  3.1327  0.2017  0.3987
 9560SOL    HW240317   2.958   2.698   8.806  0.2568  0.1290 -0.3300
 9561SOL     OW40318   3.699   1.688   3.284 -0.3517 -0.2183  0.1341
 9561SOL    HW140319   3.679   1.648   3.200 -2.0242 -2.3433  1.5325
 9561SOL    HW240320   3.793   1.680   3.301 -0.3795 -0.4108  0.1957
 9562SOL     OW40321   3.632   4.315   3.994  0.0939 -0.0287  0.0690
 9562SOL    HW140322   3.653   4.395   4.042  0.3713 -0.3332  0.4574
 9562SOL    HW240323   3.623   4.260   4.073 -0.3856  1.4618  1.0483
 9563SOL     OW40324   2.166   3.229  13.472 -0.6068 -0.1429  0.1723
 9563SOL    HW140325   2.208   3.202  13.391  0.3694  1.2550  0.2075
 9563SOL    HW240326   2.142   3.147  13.515  2.6579 -0.9081  0.4943
 9564SOL     OW40327   2.024   0.658   6.306  0.4371 -0.3500 -0.1045
 9564SOL    HW140328   1.950   0.630   6.359  0.6470  0.6473  0.7138
 9564SOL    HW240329   2.054   0.732   6.358 -0.2876  0.1613 -0.4143
 9565SOL     OW40330   0.767   4.007   8.770 -0.1905  0.2039  0.0718
 9565SOL    HW140331   0.822   4.023   8.846 -1.3627  1.0304  0.7507
 9565SOL    HW240332   0.683   4.042   8.801 -0.1928 -0.3979  0.7279
 9566SOL     OW40333   3.389   1.807   3.091 -0.3078  0.7648  0.7882
 9566SOL    HW140334   3.421   1.844   3.009 -0.2074  0.5843  0.7464
 9566SOL    HW240335   3.309   1.858   3.102 -0.9071 -0.0979  0.3853
 9567SOL     OW40336   1.952   1.363  16.578 -0.0023 -1.0002 -0.3040
 9567SOL    HW140337   1.928   1.454  16.598 -1.6547 -1.3870 -0.5864
 9567SOL    HW240338   1.939   1.367  16.484 -0.0420  2.5236 -0.1839
 9568SOL     OW40339   1.137   0.139   5.348 -0.4545  0.2036 -0.0834
 9568SOL    HW140340   1.202   0.117   5.281 -1.2616 -0.3686 -0.6881
 9568SOL    HW240341   1.160   0.069   5.410 -0.2447  0.8037  0.5087
 9569SOL     OW40342   0.041   4.324  14.412  0.2392 -0.3518 -0.1112
 9569SOL    HW140343   0.020   4.289  14.325 -1.2572  0.6150 -0.1342
 9569SOL    HW240344   4.738   4.260  14.468 -1.1002 -1.0923 -1.9629
   4.73991   4.73991  17.75726
