Membrane in water
40344
    1TMC1    C1    1   2.810   4.600  10.835 -0.5076 -0.6628 -0.0863
    1TMC1    C2    2   2.686   4.610  10.771 -0.1567 -0.5746  0.3631
    1TMC1    C3    3   2.652   4.736  10.706 -0.3009 -0.1752  0.1086
    1TMC1    C4    4   2.893   4.711  10.834 -1.0049  0.1601  0.3988
    1TMC1    C5    5   2.860   0.083  10.758 -0.3048 -0.1444 -0.2333
    1TMC1    C6    6   2.747   0.095  10.683  0.2797 -0.2553  0.1718
    1TMC1     C    7   2.854   4.488  10.926 -0.2215  0.8455 -0.4944
    1TMC1     O    8   2.948   4.499  11.004 -0.0562  0.0363 -0.0399
    1TMC1     H    9   2.611   4.533  10.779 -0.4833 -0.3784 -0.9434
    1TMC1    H1   10   2.985   4.701  10.890  0.3277 -0.3249 -1.8842
    1TMC1    H2   11   2.722   0.179  10.619  1.4984  0.7436  1.0105
    1TMC1    C7   12   2.929   0.203  10.790  0.6100  0.5003  0.1047
    1TMC1    C8   13   2.537   0.008  10.620  0.7731 -0.6743 -0.0866
    1TMC1    O1   14   2.949   0.294  10.712  0.1981 -0.5309  0.2995
    1TMC1    O2   15   2.555   0.044  10.505 -0.2779 -0.1166 -0.2825
    1TMC1    O3   16   2.933   0.213  10.928 -0.4086 -0.1439 -0.0761
    1TMC1    H3   17   2.897   0.130  10.965  0.8011 -0.0239  1.3559
    1TMC1    O5   18   2.433   4.665  10.671 -0.0578  0.8800  0.3644
    1TMC1    H5   19   2.435   4.664  10.769 -0.2737 -1.1070  0.3447
    2MPD2     C   20   2.745   4.015  11.096 -0.2341 -0.8457  0.7829
    2MPD2    C1   21   2.820   4.120  11.156  0.4344  0.5446 -0.0642
    2MPD2    C2   22   2.842   4.237  11.094 -0.5156 -0.3702 -0.1247
    2MPD2    C3   23   2.782   4.252  10.968  0.5812 -0.5722  0.1966
    2MPD2    C4   24   2.711   4.152  10.910 -0.2639 -0.2950  0.3281
    2MPD2    C5   25   2.692   4.025  10.972  0.1380  0.3780  0.0000
    2MPD2     H   26   2.899   4.317  11.139 -0.4792  0.7093 -2.0818
    2MPD2    H1   27   2.662   4.178  10.817 -2.5769 -2.3790  0.9572
    2MPD2    H2   28   2.726   3.920  11.145 -0.9665 -2.2640 -2.3062
    2MPD2    H3   29   2.639   3.945  10.921  0.4113 -0.2253  0.6743
    2MPD2     N   30   2.788   4.371  10.887  0.0014 -0.0902  0.3332
    2MPD2    H5   31   2.736   4.371  10.800 -0.9538 -0.6138  0.9065
    2MPD2    N1   32   2.855   4.109  11.297  0.0514  0.6790  0.4996
    2MPD2    H7   33   2.895   4.192  11.339  0.8548 -0.2450  1.5559
    3TMC1    C1   34   2.371   0.897  10.148  0.3816  0.7182  0.2847
    3TMC1    C2   35   2.440   1.011  10.179 -0.5849  0.6224  0.3669
    3TMC1    C3   36   2.526   1.069  10.089  0.2706 -0.0739  0.2432
    3TMC1    C4   37   2.399   0.830  10.032 -0.5210  0.2751 -0.2459
    3TMC1    C5   38   2.489   0.886   9.944  0.5648 -0.0791  0.8541
    3TMC1    C6   39   2.539   1.018   9.965 -0.1044  0.2916 -0.8015
    3TMC1     C   40   2.290   0.829  10.244  0.2638  0.2787  0.1240
    3TMC1     O   41   2.294   0.705  10.238  0.0348 -0.0946 -0.9245
    3TMC1     H   42   2.428   1.061  10.274 -1.7938  0.2569  0.4001
    3TMC1    H1   43   2.364   0.729  10.013  1.2480 -0.2624 -0.5760
    3TMC1    H2   44   2.602   1.063   9.889  0.2355  0.4372 -0.4310
    3TMC1    C7   45   2.526   0.801   9.829 -0.1245 -0.2950  0.6449
    3TMC1    C8   46   2.601   1.183  10.132  0.6746  0.4877  0.8196
    3TMC1    O1   47   2.447   0.728   9.777 -0.4743  0.4968 -0.1725
    3TMC1    O2   48   2.572   1.243  10.234  0.4610  0.2406  0.6729
    3TMC1    O3   49   2.633   0.845   9.770 -0.4296 -0.5668 -0.1064
    3TMC1    H3   50   2.702   0.893   9.822  1.1439 -3.4119  0.4195
    3TMC1    O5   51   2.722   1.152  10.089 -0.7886  0.0836  0.3991
    3TMC1    H5   52   2.719   1.080  10.022  1.1151 -1.0976  1.5878
    4MPD2     C   53   1.921   0.823  10.605  0.5280  0.4763 -0.2522
    4MPD2    C1   54   1.939   0.954  10.564  0.3242 -0.5322  0.3719
    4MPD2    C2   55   2.034   0.987  10.472  0.3423  0.3173  0.0549
    4MPD2    C3   56   2.114   0.879  10.419 -0.1948  0.5350 -0.1011
    4MPD2    C4   57   2.101   0.750  10.459  0.2119  0.2127  0.3447
    4MPD2    C5   58   2.005   0.721  10.557 -0.1157  0.5854  0.1635
    4MPD2     H   59   2.035   1.088  10.434 -1.7487 -0.1366 -1.2622
    4MPD2    H1   60   2.160   0.665  10.425 -0.6383  0.0029 -0.5862
    4MPD2    H2   61   1.844   0.798  10.677 -0.0009 -0.3501 -1.1220
    4MPD2    H3   62   1.984   0.618  10.586 -2.0891 -0.3095 -4.3990
    4MPD2     N   63   2.206   0.914  10.313  0.3725  0.3392  0.8064
    4MPD2    H5   64   2.209   1.012  10.288  0.1737  0.4237  1.1108
    4MPD2    N1   65   1.871   1.057  10.638 -0.3724 -0.0157  0.6006
    4MPD2    H7   66   1.901   1.153  10.622  4.2800 -1.2734  1.6458
    5TCq1    O1   67   3.294   1.548  12.166 -0.0237  0.1310 -0.6126
    5TCq1    C1   68   3.162   1.556  12.195  0.0588 -0.1250  0.2917
    5TCq1    O2   69   3.119   1.554  12.308  0.4255  0.6702 -0.2733
    5TCq1    C2   70   3.082   1.538  12.070 -0.5662  0.7737 -0.2816
    5TCq1    C3   71   2.948   1.501  12.084 -0.1520 -0.4142 -0.6101
    5TCq1    C4   72   2.871   1.504  11.971 -0.0126 -1.3174 -0.3748
    5TCq1    C5   73   2.930   1.520  11.851 -0.1409 -0.6960  0.4214
    5TCq1    C6   74   3.062   1.557  11.843  0.1427 -0.5165  0.5366
    5TCq1    C7   75   3.141   1.572  11.953  0.1958  0.2922 -0.5581
    5TCq1    C8   76   3.129   1.562  11.708  0.7738 -0.1167 -0.0003
    5TCq1    O4   77   3.245   1.605  11.701 -0.1014 -0.2473  0.7304
    5TCq1    C9   78   2.726   1.489  11.974 -0.5075  0.0826  0.1306
    5TCq1    O5   79   2.681   1.452  12.084  0.0493  0.1564  0.1198
    5TCq1    O6   80   2.661   1.479  11.865  0.8407  0.2823  0.1067
    5TCq1    H1   81   3.299   1.506  12.078  1.2264 -0.4582 -0.2564
    5TCq1    H2   82   2.894   1.490  12.177 -0.0839  1.3036 -0.3747
    5TCq1    H3   83   2.859   1.518  11.769  0.9308  1.1376 -0.5416
    5TCq1    H4   84   3.240   1.613  11.938  0.3423  0.5081  1.0548
    6MPD2     C   85   2.943   1.456  11.413 -0.2167  0.1197 -0.6587
    6MPD2    C1   86   3.056   1.501  11.478  0.3863  0.2485 -0.0336
    6MPD2    C2   87   3.168   1.537  11.403 -0.6752  0.0930 -0.0095
    6MPD2    C3   88   3.166   1.526  11.264  0.0416  0.2532  0.1907
    6MPD2    C4   89   3.056   1.481  11.199 -0.3958  0.0714  0.1654
    6MPD2    C5   90   2.947   1.451  11.276  0.1168 -0.1007  0.1025
    6MPD2     H   91   3.257   1.569  11.455  0.1000 -1.7480 -0.2074
    6MPD2    H1   92   3.039   1.456  11.095  1.8100  2.9738 -0.8943
    6MPD2    H2   93   2.849   1.432  11.461  0.6418 -0.6149  0.6756
    6MPD2    H3   94   2.861   1.417  11.220 -1.3467  2.2049  0.9688
    6MPD2     N   95   3.280   1.565  11.198 -0.3481 -0.3374 -0.0344
    6MPD2    H5   96   3.352   1.608  11.255  0.9068  0.5124 -2.2511
    6MPD2    N1   97   3.040   1.514  11.620 -0.6720  0.0332 -0.6490
    6MPD2    H7   98   2.959   1.464  11.655 -0.0010 -0.9924 -0.5422
    7TCq1    O1   99   4.393   1.162  13.768  0.3832  0.5123 -0.1233
    7TCq1    C1  100   4.465   1.272  13.725 -0.2076 -0.2913 -0.5844
    7TCq1    O2  101   4.412   1.379  13.700  0.3688  0.0340  0.4907
    7TCq1    C2  102   4.604   1.243  13.700 -0.6575 -0.2149 -0.8145
    7TCq1    C3  103   4.679   1.345  13.641  0.5465 -0.1817 -0.7511
    7TCq1    C4  104   0.077   1.329  13.633  0.2702 -0.6600  0.2118
    7TCq1    C5  105   0.144   1.225  13.688  1.2088  0.2473 -0.3928
    7TCq1    C6  106   0.061   1.131  13.741  0.4573 -0.4867 -0.4488
    7TCq1    C7  107   4.665   1.139  13.762 -0.2195 -0.2554 -0.7621
    7TCq1    C8  108   0.124   1.023  13.820 -0.7098  0.4350 -0.0633
    7TCq1    O4  109   0.053   0.925  13.839 -0.2716 -0.2926 -0.0287
    7TCq1    C9  110   0.162   1.439  13.598  0.7052  0.3198  0.0691
    7TCq1    O5  111   0.103   1.547  13.577  0.2176  0.3387  0.0369
    7TCq1    O6  112   0.284   1.426  13.619  0.2930  0.0862  0.5277
    7TCq1    H1  113   4.446   1.079  13.772  1.1016  0.9130 -1.3102
    7TCq1    H2  114   4.632   1.434  13.601  0.9525  0.1605 -0.4668
    7TCq1    H3  115   0.251   1.221  13.675  1.3035  2.4926 -0.2069
    7TCq1    H4  116   4.612   1.074  13.830 -0.9402 -0.9434 -1.9779
    8MPD2     C  117   0.490   0.795  14.081  0.2743 -0.0441  0.4998
    8MPD2    C1  118   0.383   0.744  14.011 -0.1417  0.1740  0.2780
    8MPD2    C2  119   0.315   0.824  13.927 -0.1282 -0.7448  0.8076
    8MPD2    C3  120   0.339   0.954  13.920  0.2231 -0.0709 -0.1442
    8MPD2    C4  121   0.451   1.010  13.985 -0.3440  0.4604 -0.5826
    8MPD2    C5  122   0.522   0.929  14.069 -0.2145 -0.3337 -0.6036
    8MPD2     H  123   0.229   0.783  13.875 -0.3894 -0.4230  0.9857
    8MPD2    H1  124   0.480   1.114  13.976  0.3552  0.0735 -2.7951
    8MPD2    H2  125   0.544   0.729  14.148 -0.9561 -0.9535  0.5936
    8MPD2    H3  126   0.597   0.973  14.134 -1.2607  1.9656 -0.9611
    8MPD2     N  127   0.259   1.044  13.849 -0.3074 -0.0035  0.1040
    8MPD2    H5  128   0.293   1.136  13.824  1.7770 -1.1361 -1.1994
    8MPD2    N1  129   0.368   0.603  14.015 -0.3297 -0.7759 -0.1932
    8MPD2    H7  130   0.432   0.546  14.070  0.7122  0.6430  0.0578
    9TMC1    C1  131   3.039   0.821  11.087  0.0010  0.0833  0.2068
    9TMC1    C2  132   3.070   0.908  11.195 -1.0052  0.8052 -0.1247
    9TMC1    C3  133   3.114   1.034  11.169  0.6338 -0.2656  0.7860
    9TMC1    C4  134   3.046   0.866  10.957 -0.3991 -0.5213  0.3572
    9TMC1    C5  135   3.104   0.989  10.937 -0.3577 -0.3145  1.4712
    9TMC1    C6  136   3.141   1.064  11.041  0.1733  0.0893  0.2764
    9TMC1     C  137   3.000   0.678  11.105  0.4569  0.4998  0.9948
    9TMC1     O  138   3.038   0.607  11.013 -0.3943 -0.1108 -0.2790
    9TMC1     H  139   3.064   0.874  11.297  1.0782 -0.5342 -0.4521
    9TMC1    H1  140   3.003   0.802  10.880  0.5265 -0.7159  0.0126
    9TMC1    H2  141   3.173   1.167  11.026 -0.7775  0.2347 -0.7546
    9TMC1    C7  142   3.096   1.047  10.810 -0.3729  0.4371 -0.1427
    9TMC1    C8  143   3.190   1.101  11.265  0.0688  0.7700  0.0724
    9TMC1    O1  144   3.166   1.141  10.781 -0.6334  0.7017 -0.5547
    9TMC1    O2  145   3.297   1.160  11.238  0.5920  1.1362  0.6341
    9TMC1    O3  146   2.977   1.022  10.750  0.0823  0.5207  0.1555
    9TMC1    H3  147   2.949   0.933  10.781  1.3759  0.1868  0.3814
    9TMC1    O5  148   3.116   1.113  11.375 -0.8700 -0.3098  0.1601
    9TMC1    H5  149   3.023   1.083  11.369 -0.4599 -1.6202  0.5437
   10MPD2     C  150   2.972   0.406  11.215  0.4645 -0.7173  0.3353
   10MPD2    C1  151   2.943   0.518  11.285 -0.4454  0.3898 -0.2864
   10MPD2    C2  152   2.901   0.500  11.417 -0.7735  0.1760 -0.3040
   10MPD2    C3  153   2.898   0.379  11.482 -0.2049  0.3259  0.0090
   10MPD2    C4  154   2.929   0.271  11.406  0.4624 -0.7650  0.1807
   10MPD2    C5  155   2.964   0.285  11.277  0.8014  0.4197 -0.0089
   10MPD2     H  156   2.866   0.591  11.464 -1.2934 -0.4952  0.5859
   10MPD2    H1  157   2.930   0.173  11.453  2.4997 -0.6490  0.3717
   10MPD2    H2  158   2.992   0.401  11.109 -2.1759  0.9026 -0.2228
   10MPD2    H3  159   2.999   0.202  11.217 -0.1973 -0.2574  0.3377
   10MPD2     N  160   2.883   0.361  11.621  0.6877  0.1902  0.2847
   10MPD2    H5  161   2.908   0.267  11.651 -1.6752 -0.1778  1.0731
   10MPD2    N1  162   2.943   0.645  11.221 -0.2379 -0.1301  0.1253
   10MPD2    H7  163   2.932   0.719  11.289  2.3376 -0.1643  0.5960
   11TCq1    O1  164   4.200   4.152  14.004 -0.5084 -0.1664  0.0768
   11TCq1    C1  165   4.097   4.151  13.912 -0.0569  0.7826 -0.7131
   11TCq1    O2  166   4.070   4.046  13.857  0.2069  0.5444  0.1368
   11TCq1    C2  167   3.993   4.235  13.965  0.2658 -0.3424  0.5109
   11TCq1    C3  168   4.023   4.366  14.008 -0.4721 -0.5862 -1.0109
   11TCq1    C4  169   3.921   4.446  14.054 -0.2816  0.1404 -0.6721
   11TCq1    C5  170   3.793   4.397  14.047  0.4137 -0.1720 -0.8725
   11TCq1    C6  171   3.766   4.273  14.008  0.3307  0.0747  0.5555
   11TCq1    C7  172   3.864   4.196  13.953  0.1901 -0.6612  0.1243
   11TCq1    C8  173   3.627   4.235  13.995 -0.4876  0.0847  0.7027
   11TCq1    O4  174   3.539   4.315  14.026  0.1058 -0.4562 -0.4199
   11TCq1    C9  175   3.955   4.574  14.123  0.2239  0.0389 -0.3168
   11TCq1    O5  176   4.073   4.609  14.141 -0.5462 -0.1381 -0.0095
   11TCq1    O6  177   3.855   4.636  14.169  0.1908 -0.1722  0.2152
   11TCq1    H1  178   4.212   4.238  14.051 -1.5379 -0.4708  0.8878
   11TCq1    H2  179   4.125   4.399  14.020 -0.8445 -0.0613  0.7709
   11TCq1    H3  180   3.720   4.469  14.081  1.4971 -0.5216  2.2021
   11TCq1    H4  181   3.845   4.097  13.914  2.1007 -1.6358  1.6297
   12MPD2     C  182   3.353   4.106  14.001 -0.1449 -0.1637  0.3822
   12MPD2    C1  183   3.477   4.043  13.986  0.5411  0.7406 -0.5074
   12MPD2    C2  184   3.475   3.905  13.994  0.6112  0.2792 -0.6357
   12MPD2    C3  185   3.359   3.828  14.013 -0.0659 -0.3073  0.4571
   12MPD2    C4  186   3.237   3.893  14.003 -0.4354 -0.3339  0.2254
   12MPD2    C5  187   3.235   4.036  14.005 -0.0957 -0.6441 -0.4047
   12MPD2     H  188   3.572   3.856  14.006  0.4581  0.5500  1.8006
   12MPD2    H1  189   3.143   3.839  14.000 -1.3053  1.2268 -0.7321
   12MPD2    H2  190   3.340   4.214  13.994 -0.0880 -0.2434 -0.9796
   12MPD2    H3  191   3.139   4.085  14.011  0.7067  0.7101  1.4035
   12MPD2     N  192   3.354   3.691  14.035 -0.2366 -0.2106  0.0380
   12MPD2    H5  193   3.261   3.654  14.051  0.6616 -2.0985  0.8613
   12MPD2    N1  194   3.601   4.105  13.983  0.1818 -0.2739  0.8665
   12MPD2    H7  195   3.681   4.043  13.972 -1.4808 -2.1794 -0.5160
   13TCq1    O1  196   3.296   0.769  10.223  0.3731 -0.5317  0.6279
   13TCq1    C1  197   3.226   0.661  10.222  0.8680  0.2627  0.5575
   13TCq1    O2  198   3.248   0.556  10.280 -0.6992  0.2326 -0.3718
   13TCq1    C2  199   3.108   0.691  10.157 -0.1632  0.1821  0.1504
   13TCq1    C3  200   3.088   0.805  10.082 -0.3093  0.6521  0.5372
   13TCq1    C4  201   2.957   0.827  10.037 -0.1522 -0.3576 -0.2321
   13TCq1    C5  202   2.854   0.748  10.066  0.4094 -0.1063 -0.0383
   13TCq1    C6  203   2.875   0.636  10.143  0.7468  0.4655 -0.8164
   13TCq1    C7  204   3.003   0.615  10.197  0.2161 -0.9464  0.4915
   13TCq1    C8  205   2.761   0.566  10.199 -0.4104  0.1798 -0.0173
   13TCq1    O4  206   2.655   0.597  10.143 -0.6259 -0.1939  0.6161
   13TCq1    C9  207   2.926   0.945   9.954  0.3524  0.1311  0.4363
   13TCq1    O5  208   2.806   0.968   9.916  0.5063 -0.2048 -0.2931
   13TCq1    O6  209   3.021   1.019   9.924  0.4233 -0.3157  0.1333
   13TCq1    H1  210   3.252   0.850  10.190 -0.6466 -1.2243  0.2895
   13TCq1    H2  211   3.173   0.863  10.050  1.4480 -0.9857  2.2845
   13TCq1    H3  212   2.761   0.757  10.011  0.3459 -0.1110  0.0692
   13TCq1    H4  213   3.024   0.534  10.266 -0.2419  1.0917  3.0312
   14MPD2     C  214   2.565   0.408  10.353 -0.1990  0.3203  0.0684
   14MPD2    C1  215   2.681   0.458  10.403  0.4310  0.5435 -0.1461
   14MPD2    C2  216   2.691   0.448  10.539  0.6178  0.0706  0.8300
   14MPD2    C3  217   2.587   0.414  10.622 -0.1727  0.5752  0.3116
   14MPD2    C4  218   2.471   0.362  10.564 -0.1597  0.0274  0.6055
   14MPD2    C5  219   2.460   0.358  10.429 -0.0086  0.6215 -0.1076
   14MPD2     H  220   2.786   0.469  10.587 -0.3439  0.1796  2.6796
   14MPD2    H1  221   2.383   0.337  10.623  1.5924 -1.4159  2.5897
   14MPD2    H2  222   2.547   0.400  10.246 -1.2735  0.0288  0.2728
   14MPD2    H3  223   2.371   0.321  10.379  0.0982 -0.5118  0.5189
   14MPD2     N  224   2.620   0.417  10.761 -0.1331 -0.4184  0.0497
   14MPD2    H5  225   2.703   0.466  10.795  1.2876 -1.8289 -1.3729
   14MPD2    N1  226   2.781   0.520  10.327  0.1306 -0.3517  0.2431
   14MPD2    H7  227   2.859   0.545  10.387 -0.4373 -0.1498  0.8900
   15TCq1    O1  228   0.678   3.087   1.883 -0.2916  0.9739  0.1059
   15TCq1    C1  229   0.611   3.184   1.814  0.0245  0.4701  0.4935
   15TCq1    O2  230   0.633   3.304   1.808 -0.0658  0.0599 -0.4973
   15TCq1    C2  231   0.492   3.122   1.752  0.2169  1.1749 -0.1252
   15TCq1    C3  232   0.369   3.177   1.766  0.1127  0.5710  0.3586
   15TCq1    C4  233   0.265   3.110   1.726  0.4182 -0.3430 -0.6571
   15TCq1    C5  234   0.274   2.999   1.656  0.7307  0.4634 -0.0168
   15TCq1    C6  235   0.400   2.947   1.643 -0.0111 -0.4763  0.2007
   15TCq1    C7  236   0.512   3.001   1.697 -0.4247  0.6633 -0.3236
   15TCq1    C8  237   0.418   2.833   1.554  0.8925 -0.4462 -0.0511
   15TCq1    O4  238   0.522   2.768   1.570  0.2727  0.2689 -0.0397
   15TCq1    C9  239   0.134   3.171   1.759 -0.0503 -0.4309 -0.2225
   15TCq1    O5  240   0.144   3.273   1.834  0.3430 -0.6642 -0.0737
   15TCq1    O6  241   0.036   3.090   1.750 -0.0892  0.1831 -0.7740
   15TCq1    H1  242   0.616   3.018   1.914  1.4679 -0.0238  1.3724
   15TCq1    H2  243   0.369   3.274   1.815 -0.6094  0.9895 -0.4653
   15TCq1    H3  244   0.180   2.949   1.632  0.6458  0.5195  0.2026
   15TCq1    H4  245   0.610   2.958   1.686 -0.8206 -0.5582  0.9630
   16MPD2     C  246   0.216   2.763   1.256 -0.7216 -0.1672  0.2306
   16MPD2    C1  247   0.321   2.745   1.346  0.2653 -0.2134 -0.2274
   16MPD2    C2  248   0.405   2.634   1.328 -0.4417  0.2912 -0.0138
   16MPD2    C3  249   0.383   2.539   1.231 -0.0602  0.2059 -0.1864
   16MPD2    C4  250   0.273   2.552   1.148 -0.1872  0.4188  0.3563
   16MPD2    C5  251   0.194   2.672   1.157 -0.3543 -1.0246  0.3736
   16MPD2     H  252   0.495   2.616   1.387  0.4467 -1.0251 -1.7611
   16MPD2    H1  253   0.249   2.483   1.068 -1.3038  0.2279  0.8554
   16MPD2    H2  254   0.153   2.851   1.258 -0.1786  0.2456 -0.9516
   16MPD2    H3  255   0.103   2.686   1.099 -0.2293  0.2443  0.4996
   16MPD2     N  256   0.479   2.431   1.218 -0.0157 -0.0714  0.4528
   16MPD2    H5  257   0.566   2.439   1.271  0.2459 -1.7204  0.2794
   16MPD2    N1  258   0.337   2.843   1.451  0.0370  0.1084  0.3200
   16MPD2    H7  259   0.290   2.932   1.438  2.4655  1.6203  1.9117
   17TMC1    C1  260   2.079   3.212  10.680 -0.2415  0.4541  0.9860
   17TMC1    C2  261   2.138   3.184  10.801  0.2395  0.2068 -0.0339
   17TMC1    C3  262   2.145   3.055  10.837 -0.1630  0.2800  0.1195
   17TMC1    C4  263   2.023   3.114  10.599 -0.2448  0.7860 -0.0059
   17TMC1    C5  264   2.052   2.983  10.635 -0.2385  0.6192  0.3411
   17TMC1    C6  265   2.101   2.953  10.756  0.1099 -0.2617  0.3054
   17TMC1     C  266   2.079   3.347  10.631 -0.0023  0.6908 -0.3349
   17TMC1     O  267   1.990   3.374  10.551  0.1171  0.3028 -0.5838
   17TMC1     H  268   2.183   3.268  10.853 -0.1675 -0.6903  1.7487
   17TMC1    H1  269   1.981   3.149  10.505 -1.2950  2.0205  0.9313
   17TMC1    H2  270   2.124   2.848  10.774  1.9886  0.4342  1.9347
   17TMC1    C7  271   2.023   2.883  10.535  0.4051 -0.7128 -0.2930
   17TMC1    C8  272   2.210   3.015  10.959  0.2446  0.5793 -0.0635
   17TMC1    O1  273   1.957   2.917  10.437 -0.4032 -0.3152 -0.2631
   17TMC1    O2  274   2.249   2.904  10.983  0.2795  0.5405 -0.2174
   17TMC1    O3  275   2.132   2.800  10.546 -0.2887  0.2234 -0.5159
   17TMC1    H3  276   2.179   2.801  10.632  0.5875 -2.0534 -0.9863
   17TMC1    O5  277   2.191   3.110  11.057 -0.0006  0.0772  0.0282
   17TMC1    H5  278   2.148   3.190  11.020 -0.4589 -0.4641 -0.5986
   18MPD2     C  279   2.139   3.643  10.550 -0.1261  0.5727 -0.1116
   18MPD2    C1  280   2.224   3.562  10.623 -0.3487 -0.0967 -0.5824
   18MPD2    C2  281   2.341   3.615  10.670 -0.4300  0.0422 -0.0048
   18MPD2    C3  282   2.386   3.741  10.627 -0.0550  0.2304 -1.0098
   18MPD2    C4  283   2.297   3.825  10.558  0.2111  0.6708  0.4058
   18MPD2    C5  284   2.175   3.772  10.529 -0.8460 -0.2975  0.3048
   18MPD2     H  285   2.396   3.541  10.726  0.1378 -0.3074 -1.0263
   18MPD2    H1  286   2.319   3.919  10.508 -0.9990  0.8382  0.1972
   18MPD2    H2  287   2.040   3.621  10.510  0.0302  0.6586 -0.5401
   18MPD2    H3  288   2.108   3.823  10.460  0.6445 -1.1335 -1.7569
   18MPD2     N  289   2.518   3.777  10.641  0.3247 -0.4127  0.2760
   18MPD2    H5  290   2.527   3.878  10.641  0.6431 -0.4337  1.9247
   18MPD2    N1  291   2.193   3.425  10.662  0.3298  0.1221  0.4605
   18MPD2    H7  292   2.269   3.382  10.714 -0.2496 -0.6512  0.6637
   19TMC2    C1  293   0.043   4.157  14.005 -0.6363 -0.1048 -0.1992
   19TMC2    C2  294   4.694   4.263  13.993 -0.0976 -0.4492  0.0126
   19TMC2    C3  295   4.566   4.247  14.038 -0.3009  0.0415  0.1841
   19TMC2    C4  296   0.000   4.040  14.052 -0.1991 -0.2697 -0.3482
   19TMC2    C5  297   4.602   4.022  14.083 -0.5203  0.2313 -0.2479
   19TMC2    C6  298   4.512   4.125  14.081 -0.2308 -0.1101  0.4115
   19TMC2     C  299   0.183   4.186  14.008  0.3028 -0.0440 -0.3127
   19TMC2     O  300   0.222   4.253  13.915  0.4158  0.2541 -0.2794
   19TMC2     H  301   0.002   4.354  13.953  2.1980 -1.1725  0.9416
   19TMC2    H1  302   0.051   3.945  14.043  1.5065  0.6799 -0.9091
   19TMC2    H2  303   4.421   4.113  14.139 -0.5834 -0.3935 -0.2073
   19TMC2    C7  304   4.551   3.886  14.115  0.4088 -0.7925 -0.3159
   19TMC2    C8  305   4.481   4.362  14.089  0.2995  0.7472  0.3647
   19TMC2    O1  306   4.631   3.810  14.163 -0.4412  0.4966 -0.6354
   19TMC2    O2  307   4.363   4.383  14.063  0.4748  0.2204 -0.2693
   19TMC2    O5  308   4.566   4.450  14.145  0.3788 -0.4465  0.7252
   19TMC2    H5  309   4.655   4.410  14.156 -0.1657 -2.2289 -1.3119
   20MPD2     C  310   0.476   4.122  13.994 -0.3276 -0.2024 -0.1440
   20MPD2    C1  311   0.389   4.063  14.080  0.8049  0.2172 -0.0164
   20MPD2    C2  312   0.439   3.973  14.173 -0.8077  0.0001  0.1305
   20MPD2    C3  313   0.576   3.945  14.179  0.6489  0.5916 -0.3761
   20MPD2    C4  314   0.660   4.010  14.092  0.1300  0.1986 -0.0467
   20MPD2    C5  315   0.610   4.104  14.008  0.0695 -0.5590  0.4491
   20MPD2     H  316   0.372   3.929  14.245 -0.9720 -0.5169 -0.3333
   20MPD2    H1  317   0.768   4.002  14.098  0.4000  2.8193 -1.1314
   20MPD2    H2  318   0.448   4.199  13.923  1.2659  0.3589 -0.1684
   20MPD2    H3  319   0.676   4.160  13.943  0.3559 -0.9452  0.4115
   20MPD2     N  320   0.637   3.852  14.270 -0.0863  0.4788  0.7978
   20MPD2    H5  321   0.738   3.863  14.267  0.0233 -0.5403  0.8245
   20MPD2    N1  322   0.252   4.091  14.087 -0.2667  0.0224 -0.3476
   20MPD2    H7  323   0.202   4.038  14.157  0.6610 -0.9689 -0.4437
   21TMC2    C1  324   2.467   4.146  14.356 -0.0488 -0.1174  0.5983
   21TMC2    C2  325   2.385   4.074  14.278  0.0224  0.1019 -0.1335
   21TMC2    C3  326   2.258   4.120  14.263 -0.7277  0.1505  0.0861
   21TMC2    C4  327   2.430   4.261  14.424 -0.0869 -0.2911  0.3404
   21TMC2    C5  328   2.299   4.303  14.415 -0.1720  0.0390 -0.2848
   21TMC2    C6  329   2.212   4.230  14.333  0.5728  0.8222  0.0954
   21TMC2     C  330   2.601   4.104  14.378  0.1311 -0.4294  1.1314
   21TMC2     O  331   2.667   4.190  14.434 -0.2310  0.5021 -0.0800
   21TMC2     H  332   2.417   4.010  14.197  0.4521 -0.4132  0.4477
   21TMC2    H1  333   2.486   4.313  14.501  2.4324  1.9141 -2.9600
   21TMC2    H2  334   2.107   4.255  14.331  0.9509  2.3483 -0.6153
   21TMC2    C7  335   2.250   4.369  14.538  1.5223 -0.1773 -0.2563
   21TMC2    C8  336   2.193   4.085  14.142  0.2169  0.7367  0.2317
   21TMC2    O1  337   2.308   4.341  14.642 -0.4418  0.3075 -0.0714
   21TMC2    O2  338   2.204   3.974  14.092 -0.0497 -0.2055  0.5530
   21TMC2    O5  339   2.141   4.196  14.082  0.0048 -0.3118 -0.2307
   21TMC2    H5  340   2.151   4.279  14.132  1.0043 -2.0639  2.4818
   22MPD2     C  341   3.011   3.835  14.384 -0.2884 -0.4484 -0.4663
   22MPD2    C1  342   3.001   3.966  14.368  0.3132 -0.2635 -0.5343
   22MPD2    C2  343   2.877   4.024  14.353 -0.1720  0.3288 -0.4455
   22MPD2    C3  344   2.771   3.935  14.347 -0.6093 -0.0233 -0.1639
   22MPD2    C4  345   2.786   3.806  14.355 -0.4594 -0.1590 -0.0119
   22MPD2    C5  346   2.907   3.750  14.379  0.5768  0.2206 -0.9165
   22MPD2     H  347   2.864   4.129  14.330 -0.4428  0.8961  2.2191
   22MPD2    H1  348   2.698   3.743  14.344 -0.9524  0.6231 -0.6116
   22MPD2    H2  349   3.111   3.798  14.403 -0.9911 -0.6471  2.8221
   22MPD2    H3  350   2.919   3.643  14.372  2.5000  0.3598  0.3493
   22MPD2     N  351   2.638   3.980  14.336 -0.0604  0.0184  1.1651
   22MPD2    H5  352   2.566   3.918  14.300  0.4171  0.2475 -0.2080
   22MPD2    N1  353   3.126   4.040  14.368 -0.5405  0.2846  0.2907
   22MPD2    H7  354   3.212   3.996  14.397 -1.9418 -2.6691 -0.0529
   23TMC2    C1  355   3.454   0.568  14.536  0.7766 -0.8335 -0.6205
   23TMC2    C2  356   3.431   0.589  14.400  0.0641  0.3268  0.2577
   23TMC2    C3  357   3.335   0.508  14.342  0.3673  0.0820 -0.4575
   23TMC2    C4  358   3.367   0.489  14.610  0.1448  0.0118 -0.1318
   23TMC2    C5  359   3.283   0.414  14.543  0.2745 -0.4357 -0.1139
   23TMC2    C6  360   3.260   0.412  14.405 -0.1136  0.2067  0.3062
   23TMC2     C  361   3.575   0.584  14.603 -0.1887  0.6684  0.4587
   23TMC2     O  362   3.563   0.572  14.722 -0.3560  0.2220  0.1320
   23TMC2     H  363   3.497   0.650  14.339 -1.5230  0.0792 -1.7079
   23TMC2    H1  364   3.379   0.477  14.717  1.8699  3.0414  0.0042
   23TMC2    H2  365   3.190   0.346  14.354  0.1570  1.0594 -1.1812
   23TMC2    C7  366   3.200   0.334  14.625  0.0274 -0.3345 -0.3194
   23TMC2    C8  367   3.315   0.539  14.199 -0.1950 -0.3260 -0.0616
   23TMC2    O1  368   3.251   0.293  14.732  0.1425 -0.0452  0.0217
   23TMC2    O2  369   3.406   0.560  14.121  0.5749 -0.2894  0.0967
   23TMC2    O5  370   3.183   0.580  14.180 -0.0993 -0.9731  0.2193
   23TMC2    H5  371   3.118   0.555  14.249  0.7834 -1.8932  0.7142
   24MPD2     C  372   4.076   0.638  14.654 -0.0005  0.1732 -0.4542
   24MPD2    C1  373   3.981   0.607  14.743  0.1907 -0.0601 -0.0712
   24MPD2    C2  374   3.849   0.590  14.710  0.3722  0.0920  0.8126
   24MPD2    C3  375   3.816   0.606  14.576  0.1098 -0.6882 -0.2062
   24MPD2    C4  376   3.910   0.640  14.484 -0.7347  0.1314 -0.6841
   24MPD2    C5  377   4.039   0.655  14.524 -0.5089  0.1381 -0.0585
   24MPD2     H  378   3.774   0.552  14.779 -0.5801 -1.8723 -1.2813
   24MPD2    H1  379   3.877   0.648  14.382 -0.3151 -0.9142 -0.9003
   24MPD2    H2  380   4.176   0.652  14.692 -0.2697 -0.9454  0.6813
   24MPD2    H3  381   4.113   0.690  14.453 -0.5190 -1.3118 -0.7779
   24MPD2     N  382   3.688   0.587  14.527  0.9026  0.0467  0.3184
   24MPD2    H5  383   3.679   0.570  14.428  0.8973  0.3307  0.2695
   24MPD2    N1  384   4.012   0.591  14.881  0.2943  0.3218 -0.4896
   24MPD2    H7  385   3.934   0.598  14.946  0.3847 -1.0165 -0.2353
   25TMC2    C1  386   2.884   3.126  11.232 -0.1126  0.2288 -0.0858
   25TMC2    C2  387   2.993   3.197  11.203  0.3556 -0.3701 -0.2417
   25TMC2    C3  388   2.999   3.331  11.234  0.4993 -0.2632  0.0417
   25TMC2    C4  389   2.777   3.179  11.298 -0.2380  0.2410  0.1653
   25TMC2    C5  390   2.785   3.315  11.335  1.0966  0.7846  0.3154
   25TMC2    C6  391   2.893   3.387  11.310 -0.0139  0.2067 -0.0891
   25TMC2     C  392   2.905   2.983  11.202  0.1323 -0.3901  0.1821
   25TMC2     O  393   3.015   2.944  11.158  0.0169 -0.5187 -0.6804
   25TMC2     H  394   3.075   3.154  11.145  0.2877  0.9600 -1.3163
   25TMC2    H1  395   2.688   3.121  11.321  1.2025 -1.6750  0.9542
   25TMC2    H2  396   2.914   3.481  11.358  2.0868  0.6667 -1.8864
   25TMC2    C7  397   2.683   3.360  11.433 -0.2091 -0.0002 -0.1660
   25TMC2    C8  398   3.129   3.399  11.235 -0.4202  0.1043 -0.6813
   25TMC2    O1  399   2.613   3.275  11.490 -0.2932 -0.0739  0.3413
   25TMC2    O2  400   3.230   3.351  11.276  0.3552  0.7733  1.0168
   25TMC2    O5  401   3.113   3.531  11.220  0.0807  0.1433 -0.2389
   25TMC2    H5  402   3.024   3.569  11.207 -0.4134 -0.7817  0.4189
   26MPD2     C  403   2.758   2.500  11.250  0.1996  0.5765 -0.5457
   26MPD2    C1  404   2.652   2.580  11.256 -0.2463  0.1256  0.4529
   26MPD2    C2  405   2.665   2.714  11.253  0.1059  0.6330  0.1100
   26MPD2    C3  406   2.784   2.772  11.224 -0.6248 -0.4877  0.5573
   26MPD2    C4  407   2.891   2.687  11.203  0.4728 -0.2159 -0.5916
   26MPD2    C5  408   2.879   2.556  11.217 -0.2123  0.3113  0.1337
   26MPD2     H  409   2.579   2.775  11.280 -0.0329  0.1978  0.6442
   26MPD2    H1  410   2.990   2.719  11.174  1.0999 -0.9308  0.7649
   26MPD2    H2  411   2.752   2.392  11.255  2.8487  0.4915  0.6860
   26MPD2    H3  412   2.964   2.500  11.179 -0.9048 -0.9714  0.4724
   26MPD2     N  413   2.789   2.916  11.221  0.2624  0.2547 -0.7497
   26MPD2    H5  414   2.702   2.967  11.236  1.1461  1.4343  0.3642
   26MPD2    N1  415   2.531   2.516  11.293 -0.8363 -0.3672 -0.1983
   26MPD2    H7  416   2.523   2.426  11.339 -0.8980  0.0145  0.5307
   27TMC2    C1  417   1.544   0.607  12.287 -0.1783  0.0768 -0.5766
   27TMC2    C2  418   1.442   0.683  12.234  0.0385  0.0908 -0.5729
   27TMC2    C3  419   1.468   0.816  12.219  0.3379  0.3944  0.6235
   27TMC2    C4  420   1.654   0.662  12.335 -0.2801 -0.0915 -0.5455
   27TMC2    C5  421   1.673   0.798  12.330  0.5367 -0.2397 -0.8129
   27TMC2    C6  422   1.583   0.877  12.262  0.0560  0.4286 -0.4025
   27TMC2     C  423   1.504   0.480  12.345 -0.4383  0.3497 -0.2288
   27TMC2     O  424   1.576   0.386  12.374  0.0134 -0.3004 -0.3145
   27TMC2     H  425   1.353   0.634  12.197 -0.3766  0.0443  0.5041
   27TMC2    H1  426   1.716   0.600  12.398 -1.2678  1.2991  1.7751
   27TMC2    H2  427   1.604   0.982  12.245 -2.5238  0.9957 -0.0530
   27TMC2    C7  428   1.680   0.847  12.468 -0.2518 -0.0644  0.4634
   27TMC2    C8  429   1.396   0.887  12.116  0.0414 -0.2088  0.2577
   27TMC2    O1  430   1.734   0.770  12.547  0.2869  0.3415  0.4304
   27TMC2    O2  431   1.438   0.989  12.061  0.4413 -0.3460  0.0475
   27TMC2    O5  432   1.267   0.860  12.124  0.3846 -0.4834 -0.2865
   27TMC2    H5  433   1.236   0.802  12.196 -1.6699 -0.6694 -1.3109
   28MPD2     C  434   1.146   0.235  12.601 -0.3324  0.2325  0.1546
   28MPD2    C1  435   1.105   0.364  12.597 -0.0374 -1.0399  0.1698
   28MPD2    C2  436   1.189   0.452  12.529 -0.0871 -0.1986  0.5104
   28MPD2    C3  437   1.297   0.404  12.457 -0.3836 -0.5506 -0.5295
   28MPD2    C4  438   1.326   0.277  12.440  0.3858  0.3537  0.2138
   28MPD2    C5  439   1.247   0.195  12.515 -0.8366  0.0330 -0.5330
   28MPD2     H  440   1.184   0.560  12.533 -1.2757 -0.2204 -0.6071
   28MPD2    H1  441   1.406   0.232  12.383  1.2157  0.6722  1.1447
   28MPD2    H2  442   1.096   0.154  12.652  0.0312  0.6674  1.1963
   28MPD2    H3  443   1.269   0.089  12.527 -3.5513 -1.0378 -4.8087
   28MPD2     N  444   1.380   0.503  12.403  0.0534 -0.0098  0.1478
   28MPD2    H5  445   1.343   0.597  12.400  0.8750  0.3290  0.5209
   28MPD2    N1  446   0.989   0.390  12.673  0.1967  0.1478 -0.1489
   28MPD2    H7  447   0.943   0.315  12.723 -1.2003  1.9136  1.2004
   29TMC2    C1  448   0.577   2.788  14.338  0.4373  0.2199 -0.4057
   29TMC2    C2  449   0.643   2.755  14.449  0.1501 -0.8038 -0.2495
   29TMC2    C3  450   0.718   2.850  14.519 -0.5351 -0.4301  0.0003
   29TMC2    C4  451   0.591   2.917  14.288  0.2653  0.1341  0.9569
   29TMC2    C5  452   0.666   3.003  14.359 -0.1397  0.5626 -0.2337
   29TMC2    C6  453   0.729   2.979  14.479  0.0442  0.3547 -0.3515
   29TMC2     C  454   0.505   2.695  14.259 -0.1963 -0.4639 -0.0594
   29TMC2     O  455   0.415   2.731  14.185  0.2011 -0.2208  0.7486
   29TMC2     H  456   0.636   2.657  14.496  0.8217  0.2120  1.9959
   29TMC2    H1  457   0.538   2.937  14.196  0.2845 -1.7744  0.5172
   29TMC2    H2  458   0.767   3.056  14.546  0.3851 -1.1325  1.1476
   29TMC2    C7  459   0.693   3.123  14.277  0.0932  0.7962  0.0121
   29TMC2    C8  460   0.772   2.802  14.644  0.6301  0.3568 -0.2610
   29TMC2    O1  461   0.612   3.151  14.192 -0.4531  0.4753  0.0499
   29TMC2    O2  462   0.704   2.722  14.711  0.3636  0.1601 -0.7601
   29TMC2    O5  463   0.844   2.906  14.693 -0.6209 -0.2767 -0.1048
   29TMC2    H5  464   0.894   2.951  14.622  0.9731 -0.6173  0.8010
   30MPD2     C  465   0.359   2.207  14.146  0.0935  0.2044 -0.1858
   30MPD2    C1  466   0.467   2.215  14.230  0.1303 -0.2470  1.2121
   30MPD2    C2  467   0.516   2.333  14.276 -0.0189 -0.8401  0.8023
   30MPD2    C3  468   0.473   2.454  14.235  0.4343 -0.2994  0.0719
   30MPD2    C4  469   0.371   2.452  14.141 -0.6504  0.1325 -0.7032
   30MPD2    C5  470   0.311   2.334  14.102  0.4247 -0.4781 -0.2607
   30MPD2     H  471   0.603   2.332  14.341  1.2207 -1.9762 -0.8767
   30MPD2    H1  472   0.330   2.539  14.090  0.7325  0.4184 -1.3292
   30MPD2    H2  473   0.312   2.118  14.106  0.2441 -0.2165  0.5691
   30MPD2    H3  474   0.220   2.337  14.043  1.8721  2.2141 -2.3199
   30MPD2     N  475   0.544   2.566  14.283 -0.0917 -0.2023 -0.6596
   30MPD2    H5  476   0.621   2.548  14.347  0.4933 -0.2518 -1.3685
   30MPD2    N1  477   0.532   2.096  14.270 -0.3086  0.0353 -0.0104
   30MPD2    H7  478   0.628   2.112  14.300 -0.9037  1.5648  1.1425
   31TMC2    C1  479   2.785   1.463  15.234  0.5647 -0.1080  0.0247
   31TMC2    C2  480   2.653   1.462  15.228 -1.3602  0.2418 -0.0349
   31TMC2    C3  481   2.578   1.456  15.346  0.9503 -0.4576  0.4196
   31TMC2    C4  482   2.850   1.455  15.353 -0.7523  0.1083  0.7955
   31TMC2    C5  483   2.777   1.441  15.464 -0.7981 -0.0605  0.4362
   31TMC2    C6  484   2.639   1.435  15.466  0.1748 -0.7215 -0.0445
   31TMC2     C  485   2.861   1.497  15.117  0.2435 -0.3687  0.3773
   31TMC2     O  486   2.796   1.551  15.027  0.6925  1.1997 -0.0155
   31TMC2     H  487   2.603   1.474  15.133  1.6225  2.6160 -1.3083
   31TMC2    H1  488   2.957   1.449  15.371 -0.7305 -2.7083 -0.3138
   31TMC2    H2  489   2.584   1.411  15.557  0.8786 -0.8308  0.3519
   31TMC2    C7  490   2.843   1.444  15.600 -0.7122  0.1938  0.3285
   31TMC2    C8  491   2.444   1.427  15.322  0.0853  0.2301 -0.2227
   31TMC2    O1  492   2.963   1.414  15.594  1.1411 -0.0143  0.3600
   31TMC2    O2  493   2.410   1.392  15.207  0.2400  0.3251 -0.2803
   31TMC2    O5  494   2.367   1.462  15.426  0.2022 -0.6408  0.3694
   31TMC2    H5  495   2.399   1.501  15.510  0.0187 -0.9055  0.5659
   32MPD2     C  496   3.312   1.617  14.894  0.0675  0.1713 -0.3369
   32MPD2    C1  497   3.187   1.667  14.872 -0.1746 -0.2401 -0.1199
   32MPD2    C2  498   3.077   1.628  14.949  0.3165  1.0940  0.6044
   32MPD2    C3  499   3.096   1.534  15.050 -0.2870 -0.6241  0.7762
   32MPD2    C4  500   3.232   1.509  15.085  0.1684  0.1823 -0.0638
   32MPD2    C5  501   3.332   1.543  15.000  0.1842  0.6189 -0.7628
   32MPD2     H  502   2.978   1.661  14.920  1.2559  1.6274 -1.9547
   32MPD2    H1  503   3.267   1.448  15.168  0.9305 -0.0167 -0.5242
   32MPD2    H2  504   3.398   1.641  14.832 -0.3163  2.6392  0.0938
   32MPD2    H3  505   3.435   1.519  15.026 -0.6133  1.1185  2.9004
   32MPD2     N  506   2.997   1.483  15.135  0.1115  0.1158  0.0797
   32MPD2    H5  507   3.030   1.423  15.209  0.4827  0.3114  0.0736
   32MPD2    N1  508   3.193   1.769  14.774 -0.1003  0.2855  0.4426
   32MPD2    H7  509   3.281   1.769  14.723 -0.7218 -0.4085 -0.6553
   33TMC2    C1  510   2.879   4.678  10.323 -0.3025  0.4317  0.2288
   33TMC2    C2  511   2.750   4.703  10.284 -0.0041  0.2626  0.3749
   33TMC2    C3  512   2.730   0.085  10.218 -0.3494  1.3196  0.5728
   33TMC2    C4  513   2.981   0.026  10.289  0.2525 -0.0214  0.7908
   33TMC2    C5  514   2.957   0.140  10.212 -0.1079  0.2462 -0.8628
   33TMC2    C6  515   2.830   0.166  10.173  0.4677 -0.2999 -0.0059
   33TMC2     C  516   2.902   4.572  10.412 -0.1613 -0.3117 -0.0953
   33TMC2     O  517   2.813   4.492  10.418 -0.4089 -0.4154 -0.4446
   33TMC2     H  518   2.664   4.645  10.317  0.3400  1.0582  2.7153
   33TMC2    H1  519   3.087   0.014  10.305  0.5526 -1.2145 -2.2502
   33TMC2    H2  520   2.804   0.258  10.121  1.6118 -0.1028 -0.2307
   33TMC2    C7  521   3.064   0.215  10.152  0.0465 -0.0562 -0.1499
   33TMC2    C8  522   2.606   0.090  10.141 -0.6096 -0.0355 -0.1819
   33TMC2    O1  523   3.177   0.193  10.200  0.1550 -0.1681 -0.8677
   33TMC2    O2  524   2.594   0.145  10.033 -0.4321  0.3025  0.0750
   33TMC2    O5  525   2.503   0.062  10.223 -0.5555 -0.3618 -0.1268
   33TMC2    H5  526   2.526   0.061  10.319 -2.0668  1.0781  0.2454
   34MPD2     C  527   3.149   4.331  10.788 -0.5335  0.2423  0.2237
   34MPD2    C1  528   3.062   4.277  10.694  0.1162  0.1524  0.5091
   34MPD2    C2  529   3.007   4.367  10.604 -0.1607  0.2355  0.0041
   34MPD2    C3  530   3.053   4.498  10.588  0.3737 -0.2389  0.5074
   34MPD2    C4  531   3.153   4.541  10.676  0.3358  0.5135 -0.1790
   34MPD2    C5  532   3.196   4.462  10.778  0.4200 -0.2923 -0.9154
   34MPD2     H  533   2.928   4.347  10.533 -0.1982  0.8497 -0.1292
   34MPD2    H1  534   3.195   4.641  10.674  0.9885  0.2524  0.8428
   34MPD2    H2  535   3.190   4.262  10.861 -2.1607 -1.1011 -0.1274
   34MPD2    H3  536   3.257   4.502  10.858 -1.5892  1.2126 -0.1537
   34MPD2     N  537   3.008   4.594  10.498 -0.6180 -0.3861  0.1338
   34MPD2    H5  538   3.060   4.679  10.478 -2.2968  0.9091  1.2462
   34MPD2    N1  539   3.038   4.143  10.704  0.0960  0.4728 -1.1489
   34MPD2    H7  540   3.093   4.092  10.772 -0.2863 -0.1678 -1.3164
   35TMC2    C1  541   4.651   1.127  11.776  0.5405  0.1972 -0.8552
   35TMC2    C2  542   4.545   1.198  11.729  0.5503  0.0372 -0.0476
   35TMC2    C3  543   4.425   1.131  11.698 -0.8337  0.5558 -0.6288
   35TMC2    C4  544   4.639   0.994  11.816  0.5675  0.1563  0.3147
   35TMC2    C5  545   4.513   0.937  11.807 -0.8853  0.2830  0.3095
   35TMC2    C6  546   4.409   1.000  11.748 -0.2035  0.2916  0.2500
   35TMC2     C  547   0.019   1.212  11.837  0.1254  1.1420  0.0743
   35TMC2     O  548   0.016   1.329  11.808 -0.3699  0.2453 -0.0573
   35TMC2     H  549   4.548   1.303  11.701  1.7684  0.1516  0.5225
   35TMC2    H1  550   4.729   0.934  11.823  1.3910  1.3708  0.1193
   35TMC2    H2  551   4.313   0.950  11.743  0.1748 -0.4430  0.3208
   35TMC2    C7  552   4.503   0.788  11.803 -0.8088 -0.1180 -0.8058
   35TMC2    C8  553   4.297   1.201  11.691  0.4201  0.0143  0.7764
   35TMC2    O1  554   4.408   0.742  11.738 -0.5655  0.2029 -0.1715
   35TMC2    O2  555   4.201   1.176  11.768 -0.0181  0.1383 -0.1677
   35TMC2    O5  556   4.308   1.308  11.609  0.0470  0.5991 -0.3086
   35TMC2    H5  557   4.389   1.320  11.555  0.2043  3.7899  0.6566
   36MPD2     C  558   0.465   1.315  12.085  0.0524 -0.1127 -0.0361
   36MPD2    C1  559   0.448   1.180  12.083  0.3348  0.4556 -0.5638
   36MPD2    C2  560   0.332   1.132  12.031 -0.1531 -0.7693 -0.4933
   36MPD2    C3  561   0.235   1.205  11.959  0.5130 -0.7593 -0.0130
   36MPD2    C4  562   0.257   1.342  11.958  0.1508  0.4395  0.1170
   36MPD2    C5  563   0.374   1.390  12.011  0.3295 -0.5984  0.6347
   36MPD2     H  564   0.316   1.025  12.034  0.9262 -0.9481 -1.0789
   36MPD2    H1  565   0.202   1.412  11.897 -1.7560 -0.8813  0.3235
   36MPD2    H2  566   0.555   1.355  12.130  0.3368 -2.0298  1.1187
   36MPD2    H3  567   0.401   1.494  11.994 -0.7307 -0.3417  0.5134
   36MPD2     N  568   0.129   1.146  11.892 -0.8207 -0.2589  0.4382
   36MPD2    H5  569   0.131   1.045  11.897 -2.1142 -0.4014 -1.8258
   36MPD2    N1  570   0.537   1.105  12.164 -0.7152  0.4533  0.2169
   36MPD2    H7  571   0.607   1.165  12.206  0.6067 -0.3030 -0.9004
   37TMC2    C1  572   2.221   0.765  12.555  0.0636 -0.5984 -0.3874
   37TMC2    C2  573   2.353   0.761  12.525  0.4409  0.3467 -0.7222
   37TMC2    C3  574   2.387   0.828  12.408  0.5852  0.1488  0.4947
   37TMC2    C4  575   2.130   0.823  12.473  0.1663 -0.5708 -0.3285
   37TMC2    C5  576   2.170   0.896  12.365  0.3590  0.7349  0.4448
   37TMC2    C6  577   2.302   0.901  12.333  0.7561 -0.1157 -0.0027
   37TMC2     C  578   2.177   0.710  12.681  0.0529 -0.4052  0.1407
   37TMC2     O  579   2.058   0.691  12.695  0.6635 -0.1866  0.0560
   37TMC2     H  580   2.424   0.694  12.572  0.6321 -0.4371 -2.1589
   37TMC2    H1  581   2.028   0.791  12.492 -0.6332  1.6429 -0.9432
   37TMC2    H2  582   2.334   0.957  12.246  0.1265 -1.1351 -0.8851
   37TMC2    C7  583   2.076   0.938  12.262  0.4850 -0.2111  1.0876
   37TMC2    C8  584   2.530   0.810  12.371  0.6328  0.3957  0.7820
   37TMC2    O1  585   1.963   0.897  12.270  0.2296  0.0618  0.3407
   37TMC2    O2  586   2.613   0.769  12.444 -0.4330  0.2780 -0.0692
   37TMC2    O5  587   2.550   0.884  12.263  0.4974  0.2664  0.2888
   37TMC2    H5  588   2.484   0.879  12.191  0.2095 -2.4030  0.7401
   38MPD2     C  589   2.288   0.492  13.125 -0.2528 -0.0922 -0.5760
   38MPD2    C1  590   2.403   0.542  13.066 -0.5984 -0.5476  0.4857
   38MPD2    C2  591   2.389   0.617  12.953 -0.4702 -0.5318 -0.2648
   38MPD2    C3  592   2.275   0.633  12.884 -0.1677 -0.3041 -0.6382
   38MPD2    C4  593   2.163   0.570  12.938  0.6040  0.1066 -0.7158
   38MPD2    C5  594   2.172   0.499  13.051  0.3098 -0.1541 -0.0629
   38MPD2     H  595   2.483   0.651  12.912  0.0993 -0.6606  0.9207
   38MPD2    H1  596   2.066   0.581  12.891 -0.0414  0.6627  0.7749
   38MPD2    H2  597   2.288   0.431  13.215  1.6721  1.4159  0.4416
   38MPD2    H3  598   2.078   0.453  13.079 -0.8394  2.8144  1.0085
   38MPD2     N  599   2.280   0.698  12.762  0.1207  0.0048  0.2477
   38MPD2    H5  600   2.366   0.743  12.734  0.2903 -0.8483 -0.6151
   38MPD2    N1  601   2.525   0.513  13.121  1.0140  0.0097  0.3881
   38MPD2    H7  602   2.608   0.527  13.064  1.7337 -0.2513  1.3691
   39TMC2    C1  603   1.434   1.436   1.504  0.1940  0.6727  0.5090
   39TMC2    C2  604   1.554   1.432   1.432  0.7704  0.7659 -0.0329
   39TMC2    C3  605   1.676   1.450   1.492 -0.2057 -0.3700  0.0830
   39TMC2    C4  606   1.444   1.463   1.631  0.2514  0.1532  0.3419
   39TMC2    C5  607   1.560   1.492   1.690 -0.4571 -0.1757 -0.7511
   39TMC2    C6  608   1.683   1.492   1.622 -0.0804  0.2647  0.3881
   39TMC2     C  609   1.303   1.448   1.435  0.0094  0.0152 -0.2295
   39TMC2     O  610   1.202   1.473   1.502 -0.6939  0.5914  0.2233
   39TMC2     H  611   1.558   1.396   1.330 -0.4979 -1.1474  0.5986
   39TMC2    H1  612   1.359   1.485   1.695 -0.7507  0.5652 -1.1163
   39TMC2    H2  613   1.778   1.507   1.673 -0.4258 -0.5342  1.2609
   39TMC2    C7  614   1.549   1.590   1.800 -0.3134  0.0727 -0.0850
   39TMC2    C8  615   1.788   1.394   1.421 -0.1819  0.2732  0.2142
   39TMC2    O1  616   1.526   1.547   1.913  0.5222 -0.7219 -0.4663
   39TMC2    O2  617   1.788   1.315   1.327 -0.2344  0.7221  0.4388
   39TMC2    O5  618   1.906   1.456   1.466  0.1796  0.3766 -0.0213
   39TMC2    H5  619   1.889   1.530   1.528  0.0038 -0.6840  1.1784
   40MPD2     C  620   1.226   1.385   1.086  0.3362  0.0986  0.7325
   40MPD2    C1  621   1.199   1.425   1.210 -0.3275 -0.7591 -0.1035
   40MPD2    C2  622   1.073   1.466   1.239  0.5326  0.6114  0.2982
   40MPD2    C3  623   0.981   1.477   1.135  0.0773  0.2869  0.0708
   40MPD2    C4  624   1.012   1.432   1.007 -0.1225  0.7425 -0.2439
   40MPD2    C5  625   1.133   1.385   0.990  0.3126 -0.7048  0.0033
   40MPD2     H  626   1.043   1.493   1.339 -0.9909 -1.5266  0.4262
   40MPD2    H1  627   0.937   1.423   0.929 -0.7227 -1.1950  0.5510
   40MPD2    H2  628   1.326   1.350   1.064 -0.4000 -2.1526  0.9464
   40MPD2    H3  629   1.163   1.344   0.894 -1.1010 -0.2379 -0.6362
   40MPD2     N  630   0.845   1.534   1.144 -0.1523  0.2617  0.3995
   40MPD2    H5  631   0.777   1.520   1.070  0.9670 -2.6502 -0.0788
   40MPD2    N1  632   1.310   1.418   1.302 -0.1092 -0.0263  0.2228
   40MPD2    H7  633   1.396   1.378   1.266 -0.6903 -0.8857 -0.2065
   41TMC2    C1  634   4.015   1.311  13.565 -0.3226 -0.0552  0.2140
   41TMC2    C2  635   3.949   1.251  13.458  0.2502 -0.1746 -0.8730
   41TMC2    C3  636   4.012   1.229  13.341 -0.5118 -0.0028  0.1331
   41TMC2    C4  637   4.140   1.366  13.537  0.4878 -0.2945  0.5786
   41TMC2    C5  638   4.206   1.349  13.415  0.8364  0.1369 -0.4961
   41TMC2    C6  639   4.142   1.270  13.319  0.2625  0.2585  0.6209
   41TMC2     C  640   3.968   1.297  13.694 -0.5629  0.2083  0.0207
   41TMC2     O  641   4.008   1.380  13.775  0.2842 -0.2528  0.4852
   41TMC2     H  642   3.852   1.206  13.479 -0.9553  1.1620 -3.5661
   41TMC2    H1  643   4.192   1.421  13.614 -0.7798 -0.2846  1.4269
   41TMC2    H2  644   4.195   1.250  13.227  0.6374  0.4080  0.8053
   41TMC2    C7  645   4.327   1.423  13.371 -0.4052 -0.3323 -0.3471
   41TMC2    C8  646   3.954   1.140  13.230  0.3182 -0.2888 -0.4654
   41TMC2    O1  647   4.341   1.542  13.405  0.5211 -0.2557  0.2254
   41TMC2    O2  648   4.027   1.074  13.160 -0.1367 -0.3611 -0.8425
   41TMC2    O5  649   3.819   1.112  13.239  0.8055  0.2591 -0.1731
   41TMC2    H5  650   3.759   1.165  13.297  1.9486  0.9263  0.3882
   42MPD2     C  651   3.831   0.980  13.811 -0.0719  0.2660  0.4649
   42MPD2    C1  652   3.881   1.109  13.833  0.1629  0.0344 -1.1801
   42MPD2    C2  653   3.878   1.173  13.959 -0.6438  0.7648  0.8083
   42MPD2    C3  654   3.833   1.094  14.069  0.2681  0.1726 -0.2501
   42MPD2    C4  655   3.787   0.964  14.046 -0.4983  0.1010 -0.0737
   42MPD2    C5  656   3.791   0.908  13.922  0.6588  0.2160 -1.0074
   42MPD2     H  657   3.897   1.280  13.967  0.3628  0.5599  1.0884
   42MPD2    H1  658   3.740   0.896  14.115  0.3087 -1.7365 -1.3221
   42MPD2    H2  659   3.830   0.928  13.716 -0.1907  0.4902  0.3453
   42MPD2    H3  660   3.759   0.805  13.915 -0.5956  0.6196 -1.2053
   42MPD2     N  661   3.814   1.144  14.202 -0.5217  0.2285 -0.2666
   42MPD2    H5  662   3.790   1.080  14.277  0.2955  2.2057  1.6532
   42MPD2    N1  663   3.912   1.171  13.708 -0.8500 -0.0245  0.0736
   42MPD2    H7  664   3.910   1.112  13.626  1.6526  1.0065 -0.7258
   43TMC2    C1  665   1.066   2.976   1.265 -0.2465 -0.1207 -0.5062
   43TMC2    C2  666   0.985   3.002   1.375 -0.0967  0.3183  0.2472
   43TMC2    C3  667   0.929   3.127   1.387  0.8484 -0.4303 -0.7079
   43TMC2    C4  668   1.092   3.079   1.174 -0.1269 -0.0051  0.0345
   43TMC2    C5  669   1.040   3.200   1.195  1.0283 -0.2130  0.5253
   43TMC2    C6  670   0.950   3.223   1.301 -0.1889 -0.2086  0.1682
   43TMC2     C  671   1.147   2.852   1.251  0.2088  0.0173 -0.0632
   43TMC2     O  672   1.223   2.847   1.151  0.4434  0.2894  0.3750
   43TMC2     H  673   0.946   2.921   1.435 -1.3373  1.0839  0.4925
   43TMC2    H1  674   1.175   3.071   1.105  0.5872 -1.9666  1.1092
   43TMC2    H2  675   0.907   3.321   1.317 -0.0498 -0.3769  1.5742
   43TMC2    C7  676   1.054   3.304   1.096  0.0081 -0.1929  0.5437
   43TMC2    C8  677   0.842   3.167   1.491  0.0392  0.2904 -0.4552
   43TMC2    O1  678   1.122   3.288   0.993 -0.2133 -0.1916  0.4917
   43TMC2    O2  679   0.858   3.277   1.543  0.4338  0.2494 -0.4432
   43TMC2    O5  680   0.784   3.058   1.543  0.1278 -0.3618 -0.4785
   43TMC2    H5  681   0.765   2.999   1.467  1.8604 -1.0368 -0.3698
   44MPD2     C  682   1.312   2.382   1.376 -0.3603 -0.5867 -0.0307
   44MPD2    C1  683   1.375   2.481   1.305 -0.7790 -0.2551  0.4676
   44MPD2    C2  684   1.312   2.603   1.285 -0.5873  0.0476 -0.6085
   44MPD2    C3  685   1.193   2.626   1.347  0.0243  0.1714  0.1552
   44MPD2    C4  686   1.126   2.521   1.406 -0.7672  0.1244 -0.2510
   44MPD2    C5  687   1.192   2.403   1.427  0.0257 -0.1372  0.8885
   44MPD2     H  688   1.371   2.680   1.236 -0.5056  0.7052  0.5198
   44MPD2    H1  689   1.033   2.542   1.457 -1.0150  0.1524 -0.7084
   44MPD2    H2  690   1.351   2.281   1.385  1.5038  0.2581  1.2488
   44MPD2    H3  691   1.135   2.330   1.482  0.1243 -0.7677  0.1519
   44MPD2     N  692   1.130   2.758   1.347 -0.0184 -0.2063  1.1428
   44MPD2    H5  693   1.065   2.771   1.424 -0.2233  1.2347  0.7068
   44MPD2    N1  694   1.502   2.461   1.248  0.2732  0.1414  0.0733
   44MPD2    H7  695   1.532   2.529   1.179  1.6330 -1.5334 -0.9735
   45TMC2    C1  696   1.932   1.114   9.574 -0.2556 -0.4156  0.1475
   45TMC2    C2  697   2.046   1.097   9.505  0.2586  0.1093  0.2001
   45TMC2    C3  698   2.141   1.192   9.510 -0.1637 -0.0563 -0.6103
   45TMC2    C4  699   1.916   1.225   9.655 -0.4562 -0.0560 -0.1575
   45TMC2    C5  700   2.007   1.322   9.644  0.2497 -0.0946  0.0872
   45TMC2    C6  701   2.122   1.306   9.573 -0.0421  0.2742  0.4205
   45TMC2     C  702   1.830   1.014   9.576 -0.6314 -0.7558  0.3844
   45TMC2     O  703   1.868   0.901   9.546  0.0138  0.2041  0.4906
   45TMC2     H  704   2.057   1.013   9.437 -0.0694 -0.6169  1.0525
   45TMC2    H1  705   1.838   1.218   9.730  0.9425 -0.2369  1.2901
   45TMC2    H2  706   2.202   1.379   9.580 -0.0481  0.4431 -1.3306
   45TMC2    C7  707   1.989   1.435   9.744  0.5064 -0.2146 -0.3451
   45TMC2    C8  708   2.245   1.207   9.418 -0.0005  0.1824  0.7723
   45TMC2    O1  709   1.905   1.417   9.831 -0.3054 -0.1221 -0.1524
   45TMC2    O2  710   2.310   1.312   9.410 -0.0847  0.2050 -0.3272
   45TMC2    O5  711   2.276   1.089   9.358 -0.5681 -0.0908 -0.4864
   45TMC2    H5  712   2.236   1.016   9.409  0.7570 -1.6208 -1.6066
   46MPD2     C  713   1.583   0.853   9.611 -0.6938 -0.2073 -0.5216
   46MPD2    C1  714   1.585   0.989   9.628 -0.2144 -0.3110  0.3776
   46MPD2    C2  715   1.472   1.052   9.662  0.2849  0.9596  0.3878
   46MPD2    C3  716   1.353   0.991   9.699  0.0770  0.9202 -0.0120
   46MPD2    C4  717   1.352   0.853   9.698  0.1755 -0.3714  1.1536
   46MPD2    C5  718   1.466   0.787   9.656  0.4252  0.6287 -0.0277
   46MPD2     H  719   1.487   1.157   9.684 -0.3162  1.3841 -1.2157
   46MPD2    H1  720   1.269   0.786   9.717 -0.4226  0.6749  2.2398
   46MPD2    H2  721   1.665   0.789   9.582 -1.1394 -0.8762 -0.3100
   46MPD2    H3  722   1.470   0.679   9.660 -2.6371  0.4857 -1.0996
   46MPD2     N  723   1.237   1.071   9.718  0.3578 -0.0472  0.1469
   46MPD2    H5  724   1.235   1.172   9.704  1.0054  0.1971  1.7789
   46MPD2    N1  725   1.709   1.061   9.621 -0.9305  0.1626 -0.0952
   46MPD2    H7  726   1.700   1.162   9.629  0.0557  0.2824 -0.6024
   47TMC2    C1  727   4.660   1.912   8.969 -0.3598 -1.1801  0.0933
   47TMC2    C2  728   4.733   1.930   8.855  0.0304  0.0801 -0.1499
   47TMC2    C3  729   4.655   1.927   8.736 -0.0018  0.5407  0.2057
   47TMC2    C4  730   4.523   1.897   8.971  0.1157  0.5129 -0.1036
   47TMC2    C5  731   4.461   1.885   8.850  0.5754  0.5360 -1.0646
   47TMC2    C6  732   4.518   1.896   8.730 -0.0591 -0.8796  0.0816
   47TMC2     C  733   0.005   1.897   9.092 -0.3548 -0.1238  0.1029
   47TMC2     O  734   0.124   1.902   9.076  0.6143 -0.0040 -0.2451
   47TMC2     H  735   0.105   1.939   8.859  0.0474 -0.2517  0.1392
   47TMC2    H1  736   4.463   1.894   9.062  1.5970 -1.2457  0.8301
   47TMC2    H2  737   4.463   1.884   8.637 -1.8149  0.8062  0.8996
   47TMC2    C7  738   4.318   1.905   8.853  0.0415  0.4910 -0.3998
   47TMC2    C8  739   4.731   1.966   8.614 -0.3075  0.4281  0.3652
   47TMC2    O1  740   4.252   1.872   8.953 -0.0087  0.5919  0.1068
   47TMC2    O2  741   0.079   2.051   8.615 -0.0265 -0.5164  0.0105
   47TMC2    O5  742   4.661   1.913   8.509  0.2602  0.1021 -0.8857
   47TMC2    H5  743   4.600   1.838   8.527 -0.3160  0.8503  0.2627
   48MPD2     C  744   0.105   1.908   9.363 -0.6313 -0.0486  0.3386
   48MPD2    C1  745   4.724   1.850   9.333  0.8246 -0.8823 -0.3780
   48MPD2    C2  746   4.648   1.787   9.426  0.0691 -0.4060  0.2469
   48MPD2    C3  747   4.702   1.750   9.549 -0.1122 -0.5109 -0.0639
   48MPD2    C4  748   0.090   1.802   9.582 -0.3950 -0.3289 -0.0058
   48MPD2    C5  749   0.161   1.881   9.487  0.0840 -0.2494  0.7097
   48MPD2     H  750   4.555   1.738   9.402 -0.7276  1.0775  0.3214
   48MPD2    H1  751   0.132   1.797   9.682  0.2347  1.2042 -0.2022
   48MPD2    H2  752   0.157   1.984   9.305  1.7236  0.2350  2.8276
   48MPD2    H3  753   0.247   1.938   9.522 -2.1005  2.4262  1.6966
   48MPD2     N  754   4.632   1.653   9.634  0.0132 -0.1061  0.5309
   48MPD2    H5  755   4.539   1.621   9.610 -0.7782  0.5479  2.7355
   48MPD2    N1  756   4.664   1.869   9.209 -0.6009 -0.2714 -0.1499
   48MPD2    H7  757   4.564   1.857   9.196 -0.0966 -1.5104 -2.7770
   49TMC2    C1  758   1.754   3.331  10.260  0.3319 -0.1563 -0.0864
   49TMC2    C2  759   1.736   3.247  10.155  0.8097 -0.0117 -0.2406
   49TMC2    C3  760   1.677   3.125  10.180  0.0373 -0.3077  0.0566
   49TMC2    C4  761   1.726   3.299  10.390  0.6574 -0.7060 -0.2706
   49TMC2    C5  762   1.673   3.174  10.409 -0.8407  0.9300  0.2261
   49TMC2    C6  763   1.633   3.091  10.302 -0.3600 -0.5416  0.6292
   49TMC2     C  764   1.787   3.467  10.225  0.3597  0.1171 -0.4437
   49TMC2     O  765   1.804   3.496  10.107  0.2270 -0.0733  0.1838
   49TMC2     H  766   1.769   3.278  10.056 -0.6886  2.4554  0.0214
   49TMC2    H1  767   1.737   3.354  10.482  1.8102 -1.7757  0.2403
   49TMC2    H2  768   1.576   3.001  10.325  0.9366 -1.4199  0.3841
   49TMC2    C7  769   1.646   3.115  10.544 -0.2224 -0.4775  0.0272
   49TMC2    C8  770   1.654   3.044  10.053  0.3035  0.3344 -0.4779
   49TMC2    O1  771   1.624   2.994  10.541  0.0493  0.3079 -0.1492
   49TMC2    O2  772   1.623   3.094   9.943  0.4656 -0.5144 -0.1677
   49TMC2    O5  773   1.648   2.913  10.077 -0.2186 -0.2304  0.2851
   49TMC2    H5  774   1.684   2.882  10.163  2.0342 -0.6307 -0.7997
   50MPD2     C  775   1.882   3.757  10.252  0.6565 -0.1536 -0.2410
   50MPD2    C1  776   1.812   3.693  10.348 -0.3629  0.5009  0.0147
   50MPD2    C2  777   1.759   3.759  10.458  0.2809 -0.9318 -0.2014
   50MPD2    C3  778   1.790   3.891  10.488  0.4651  0.5334  0.3897
   50MPD2    C4  779   1.871   3.953  10.390  0.0750  0.2775 -0.4743
   50MPD2    C5  780   1.908   3.887  10.274  0.0633  0.6130  0.5996
   50MPD2     H  781   1.687   3.704  10.517  2.9673 -2.6578  1.4786
   50MPD2    H1  782   1.913   4.053  10.401  0.1946  0.1801 -0.0248
   50MPD2    H2  783   1.902   3.699  10.163  1.3104  0.3755 -0.4398
   50MPD2    H3  784   1.969   3.951  10.211 -0.5559 -0.5944 -1.2299
   50MPD2     N  785   1.764   3.949  10.616  0.3626 -0.3082  0.3493
   50MPD2    H5  786   1.804   4.041  10.632 -0.3746  0.4005 -1.7673
   50MPD2    N1  787   1.780   3.547  10.334  0.0309 -0.7000 -0.5503
   50MPD2    H7  788   1.745   3.496  10.415  1.6902 -0.8787  0.0381
   51TMC2    C1  789   3.977   2.027   1.670  0.3256 -0.0232 -0.3307
   51TMC2    C2  790   3.951   2.009   1.804 -0.2873 -0.0986 -0.0707
   51TMC2    C3  791   3.893   2.111   1.869  0.4453 -0.2748 -1.5130
   51TMC2    C4  792   3.963   2.146   1.605 -0.7512 -0.8755  0.4696
   51TMC2    C5  793   3.917   2.254   1.683  0.1322  0.1748 -0.5803
   51TMC2    C6  794   3.879   2.237   1.813 -0.0673 -0.9453  0.1127
   51TMC2     C  795   4.013   1.906   1.589 -0.1472  0.3587 -0.6709
   51TMC2     O  796   4.009   1.910   1.467 -0.1416  0.0881 -0.2897
   51TMC2     H  797   3.937   1.915   1.855 -1.6759  1.1760  1.9336
   51TMC2    H1  798   4.001   2.154   1.504 -1.8621 -0.5905  0.0750
   51TMC2    H2  799   3.841   2.320   1.872  2.4081 -0.2640  0.7204
   51TMC2    C7  800   3.900   2.394   1.638 -0.3069 -0.2432  0.0821
   51TMC2    C8  801   3.825   2.079   1.995 -0.5268  0.3808  0.6804
   51TMC2    O1  802   3.898   2.478   1.726  0.4445 -0.3174 -0.0805
   51TMC2    O2  803   3.885   2.027   2.086  0.1706 -0.2162  0.4758
   51TMC2    O5  804   3.698   2.107   2.003  0.1595  0.0653  0.3155
   51TMC2    H5  805   3.650   2.132   1.921  0.7737  1.3933  0.3470
   52MPD2     C  806   4.125   1.404   1.569 -0.1008  0.6420 -1.0684
   52MPD2    C1  807   4.050   1.489   1.488  0.8988 -0.3313 -0.0923
   52MPD2    C2  808   4.025   1.619   1.523 -0.5034  0.2725  0.1470
   52MPD2    C3  809   4.087   1.677   1.632 -1.0960  0.0446  0.6992
   52MPD2    C4  810   4.175   1.600   1.699  1.3137  0.3103 -0.2672
   52MPD2    C5  811   4.195   1.466   1.673 -0.3352 -0.2449 -0.9785
   52MPD2     H  812   3.959   1.677   1.459 -0.0057  0.9338  0.2474
   52MPD2    H1  813   4.237   1.639   1.779  1.8482 -0.8682 -0.1011
   52MPD2    H2  814   4.133   1.297   1.561 -2.1532  0.6562 -3.4961
   52MPD2    H3  815   4.266   1.412   1.735 -0.8385 -0.6302 -0.7362
   52MPD2     N  816   4.060   1.807   1.672 -0.3168  0.3243 -0.0954
   52MPD2    H5  817   4.095   1.830   1.764  0.5491 -0.1416 -0.3065
   52MPD2    N1  818   3.995   1.437   1.367 -0.2309 -0.6159 -0.3430
   52MPD2    H7  819   3.949   1.500   1.303 -0.9901 -0.7151  0.1063
   53TMC2    C1  820   2.248   1.535  11.727  0.0020 -0.7284  0.1550
   53TMC2    C2  821   2.332   1.555  11.624 -0.8544 -0.5858 -0.2609
   53TMC2    C3  822   2.448   1.623  11.650  0.0436 -0.7631  0.3938
   53TMC2    C4  823   2.270   1.592  11.851 -0.2539  0.0457  0.1318
   53TMC2    C5  824   2.383   1.668  11.870 -0.2673  0.0174 -0.9082
   53TMC2    C6  825   2.481   1.674  11.775 -0.2981 -0.7568  0.5119
   53TMC2     C  826   2.152   1.426  11.714 -0.0334 -0.4010 -0.4351
   53TMC2     O  827   2.077   1.416  11.620 -0.1974  0.2137  0.0651
   53TMC2     H  828   2.313   1.504  11.530  1.1872  1.5507 -1.8463
   53TMC2    H1  829   2.192   1.584  11.926  0.1421  0.5719  0.5910
   53TMC2    H2  830   2.571   1.729  11.799 -0.1615 -0.2135 -1.1986
   53TMC2    C7  831   2.417   1.685  12.013  0.0615 -0.3770 -0.6711
   53TMC2    C8  832   2.553   1.600  11.560  0.0262 -0.2817  0.1826
   53TMC2    O1  833   2.352   1.610  12.085 -0.3170 -0.8193 -0.8154
   53TMC2    O2  834   2.532   1.570  11.442 -0.0495 -0.4755  0.2795
   53TMC2    O5  835   2.662   1.581  11.624 -0.3019 -0.3998 -0.7720
   53TMC2    H5  836   2.643   1.571  11.720  0.9557 -3.8365 -0.8703
   54MPD2     C  837   1.994   1.182  11.808 -0.3436 -0.4409 -0.8875
   54MPD2    C1  838   2.095   1.249  11.887  0.4096 -0.0698 -0.1213
   54MPD2    C2  839   2.138   1.198  12.010  0.6926 -0.2815 -0.6173
   54MPD2    C3  840   2.082   1.083  12.061  0.4460  0.1704  0.6375
   54MPD2    C4  841   1.974   1.014  11.993 -0.6232  0.6039 -1.0569
   54MPD2    C5  842   1.940   1.063  11.861  0.1046  1.0224  0.2258
   54MPD2     H  843   2.212   1.251  12.069  1.3045 -1.6399 -0.1480
   54MPD2    H1  844   1.934   0.920  12.029  0.5436  1.1489  1.5950
   54MPD2    H2  845   1.947   1.221  11.718 -1.3941 -1.5504 -0.8248
   54MPD2    H3  846   1.865   1.011  11.802  0.6646  0.0514  0.3634
   54MPD2     N  847   2.127   1.034  12.185  0.2594  0.1574  0.7466
   54MPD2    H5  848   2.204   1.083  12.231  0.6529  1.5821 -1.4008
   54MPD2    N1  849   2.162   1.358  11.836 -0.0621 -0.0586  0.0233
   54MPD2    H7  850   2.236   1.389  11.898  0.1022 -0.2291 -0.0863
   55TMC2    C1  851   3.863   4.169  17.449  0.4649 -0.4136 -0.1685
   55TMC2    C2  852   3.918   4.182  17.321 -0.1471 -0.4703  0.0271
   55TMC2    C3  853   3.958   4.071  17.259 -0.3249 -0.3955  0.4044
   55TMC2    C4  854   3.866   4.048  17.510 -0.2266 -0.6791  0.7104
   55TMC2    C5  855   3.932   3.943  17.445 -0.1137 -0.1740 -0.0899
   55TMC2    C6  856   3.977   3.956  17.318 -0.9010 -0.0478  0.2149
   55TMC2     C  857   3.781   4.271  17.504 -0.0364  0.6789  0.0416
   55TMC2     O  858   3.759   4.261  17.620 -0.2027 -0.2335 -0.0821
   55TMC2     H  859   3.935   4.279  17.274 -1.9768 -0.0904  0.1350
   55TMC2    H1  860   3.805   4.031  17.598 -0.3312 -3.5121  0.0899
   55TMC2    H2  861   3.992   3.861  17.267  0.4846 -0.5639  1.5594
   55TMC2    C7  862   3.948   3.815  17.508 -0.1017 -0.4181  0.1598
   55TMC2    C8  863   4.027   4.093  17.130  0.1399  0.4271  0.1074
   55TMC2    O1  864   3.974   3.714  17.442 -0.3941 -0.5966 -0.0063
   55TMC2    O2  865   3.990   4.184  17.055 -0.6815 -0.1773  0.6016
   55TMC2    O5  866   4.157   4.057  17.156 -0.5447  0.1620 -0.2649
   55TMC2    H5  867   4.160   3.973  17.206 -0.4889 -0.2532 -0.9704
   56MPD2     C  868   3.584   4.534  17.346  0.5732  0.1245 -0.0146
   56MPD2    C1  869   3.627   4.456  17.448 -0.2608  0.1072 -0.1207
   56MPD2    C2  870   3.568   4.470  17.571 -0.4200 -0.2339  0.2045
   56MPD2    C3  871   3.456   4.552  17.583  0.7360  0.0029 -0.0822
   56MPD2    C4  872   3.404   4.628  17.480 -0.1437  0.0989 -0.6562
   56MPD2    C5  873   3.473   4.621  17.363  0.0659  0.3815 -0.1195
   56MPD2     H  874   3.586   4.397  17.649  1.9046  0.3292  0.1896
   56MPD2    H1  875   3.322   4.699  17.487 -1.2468 -1.1634 -0.9742
   56MPD2    H2  876   3.636   4.547  17.252 -0.9697  0.9253 -0.7725
   56MPD2    H3  877   3.446   4.676  17.274 -0.0118  3.2352  1.6599
   56MPD2     N  878   3.382   4.551  17.706 -0.2096 -0.4729  0.4542
   56MPD2    H5  879   3.429   4.502   0.037  1.4498  0.0531 -0.2437
   56MPD2    N1  880   3.730   4.368  17.417  0.4861  0.3071  0.0042
   56MPD2    H7  881   3.776   4.370  17.327 -0.0215 -2.8901 -0.3146
   57TMC2    C1  882   3.260   4.019  13.567  0.3240  0.1906  0.3746
   57TMC2    C2  883   3.347   3.910  13.588 -0.5273 -0.1270  0.4279
   57TMC2    C3  884   3.464   3.906  13.531 -0.2555 -0.9139  0.4797
   57TMC2    C4  885   3.302   4.129  13.491 -0.0949  0.4601  0.5455
   57TMC2    C5  886   3.429   4.126  13.449  0.7859  0.4766 -0.2165
   57TMC2    C6  887   3.509   4.013  13.459 -0.3097 -0.1520  0.0418
   57TMC2     C  888   3.156   4.044  13.659  0.1351 -0.4760  0.3928
   57TMC2     O  889   3.126   4.163  13.674 -0.4070  0.1709  0.2195
   57TMC2     H  890   3.320   3.824  13.649 -1.1161 -0.6164 -0.5210
   57TMC2    H1  891   3.236   4.215  13.481 -0.1088  0.3749 -0.1038
   57TMC2    H2  892   3.615   4.025  13.440 -0.2135  0.5161  1.0429
   57TMC2    C7  893   3.483   4.241  13.386  0.4991  0.3919 -0.3490
   57TMC2    C8  894   3.566   3.844  13.619 -0.3557 -0.2870  0.1905
   57TMC2    O1  895   3.434   4.351  13.416 -0.4763 -0.1378 -0.2640
   57TMC2    O2  896   3.651   3.906  13.680 -0.2051  0.5331  0.9336
   57TMC2    O5  897   3.531   3.709  13.635 -0.2704 -0.2094  0.3749
   57TMC2    H5  898   3.467   3.680  13.566  0.4560 -1.8672  0.4085
   58MPD2     C  899   2.740   3.900  13.932  0.1755  0.3942 -0.2793
   58MPD2    C1  900   2.802   4.023  13.903  0.1717 -0.1948 -0.3404
   58MPD2    C2  901   2.915   4.040  13.832  0.2978  0.0274 -0.6616
   58MPD2    C3  902   2.978   3.925  13.778 -0.0471  0.4246  0.0070
   58MPD2    C4  903   2.920   3.806  13.810  0.5624 -0.4711  0.1667
   58MPD2    C5  904   2.800   3.792  13.873  0.1712  0.5006  0.3779
   58MPD2     H  905   2.964   4.136  13.821 -0.4667  0.5299  0.4202
   58MPD2    H1  906   2.969   3.715  13.776  0.3154 -0.2368 -0.8277
   58MPD2    H2  907   2.647   3.880  13.985  1.7905 -1.7686  1.7367
   58MPD2    H3  908   2.762   3.694  13.897 -3.3971  2.0860  1.2809
   58MPD2     N  909   3.094   3.930  13.696  0.0321 -0.3512 -1.2843
   58MPD2    H5  910   3.125   3.844  13.651  0.4360 -1.0008  0.2401
   58MPD2    N1  911   2.754   4.142  13.964  0.4004 -0.1420 -0.0232
   58MPD2    H7  912   2.806   4.228  13.950  1.0787 -0.9325 -2.4557
   59TMC2    C1  913   0.513   4.469  12.733 -0.9040  0.5567 -0.5690
   59TMC2    C2  914   0.379   4.482  12.691  0.4705 -0.1812 -0.2001
   59TMC2    C3  915   0.340   4.590  12.619  0.5850  0.2474  0.0863
   59TMC2    C4  916   0.609   4.556  12.689  0.0636  0.2621 -0.1727
   59TMC2    C5  917   0.565   4.657  12.615  0.6576 -0.0385  0.1793
   59TMC2    C6  918   0.431   4.687  12.586 -1.1290 -0.4513  0.7118
   59TMC2     C  919   0.523   4.424  12.872  0.5957  0.4325 -0.1972
   59TMC2     O  920   0.430   4.361  12.914  0.4917  0.0843 -0.3595
   59TMC2     H  921   0.316   4.407  12.737 -1.6641  1.9685  0.3653
   59TMC2    H1  922   0.714   4.534  12.708  0.0072 -0.7791 -1.0237
   59TMC2    H2  923   0.406   0.040  12.529 -0.0732 -0.9594 -0.5679
   59TMC2    C7  924   0.659   4.723  12.535 -0.3838  0.4805 -0.0480
   59TMC2    C8  925   0.205   4.638  12.645 -0.4904  0.1750 -0.3359
   59TMC2    O1  926   0.731   4.647  12.473 -0.4752  0.4695  0.0873
   59TMC2    O2  927   0.181   0.020  12.635  0.0528  0.1720  0.2384
   59TMC2    O5  928   0.121   4.543  12.604 -0.4165 -0.0487  0.0913
   59TMC2    H5  929   0.173   4.462  12.585 -0.3076  0.3482 -1.2784
   60MPD2     C  930   0.604   4.370  13.146 -0.2799  0.0815  0.2283
   60MPD2    C1  931   0.678   4.450  13.060  0.3134  0.1660  0.7582
   60MPD2    C2  932   0.778   4.522  13.117 -0.1314 -0.0183  0.6322
   60MPD2    C3  933   0.808   4.515  13.253 -0.2630  0.4272  0.3732
   60MPD2    C4  934   0.747   4.422  13.327  0.9960 -0.2738 -0.1270
   60MPD2    C5  935   0.641   4.350  13.272  0.6467  0.0117  0.2005
   60MPD2     H  936   0.825   4.588  13.045  2.7318 -2.6415  0.0724
   60MPD2    H1  937   0.760   4.418  13.435 -1.1079 -3.7776  0.0268
   60MPD2    H2  938   0.527   4.301  13.113 -1.9459  2.0141  0.0228
   60MPD2    H3  939   0.582   4.274  13.322  1.2112 -0.4152  0.2147
   60MPD2     N  940   0.900   4.599  13.316 -0.0437  0.2387 -0.2282
   60MPD2    H5  941   0.909   4.591  13.416 -0.9448 -0.8362 -0.2264
   60MPD2    N1  942   0.628   4.479  12.932 -0.2920 -0.5462  0.1705
   60MPD2    H7  943   0.674   4.552  12.878 -1.3547 -0.4346 -0.5952
   61TMC2    C1  944   4.664   1.009  15.745 -0.2888 -0.7125 -0.6881
   61TMC2    C2  945   4.719   1.015  15.874  0.4417 -0.6120  0.6423
   61TMC2    C3  946   4.701   1.133  15.946  0.2590 -0.0880  0.6481
   61TMC2    C4  947   4.615   1.116  15.680  0.3000  0.8496 -0.0800
   61TMC2    C5  948   4.611   1.236  15.747 -0.1993  0.5001 -0.0796
   61TMC2    C6  949   4.654   1.247  15.878 -0.0655 -0.1470  0.1061
   61TMC2     C  950   0.003   0.913  15.672 -0.0669  0.0018 -0.2034
   61TMC2     O  951   0.075   0.832  15.735  0.0604  0.4427  0.0101
   61TMC2     H  952   0.036   0.938  15.928  0.1976 -0.1612  1.5315
   61TMC2    H1  953   4.569   1.106  15.582  0.0485  1.9495 -0.0809
   61TMC2    H2  954   4.657   1.344  15.927  2.1115  0.1122 -0.5707
   61TMC2    C7  955   4.570   1.353  15.673 -0.1681  0.1528  0.6557
   61TMC2    C8  956   0.039   1.138  16.074  0.0996  0.7079 -0.3132
   61TMC2    O1  957   4.609   1.458  15.718  0.1461 -0.1630 -0.1153
   61TMC2    O2  958   0.114   1.053  16.119 -0.0980 -0.1561  0.3963
   61TMC2    O5  959   4.696   1.220  16.160 -0.0997 -0.2948 -0.3953
   61TMC2    H5  960   4.645   1.288  16.112 -1.0163 -0.2538  0.6439
   62MPD2     C  961   0.185   0.804  15.461  0.5598  0.3145  0.4897
   62MPD2    C1  962   0.085   0.898  15.439 -0.2410 -0.0408 -0.5396
   62MPD2    C2  963   0.068   0.951  15.312  0.3856  0.3561 -0.4717
   62MPD2    C3  964   0.137   0.910  15.206 -0.3184  0.9232 -0.8396
   62MPD2    C4  965   0.243   0.826  15.224 -0.0266  0.3154 -0.3124
   62MPD2    C5  966   0.265   0.785  15.354  0.3224  0.3683  0.6588
   62MPD2     H  967   4.724   1.023  15.300  1.8780  2.3689  1.6461
   62MPD2    H1  968   0.313   0.793  15.149 -1.6621 -1.5243 -1.0213
   62MPD2    H2  969   0.208   0.754  15.554 -0.1698  0.1155  0.5636
   62MPD2    H3  970   0.350   0.722  15.379 -1.0016 -2.0376 -0.8181
   62MPD2     N  971   0.119   0.959  15.072  0.7331 -0.3800 -0.2969
   62MPD2    H5  972   0.196   0.935  15.010  1.0285 -0.3665  0.0637
   62MPD2    N1  973   4.734   0.944  15.536 -0.3306  0.0673  0.0904
   62MPD2    H7  974   4.654   1.001  15.511 -0.6611 -0.6007 -0.3568
   63TMC2    C1  975   4.084   1.964  10.159 -0.1787 -0.0992 -0.1243
   63TMC2    C2  976   4.169   1.972  10.263  0.7146 -0.6992 -0.0902
   63TMC2    C3  977   4.296   2.021  10.240 -0.0603 -0.3885  0.1821
   63TMC2    C4  978   4.118   2.008  10.036  0.3807  0.1685 -0.5321
   63TMC2    C5  979   4.245   2.055  10.017  0.2897  0.5402  0.4783
   63TMC2    C6  980   4.341   2.066  10.117  0.7894  0.3008 -0.3046
   63TMC2     C  981   3.974   1.870  10.150 -0.1318 -0.2196 -0.4262
   63TMC2     O  982   3.899   1.877  10.051 -0.0265 -0.4825 -0.1363
   63TMC2     H  983   4.126   1.970  10.363  0.1827  0.8364 -0.2794
   63TMC2    H1  984   4.048   2.006   9.953 -0.5166 -0.0596  0.2282
   63TMC2    H2  985   4.436   2.118  10.108  0.5880  0.2139 -3.0062
   63TMC2    C7  986   4.266   2.127   9.903 -0.1054 -0.5965  0.5120
   63TMC2    C8  987   4.371   2.065  10.357  0.2770  0.8624  0.0742
   63TMC2    O1  988   4.163   2.179   9.852  0.6824 -0.7115  0.1369
   63TMC2    O2  989   4.455   2.156  10.360 -0.1013  0.1282 -0.1930
   63TMC2    O5  990   4.331   1.995  10.460 -0.0344 -0.0104  0.0840
   63TMC2    H5  991   4.267   1.925  10.433  1.9156 -2.1970  1.1946
   64MPD2     C  992   3.775   1.425  10.266 -0.0908 -0.0648  0.1094
   64MPD2    C1  993   3.837   1.469  10.378  0.0140  0.1325 -0.4878
   64MPD2    C2  994   3.906   1.586  10.366  1.1905  0.3786  0.6729
   64MPD2    C3  995   3.901   1.665  10.255 -0.6801 -0.6048 -0.3868
   64MPD2    C4  996   3.851   1.612  10.142  0.0536 -0.3418 -0.4341
   64MPD2    C5  997   3.790   1.493  10.144 -0.3602 -0.3555 -0.0834
   64MPD2     H  998   3.965   1.617  10.452  1.4977 -1.4083  1.1145
   64MPD2    H1  999   3.859   1.662  10.046  0.5241 -1.0417 -0.7608
   64MPD2    H2 1000   3.711   1.337  10.266 -0.2447  0.0492  1.9946
   64MPD2    H3 1001   3.743   1.452  10.056 -0.7153 -2.0804  0.8967
   64MPD2     N 1002   3.973   1.787  10.257 -0.1091 -0.0350  0.4136
   64MPD2    H5 1003   4.018   1.806  10.346  0.8034 -1.9517  0.3640
   64MPD2    N1 1004   3.827   1.398  10.499 -0.3434  0.3106  0.2525
   64MPD2    H7 1005   3.865   1.443  10.582 -0.1725 -0.8384  0.7899
   65TMC2    C1 1006   0.622   0.940  15.518  0.0799 -0.9746  0.0654
   65TMC2    C2 1007   0.596   0.932  15.384  0.3780 -0.7764  0.3380
   65TMC2    C3 1008   0.622   1.036  15.300 -0.0028 -0.6530  0.0644
   65TMC2    C4 1009   0.664   1.060  15.572  0.2970 -0.2242 -0.2183
   65TMC2    C5 1010   0.669   1.166  15.489  0.3774  0.0855  0.0492
   65TMC2    C6 1011   0.648   1.156  15.353  0.3727 -0.0503  0.2743
   65TMC2     C 1012   0.660   0.816  15.582  0.1691  0.1513  0.6453
   65TMC2     O 1013   0.660   0.715  15.513  0.8026  0.0380  0.2126
   65TMC2     H 1014   0.575   0.833  15.345 -0.8011 -0.1083 -0.7143
   65TMC2    H1 1015   0.706   1.079  15.669 -3.7134 -0.8227  1.6558
   65TMC2    H2 1016   0.659   1.239  15.283 -0.1518 -1.8041 -1.8889
   65TMC2    C7 1017   0.668   1.300  15.538  0.4635 -0.5279 -0.3730
   65TMC2    C8 1018   0.549   1.057  15.181  0.0925  0.4998 -0.6403
   65TMC2    O1 1019   0.707   1.393  15.468  0.1897  0.2084  0.1177
   65TMC2    O2 1020   0.475   1.149  15.164 -0.3034 -0.7314  0.1648
   65TMC2    O5 1021   0.543   0.940  15.119  0.1414  0.1107 -0.4167
   65TMC2    H5 1022   0.608   0.871  15.145 -0.6968 -0.6606 -0.3442
   66MPD2     C 1023   0.803   0.789  15.916  0.3118 -0.1697  0.3791
   66MPD2    C1 1024   0.780   0.745  15.790  0.0557 -0.1556  0.3736
   66MPD2    C2 1025   0.782   0.608  15.769 -0.3306  0.1506 -0.0629
   66MPD2    C3 1026   0.830   0.522  15.869  0.3567 -0.3896 -0.0571
   66MPD2    C4 1027   0.854   0.573  15.992 -0.4031  0.4122  0.3938
   66MPD2    C5 1028   0.839   0.707  16.015  0.1290 -0.8711 -0.7283
   66MPD2     H 1029   0.754   0.573  15.670 -1.0862 -0.7144  0.4485
   66MPD2    H1 1030   0.901   0.508  16.066 -3.0923 -1.5197  0.4186
   66MPD2    H2 1031   0.804   0.895  15.941  0.3251 -0.2905  0.8880
   66MPD2    H3 1032   0.863   0.747  16.113  2.2060  1.9796 -2.3984
   66MPD2     N 1033   0.816   0.378  15.850  0.5137  0.2961 -0.1822
   66MPD2    H5 1034   0.808   0.316  15.930 -0.0860  0.4471 -0.1223
   66MPD2    N1 1035   0.719   0.841  15.704 -0.4556  0.8404  0.0093
   66MPD2    H7 1036   0.709   0.932  15.748  1.0652  1.0011  0.0294
   67TMC2    C1 1037   0.429   0.112  14.831  0.4640 -0.4074  0.2153
   67TMC2    C2 1038   0.379   0.232  14.866  0.8835 -0.2004 -0.6569
   67TMC2    C3 1039   0.448   0.299  14.965  0.2181 -0.2027 -0.3670
   67TMC2    C4 1040   0.539   0.055  14.894 -0.2339  0.0040 -0.5064
   67TMC2    C5 1041   0.588   0.116  15.009  0.1975  0.5556 -0.1462
   67TMC2    C6 1042   0.547   0.242  15.039 -0.5819 -0.2840  0.1200
   67TMC2     C 1043   0.370   0.049  14.709 -0.5497 -0.3839  0.1956
   67TMC2     O 1044   0.371   4.664  14.698 -0.4393  0.1568 -0.2579
   67TMC2     H 1045   0.308   0.289  14.806  0.7066  0.3047  0.0301
   67TMC2    H1 1046   0.582   4.698  14.858  0.5902 -0.1351  0.8637
   67TMC2    H2 1047   0.588   0.306  15.116  0.3962 -0.0187 -0.6229
   67TMC2    C7 1048   0.727   0.095  15.037  0.7684 -0.3445  0.1690
   67TMC2    C8 1049   0.430   0.447  14.971 -0.3311 -0.2280 -0.4232
   67TMC2    O1 1050   0.788   0.036  14.949 -0.2687  0.4040 -0.0853
   67TMC2    O2 1051   0.530   0.515  14.989 -0.4408  0.4673  0.3325
   67TMC2    O5 1052   0.306   0.468  15.017 -0.2477 -0.2311 -0.1450
   67TMC2    H5 1053   0.248   0.389  15.010 -0.4962  0.2901 -3.9524
   68MPD2     C 1054   0.241   4.708  14.442  0.2919 -0.1130 -0.5098
   68MPD2    C1 1055   0.257   0.096  14.491  0.0010 -0.0722 -0.0009
   68MPD2    C2 1056   0.206   0.199  14.424  0.1495 -0.1921  0.0913
   68MPD2    C3 1057   0.138   0.188  14.303 -0.1599  0.7519 -0.4502
   68MPD2    C4 1058   0.121   0.061  14.250 -0.0206  0.3797 -0.5424
   68MPD2    C5 1059   0.170   4.696  14.318  0.2049  0.0676 -0.0490
   68MPD2     H 1060   0.204   0.299  14.466 -1.9194 -0.3373  0.3450
   68MPD2    H1 1061   0.074   0.051  14.152  0.0482 -0.7744 -0.4592
   68MPD2    H2 1062   0.281   4.619  14.488 -1.9278 -0.8412  0.0023
   68MPD2    H3 1063   0.160   4.597  14.274 -0.4863  0.2260 -0.2533
   68MPD2     N 1064   0.079   0.296  14.224 -0.4424  0.6259 -0.2796
   68MPD2    H5 1065   0.014   0.269  14.151  0.1644  0.4645 -0.7596
   68MPD2    N1 1066   0.323   0.131  14.613 -0.3193 -0.0714 -0.4386
   68MPD2    H7 1067   0.307   0.228  14.639 -1.3220  0.0499 -1.5118
   69TMC2    C1 1068   2.727   1.113  12.472 -0.1233  0.2239  0.0431
   69TMC2    C2 1069   2.616   1.180  12.436 -0.2760 -0.0638  0.7734
   69TMC2    C3 1070   2.605   1.204  12.305 -0.1036  0.0574 -0.1727
   69TMC2    C4 1071   2.825   1.086  12.380  0.1868  0.4197  0.2302
   69TMC2    C5 1072   2.817   1.122  12.247 -0.8814 -0.4391  0.5110
   69TMC2    C6 1073   2.706   1.189  12.210  0.3722 -0.7302 -0.0129
   69TMC2     C 1074   2.745   1.079  12.613 -0.5969  0.8339  0.3553
   69TMC2     O 1075   2.634   1.073  12.664  1.7327  0.3574  0.4153
   69TMC2     H 1076   2.532   1.201  12.501 -1.5027 -1.9528 -0.2144
   69TMC2    H1 1077   2.911   1.031  12.415 -0.8109 -0.8980  0.6218
   69TMC2    H2 1078   2.684   1.226  12.111  2.1744  0.3901 -0.0065
   69TMC2    C7 1079   2.943   1.112  12.165  0.0906  0.3628 -0.1226
   69TMC2    C8 1080   2.472   1.247  12.259 -0.4170  0.4669  0.5136
   69TMC2    O1 1081   3.045   1.086  12.230  0.7233  0.2261 -0.0722
   69TMC2    O2 1082   2.381   1.198  12.321 -0.0410  0.1133  0.0404
   69TMC2    O5 1083   2.478   1.376  12.229  0.3187 -0.0037  0.3270
   69TMC2    H5 1084   2.568   1.404  12.201 -0.4725  1.1292 -1.1011
   70MPD2     C 1085   3.012   0.910  12.791  0.5309 -0.3822 -0.0429
   70MPD2    C1 1086   2.892   0.977  12.780  0.2985  0.1024 -0.1755
   70MPD2    C2 1087   2.796   0.975  12.882 -0.0984 -0.3443  0.2632
   70MPD2    C3 1088   2.829   0.908  12.999 -0.2955  0.0595 -0.0331
   70MPD2    C4 1089   2.960   0.870  13.017 -0.2524  0.4550  1.3782
   70MPD2    C5 1090   3.050   0.861  12.915  0.2775  0.5506  0.2780
   70MPD2     H 1091   2.701   1.026  12.875 -0.4694 -1.0981 -0.0925
   70MPD2    H1 1092   2.991   0.829  13.112  0.1157  1.3229  1.6385
   70MPD2    H2 1093   3.080   0.888  12.710 -1.6783 -2.0642 -1.4716
   70MPD2    H3 1094   3.142   0.806  12.930  0.4426  0.8651  0.4233
   70MPD2     N 1095   2.742   0.895  13.115 -0.0433  0.6983  0.3512
   70MPD2    H5 1096   2.778   0.853  13.201 -0.2028  0.3992  0.2718
   70MPD2    N1 1097   2.870   1.038  12.655  0.1617  0.8245  0.0356
   70MPD2    H7 1098   2.948   1.039  12.590  0.2022 -0.1752  0.0622
   71TMC2    C1 1099   0.625   1.052   1.670 -0.2229  0.2459 -0.4810
   71TMC2    C2 1100   0.734   1.017   1.740 -0.0814 -0.3997  0.0863
   71TMC2    C3 1101   0.758   1.082   1.858  0.5310  0.5073 -0.2860
   71TMC2    C4 1102   0.551   1.166   1.705 -0.0509 -0.5309  0.6228
   71TMC2    C5 1103   0.588   1.238   1.813 -0.2550  0.6736 -0.3575
   71TMC2    C6 1104   0.695   1.199   1.895 -0.0301 -0.4467 -0.2164
   71TMC2     C 1105   0.602   1.002   1.537 -0.8843  0.9594  0.3399
   71TMC2     O 1106   0.509   1.054   1.471 -0.7253  0.0793 -0.5738
   71TMC2     H 1107   0.799   0.938   1.705  0.1380 -0.5180  0.7578
   71TMC2    H1 1108   0.474   1.199   1.637  0.9893  1.3097  0.3365
   71TMC2    H2 1109   0.727   1.260   1.978 -2.0266  0.5497 -0.1776
   71TMC2    C7 1110   0.506   1.344   1.871  0.6535  0.6265 -0.4654
   71TMC2    C8 1111   0.891   1.052   1.902  0.1783 -0.3829 -0.3793
   71TMC2    O1 1112   0.560   1.412   1.961  0.3303 -0.4256 -0.3541
   71TMC2    O2 1113   0.967   0.971   1.849 -0.4412  0.3472  0.5729
   71TMC2    O5 1114   0.918   1.131   2.009  0.1219 -0.0215  0.0118
   71TMC2    H5 1115   0.833   1.161   2.048  0.9705  0.7719  1.2370
   72MPD2     C 1116   0.612   0.705   1.124 -0.4156 -0.3128 -0.2767
   72MPD2    C1 1117   0.604   0.844   1.136 -0.1363 -0.8057 -0.9682
   72MPD2    C2 1118   0.624   0.895   1.267  0.2560 -0.1198  0.0189
   72MPD2    C3 1119   0.649   0.815   1.381  0.1274 -0.5816  0.5035
   72MPD2    C4 1120   0.648   0.685   1.367 -0.1933  0.6572 -0.6072
   72MPD2    C5 1121   0.632   0.625   1.245  0.7786 -0.0496 -0.5380
   72MPD2     H 1122   0.621   1.002   1.278 -0.7252  0.1966 -3.2304
   72MPD2    H1 1123   0.644   0.626   1.458  1.3219  2.1097  0.4042
   72MPD2    H2 1124   0.606   0.655   1.028 -0.5515  0.8281 -0.8667
   72MPD2    H3 1125   0.629   0.517   1.246  0.3820 -0.0424 -1.3803
   72MPD2     N 1126   0.661   0.881   1.508  0.5709 -0.1604  0.0498
   72MPD2    H5 1127   0.702   0.835   1.589 -0.4965  1.9273  1.7705
   72MPD2    N1 1128   0.579   0.920   1.018 -0.1467 -0.1171 -0.0897
   72MPD2    H7 1129   0.532   0.883   0.936  0.8922  0.5596 -0.9880
   73TMC2    C1 1130   0.239   3.024  13.998  0.7497  0.7591 -0.3066
   73TMC2    C2 1131   0.167   2.947  13.911  0.0533 -0.4832 -0.5488
   73TMC2    C3 1132   0.235   2.864  13.827  0.6462  0.7613  0.0510
   73TMC2    C4 1133   0.379   3.018  14.001 -0.1834 -0.3425 -0.0392
   73TMC2    C5 1134   0.451   2.943  13.906 -0.6300 -0.4696 -0.0175
   73TMC2    C6 1135   0.374   2.869  13.815 -0.5429 -0.2260 -0.2047
   73TMC2     C 1136   0.218   3.168  13.990  0.7515  0.3143 -0.1444
   73TMC2     O 1137   0.311   3.246  13.988  0.2013 -0.1261 -0.0325
   73TMC2     H 1138   0.059   2.950  13.907 -0.0362  0.4979  2.3435
   73TMC2    H1 1139   0.418   3.069  14.088 -2.8692 -0.1004  1.0303
   73TMC2    H2 1140   0.423   2.815  13.735 -2.1424  2.7044 -3.1357
   73TMC2    C7 1141   0.559   3.012  13.838 -0.1765  0.3785 -0.2815
   73TMC2    C8 1142   0.146   2.781  13.746  0.8765  0.3843  0.7557
   73TMC2    O1 1143   0.621   2.960  13.743 -0.4315 -0.2787  0.2397
   73TMC2    O2 1144   0.145   2.657  13.759 -0.0188 -0.1247  0.0023
   73TMC2    O5 1145   0.145   2.842  13.626  0.2581 -0.1255  0.3123
   73TMC2    H5 1146   0.162   2.939  13.628 -1.5127  0.1854  0.0775
   74MPD2     C 1147   4.649   3.536  13.804 -0.0562  0.0374 -0.0648
   74MPD2    C1 1148   0.050   3.527  13.815  0.3647  0.0426  0.9167
   74MPD2    C2 1149   0.110   3.420  13.876  0.6482 -0.6570 -0.0668
   74MPD2    C3 1150   0.034   3.312  13.924  0.5413 -0.5995 -0.0824
   74MPD2    C4 1151   4.631   3.325  13.911  0.2984  0.0169  0.0068
   74MPD2    C5 1152   4.572   3.431  13.845  0.3663 -0.3526  0.4157
   74MPD2     H 1153   0.217   3.424  13.894  0.4979  1.8187  0.2750
   74MPD2    H1 1154   4.568   3.241  13.939  0.2427 -1.2351 -3.9254
   74MPD2    H2 1155   4.592   3.616  13.758  0.7098  0.7312  0.1834
   74MPD2    H3 1156   4.469   3.450  13.816  1.1140  3.3645  0.1223
   74MPD2     N 1157   0.089   3.190  13.966  0.0508 -0.7613 -0.6433
   74MPD2    H5 1158   0.029   3.111  13.987 -1.2861  0.2228 -0.7340
   74MPD2    N1 1159   0.119   3.640  13.775  0.6221  0.1319  0.1921
   74MPD2    H7 1160   0.062   3.713  13.732 -0.9512 -2.2890 -1.8515
   75TMC2    C1 1161   4.735   0.520  14.162  0.3116  0.3996 -0.8968
   75TMC2    C2 1162   0.007   0.646  14.210 -0.0265 -0.3966 -0.0403
   75TMC2    C3 1163   4.701   0.752  14.131 -0.4790  0.0808  0.5361
   75TMC2    C4 1164   4.685   0.487  14.038 -0.1405  0.0840  0.5987
   75TMC2    C5 1165   4.632   0.590  13.969 -0.0589  0.6282 -0.0413
   75TMC2    C6 1166   4.647   0.726  14.007  0.6084 -0.0467 -0.0128
   75TMC2     C 1167   0.077   0.429  14.255 -0.4592  0.0389 -0.2327
   75TMC2     O 1168   0.155   0.475  14.334 -0.9249  0.4564  0.0451
   75TMC2     H 1169   0.041   0.676  14.308 -0.7523  0.1180  0.0528
   75TMC2    H1 1170   4.684   0.385  14.001  4.2499  0.4466 -0.5114
   75TMC2    H2 1171   4.607   0.803  13.943  0.3520  1.2993  1.7720
   75TMC2    C7 1172   4.605   0.550  13.834  0.0832 -0.3592  0.2789
   75TMC2    C8 1173   4.708   0.887  14.176  0.5352  0.0319  0.6047
   75TMC2    O1 1174   4.585   0.433  13.805  0.0080  0.1319  0.0659
   75TMC2    O2 1175   4.726   0.906  14.292 -0.0179 -0.6095 -0.2589
   75TMC2    O5 1176   4.708   0.978  14.080  0.1181 -0.4317  0.5439
   75TMC2    H5 1177   4.734   0.933  13.996 -0.9606  0.0030 -0.0115
   76TMC2    C1 1178   4.407   0.506  12.113  0.0178 -0.4839  0.2271
   76TMC2    C2 1179   4.338   0.391  12.078 -0.5137  0.0722 -0.5544
   76TMC2    C3 1180   4.393   0.275  12.102 -0.5992  0.0998 -1.3610
   76TMC2    C4 1181   4.537   0.502  12.175  0.5374  1.1047 -0.2958
   76TMC2    C5 1182   4.590   0.380  12.190 -0.6127 -0.0258  0.7958
   76TMC2    C6 1183   4.517   0.266  12.153 -0.3250 -0.3619  0.4728
   76TMC2     C 1184   4.340   0.632  12.089  0.4696 -0.0996  0.3500
   76TMC2     O 1185   4.228   0.613  12.036 -0.0028  0.2672  0.0504
   76TMC2     H 1186   4.239   0.394  12.035 -0.4140  1.8071 -0.6651
   76TMC2    H1 1187   4.602   0.587  12.189  1.9306 -0.6519  3.8396
   76TMC2    H2 1188   4.563   0.168  12.161 -1.5179 -1.0395 -0.9715
   76TMC2    C7 1189   4.694   0.352  12.288  0.4291  0.1299 -0.1231
   76TMC2    C8 1190   4.335   0.153  12.066 -0.3148  1.2740 -0.2067
   76TMC2    O1 1191   0.015   0.240  12.279  0.0433 -0.4231 -0.2478
   76TMC2    O2 1192   4.401   0.065  12.012 -0.6094  0.5164  0.1700
   76TMC2    O5 1193   4.200   0.163  12.082 -0.2308  0.1508  0.2112
   76TMC2    H5 1194   4.169   0.227  12.150 -0.7309 -0.0567  0.1804
   77MPD2     C 1195   4.162   1.103  12.178  0.0781 -0.3438  0.2629
   77MPD2    C1 1196   4.125   1.001  12.094 -0.1521 -0.6666 -0.4115
   77MPD2    C2 1197   4.201   0.885  12.076 -0.3000 -0.0693 -0.7486
   77MPD2    C3 1198   4.311   0.866  12.158  0.3011 -0.3502 -0.2805
   77MPD2    C4 1199   4.353   0.968  12.235 -0.7300  0.2309  0.6664
   77MPD2    C5 1200   4.281   1.083  12.241 -0.6595  0.0001 -0.0395
   77MPD2     H 1201   4.158   0.819  12.001  1.0635 -1.7814 -0.0046
   77MPD2    H1 1202   4.435   0.959  12.306 -0.6546  1.3136  0.7199
   77MPD2    H2 1203   4.110   1.195  12.198  1.1814  0.2755  0.2789
   77MPD2    H3 1204   4.315   1.165  12.304  0.4888 -0.8024  0.3848
   77MPD2     N 1205   4.387   0.748  12.154  0.2231  0.9982  0.2327
   77MPD2    H5 1206   4.466   0.733  12.215 -1.3353 -1.0821  1.7579
   77MPD2    N1 1207   4.006   1.010  12.019  0.1123 -0.6020 -0.4882
   77MPD2    H7 1208   4.001   0.946  11.940  2.8399 -0.5718 -0.6741
   78TMC2    C1 1209   0.356   1.956   1.747  0.1522  0.2758  0.8141
   78TMC2    C2 1210   0.454   2.021   1.817 -0.4734  0.2379  0.4963
   78TMC2    C3 1211   0.565   1.948   1.856  0.0688 -0.3364  0.1061
   78TMC2    C4 1212   0.392   1.839   1.692  0.4503  0.1913 -0.1031
   78TMC2    C5 1213   0.513   1.778   1.710  0.4466  0.8926 -0.3599
   78TMC2    C6 1214   0.592   1.828   1.801 -0.5321  1.0703  0.0002
   78TMC2     C 1215   0.238   2.023   1.698  0.9706 -0.0360 -0.0511
   78TMC2     O 1216   0.173   1.973   1.607  0.2990 -0.5737  0.2446
   78TMC2     H 1217   0.437   2.125   1.841 -0.4510 -0.1968  2.3831
   78TMC2    H1 1218   0.309   1.785   1.648  0.8595 -0.6105  0.1234
   78TMC2    H2 1219   0.695   1.794   1.808 -0.6652 -0.2441 -4.9635
   78TMC2    C7 1220   0.550   1.653   1.667 -0.5448 -0.2441 -0.5901
   78TMC2    C8 1221   0.660   2.008   1.945  0.0567  0.3772  0.6361
   78TMC2    O1 1222   0.662   1.614   1.699 -0.3157 -0.6027 -0.3699
   78TMC2    O2 1223   0.678   2.126   1.967 -0.2757  0.3129  0.0461
   78TMC2    O5 1224   0.726   1.905   2.004 -0.5614 -0.2573 -0.0514
   78TMC2    H5 1225   0.674   1.822   1.996  0.1313 -0.7683  0.7118
   79MPD1     C 1226   4.611   2.373   1.747  0.2689 -0.1801 -0.3521
   79MPD1    C1 1227   4.640   2.298   1.636  0.2050 -0.1812  0.2364
   79MPD1    C2 1228   0.015   2.212   1.650 -0.0201 -0.1421  0.0967
   79MPD1    C3 1229   0.080   2.201   1.772 -0.2821  0.6879  0.5727
   79MPD1    C4 1230   0.049   2.286   1.874  0.5337 -0.3833 -0.0004
   79MPD1    C5 1231   4.680   2.370   1.862 -0.1256  0.4400 -0.1189
   79MPD1     H 1232   0.038   2.150   1.564  1.3306  1.3575 -0.6326
   79MPD1    H1 1233   0.107   2.284   1.966 -1.7831 -2.2714  1.4002
   79MPD1    H2 1234   4.532   2.448   1.741  1.2443  0.7050 -2.2549
   79MPD1    H3 1235   4.657   2.436   1.944 -2.4489  1.4152 -1.5532
   79MPD1     N 1236   0.197   2.121   1.783  0.4488 -0.3872  0.6859
   79MPD1    H5 1237   0.246   2.131   1.871  0.1460  1.1685  0.6779
   79MPD1    N1 1238   4.588   2.333   1.510  0.3175 -0.0182 -0.0219
   79MPD1    H6 1239   4.493   2.367   1.519  0.1991  0.1907 -2.0864
   79MPD1    H7 1240   4.576   2.252   1.449 -2.3058 -0.4078  1.0181
   80TMC2    C1 1241   2.937   0.647  12.324 -0.1169 -0.1845 -0.7288
   80TMC2    C2 1242   2.944   0.741  12.223 -0.4597  0.2651 -0.2719
   80TMC2    C3 1243   2.855   0.734  12.115 -0.5346  0.1157  0.2352
   80TMC2    C4 1244   2.843   0.546  12.329  0.3806  0.3939  0.3524
   80TMC2    C5 1245   2.758   0.552  12.218 -0.8291  0.7903 -0.5365
   80TMC2    C6 1246   2.763   0.639  12.109 -0.4710  0.2390 -0.0970
   80TMC2     C 1247   3.038   0.656  12.425  0.2725 -0.4113 -0.1583
   80TMC2     O 1248   3.146   0.695  12.399  0.4152  0.6419  0.1811
   80TMC2     H 1249   3.027   0.810  12.226 -0.0687 -0.2619  1.4414
   80TMC2    H1 1250   2.821   0.483  12.415 -0.8277 -0.4285 -0.5509
   80TMC2    H2 1251   2.696   0.626  12.025  0.1367  0.5456 -0.6282
   80TMC2    C7 1252   2.654   0.451  12.206 -0.2354  0.2232  0.0952
   80TMC2    C8 1253   2.891   0.814  11.994 -0.2690 -0.2838  0.0623
   80TMC2    O1 1254   2.554   0.500  12.156 -0.5532 -0.1398 -0.2973
   80TMC2    O2 1255   2.802   0.860  11.921  0.3140  0.5570 -0.0495
   80TMC2    O5 1256   3.024   0.828  11.976  0.8591  0.3962  1.1753
   80TMC2    H5 1257   3.101   0.801  12.031  1.5860 -1.8977 -0.9832
   81MPD2     C 1258   3.203   0.596  12.671  0.3314  0.7366  0.2182
   81MPD2    C1 1259   3.066   0.597  12.668 -0.6773  0.2589 -0.1925
   81MPD2    C2 1260   3.000   0.565  12.782  0.4436 -0.0755  0.4453
   81MPD2    C3 1261   3.062   0.510  12.896  0.0477 -0.4001 -0.1609
   81MPD2    C4 1262   3.201   0.514  12.900 -0.2530 -0.3313  0.6151
   81MPD2    C5 1263   3.266   0.556  12.784 -0.7510  0.4117  0.3717
   81MPD2     H 1264   2.895   0.590  12.791  0.5003  1.0791 -2.1939
   81MPD2    H1 1265   3.271   0.469  12.969  0.6810  0.0351 -0.0887
   81MPD2    H2 1266   3.271   0.604  12.587 -1.4205 -0.4781 -1.3237
   81MPD2    H3 1267   3.374   0.557  12.789 -0.8415  2.8904  1.9586
   81MPD2     N 1268   2.975   0.483  13.002 -0.2194  0.2997  0.0477
   81MPD2    H5 1269   2.877   0.502  12.990  0.2663  2.9338  0.1504
   81MPD2    N1 1270   2.991   0.614  12.550  0.0423 -0.3688 -0.1293
   81MPD2    H7 1271   2.891   0.596  12.559  0.0671  1.3450  3.3691
   82TMC2    C1 1272   0.918   4.672  11.096  0.4637  0.6601 -0.6930
   82TMC2    C2 1273   1.013   0.023  11.051  0.1342 -0.6836 -1.3550
   82TMC2    C3 1274   1.129   4.701  11.006 -0.1982  0.4849 -0.1676
   82TMC2    C4 1275   0.942   4.540  11.090  0.0443  0.4406  0.3303
   82TMC2    C5 1276   1.059   4.492  11.042  0.5478 -0.1646 -0.1085
   82TMC2    C6 1277   1.159   4.572  10.994  0.3419 -0.5454 -0.0900
   82TMC2     C 1278   0.790   4.711  11.142 -0.4406  0.4055  0.1738
   82TMC2     O 1279   0.698   4.630  11.146  0.3229  0.4296 -0.3690
   82TMC2     H 1280   0.987   0.127  11.060 -0.6297 -0.7969 -2.2391
   82TMC2    H1 1281   0.857   4.478  11.118  0.7767 -1.8052 -2.4847
   82TMC2    H2 1282   1.251   4.533  10.953  0.2975 -0.8732  0.1227
   82TMC2    C7 1283   1.097   4.378  11.117  0.3903 -0.4473  0.4300
   82TMC2    C8 1284   1.237   0.054  10.972 -0.2775  0.0531 -0.6873
   82TMC2    O1 1285   1.006   4.298  11.130 -0.2078 -0.8850 -0.2850
   82TMC2    O2 1286   1.304   0.030  10.875 -0.1366  0.5226  0.5783
   82TMC2    O5 1287   1.268   0.130  11.078 -0.2736 -0.4425  0.3286
   82TMC2    H5 1288   1.198   0.133  11.146 -0.8722 -0.7023 -0.2746
   83MPD2     C 1289   0.494   0.331  11.356 -0.3156 -0.2878 -0.1898
   83MPD2    C1 1290   0.452   0.218  11.293 -0.3279 -0.8117 -0.2573
   83MPD2    C2 1291   0.553   0.143  11.237  0.0976 -0.1250  0.0529
   83MPD2    C3 1292   0.686   0.178  11.232 -0.8155  0.4386 -1.0239
   83MPD2    C4 1293   0.719   0.302  11.277  0.1050 -1.0819  0.2258
   83MPD2    C5 1294   0.624   0.381  11.338  0.3168  0.6176  0.2890
   83MPD2     H 1295   0.522   0.053  11.184  0.9566  0.8772 -2.1474
   83MPD2    H1 1296   0.820   0.340  11.270  0.0379 -0.5939  1.8831
   83MPD2    H2 1297   0.425   0.386  11.418  0.5659  0.3323  0.2482
   83MPD2    H3 1298   0.638   0.477  11.388  1.2441  0.5341  0.1803
   83MPD2     N 1299   0.796   0.103  11.188 -0.0483 -0.2075 -0.0594
   83MPD2    H5 1300   0.883   0.155  11.188  0.2376 -0.6864 -1.0397
   83MPD2    N1 1301   0.312   0.197  11.285  0.4812 -0.1246  0.3753
   83MPD2    H7 1302   0.248   0.260  11.332 -0.6265 -0.9767  0.0203
   84TMC2    C1 1303   1.759   4.164  10.962 -0.8368 -0.8691  0.2513
   84TMC2    C2 1304   1.714   4.107  11.078  0.3103 -0.0041 -0.1799
   84TMC2    C3 1305   1.655   3.990  11.062  0.7564 -0.7118 -0.1338
   84TMC2    C4 1306   1.760   4.093  10.840 -1.3191  0.2517 -0.3772
   84TMC2    C5 1307   1.685   3.981  10.834  0.3593  0.0458 -0.3120
   84TMC2    C6 1308   1.622   3.929  10.947  0.6327  0.2303  0.1317
   84TMC2     C 1309   1.816   4.295  10.981  0.0691 -1.0610 -0.7067
   84TMC2     O 1310   1.804   4.338  11.096  1.0271  0.2287  0.3428
   84TMC2     H 1311   1.719   4.154  11.176 -4.3001  2.5508 -1.1685
   84TMC2    H1 1312   1.812   4.132  10.753  1.1688 -2.1135  0.0513
   84TMC2    H2 1313   1.567   3.836  10.944 -1.2163  1.3301  0.0939
   84TMC2    C7 1314   1.688   3.894  10.712 -0.5986 -0.6802 -0.4861
   84TMC2    C8 1315   1.591   3.947  11.179  0.1609 -0.3779 -0.2830
   84TMC2    O1 1316   1.620   3.788  10.719  0.0189  0.4733 -0.0476
   84TMC2    O2 1317   1.638   3.966  11.291 -0.5285 -0.1125 -1.0637
   84TMC2    O5 1318   1.461   3.962  11.152  0.0395  0.1796 -0.0250
   84TMC2    H5 1319   1.456   4.000  11.062 -2.9154 -2.1323 -0.8590
   85TMC2    C1 1320   2.515   2.043  16.246  0.3575 -0.5708 -0.1444
   85TMC2    C2 1321   2.462   2.163  16.283  0.5515 -0.3829 -0.0644
   85TMC2    C3 1322   2.406   2.238  16.178  0.0557  0.0764  0.1713
   85TMC2    C4 1323   2.538   2.003  16.120  0.5947  0.0941 -0.5344
   85TMC2    C5 1324   2.495   2.088  16.024  0.2815 -0.4920  0.0740
   85TMC2    C6 1325   2.411   2.193  16.047 -0.1007  0.3153 -0.4998
   85TMC2     C 1326   2.604   1.990  16.342 -0.1354  1.4420 -0.1360
   85TMC2     O 1327   2.677   2.067  16.395 -0.1473  0.1680  0.0822
   85TMC2     H 1328   2.441   2.188  16.387  2.5884  1.6618 -0.1543
   85TMC2    H1 1329   2.604   1.919  16.105  2.1683  1.6412 -2.1924
   85TMC2    H2 1330   2.373   2.259  15.970 -0.3077  0.5442 -0.2016
   85TMC2    C7 1331   2.587   2.091  15.911  0.2718 -0.1791  0.3217
   85TMC2    C8 1332   2.296   2.315  16.226  0.2538 -0.0124 -0.6004
   85TMC2    O1 1333   2.641   1.986  15.888  0.4398  0.0012 -0.1195
   85TMC2    O2 1334   2.181   2.302  16.181 -0.7542  0.1236  0.2233
   85TMC2    O5 1335   2.324   2.373  16.347 -0.0216 -0.0217  0.1897
   85TMC2    H5 1336   2.417   2.391  16.370 -0.2766  1.3116  0.1877
   86MPD2     C 1337   2.779   1.614  16.631 -0.1318  0.0565 -0.3229
   86MPD2    C1 1338   2.709   1.557  16.529 -0.5308  0.2431 -0.9690
   86MPD2    C2 1339   2.667   1.633  16.424 -0.6225 -0.7200 -0.2796
   86MPD2    C3 1340   2.675   1.769  16.434  1.0731 -0.1320 -0.0321
   86MPD2    C4 1341   2.757   1.828  16.522 -0.4268  0.2227 -0.5593
   86MPD2    C5 1342   2.808   1.747  16.620  0.2477 -0.9070  0.1230
   86MPD2     H 1343   2.616   1.584  16.341  1.4696 -1.4102 -1.1379
   86MPD2    H1 1344   2.779   1.934  16.531  1.2948  0.0208 -2.4195
   86MPD2    H2 1345   2.809   1.560  16.720 -2.1934 -1.1002 -0.3207
   86MPD2    H3 1346   2.856   1.799  16.702  0.1181 -0.1667 -0.2643
   86MPD2     N 1347   2.604   1.853  16.340 -0.5175  0.5313 -0.4477
   86MPD2    H5 1348   2.546   1.810  16.269  0.5602  0.5843 -1.3540
   86MPD2    N1 1349   2.667   1.428  16.527 -0.1888 -0.4981 -0.1096
   86MPD2    H7 1350   2.600   1.395  16.458 -0.8251 -0.3516  0.4381
   87TMC2    C1 1351   4.586   4.390   1.045  0.0007  0.2811  0.2112
   87TMC2    C2 1352   4.692   4.306   1.063 -0.0833 -0.4707 -0.2169
   87TMC2    C3 1353   0.022   4.320   1.186 -0.4107 -0.5490  0.3771
   87TMC2    C4 1354   4.531   4.461   1.146  0.3881  0.7232 -0.0346
   87TMC2    C5 1355   4.600   4.468   1.267 -0.4558 -0.5624 -0.4926
   87TMC2    C6 1356   4.718   4.402   1.293 -0.7632 -0.0942 -0.1808
   87TMC2     C 1357   4.550   4.427   0.910 -0.2671  0.3223 -0.3633
   87TMC2     O 1358   4.591   4.356   0.818  0.1050 -0.2172  0.2789
   87TMC2     H 1359   0.005   4.252   0.983 -1.0202 -0.8702 -0.5203
   87TMC2    H1 1360   4.469   4.548   1.127 -0.6562 -0.1452 -0.6075
   87TMC2    H2 1361   0.022   4.390   1.392 -0.6576  3.1335  0.1742
   87TMC2    C7 1362   4.552   4.562   1.367 -0.0732  0.1162  0.0136
   87TMC2    C8 1363   0.109   4.205   1.220  0.6259  1.2780 -0.2745
   87TMC2    O1 1364   4.433   4.590   1.360 -0.0737 -0.2739 -0.3206
   87TMC2    O2 1365   0.090   4.090   1.176  0.2194 -0.1094 -0.0380
   87TMC2    O5 1366   0.198   4.251   1.305  0.0630  0.3717  0.2864
   87TMC2    H5 1367   0.197   4.349   1.302 -0.9457  0.3963  1.3080
   88MPD2     C 1368   0.019   0.040   1.580  0.4081 -0.3738 -0.4009
   88MPD2    C1 1369   4.647   4.735   1.506  0.0625 -0.0982 -0.3513
   88MPD2    C2 1370   4.554   0.095   1.475  0.0623 -0.3652 -0.6677
   88MPD2    C3 1371   4.556   0.224   1.516  0.2997 -0.7418  0.7626
   88MPD2    C4 1372   4.663   0.263   1.601  0.7655 -0.1184  0.0872
   88MPD2    C5 1373   0.023   0.169   1.631  0.0501 -0.5047  0.3920
   88MPD2     H 1374   4.479   0.076   1.399 -0.8778  1.2586 -0.1443
   88MPD2    H1 1375   4.677   0.362   1.642  2.6314  0.0327 -0.9131
   88MPD2    H2 1376   0.099   4.708   1.603  0.7347  0.5497  1.2299
   88MPD2    H3 1377   0.113   0.195   1.685 -1.4621  1.5817  1.8889
   88MPD2     N 1378   4.462   0.323   1.478  0.2863  0.0869 -0.1307
   88MPD2    H5 1379   4.494   0.419   1.490  1.4208 -0.3076 -0.0181
   88MPD2    N1 1380   4.651   4.611   1.443 -0.3926  0.2791 -0.1947
   88MPD2    H7 1381   0.001   4.557   1.450 -1.6858 -1.4269  2.6297
   89TMC2    C1 1382   1.469   2.421   1.716  0.7545 -0.8865  0.1695
   89TMC2    C2 1383   1.601   2.425   1.681 -0.5145  0.1227 -0.0067
   89TMC2    C3 1384   1.642   2.533   1.611  0.4426 -0.0068  0.1955
   89TMC2    C4 1385   1.394   2.534   1.715  0.2485 -0.2738  0.0219
   89TMC2    C5 1386   1.442   2.643   1.644 -0.1720  0.6331 -0.1082
   89TMC2    C6 1387   1.566   2.642   1.588 -0.6537 -0.9024  0.1784
   89TMC2     C 1388   1.423   2.314   1.798 -0.1498 -0.0200 -1.3342
   89TMC2     O 1389   1.341   2.340   1.885 -0.3458 -0.4123  0.1238
   89TMC2     H 1390   1.666   2.343   1.712 -0.0384 -0.0746 -1.5200
   89TMC2    H1 1391   1.292   2.523   1.748 -0.5956 -1.1843 -2.8440
   89TMC2    H2 1392   1.586   2.728   1.524 -1.5767 -0.7323  0.1082
   89TMC2    C7 1393   1.352   2.761   1.645  0.0562  0.0200  0.5340
   89TMC2    C8 1394   1.781   2.527   1.561  0.4744 -0.8487 -0.4538
   89TMC2    O1 1395   1.269   2.759   1.738  0.3628 -0.5750  0.0517
   89TMC2    O2 1396   1.840   2.421   1.551  0.2621  0.1507  0.2179
   89TMC2    O5 1397   1.829   2.642   1.602 -0.3734  0.7561 -0.7770
   89TMC2    H5 1398   1.764   2.716   1.607 -1.9096 -0.8575  2.7029
   90MPD2     C 1399   1.442   1.837   1.962  0.3165 -0.9503  0.3326
   90MPD2    C1 1400   1.492   1.837   1.835  0.3411 -0.5237  0.3659
   90MPD2    C2 1401   1.495   1.959   1.769  0.0360 -0.1845  0.4769
   90MPD2    C3 1402   1.453   2.073   1.827 -0.0343  0.5105 -0.4674
   90MPD2    C4 1403   1.394   2.066   1.954 -1.2625  0.1927  0.2173
   90MPD2    C5 1404   1.396   1.951   2.024  0.3253  0.4122 -0.2638
   90MPD2     H 1405   1.533   1.960   1.668 -2.6797 -1.9329 -0.5804
   90MPD2    H1 1406   1.367   2.145   2.022  2.3796  0.4715  1.3203
   90MPD2    H2 1407   1.435   1.742   2.014  0.2786 -0.5076  1.1260
   90MPD2    H3 1408   1.361   1.946   2.127  1.9143  1.2507  0.3088
   90MPD2     N 1409   1.477   2.194   1.758  0.6792  0.0478  0.3006
   90MPD2    H5 1410   1.546   2.195   1.683  0.5059  0.4248  0.1467
   90MPD2    N1 1411   1.533   1.719   1.759 -0.4653 -0.2060  0.7068
   90MPD2    H7 1412   1.540   1.727   1.658 -1.2333 -1.8580  0.5181
   91TMC2    C1 1413   2.266   2.737  16.342 -0.1488 -0.4681  0.4617
   91TMC2    C2 1414   2.289   2.683  16.467 -0.3976 -0.5644 -1.2781
   91TMC2    C3 1415   2.185   2.608  16.516  0.5139 -0.7533  0.1532
   91TMC2    C4 1416   2.147   2.731  16.277 -0.2520  0.2180  0.3589
   91TMC2    C5 1417   2.060   2.640  16.321  0.9378 -0.7361 -0.4070
   91TMC2    C6 1418   2.073   2.586  16.444  0.0987 -0.0810 -0.0506
   91TMC2     C 1419   2.368   2.817  16.280  0.4950  0.5870  0.2455
   91TMC2     O 1420   2.331   2.896  16.191  0.0107 -0.4464 -0.3698
   91TMC2     H 1421   2.368   2.704  16.538 -0.3465 -0.5819 -1.3301
   91TMC2    H1 1422   2.135   2.769  16.176  1.1700 -3.0423 -1.0534
   91TMC2    H2 1423   2.008   2.504  16.472  0.9314 -0.5485  0.5156
   91TMC2    C7 1424   1.945   2.621  16.226  0.5666  0.2255 -0.3010
   91TMC2    C8 1425   2.217   2.528  16.631 -0.2926 -0.1113 -0.6914
   91TMC2    O1 1426   1.908   2.710  16.153  0.1913 -0.1192 -0.3950
   91TMC2    O2 1427   2.331   2.498  16.667 -0.1214 -0.1672  0.2536
   91TMC2    O5 1428   2.111   2.461  16.672 -0.3447  0.2287 -0.2741
   91TMC2    H5 1429   2.028   2.508  16.652 -0.2525  0.5747  0.1665
   92MPD2     C 1430   2.620   2.917  16.149 -0.1183  0.1313  0.2753
   92MPD2    C1 1431   2.612   2.813  16.244 -0.2263  0.2105  0.1551
   92MPD2    C2 1432   2.734   2.764  16.295 -0.4160  0.1652  0.3934
   92MPD2    C3 1433   2.856   2.818  16.266 -0.2115 -0.0294  0.1510
   92MPD2    C4 1434   2.861   2.919  16.168  0.3593  0.5398 -0.0371
   92MPD2    C5 1435   2.739   2.966  16.116 -0.2287  0.0996  0.3659
   92MPD2     H 1436   2.738   2.676  16.358  1.8398  0.9805  1.3773
   92MPD2    H1 1437   2.952   2.969  16.135 -1.1060  1.3424 -2.8733
   92MPD2    H2 1438   2.535   2.970  16.107 -0.7754 -0.1292  1.2922
   92MPD2    H3 1439   2.742   3.049  16.046  2.9308  1.5447  2.1947
   92MPD2     N 1440   2.971   2.760  16.329  0.2523  0.1983 -0.3916
   92MPD2    H5 1441   2.953   2.681  16.392 -0.0691 -0.1264 -0.8914
   92MPD2    N1 1442   2.492   2.766  16.305 -0.6145 -0.1984 -0.5488
   92MPD2    H7 1443   2.504   2.705  16.385 -0.8428  0.7002  0.1720
   93TMC2    C1 1444   4.530   3.104  13.666 -0.7853  0.2585  0.2576
   93TMC2    C2 1445   4.454   3.141  13.557  0.1151 -0.2740  0.6938
   93TMC2    C3 1446   4.518   3.221  13.462  0.4213 -0.1208  0.1001
   93TMC2    C4 1447   4.667   3.118  13.665 -0.5375  0.0033  0.4555
   93TMC2    C5 1448   4.726   3.193  13.565  0.2687 -0.1951  0.1755
   93TMC2    C6 1449   4.653   3.253  13.468  0.9762  0.4990  0.4233
   93TMC2     C 1450   4.476   3.014  13.771 -0.0244  0.3327  0.2385
   93TMC2     O 1451   4.562   2.934  13.804 -0.7425  0.1011  0.2178
   93TMC2     H 1452   4.348   3.119  13.557  0.1511 -0.4574  2.4820
   93TMC2    H1 1453   4.731   3.077  13.743  1.7246  0.9374 -0.9024
   93TMC2    H2 1454   4.702   3.284  13.376  0.9390 -1.3321 -0.2136
   93TMC2    C7 1455   0.131   3.186  13.567  0.2625  0.3353 -0.0036
   93TMC2    C8 1456   4.467   3.239  13.332 -0.1251  0.2638  0.3142
   93TMC2    O1 1457   0.182   3.088  13.609  0.4896 -0.0547  0.2604
   93TMC2    O2 1458   4.503   3.333  13.259 -0.2961  0.2033  1.2464
   93TMC2    O5 1459   4.432   3.124  13.280 -0.4820 -0.1410  0.1814
   93TMC2    H5 1460   4.431   3.048  13.343 -1.4664 -2.1849 -2.3176
   94MPD2     C 1461   4.324   2.876  13.982 -0.1235 -0.2230 -0.4092
   94MPD2    C1 1462   4.270   2.970  13.894 -0.1152 -0.5948  0.0849
   94MPD2    C2 1463   4.138   2.996  13.911  0.3080  0.2416 -0.4638
   94MPD2    C3 1464   4.060   2.935  14.009 -0.3049  0.2186 -0.4649
   94MPD2    C4 1465   4.117   2.847  14.090  0.2054 -0.9514 -0.5516
   94MPD2    C5 1466   4.249   2.814  14.075  0.2268 -0.4179 -0.3272
   94MPD2     H 1467   4.095   3.068  13.842  0.2089  0.0890 -0.5600
   94MPD2    H1 1468   4.058   2.790  14.161  2.9779 -1.4373  1.3403
   94MPD2    H2 1469   4.428   2.846  13.974 -0.4610 -1.6167  0.6161
   94MPD2    H3 1470   4.302   2.738  14.132 -0.8521 -1.0987 -0.2313
   94MPD2     N 1471   3.923   2.961  14.044  0.0889  0.0570 -0.1341
   94MPD2    H5 1472   3.878   2.904  14.115 -0.0597  0.7728  0.3483
   94MPD2    N1 1473   4.349   3.046  13.810  0.7413 -0.1902  0.1850
   94MPD2    H7 1474   4.293   3.124  13.776  0.8988 -0.0875  0.1620
   95TMC2    C1 1475   4.582   0.329  16.047  0.2719 -0.0414 -0.1108
   95TMC2    C2 1476   4.566   0.327  16.181  0.4218  0.2630  0.3279
   95TMC2    C3 1477   4.502   0.433  16.236 -0.4593 -0.0977 -0.2185
   95TMC2    C4 1478   4.552   0.432  15.960 -0.5619  0.0647  0.0167
   95TMC2    C5 1479   4.497   0.544  16.021 -0.3737  0.6853 -0.4198
   95TMC2    C6 1480   4.472   0.539  16.157 -0.3176  0.5441 -0.2891
   95TMC2     C 1481   4.685   0.232  15.990  0.0939 -0.5185  0.5950
   95TMC2     O 1482   0.011   0.277  15.898 -0.8571 -0.3837 -0.0270
   95TMC2     H 1483   4.620   0.255  16.242 -1.0974 -0.5660  0.6770
   95TMC2    H1 1484   4.561   0.432  15.852  1.1969  2.0115  0.1582
   95TMC2    H2 1485   4.422   0.618  16.213 -0.4209 -0.0185  0.4029
   95TMC2    C7 1486   4.465   0.664  15.945 -1.5840  0.2565  0.8667
   95TMC2    C8 1487   4.467   0.442  16.375  0.1869 -0.4249  0.0831
   95TMC2    O1 1488   4.455   0.647  15.822  0.0087 -0.3836  0.9441
   95TMC2    O2 1489   4.441   0.551  16.427 -0.5424  0.0219  0.0222
   95TMC2    O5 1490   4.480   0.330  16.439 -0.0025  0.4633  0.1355
   95TMC2    H5 1491   4.483   0.248  16.385  1.1231 -0.6279  1.8507
   96MPD2     C 1492   0.214   4.533  15.986 -0.4667 -0.3936  0.2444
   96MPD2    C1 1493   0.240   4.657  15.932  0.2434  0.0637  0.0528
   96MPD2    C2 1494   0.158   0.023  15.959  0.6819 -0.0371  0.1836
   96MPD2    C3 1495   0.042   0.002  16.036 -0.4301 -0.1671 -0.3554
   96MPD2    C4 1496   0.016   4.611  16.087 -0.4945  0.4701 -0.0767
   96MPD2    C5 1497   0.100   4.505  16.059  0.4526  0.0066 -0.7833
   96MPD2     H 1498   0.184   0.123  15.926  0.6829  0.0017  0.3022
   96MPD2    H1 1499   4.664   4.594  16.148 -1.3012 -1.2790 -1.7085
   96MPD2    H2 1500   0.289   4.457  15.970  1.2861  1.5898 -1.0352
   96MPD2    H3 1501   0.090   4.415  16.118  0.6666  1.0349  0.8344
   96MPD2     N 1502   4.687   0.106  16.050  0.2145 -0.5816  0.2414
   96MPD2    H5 1503   4.609   0.084  16.111 -0.0325  1.5025  0.6741
   96MPD2    N1 1504   0.367   4.664  15.862  0.2256  0.0863 -0.0857
   96MPD2    H7 1505   0.416   4.576  15.850  0.7897  0.3292  0.4557
   97TMC2    C1 1506   2.538   2.342   0.007  0.0402 -0.3702  0.0353
   97TMC2    C2 1507   2.452   2.321  17.650  0.4603  0.1905 -0.0418
   97TMC2    C3 1508   2.419   2.426  17.567  0.0785  0.3486  0.8568
   97TMC2    C4 1509   2.576   2.471   0.035 -0.4199 -0.3743 -0.0885
   97TMC2    C5 1510   2.525   2.573  17.705  0.2971  0.3387  0.5062
   97TMC2    C6 1511   2.450   2.553  17.593  0.4691 -0.2376  0.3248
   97TMC2     C 1512   2.551   2.240   0.104  0.2698  0.1637 -0.4215
   97TMC2     O 1513   2.462   2.154   0.088 -0.2647 -0.7693 -0.2728
   97TMC2     H 1514   2.429   2.219  17.622 -0.7781 -0.2818  2.7199
   97TMC2    H1 1515   2.640   2.500   0.117  1.6460 -0.0053 -1.8128
   97TMC2    H2 1516   2.434   2.628  17.517  1.8978  0.7511  0.9888
   97TMC2    C7 1517   2.556   2.704  17.738  0.4286  0.0475  0.1729
   97TMC2    C8 1518   2.390   2.397  17.429 -0.6485 -0.2123  0.5153
   97TMC2    O1 1519   2.651   2.732   0.062 -0.1858 -0.3171  0.5050
   97TMC2    O2 1520   2.424   2.479  17.339 -0.2985 -0.0193  0.2082
   97TMC2    O5 1521   2.301   2.297  17.422  0.1219  0.3090 -0.2853
   97TMC2    H5 1522   2.265   2.293  17.513 -0.6596  0.1258 -0.6028
   98MPD2     C 1523   2.771   1.993   0.492  0.1903  0.1793 -0.0718
   98MPD2    C1 1524   2.647   1.991   0.439 -0.3217 -0.5879  0.4982
   98MPD2    C2 1525   2.601   2.061   0.328  0.0829  0.3170 -0.0786
   98MPD2    C3 1526   2.690   2.156   0.286 -0.5756  0.1653  0.6759
   98MPD2    C4 1527   2.814   2.177   0.348 -0.8863  0.7948  0.0837
   98MPD2    C5 1528   2.852   2.095   0.453 -0.4360  0.1372  0.1293
   98MPD2     H 1529   2.500   2.044   0.292  1.2417 -1.6011 -2.4546
   98MPD2    H1 1530   2.884   2.254   0.317  0.5016 -0.7708 -0.6606
   98MPD2    H2 1531   2.797   1.924   0.572  1.3867  0.8023  0.0765
   98MPD2    H3 1532   2.951   2.105   0.495 -0.0207  1.4095 -1.1301
   98MPD2     N 1533   2.662   2.250   0.184  0.0495 -0.1425  0.3013
   98MPD2    H5 1534   2.740   2.309   0.156  1.2870 -1.6199  0.6181
   98MPD2    N1 1535   2.565   1.891   0.496 -0.8955 -0.7557  0.4365
   98MPD2    H7 1536   2.597   1.850   0.583 -0.1950  0.3759  0.7080
   99TMC2    C1 1537   0.975   4.129   1.259 -0.4240  0.4235  0.6853
   99TMC2    C2 1538   1.075   4.223   1.279  0.1059  0.3650  0.3671
   99TMC2    C3 1539   1.084   4.284   1.402  0.5574  0.2355  0.2548
   99TMC2    C4 1540   0.903   4.081   1.365 -0.6348 -0.1052 -0.1319
   99TMC2    C5 1541   0.935   4.128   1.492 -0.1398  0.3071 -0.2872
   99TMC2    C6 1542   1.023   4.229   1.508 -0.5534 -0.4164  0.3154
   99TMC2     C 1543   0.985   4.039   1.143 -0.2659  0.1450  0.2674
   99TMC2     O 1544   1.036   4.092   1.046 -0.3468 -0.5473 -0.2672
   99TMC2     H 1545   1.126   4.256   1.190  0.7079 -2.8556 -0.4757
   99TMC2    H1 1546   0.835   3.996   1.357  0.1801 -0.7622 -0.1433
   99TMC2    H2 1547   1.043   4.280   1.602 -0.1064  1.9285 -1.0349
   99TMC2    C7 1548   0.872   4.064   1.608  0.2634 -0.6749 -0.3596
   99TMC2    C8 1549   1.205   4.364   1.433 -0.1475 -0.0297 -0.2149
   99TMC2    O1 1550   0.904   4.105   1.714 -0.1315 -0.7354 -0.5896
   99TMC2    O2 1551   1.209   4.442   1.527 -0.4635  0.1845 -0.0604
   99TMC2    O5 1552   1.301   4.302   1.364  0.1884 -0.5849 -0.0313
   99TMC2    H5 1553   1.287   4.230   1.299 -0.5840  0.8215 -1.4076
  100MPD2     C 1554   1.013   3.803   0.968  0.2096 -0.1814  0.8268
  100MPD2    C1 1555   0.988   3.791   1.102  0.5165 -0.8532 -0.3907
  100MPD2    C2 1556   0.973   3.670   1.161  0.0751 -0.8879 -0.1968
  100MPD2    C3 1557   1.005   3.553   1.086 -0.0427 -0.3632  0.9584
  100MPD2    C4 1558   1.018   3.567   0.948 -0.0887  0.4122  0.3508
  100MPD2    C5 1559   1.025   3.690   0.892 -0.1357 -0.1885  0.0127
  100MPD2     H 1560   0.951   3.664   1.267  1.3872  0.4153  0.1457
  100MPD2    H1 1561   1.025   3.485   0.878  0.0689 -0.4973  1.4315
  100MPD2    H2 1562   1.014   3.894   0.910 -1.4070 -2.1998 -2.3834
  100MPD2    H3 1563   1.047   3.698   0.786  0.2953  0.2318  0.1360
  100MPD2     N 1564   1.016   3.429   1.147 -0.1336 -0.2327 -0.1010
  100MPD2    H5 1565   1.001   3.428   1.247  3.7735 -0.8702  0.4702
  100MPD2    N1 1566   0.967   3.903   1.181  0.6223  0.2958 -0.1467
  100MPD2    H7 1567   0.952   3.881   1.279  2.3744  0.2279  0.0969
  101TMC2    C1 1568   1.434   0.896  12.976  0.5555 -0.3264  0.4744
  101TMC2    C2 1569   1.311   0.953  12.982 -0.1425 -0.0510  0.3966
  101TMC2    C3 1570   1.285   1.066  12.906 -0.3140  0.0711 -0.0616
  101TMC2    C4 1571   1.536   0.958  12.920 -0.0150 -0.2317 -0.6901
  101TMC2    C5 1572   1.511   1.073  12.848  0.6684  0.3702 -0.1966
  101TMC2    C6 1573   1.385   1.128  12.839 -0.3566 -0.3790  0.1873
  101TMC2     C 1574   1.453   0.775  13.050 -0.5201 -0.1520  0.2931
  101TMC2     O 1575   1.359   0.750  13.122 -1.0234  0.5836  0.1462
  101TMC2     H 1576   1.225   0.906  13.027 -0.8855  0.5815 -0.3614
  101TMC2    H1 1577   1.630   0.905  12.929 -0.6037 -1.6283 -2.7926
  101TMC2    H2 1578   1.375   1.209  12.768 -2.5878  1.7882  2.9883
  101TMC2    C7 1579   1.615   1.142  12.767 -0.0017  0.5849 -0.2132
  101TMC2    C8 1580   1.148   1.099  12.872  0.0312  0.6694 -0.2302
  101TMC2    O1 1581   1.581   1.245  12.709  0.6295  0.3793  0.5594
  101TMC2    O2 1582   1.047   1.029  12.884 -0.1570  0.6883  0.5363
  101TMC2    O5 1583   1.147   1.233  12.872  0.3854  0.7944 -0.1979
  101TMC2    H5 1584   1.232   1.281  12.876  0.8241 -0.0187  0.1217
  102MPD2     C 1585   1.684   0.486  13.021  0.0140  0.1396 -0.1145
  102MPD2    C1 1586   1.571   0.559  13.054  0.1346 -0.0959 -0.7127
  102MPD2    C2 1587   1.481   0.494  13.144 -0.3415 -0.0598 -0.2577
  102MPD2    C3 1588   1.504   0.364  13.187 -0.6212 -0.7012 -0.3829
  102MPD2    C4 1589   1.623   0.301  13.153  0.5360  0.6676  0.7919
  102MPD2    C5 1590   1.711   0.363  13.067 -0.3857  0.5427 -0.0803
  102MPD2     H 1591   1.391   0.545  13.175 -1.6315 -1.5180 -1.5810
  102MPD2    H1 1592   1.646   0.199  13.182  1.2693  1.2969  2.4378
  102MPD2    H2 1593   1.755   0.530  12.951 -0.6471  3.1984  1.1420
  102MPD2    H3 1594   1.795   0.305  13.029 -0.0995 -0.4094  1.9874
  102MPD2     N 1595   1.401   0.304  13.263 -0.5045 -0.2535 -0.8585
  102MPD2    H5 1596   1.322   0.358  13.299  0.0566  0.4585 -0.6794
  102MPD2    N1 1597   1.554   0.693  13.007 -0.0088  0.0156  0.9465
  102MPD2    H7 1598   1.614   0.728  12.932 -1.3727 -1.1624 -0.7069
  103TMC2    C1 1599   0.252   0.866  12.887  0.4249  0.4262  0.7307
  103TMC2    C2 1600   0.371   0.923  12.878 -0.2529 -0.1572 -0.5654
  103TMC2    C3 1601   0.388   1.055  12.919  0.0233  0.2590  0.3055
  103TMC2    C4 1602   0.142   0.932  12.942  0.0243 -0.7681  0.6631
  103TMC2    C5 1603   0.157   1.071  12.958 -0.3370  0.1977 -0.0652
  103TMC2    C6 1604   0.280   1.134  12.947 -0.4539 -0.2729  0.0054
  103TMC2     C 1605   0.238   0.724  12.856 -0.3579 -0.5085 -0.0481
  103TMC2     O 1606   0.306   0.652  12.925 -0.1147 -0.6014 -0.0068
  103TMC2     H 1607   0.459   0.863  12.856  0.1440  0.8608 -1.8234
  103TMC2    H1 1608   0.052   0.884  12.977 -0.0274 -3.0818 -2.6120
  103TMC2    H2 1609   0.276   1.242  12.954 -2.6554 -0.3965  0.7720
  103TMC2    C7 1610   0.043   1.132  13.013  0.0939  0.2365  0.5102
  103TMC2    C8 1611   0.529   1.097  12.921 -0.7718  0.4573 -0.2660
  103TMC2    O1 1612   4.701   1.066  13.081  0.7457 -0.0871 -0.0375
  103TMC2    O2 1613   0.619   1.027  12.883 -0.6223 -0.9744 -0.2199
  103TMC2    O5 1614   0.544   1.187  13.019  0.6312 -0.1348 -0.3199
  103TMC2    H5 1615   0.459   1.222  13.055 -1.3076 -4.8903 -0.3187
  104MPD2     C 1616   0.204   0.455  12.731 -0.1722  0.2473 -0.0049
  104MPD2    C1 1617   0.136   0.573  12.694 -0.4998  0.4124 -0.6185
  104MPD2    C2 1618   0.068   0.573  12.575  0.3818 -0.4822 -0.9517
  104MPD2    C3 1619   0.062   0.455  12.497  0.2409  0.1992 -0.7761
  104MPD2    C4 1620   0.129   0.340  12.538 -1.0850  0.4411 -0.4144
  104MPD2    C5 1621   0.202   0.343  12.655  0.5223 -0.0231  0.0094
  104MPD2     H 1622   0.007   0.657  12.544 -1.1945 -1.4160 -0.3778
  104MPD2    H1 1623   0.122   0.250  12.478  2.2648 -0.6640  0.8480
  104MPD2    H2 1624   0.259   0.448  12.825  2.0027  0.9321 -1.2146
  104MPD2    H3 1625   0.257   0.253  12.678  0.8286 -0.3676 -2.0814
  104MPD2     N 1626   4.703   0.450  12.390  0.6619 -0.0097 -0.1569
  104MPD2    H5 1627   4.656   0.539  12.382 -1.1662 -0.9567 -0.0658
  104MPD2    N1 1628   0.148   0.695  12.762 -0.5422  0.1454 -0.1369
  104MPD2    H7 1629   0.099   0.777  12.728 -0.4508 -0.5657 -2.0004
  105TMC2    C1 1630   4.694   4.551   0.056 -0.5335  0.2955 -0.0660
  105TMC2    C2 1631   4.626   4.555  17.677  0.2508  0.7594 -0.7955
  105TMC2    C3 1632   4.491   4.582  17.684 -0.1609 -0.3564  0.2159
  105TMC2    C4 1633   4.635   4.574   0.182 -0.0679  0.3313  0.6958
  105TMC2    C5 1634   4.501   4.604   0.174  0.1642 -0.1956  0.2378
  105TMC2    C6 1635   4.428   4.613   0.059  0.6190 -0.4252  0.6861
  105TMC2     C 1636   0.092   4.484   0.060 -0.3646 -0.0886  0.5201
  105TMC2     O 1637   0.125   4.435   0.169  0.2778 -0.2764  0.2781
  105TMC2     H 1638   4.671   4.512  17.588  0.1321  0.3659 -0.6617
  105TMC2    H1 1639   4.697   4.558   0.269  1.5913 -1.2172 -0.7673
  105TMC2    H2 1640   4.321   4.630   0.068  0.5809 -0.5017  0.3932
  105TMC2    C7 1641   4.424   4.644   0.296  0.2506 -1.1393  0.0909
  105TMC2    C8 1642   4.422   4.589  17.558 -0.1927 -0.4223 -0.5456
  105TMC2    O1 1643   4.311   4.698   0.283  0.5270  0.6015  0.2927
  105TMC2    O2 1644   4.461   4.528  17.458 -0.0449  0.1357 -0.1579
  105TMC2    O5 1645   4.324   4.686  17.565  0.5309 -0.5741  0.8730
  105TMC2    H5 1646   4.324   0.003  17.647 -0.1157  1.6260 -0.5461
  106MPD2     C 1647   0.523   4.329  17.582 -0.1409  0.2110 -0.0607
  106MPD2    C1 1648   0.488   4.444  17.518  0.2260  0.5911 -0.7109
  106MPD2    C2 1649   0.372   4.509  17.563  0.2917  0.4867  0.5733
  106MPD2    C3 1650   0.295   4.456  17.665  0.1547  0.7051 -0.9753
  106MPD2    C4 1651   0.324   4.337  17.725 -0.4302  0.0551  0.1756
  106MPD2    C5 1652   0.440   4.280  17.687  0.1052 -0.2966  0.6380
  106MPD2     H 1653   0.329   4.592  17.509 -1.2447 -2.1291 -2.1831
  106MPD2    H1 1654   0.259   4.278   0.045  1.8780 -1.3744  1.1813
  106MPD2    H2 1655   0.597   4.264  17.539 -0.5943 -0.3880  0.0627
  106MPD2    H3 1656   0.465   4.180  17.721  1.7333  0.2402  1.0288
  106MPD2     N 1657   0.169   4.516  17.693 -0.2703 -0.2926  0.1119
  106MPD2    H5 1658   0.135   4.589  17.633  3.5702  0.3088 -1.3399
  106MPD2    N1 1659   0.560   4.495  17.409 -0.0688 -0.4492 -0.6786
  106MPD2    H7 1660   0.514   4.563  17.350 -0.9516  0.2640  0.8334
  107TMC2    C1 1661   1.973   0.190  11.503  0.2367  0.3462 -0.0224
  107TMC2    C2 1662   1.982   0.320  11.467  0.1353  0.7476  0.5468
  107TMC2    C3 1663   1.983   0.358  11.334 -0.1737  0.2824  0.4422
  107TMC2    C4 1664   1.981   0.090  11.411  0.0058  0.2796  0.8172
  107TMC2    C5 1665   1.984   0.131  11.281  0.1414 -0.1109 -0.3865
  107TMC2    C6 1666   1.986   0.263  11.237  0.1446  0.3439 -0.2683
  107TMC2     C 1667   1.933   0.157  11.644 -0.0257 -0.1870  0.7056
  107TMC2     O 1668   1.869   0.240  11.704 -0.2543  0.2116 -0.4598
  107TMC2     H 1669   1.978   0.396  11.544 -3.2001  0.0189  1.1046
  107TMC2    H1 1670   1.951   4.728  11.445  1.8888 -0.9699 -1.1239
  107TMC2    H2 1671   1.977   0.289  11.132 -3.6331  1.0732  0.2400
  107TMC2    C7 1672   1.958   0.028  11.184 -0.7811 -0.1944 -0.1595
  107TMC2    C8 1673   1.989   0.502  11.301  0.4824  0.0066  0.0094
  107TMC2    O1 1674   1.881   4.682  11.227 -0.3877  0.1898  0.1823
  107TMC2    O2 1675   2.038   0.584  11.375 -0.5579  0.2079 -0.0452
  107TMC2    O5 1676   1.942   0.530  11.179  0.1496  0.2189  0.0037
  107TMC2    H5 1677   1.882   0.464  11.138 -0.7187  1.7806 -1.2237
  108MPD2     C 1678   2.047   4.604  11.850 -0.8628  0.1002 -0.0803
  108MPD2    C1 1679   1.968   4.716  11.822  0.6733  0.1698  0.0751
  108MPD2    C2 1680   1.859   0.003  11.894  0.3884  0.5705 -0.7320
  108MPD2    C3 1681   1.829   4.651  12.001 -0.1425 -0.6816  0.3588
  108MPD2    C4 1682   1.903   4.542  12.023 -0.6538 -0.5624  0.0637
  108MPD2    C5 1683   2.020   4.521  11.956  0.2387 -0.7310 -0.5930
  108MPD2     H 1684   1.811   0.098  11.876  0.1761  0.8292  1.1299
  108MPD2    H1 1685   1.883   4.472  12.103 -2.4371 -1.4196 -1.1252
  108MPD2    H2 1686   2.128   4.588  11.781 -0.1908  1.5402  0.3862
  108MPD2    H3 1687   2.080   4.435  11.984  1.4876  0.6942  1.0543
  108MPD2     N 1688   1.713   4.669  12.085 -0.0306 -0.3796 -0.2029
  108MPD2    H5 1689   1.709   4.594  12.154  0.1934 -1.4200 -1.3393
  108MPD2    N1 1690   1.992   0.042  11.697  0.2072 -0.5818 -0.6093
  108MPD2    H7 1691   2.065   4.730  11.645  1.0198  1.2795 -1.2060
  109TMC2    C1 1692   1.307   1.096   0.372 -0.3106  0.7226 -0.1754
  109TMC2    C2 1693   1.304   1.090   0.238 -0.4458 -0.3040 -1.0229
  109TMC2    C3 1694   1.406   1.136   0.158 -0.6492 -0.8785  0.0659
  109TMC2    C4 1695   1.419   1.139   0.433  0.0417 -0.1220 -0.8355
  109TMC2    C5 1696   1.526   1.186   0.361  0.3227  0.1161 -0.3644
  109TMC2    C6 1697   1.524   1.173   0.223  0.0519 -0.2946 -0.3865
  109TMC2     C 1698   1.181   1.070   0.447 -0.7318 -0.4141  0.0855
  109TMC2     O 1699   1.081   1.093   0.383  0.0358 -0.2379 -0.0261
  109TMC2     H 1700   1.212   1.058   0.191  0.1783 -1.0139 -1.7554
  109TMC2    H1 1701   1.411   1.167   0.538 -2.5124 -0.9962 -0.8142
  109TMC2    H2 1702   1.609   1.206   0.165  2.4288 -1.7999  2.2551
  109TMC2    C7 1703   1.645   1.251   0.414  0.0607  0.2015 -0.6937
  109TMC2    C8 1704   1.411   1.081   0.025 -1.0522 -0.1209 -0.0622
  109TMC2    O1 1705   1.721   1.304   0.336 -0.6816 -0.2164  0.4044
  109TMC2    O2 1706   1.351   0.985  17.738 -0.3160 -0.9767 -0.2302
  109TMC2    O5 1707   1.478   1.173  17.699 -0.1789 -0.6722  0.0236
  109TMC2    H5 1708   1.503   1.252   0.008 -0.7675  0.5138 -1.4854
  110MPD2     C 1709   0.898   0.946   0.838 -0.0164 -0.3761  1.1710
  110MPD2    C1 1710   1.009   1.002   0.888 -0.3524 -0.1075  0.3676
  110MPD2    C2 1711   1.115   1.029   0.804  0.4945 -0.3258 -0.7416
  110MPD2    C3 1712   1.096   1.005   0.663 -0.5291  0.0368 -0.1672
  110MPD2    C4 1713   0.973   0.954   0.617  0.2919  0.6225  0.1837
  110MPD2    C5 1714   0.875   0.925   0.704  0.5530  0.1332 -0.3877
  110MPD2     H 1715   1.207   1.078   0.833 -0.0887  0.7854 -0.7678
  110MPD2    H1 1716   0.954   0.951   0.511  2.7384 -0.6170 -0.2155
  110MPD2    H2 1717   0.826   0.909   0.910 -0.0244 -0.1424  1.2843
  110MPD2    H3 1718   0.778   0.891   0.669  1.0582 -1.4829 -0.2413
  110MPD2     N 1719   1.203   1.038   0.574 -0.0131  0.3384  0.2146
  110MPD2    H5 1720   1.296   1.060   0.606  0.1052 -3.8324  2.7177
  110MPD2    N1 1721   1.011   1.021   1.027  0.0981 -0.1685 -0.0463
  110MPD2    H7 1722   0.924   0.996   1.075  0.1596  1.6200  0.9745
  111TMC2    C1 1723   1.856   2.287  11.801  0.9216 -0.1468  0.6799
  111TMC2    C2 1724   1.741   2.349  11.753  0.1903  0.3388 -0.1857
  111TMC2    C3 1725   1.653   2.397  11.851 -0.4141  0.1808  0.1355
  111TMC2    C4 1726   1.864   2.259  11.931 -0.2257  0.4985 -0.6817
  111TMC2    C5 1727   1.786   2.317  12.025  0.5242 -0.6031  0.3270
  111TMC2    C6 1728   1.679   2.392  11.987 -1.2522  0.6690 -0.0019
  111TMC2     C 1729   1.915   2.185  11.717  0.5126  0.3645  0.4699
  111TMC2     O 1730   2.032   2.192  11.679  0.6359  0.4701  0.3350
  111TMC2     H 1731   1.722   2.372  11.649 -1.9992  0.6006  0.2681
  111TMC2    H1 1732   1.950   2.206  11.971 -1.5750  0.7835  2.5760
  111TMC2    H2 1733   1.616   2.448  12.055 -2.9515 -1.0088 -0.1870
  111TMC2    C7 1734   1.805   2.280  12.170 -0.6918  0.6765  0.2392
  111TMC2    C8 1735   1.530   2.467  11.808 -0.0734 -0.5447  0.0698
  111TMC2    O1 1736   1.868   2.176  12.190  0.3873  0.3627 -0.0294
  111TMC2    O2 1737   1.457   2.535  11.880 -0.6266  0.1591  0.2008
  111TMC2    O5 1738   1.480   2.409  11.694 -0.0418  0.2049  0.1947
  111TMC2    H5 1739   1.532   2.347  11.638 -0.1466  0.8311 -0.6006
  112MPD2     C 1740   1.900   1.705  11.555 -0.1289 -0.1765  0.8491
  112MPD2    C1 1741   1.768   1.760  11.568  0.7686 -0.2011 -0.2094
  112MPD2    C2 1742   1.745   1.891  11.608 -0.2157  1.0442  0.6349
  112MPD2    C3 1743   1.856   1.967  11.634  0.1325 -0.0930  0.2505
  112MPD2    C4 1744   1.986   1.917  11.630 -0.5720 -0.8091 -0.0707
  112MPD2    C5 1745   2.007   1.790  11.590 -0.2903 -0.3176 -0.5187
  112MPD2     H 1746   1.650   1.940  11.624 -0.5245  0.4042  0.7857
  112MPD2    H1 1747   2.066   1.973  11.678 -1.7879  0.7986  0.0885
  112MPD2    H2 1748   1.923   1.605  11.520  1.5592 -0.1645  1.9253
  112MPD2    H3 1749   2.107   1.749  11.596 -1.3857 -2.8229  1.0605
  112MPD2     N 1750   1.828   2.093  11.686  0.1128 -0.3627  0.1466
  112MPD2    H5 1751   1.734   2.104  11.721 -0.4041  0.4473 -1.4655
  112MPD2    N1 1752   1.650   1.689  11.547  0.1249  0.2901  0.1338
  112MPD2    H7 1753   1.566   1.746  11.544  0.0571  0.1518 -0.5672
  113TMC2    C1 1754   4.547   3.286   0.952  0.0904 -0.1260  0.0734
  113TMC2    C2 1755   4.467   3.329   0.849  0.2427  0.7784 -0.5480
  113TMC2    C3 1756   4.414   3.240   0.766 -0.8177  0.5737  0.0113
  113TMC2    C4 1757   4.577   3.149   0.967 -0.0291  0.3201  0.5105
  113TMC2    C5 1758   4.522   3.056   0.881 -0.5622  0.1563 -0.4871
  113TMC2    C6 1759   4.440   3.102   0.783 -0.2675  0.3767 -0.4477
  113TMC2     C 1760   4.626   3.386   1.023  1.0015  0.3088  0.2063
  113TMC2     O 1761   4.586   3.500   1.024 -0.9991  0.4069  0.4445
  113TMC2     H 1762   4.459   3.435   0.829 -0.7404  0.4155 -2.0371
  113TMC2    H1 1763   4.635   3.109   1.050  0.9105 -1.3614 -0.9684
  113TMC2    H2 1764   4.387   3.028   0.724  0.4245  0.9777 -1.8017
  113TMC2    C7 1765   4.527   2.912   0.911 -0.2725  0.5282 -0.2364
  113TMC2    C8 1766   4.414   3.288   0.633 -1.2120  0.0314 -0.0888
  113TMC2    O1 1767   4.469   2.850   0.822 -0.4859  0.0190  0.2863
  113TMC2    O2 1768   4.490   3.372   0.591  0.1983 -0.1312 -0.4428
  113TMC2    O5 1769   4.331   3.211   0.563 -0.2771 -0.2715 -0.1744
  113TMC2    H5 1770   4.267   3.152   0.609  1.0855  0.5026  2.7271
  114MPD2     C 1771   0.355   3.541   1.187  0.7901 -0.7633  0.4092
  114MPD2    C1 1772   0.231   3.600   1.206 -0.0877 -0.7890  0.3396
  114MPD2    C2 1773   0.120   3.537   1.154 -0.5175 -0.5058 -0.1908
  114MPD2    C3 1774   0.132   3.411   1.099 -0.5071  0.0668  0.4110
  114MPD2    C4 1775   0.257   3.359   1.085 -0.4142 -0.3141 -0.1298
  114MPD2    C5 1776   0.364   3.421   1.121  0.9661  0.6489  0.0736
  114MPD2     H 1777   0.022   3.565   1.191 -0.7066 -0.0215 -1.0859
  114MPD2    H1 1778   0.265   3.265   1.031 -0.2514  0.7333 -1.9171
  114MPD2    H2 1779   0.454   3.584   1.200  1.0634 -1.2699 -0.0040
  114MPD2    H3 1780   0.465   3.391   1.095 -0.1734 -0.6794 -2.7978
  114MPD2     N 1781   0.016   3.337   1.055  0.2042  0.0828  0.5433
  114MPD2    H5 1782   0.034   3.241   1.027  0.3885 -0.2440  1.7889
  114MPD2    N1 1783   0.213   3.721   1.273  0.0539 -0.2494 -0.3530
  114MPD2    H7 1784   0.117   3.754   1.269  0.8764  2.1346 -0.4927
  115TMC2    C1 1785   0.273   1.341  17.582  0.3124  0.6796 -0.1208
  115TMC2    C2 1786   0.390   1.338  17.518 -0.0248  0.3020  0.3977
  115TMC2    C3 1787   0.469   1.451  17.527 -0.3230 -0.1400  0.1157
  115TMC2    C4 1788   0.225   1.449  17.651  0.1699  0.5993 -0.4028
  115TMC2    C5 1789   0.312   1.557  17.658  0.4861  0.2940  0.7223
  115TMC2    C6 1790   0.435   1.560  17.605  0.4369 -0.4864 -0.0758
  115TMC2     C 1791   0.212   1.211  17.604  0.2135 -0.0395 -0.1801
  115TMC2     O 1792   0.292   1.115  17.617 -0.1489  0.2073 -0.0106
  115TMC2     H 1793   0.408   1.244  17.467  1.4686  0.6021  0.3785
  115TMC2    H1 1794   0.144   1.442  17.723 -2.3000 -1.0768 -3.3590
  115TMC2    H2 1795   0.507   1.640  17.615  0.8654 -0.7445 -1.0795
  115TMC2    C7 1796   0.248   1.673  17.697 -0.5622  0.3640 -0.3536
  115TMC2    C8 1797   0.606   1.441  17.493  0.7363  0.1683 -0.3342
  115TMC2    O1 1798   0.127   1.673  17.710 -0.1365 -0.2920 -0.0262
  115TMC2    O2 1799   0.701   1.473  17.562  0.3551 -1.1182  0.0727
  115TMC2    O5 1800   0.612   1.357  17.389  0.1079  0.0641  0.6883
  115TMC2    H5 1801   0.530   1.362  17.335  0.1500 -2.6876  0.4056
  116MPD2     C 1802   4.557   0.923   0.003 -0.1782  0.0062  0.3122
  116MPD2    C1 1803   4.675   0.885  17.684  0.1776 -0.1346 -0.6598
  116MPD2    C2 1804   0.024   0.986  17.645  0.1732 -0.0953 -0.4697
  116MPD2    C3 1805   4.726   1.117  17.655 -0.1064  0.4174  0.7162
  116MPD2    C4 1806   4.600   1.150  17.689  0.3628  0.1244  0.0420
  116MPD2    C5 1807   4.520   1.059   0.008 -0.6521 -0.5325  0.2165
  116MPD2     H 1808   0.121   0.963  17.604 -0.8828 -1.5534 -2.1363
  116MPD2    H1 1809   4.556   1.248  17.694 -0.6286 -0.2620 -1.1362
  116MPD2    H2 1810   4.479   0.852   0.029 -0.0404 -0.4844 -0.6418
  116MPD2    H3 1811   4.420   1.081   0.044 -0.2710  1.2655  0.1324
  116MPD2     N 1812   0.080   1.220  17.615  0.0283 -0.1084  0.8783
  116MPD2    H5 1813   0.040   1.313  17.605  0.8568  0.2830  1.1946
  116MPD2    N1 1814   4.696   0.745  17.668  0.1902 -0.0618 -0.1611
  116MPD2    H7 1815   4.634   0.680  17.715  0.7046 -0.9872 -0.7833
  117TMC2    C1 1816   4.353   3.049  14.374  0.8312 -0.5568 -0.1322
  117TMC2    C2 1817   4.466   2.981  14.345 -0.4914 -0.5921 -0.1857
  117TMC2    C3 1818   4.571   3.054  14.289  0.3910 -0.6685 -0.0316
  117TMC2    C4 1819   4.343   3.187  14.351 -0.4048 -0.0928 -0.3541
  117TMC2    C5 1820   4.447   3.249  14.291  0.0264 -0.2317 -0.5523
  117TMC2    C6 1821   4.563   3.186  14.261  0.3744 -0.5633 -0.2276
  117TMC2     C 1822   4.234   2.983  14.427  0.0831  1.1943  0.5402
  117TMC2     O 1823   4.254   2.892  14.506 -0.1145 -0.5722  0.1943
  117TMC2     H 1824   4.470   2.874  14.359 -0.4188 -0.1032  3.4472
  117TMC2    H1 1825   4.261   3.243  14.396  0.3193  1.4750 -0.9675
  117TMC2    H2 1826   4.648   3.244  14.226 -0.7324  1.3907  0.3031
  117TMC2    C7 1827   4.431   3.389  14.260  0.7044  0.2816  0.2210
  117TMC2    C8 1828   4.660   2.985  14.201  0.2759  0.2667  0.2571
  117TMC2    O1 1829   4.528   3.462  14.286 -0.2978 -0.3160 -0.0862
  117TMC2    O2 1830   4.651   3.016  14.082  0.2502 -0.5242  0.1949
  117TMC2    O5 1831   0.032   2.981  14.284  0.0504 -0.0182 -0.6370
  117TMC2    H5 1832   0.013   2.983  14.380  1.0957  2.5261 -0.4623
  118MPD2     C 1833   4.161   3.552  14.078 -0.0342  0.2313  0.2577
  118MPD2    C1 1834   4.281   3.538  14.139  0.0092 -0.3703  0.7145
  118MPD2    C2 1835   4.369   3.647  14.144  0.9402  0.1495  0.1325
  118MPD2    C3 1836   4.333   3.771  14.102 -0.3189 -0.3593 -0.2145
  118MPD2    C4 1837   4.202   3.792  14.048  0.2432  0.9993 -0.0509
  118MPD2    C5 1838   4.129   3.681  14.024 -0.2085  0.4996 -0.1761
  118MPD2     H 1839   4.473   3.638  14.176  0.8781  1.4840  0.7147
  118MPD2    H1 1840   4.171   3.882  13.996  0.2077  0.5550 -0.7974
  118MPD2    H2 1841   4.100   3.471  14.040 -0.0086  1.5737 -2.6393
  118MPD2    H3 1842   4.037   3.695  13.969 -0.2210  1.3378  0.0487
  118MPD2     N 1843   4.416   3.883  14.093 -0.0000  0.1861 -0.2093
  118MPD2    H5 1844   4.380   3.969  14.053 -0.4986 -0.8994 -2.0743
  118MPD2    N1 1845   4.318   3.415  14.198 -0.0150 -0.2322  0.2841
  118MPD2    H7 1846   4.249   3.341  14.195  1.6950 -1.7500 -1.0265
  119TMC2    C1 1847   2.819   4.323  13.581  0.2099 -0.5390  0.2229
  119TMC2    C2 1848   2.927   4.298  13.498 -0.8440  0.5305  0.2468
  119TMC2    C3 1849   2.904   4.229  13.378 -0.2275 -0.2983 -0.7207
  119TMC2    C4 1850   2.693   4.285  13.541 -0.0571  0.9249 -0.0892
  119TMC2    C5 1851   2.674   4.224  13.420 -0.0213  0.8526 -0.5495
  119TMC2    C6 1852   2.778   4.187  13.338  0.6735 -0.1794 -0.2740
  119TMC2     C 1853   2.825   4.396  13.707 -0.2549  0.7110 -0.4881
  119TMC2     O 1854   2.721   4.441  13.753 -0.8894 -0.1516 -0.0323
  119TMC2     H 1855   3.028   4.322  13.528 -0.8400 -0.7257  1.2277
  119TMC2    H1 1856   2.615   4.317  13.609 -2.2385 -1.0438 -1.6957
  119TMC2    H2 1857   2.761   4.140  13.242 -0.3326 -1.1109  0.3678
  119TMC2    C7 1858   2.534   4.204  13.369  0.4704  0.2563  0.8713
  119TMC2    C8 1859   3.021   4.176  13.303  0.4431 -0.3684  0.5004
  119TMC2    O1 1860   2.525   4.162  13.255  0.1756 -0.2100 -0.2486
  119TMC2    O2 1861   3.038   4.059  13.273  0.1638  0.1154  0.3465
  119TMC2    O5 1862   3.082   4.282  13.252  0.7948  0.5347 -0.3838
  119TMC2    H5 1863   3.057   4.371  13.285 -0.7737  0.1108 -0.4000
  120MPD2     C 1864   3.066   4.498  14.147  0.2222 -0.1912  0.2037
  120MPD2    C1 1865   2.933   4.514  14.109  0.9871  0.9325  0.1260
  120MPD2    C2 1866   2.894   4.485  13.979 -0.0429 -0.0905 -0.4027
  120MPD2    C3 1867   2.983   4.423  13.894 -0.1771 -0.8881 -0.1132
  120MPD2    C4 1868   3.114   4.398  13.942 -0.2957 -0.2337 -0.1489
  120MPD2    C5 1869   3.155   4.439  14.067 -0.2009  0.3426  0.1159
  120MPD2     H 1870   2.794   4.507  13.944 -0.5154 -0.6661  0.5795
  120MPD2    H1 1871   3.193   4.361  13.879 -0.7354  0.6711 -1.2403
  120MPD2    H2 1872   3.092   4.530  14.248  0.1027  0.3812  0.0530
  120MPD2    H3 1873   3.259   4.426  14.096 -0.3873  1.0347  1.0872
  120MPD2     N 1874   2.954   4.399  13.758 -0.0238  0.6556 -0.3906
  120MPD2    H5 1875   3.022   4.351  13.700 -0.7375 -3.1542  1.9876
  120MPD2    N1 1876   2.850   4.572  14.213 -0.2829 -0.2700  0.4064
  120MPD2    H7 1877   2.897   4.614  14.292 -1.9546  0.3807  1.0508
  121TMC2    C1 1878   3.512   1.854  14.174  0.7490  0.0977 -0.1356
  121TMC2    C2 1879   3.534   1.859  14.315 -0.3885 -0.1317 -0.5110
  121TMC2    C3 1880   3.467   1.763  14.386 -0.0289  0.3761 -0.2436
  121TMC2    C4 1881   3.428   1.769  14.110  0.4130 -0.2874 -0.8054
  121TMC2    C5 1882   3.361   1.681  14.190  0.5555  0.0763 -0.0340
  121TMC2    C6 1883   3.381   1.677  14.326  0.0148  0.0715  0.5538
  121TMC2     C 1884   3.597   1.933  14.091 -0.4754 -0.4361 -0.7092
  121TMC2     O 1885   3.548   1.983  13.988 -0.3863  0.3069  0.4269
  121TMC2     H 1886   3.579   1.941  14.370 -0.8422  1.1641 -2.0942
  121TMC2    H1 1887   3.409   1.784  14.004  1.9441 -1.6961 -1.2736
  121TMC2    H2 1888   3.329   1.605  14.389 -0.0527 -0.9971 -0.7359
  121TMC2    C7 1889   3.316   1.564  14.135 -0.0963  0.1065 -0.0754
  121TMC2    C8 1890   3.493   1.756  14.522 -0.6501 -0.7845  0.2685
  121TMC2    O1 1891   3.373   1.525  14.036  0.3003 -0.0113  0.3822
  121TMC2    O2 1892   3.406   1.725  14.602  0.2554  0.3568  0.4929
  121TMC2    O5 1893   3.621   1.789  14.557  0.1413 -0.2813  0.4456
  121TMC2    H5 1894   3.682   1.768  14.484  1.2646 -0.1190  1.3318
  122MPD2     C 1895   3.950   2.003  14.187  0.4496 -0.9386  0.4284
  122MPD2    C1 1896   3.839   2.003  14.100 -0.0628  0.5242  0.1137
  122MPD2    C2 1897   3.840   2.055  13.972 -0.3458 -0.5637 -0.7328
  122MPD2    C3 1898   3.966   2.107  13.928 -0.2292  0.2937  0.1332
  122MPD2    C4 1899   4.072   2.121  14.021 -0.0139 -0.0475 -0.6090
  122MPD2    C5 1900   4.068   2.058  14.141  0.0937 -0.9901  0.0647
  122MPD2     H 1901   3.753   2.036  13.911 -0.7306 -1.5158  0.1092
  122MPD2    H1 1902   4.172   2.156  13.996 -1.2487  2.4967 -1.9581
  122MPD2    H2 1903   3.928   1.958  14.283 -1.5981  0.6025  0.6890
  122MPD2    H3 1904   4.149   2.070  14.212 -0.4528  2.5492  0.1128
  122MPD2     N 1905   3.991   2.158  13.802 -0.4734 -0.4895  0.6024
  122MPD2    H5 1906   4.082   2.191  13.773 -0.3700 -2.9898 -1.8451
  122MPD2    N1 1907   3.720   1.951  14.156 -0.1709 -0.9852  0.0237
  122MPD2    H7 1908   3.716   1.887  14.234  0.4586 -1.8443 -0.6550
  123TMC2    C1 1909   2.182   4.045   9.453 -0.5288  0.3814 -0.8719
  123TMC2    C2 1910   2.294   3.995   9.395 -0.2006  0.2250  0.3045
  123TMC2    C3 1911   2.279   3.862   9.354  0.5951  0.0268  0.2236
  123TMC2    C4 1912   2.079   3.965   9.495  0.1472 -0.9850 -0.7997
  123TMC2    C5 1913   2.073   3.834   9.453 -0.0565  0.3323 -0.4871
  123TMC2    C6 1914   2.168   3.781   9.377 -1.0919  0.9752 -0.4377
  123TMC2     C 1915   2.156   4.187   9.444  1.0951  0.0265 -0.2625
  123TMC2     O 1916   2.210   4.243   9.348 -0.0577  0.1387 -0.1821
  123TMC2     H 1917   2.375   4.063   9.369  1.2722 -1.7105 -0.2070
  123TMC2    H1 1918   1.988   3.999   9.543  1.3176  0.6490  0.2814
  123TMC2    H2 1919   2.168   3.677   9.347 -3.3638  0.1643  2.4025
  123TMC2    C7 1920   1.942   3.766   9.464  0.0628  0.1511 -0.1872
  123TMC2    C8 1921   2.383   3.796   9.275  0.1735 -0.5320  0.4952
  123TMC2    O1 1922   1.888   3.768   9.572 -0.2231 -0.2020 -0.2979
  123TMC2    O2 1923   2.359   3.745   9.167  0.0852 -0.3703 -0.0916
  123TMC2    O5 1924   2.487   3.865   9.311  0.4106 -0.1964 -0.0065
  123TMC2    H5 1925   2.475   3.888   9.405 -1.1909 -0.0834 -0.2464
  124MPD2     C 1926   1.978   4.624   9.643  0.4079 -0.2467 -0.7459
  124MPD2    C1 1927   1.935   4.520   9.722  1.1335  0.2848  0.4076
  124MPD2    C2 1928   1.980   4.389   9.696  0.0090 -0.0037  0.6417
  124MPD2    C3 1929   2.057   4.360   9.586  0.0584  0.1156 -1.0414
  124MPD2    C4 1930   2.094   4.462   9.511 -0.3230  0.4634 -0.3355
  124MPD2    C5 1931   2.051   4.587   9.531 -0.2324  0.1960  0.5663
  124MPD2     H 1932   1.952   4.308   9.763 -2.5612  1.3276  1.1886
  124MPD2    H1 1933   2.170   4.447   9.434  0.5893 -0.5053  0.7601
  124MPD2    H2 1934   1.951   4.728   9.656  2.1845  0.0680  0.3347
  124MPD2    H3 1935   2.078   4.670   9.468 -1.7962  0.2417 -0.0361
  124MPD2     N 1936   2.086   4.227   9.556  0.4395  0.0569  0.3169
  124MPD2    H5 1937   2.051   4.157   9.620  1.2610 -1.1819 -0.6136
  124MPD2    N1 1938   1.857   4.555   9.835  0.4339  0.2188  0.1185
  124MPD2    H7 1939   1.828   4.652   9.840 -0.6917 -0.1549  0.8497
  125TMC2    C1 1940   3.423   1.921   9.088 -0.5798  0.1380 -0.6862
  125TMC2    C2 1941   3.466   1.794   9.124 -0.2323  0.4436  0.3647
  125TMC2    C3 1942   3.574   1.740   9.067 -0.5629 -0.5673  0.3157
  125TMC2    C4 1943   3.479   1.982   8.984  0.1210  0.1905  0.6977
  125TMC2    C5 1944   3.578   1.919   8.911 -0.3139 -0.0133 -0.0025
  125TMC2    C6 1945   3.626   1.793   8.951  0.2672  0.2318  0.2388
  125TMC2     C 1946   3.338   1.985   9.188 -0.2264 -0.6171  0.5734
  125TMC2     O 1947   3.321   1.922   9.292 -0.4726  0.2978  0.0582
  125TMC2     H 1948   3.418   1.734   9.201 -0.1631  0.5164  0.4646
  125TMC2    H1 1949   3.441   2.078   8.950 -0.9593 -0.3344  0.4243
  125TMC2    H2 1950   3.709   1.740   8.906 -0.0402 -0.8190  0.9131
  125TMC2    C7 1951   3.663   2.007   8.827 -0.3705  0.7589  0.9030
  125TMC2    C8 1952   3.618   1.616   9.120  0.9194  0.2058  0.6255
  125TMC2    O1 1953   3.621   2.112   8.779 -1.1395 -0.3089 -0.2847
  125TMC2    O2 1954   3.611   1.603   9.242  0.1870  0.2313  0.4217
  125TMC2    O5 1955   3.687   1.538   9.027 -0.1628  0.5060  0.4546
  125TMC2    H5 1956   3.688   1.569   8.934 -1.8772 -3.4827 -0.9055
  126MPD1     C 1957   2.999   2.347   9.318  0.2487  0.0490 -0.2699
  126MPD1    C1 1958   3.040   2.372   9.187 -0.2170 -0.0524  0.5221
  126MPD1    C2 1959   3.143   2.295   9.143  0.2468 -0.2766 -0.9830
  126MPD1    C3 1960   3.184   2.179   9.210  0.1242 -0.0348 -0.1860
  126MPD1    C4 1961   3.137   2.153   9.339  0.3241  0.0402 -0.3920
  126MPD1    C5 1962   3.050   2.239   9.393 -0.7892  0.3706  0.3354
  126MPD1     H 1963   3.180   2.311   9.042 -0.3887  0.5630 -1.0829
  126MPD1    H1 1964   3.174   2.066   9.391 -0.7113  0.4670  1.0383
  126MPD1    H2 1965   2.921   2.408   9.363  1.5897  0.5608  1.3989
  126MPD1    H3 1966   3.007   2.219   9.490  0.8967 -2.8360  0.3842
  126MPD1     N 1967   3.281   2.100   9.146 -1.0820  0.2510 -0.1267
  126MPD1    H5 1968   3.292   2.118   9.047  1.4706 -3.3432 -0.4952
  126MPD1    N1 1969   3.008   2.486   9.113 -0.6405  0.3007  0.2100
  126MPD1    H6 1970   2.921   2.525   9.148 -0.0427  0.0263  2.0294
  126MPD1    H7 1971   2.996   2.470   9.013 -0.0188 -0.2579  0.2238
  127TMC2    C1 1972   3.893   0.667  10.042 -0.1872  0.5610 -0.1611
  127TMC2    C2 1973   3.905   0.596  10.162 -0.5823 -0.6946  0.7157
  127TMC2    C3 1974   3.806   0.507  10.189  0.1633 -0.0993  0.1552
  127TMC2    C4 1975   3.775   0.661   9.970  0.1235 -0.0373  0.1147
  127TMC2    C5 1976   3.672   0.584  10.014  0.4603  0.7808 -0.5003
  127TMC2    C6 1977   3.687   0.500  10.125  0.1667  0.0044 -0.4312
  127TMC2     C 1978   3.997   0.762  10.012  0.1588 -0.1026 -0.2611
  127TMC2     O 1979   4.049   0.821  10.101  0.8864 -0.0165 -0.2574
  127TMC2     H 1980   3.986   0.616  10.231 -0.6416  0.4518  0.4436
  127TMC2    H1 1981   3.754   0.721   9.882  1.2301  0.9332  0.5025
  127TMC2    H2 1982   3.616   0.423  10.155 -1.1959  1.0916 -0.8326
  127TMC2    C7 1983   3.545   0.606   9.948 -0.6761 -0.4971  0.6008
  127TMC2    C8 1984   3.812   0.452  10.321 -0.0817  0.4352 -0.2616
  127TMC2    O1 1985   3.536   0.673   9.847 -0.1555 -0.0096  0.6259
  127TMC2    O2 1986   3.909   0.397  10.363 -0.5253 -0.5045 -0.6471
  127TMC2    O5 1987   3.690   0.446  10.374  0.0982 -0.2537 -0.0300
  127TMC2    H5 1988   3.636   0.516  10.332  1.0395 -0.0168 -0.8534
  128MPD2     C 1989   4.078   0.897   9.678  0.0787  0.3167 -0.7775
  128MPD2    C1 1990   4.074   0.902   9.818 -0.3548  0.1600  0.5258
  128MPD2    C2 1991   4.146   0.999   9.889  0.2079 -0.5510  0.7441
  128MPD2    C3 1992   4.202   1.098   9.812  0.1557 -0.2257  0.1006
  128MPD2    C4 1993   4.205   1.092   9.676  0.4897 -0.2645 -0.8954
  128MPD2    C5 1994   4.138   0.994   9.614 -0.5015 -0.0254  0.1527
  128MPD2     H 1995   4.156   1.012   9.996  2.3126  0.3745  0.4361
  128MPD2    H1 1996   4.253   1.169   9.616  1.4052  0.4606  0.7809
  128MPD2    H2 1997   4.037   0.820   9.613  0.9600 -1.0009  0.2144
  128MPD2    H3 1998   4.121   1.013   9.509  0.8753 -0.4220 -0.1480
  128MPD2     N 1999   4.265   1.209   9.872  0.1991 -0.5088  0.3096
  128MPD2    H5 2000   4.311   1.192   9.960 -0.0537 -3.0977 -0.0620
  128MPD2    N1 2001   3.994   0.800   9.882  0.0507  0.5607 -0.5378
  128MPD2    H7 2002   3.965   0.736   9.809  0.4837  1.9546 -1.9333
  129TMC2    C1 2003   3.207   0.536   1.231  0.4171 -0.5225 -0.0726
  129TMC2    C2 2004   3.181   0.656   1.303  0.4947  0.3648  0.0726
  129TMC2    C3 2005   3.054   0.656   1.366 -0.5917 -0.5545 -0.6637
  129TMC2    C4 2006   3.115   0.438   1.220  0.1483 -0.9748 -0.0047
  129TMC2    C5 2007   2.991   0.457   1.273  0.5056 -0.3096  0.6050
  129TMC2    C6 2008   2.954   0.564   1.335 -0.0336  0.0432 -0.1612
  129TMC2     C 2009   3.335   0.520   1.154  0.1463  0.1630 -0.4160
  129TMC2     O 2010   3.343   0.436   1.065 -0.1611  0.5058 -0.0849
  129TMC2     H 2011   3.256   0.733   1.309  0.6174  0.3313 -1.1075
  129TMC2    H1 2012   3.133   0.361   1.145  1.2328 -2.2432  1.5491
  129TMC2    H2 2013   2.854   0.576   1.374  1.1476 -1.4775  3.4060
  129TMC2    C7 2014   2.875   0.366   1.242 -0.3961  0.8682  0.4315
  129TMC2    C8 2015   3.012   0.768   1.441  0.6504  0.6717  0.0783
  129TMC2    O1 2016   2.761   0.390   1.279 -0.0600 -0.3412  0.8991
  129TMC2    O2 2017   2.898   0.819   1.446  0.3418 -0.1535  0.4047
  129TMC2    O5 2018   3.125   0.821   1.486 -0.0985 -0.1254  0.0622
  129TMC2    H5 2019   3.195   0.757   1.512 -0.4541  0.4258  2.3325
  130MPD2     C 2020   3.588   0.562   1.018 -0.7598  0.5515  0.4950
  130MPD2    C1 2021   3.546   0.650   1.111 -0.2355 -0.1702 -0.4242
  130MPD2    C2 2022   3.616   0.765   1.138 -0.3616  0.6368 -0.7884
  130MPD2    C3 2023   3.730   0.792   1.064 -0.9919  0.3485 -0.3321
  130MPD2    C4 2024   3.774   0.696   0.978  0.2314  0.2980  0.0280
  130MPD2    C5 2025   3.709   0.582   0.959  0.4230 -0.3676 -0.0788
  130MPD2     H 2026   3.567   0.843   1.195  1.4349  1.3019 -0.1484
  130MPD2    H1 2027   3.871   0.694   0.929  0.5525 -1.3760  0.7468
  130MPD2    H2 2028   3.547   0.464   0.996  1.2265  0.1680 -1.3928
  130MPD2    H3 2029   3.757   0.498   0.912 -0.7523 -0.8767 -0.3546
  130MPD2     N 2030   3.790   0.919   1.077  0.1215 -0.2907  0.0466
  130MPD2    H5 2031   3.757   0.980   1.152  0.0091  0.0471 -0.2814
  130MPD2    N1 2032   3.428   0.620   1.182 -0.3362 -0.0350 -0.1400
  130MPD2    H7 2033   3.407   0.689   1.252 -1.9016  1.4345 -2.0434
  131TMC2    C1 2034   1.696   0.737   9.950  0.2192  0.1630  0.0358
  131TMC2    C2 2035   1.605   0.836   9.959  0.0290  0.8210 -1.0431
  131TMC2    C3 2036   1.653   0.968   9.969 -0.1201 -1.1038  0.3080
  131TMC2    C4 2037   1.830   0.765   9.948 -0.5377 -0.3159  0.0045
  131TMC2    C5 2038   1.870   0.887   9.972 -0.5148  0.2020 -0.0509
  131TMC2    C6 2039   1.785   0.998   9.981  0.7056  0.1938 -0.2831
  131TMC2     C 2040   1.654   0.598   9.955 -0.0965 -0.1005  1.0041
  131TMC2     O 2041   1.745   0.517   9.940  0.0466  0.4082 -0.1598
  131TMC2     H 2042   1.497   0.830   9.945  0.1365  1.2207 -2.0429
  131TMC2    H1 2043   1.902   0.685   9.960  0.2590  0.1908 -1.3604
  131TMC2    H2 2044   1.814   1.103   9.986  2.1415 -0.2950  1.6559
  131TMC2    C7 2045   1.998   0.916   9.910  0.2920 -0.2624 -0.6612
  131TMC2    C8 2046   1.566   1.075   9.981 -0.2458  0.2153 -0.2138
  131TMC2    O1 2047   2.039   0.822   9.844 -0.3552 -0.0560 -0.3939
  131TMC2    O2 2048   1.604   1.191   9.977 -0.5958  0.1206  0.4762
  131TMC2    O5 2049   1.452   1.043  10.052  0.2686 -0.3938 -0.3168
  131TMC2    H5 2050   1.423   0.949  10.055  0.9272 -0.6294 -1.4797
  132MPD2     C 2051   1.302   0.482   9.953 -0.2551  0.6418 -0.4513
  132MPD2    C1 2052   1.438   0.466   9.950  0.4968  0.4519  0.2527
  132MPD2    C2 2053   1.498   0.342   9.952 -0.1327 -0.4184 -0.5368
  132MPD2    C3 2054   1.414   0.232   9.967 -0.7958  0.0157 -0.5343
  132MPD2    C4 2055   1.275   0.245   9.953 -0.0984  0.2839  0.2800
  132MPD2    C5 2056   1.222   0.368   9.936 -0.2035  0.1000  0.6981
  132MPD2     H 2057   1.604   0.333   9.968 -0.2964 -1.1801  0.1045
  132MPD2    H1 2058   1.212   0.158   9.945  0.2275 -0.1088  1.9884
  132MPD2    H2 2059   1.259   0.581   9.959 -2.0270 -0.1402 -0.4224
  132MPD2    H3 2060   1.114   0.373   9.923  0.1356 -0.9625 -2.3950
  132MPD2     N 2061   1.481   0.108   9.997 -0.1966  0.1814 -0.4541
  132MPD2    H5 2062   1.582   0.111  10.003 -0.1931  1.2134 -0.9801
  132MPD2    N1 2063   1.517   0.584   9.968  0.2840 -0.6125  0.1204
  132MPD2    H7 2064   1.480   0.675   9.994  1.8059  0.2468 -0.7048
  133TMC2    C1 2065   0.914   2.178   9.889  0.0297 -0.3516 -0.3281
  133TMC2    C2 2066   0.986   2.277   9.826  0.2480 -0.0914 -0.2158
  133TMC2    C3 2067   0.991   2.401   9.874  0.5423  0.6326 -0.3891
  133TMC2    C4 2068   0.849   2.209  10.008  0.4544 -0.2516  0.0907
  133TMC2    C5 2069   0.857   2.335  10.054 -0.2194  0.2662 -0.1239
  133TMC2    C6 2070   0.928   2.432   9.989 -0.4245  0.3828 -0.3343
  133TMC2     C 2071   0.946   2.035   9.868 -0.4003 -0.2714  0.1029
  133TMC2     O 2072   0.865   1.951   9.911  0.3428  0.0096  0.1004
  133TMC2     H 2073   1.030   2.260   9.729 -2.2129 -2.3714 -0.9452
  133TMC2    H1 2074   0.784   2.136  10.056 -0.3748  0.6424  0.3175
  133TMC2    H2 2075   0.957   2.529  10.027 -1.9932  0.0990  1.6368
  133TMC2    C7 2076   0.838   2.353  10.201  0.3181 -0.2036 -0.1540
  133TMC2    C8 2077   1.059   2.509   9.796  0.5483  0.0294  0.6555
  133TMC2    O1 2078   0.822   2.255  10.273 -0.2372  0.0336 -0.0387
  133TMC2    O2 2079   1.046   2.626   9.819  0.8665 -0.1080 -0.7613
  133TMC2    O5 2080   1.164   2.458   9.729  0.0629  0.0161  0.3908
  133TMC2    H5 2081   1.174   2.363   9.750  0.1091 -0.0923 -0.1031
  134MPD2     C 2082   1.206   1.897   9.649  0.2236  0.0065  0.4989
  134MPD2    C1 2083   1.104   1.890   9.739 -0.3383  0.4268 -0.0411
  134MPD2    C2 2084   1.064   1.756   9.776 -0.1909  0.3694  0.0547
  134MPD2    C3 2085   1.115   1.642   9.716  0.3786 -0.0904 -0.5939
  134MPD2    C4 2086   1.198   1.658   9.606  0.2283  0.5814 -0.4034
  134MPD2    C5 2087   1.250   1.787   9.585  0.0472 -0.2528 -0.0262
  134MPD2     H 2088   0.994   1.741   9.858 -0.0048 -1.5531 -0.1277
  134MPD2    H1 2089   1.230   1.584   9.534  1.3839 -0.4097  1.1518
  134MPD2    H2 2090   1.258   1.990   9.629  2.1005 -1.4918 -1.4972
  134MPD2    H3 2091   1.325   1.797   9.507  0.0635  2.0955  0.2992
  134MPD2     N 2092   1.077   1.508   9.741  0.0956 -0.2675  0.5027
  134MPD2    H5 2093   1.131   1.431   9.703 -0.2682  0.3886 -1.3413
  134MPD2    N1 2094   1.052   2.013   9.784  0.1951  0.7136 -0.0687
  134MPD2    H7 2095   1.106   2.094   9.756  0.2656  1.1715  1.3981
  135TMC2    C1 2096   3.350   2.378   9.550  0.0998  0.5058  0.4019
  135TMC2    C2 2097   3.315   2.445   9.436 -0.6109  0.1738 -0.7257
  135TMC2    C3 2098   3.245   2.558   9.457 -0.7018  0.7305  0.3864
  135TMC2    C4 2099   3.308   2.415   9.677  0.2032 -0.4677 -0.4169
  135TMC2    C5 2100   3.224   2.522   9.686  0.9109 -0.4373 -0.3852
  135TMC2    C6 2101   3.192   2.598   9.575  0.1781  0.2400  0.0126
  135TMC2     C 2102   3.445   2.264   9.530  0.8642  0.1467  0.3705
  135TMC2     O 2103   3.430   2.169   9.606  0.4504 -0.6733 -0.4879
  135TMC2     H 2104   3.326   2.400   9.338 -1.8614 -2.2974  0.2628
  135TMC2    H1 2105   3.359   2.366   9.759 -1.9643  1.6487  2.2141
  135TMC2    H2 2106   3.137   2.692   9.575  0.0236  0.1540  2.2700
  135TMC2    C7 2107   3.175   2.561   9.820 -0.1592 -0.1581 -0.3622
  135TMC2    C8 2108   3.212   2.650   9.341 -0.7726  0.3967  0.2126
  135TMC2    O1 2109   3.128   2.676   9.829  0.2161 -0.3490  0.0427
  135TMC2    O2 2110   3.121   2.732   9.342  0.1372 -0.3992  0.1113
  135TMC2    O5 2111   3.330   2.668   9.277 -0.7916 -0.1655  0.4096
  135TMC2    H5 2112   3.398   2.598   9.289  0.4064  0.7814 -0.9187
  136MPD2     C 2113   3.614   2.052   9.412 -0.3299  0.2240 -0.2504
  136MPD2    C1 2114   3.613   2.186   9.372  0.5008 -0.1936 -0.3683
  136MPD2    C2 2115   3.703   2.220   9.269 -0.4832 -0.2702 -0.2470
  136MPD2    C3 2116   3.798   2.130   9.223  0.9352  0.3531 -0.1157
  136MPD2    C4 2117   3.800   2.009   9.277  0.2183  0.2243 -0.1791
  136MPD2    C5 2118   3.706   1.963   9.366  0.4545 -0.2987  0.3587
  136MPD2     H 2119   3.706   2.322   9.232 -0.7807 -0.2572 -0.2327
  136MPD2    H1 2120   3.872   1.933   9.248 -0.5786 -1.2506  1.7106
  136MPD2    H2 2121   3.537   2.018   9.481  0.9648 -0.4379  0.8704
  136MPD2    H3 2122   3.711   1.860   9.399  1.0919  0.1113  1.5346
  136MPD2     N 2123   3.909   2.166   9.144  0.0484 -0.4761 -0.4200
  136MPD2    H5 2124   3.981   2.095   9.135  1.5633  0.7217  2.2234
  136MPD2    N1 2125   3.528   2.282   9.419  0.6349 -0.4910  0.0229
  136MPD2    H7 2126   3.524   2.366   9.363  0.1719 -0.3193  0.3125
  137TMC2    C1 2127   2.878   2.041   9.087 -0.2316 -0.2149  0.2355
  137TMC2    C2 2128   2.874   2.099   8.965  0.0247  0.4977 -0.2406
  137TMC2    C3 2129   2.788   2.205   8.942 -0.1287  0.0352 -0.6211
  137TMC2    C4 2130   2.812   2.093   9.191 -0.4330  0.1398 -0.0180
  137TMC2    C5 2131   2.740   2.204   9.167 -0.4398 -0.7436  0.1646
  137TMC2    C6 2132   2.725   2.261   9.045 -0.3382  0.3493 -0.5568
  137TMC2     C 2133   2.925   1.913   9.109  0.2056  0.3011 -0.2608
  137TMC2     O 2134   2.876   1.845   9.199 -0.0369  0.1489  0.5432
  137TMC2     H 2135   2.933   2.055   8.885 -0.7527  0.4053 -0.7668
  137TMC2    H1 2136   2.838   2.064   9.292 -2.1897 -1.5139 -0.0534
  137TMC2    H2 2137   2.686   2.362   9.038  0.2402  0.6610  0.5989
  137TMC2    C7 2138   2.663   2.262   9.274  0.3643  0.1469  0.0032
  137TMC2    C8 2139   2.839   2.288   8.836 -0.4970  0.4487 -0.4918
  137TMC2    O1 2140   2.614   2.369   9.255 -0.5551 -0.1258  0.5958
  137TMC2    O2 2141   2.887   2.399   8.852 -0.2008  0.3086 -0.8110
  137TMC2    O5 2142   2.846   2.217   8.717 -0.5866  0.0738  0.5467
  137TMC2    H5 2143   2.802   2.130   8.715 -0.8628  0.1837  1.9676
  138MPD2     C 2144   3.158   1.692   8.931 -0.4061  0.4127 -0.1602
  138MPD2    C1 2145   3.091   1.747   9.041  0.3094  0.2424 -0.5326
  138MPD2    C2 2146   3.103   1.683   9.165 -0.7167  0.3062  0.2504
  138MPD2    C3 2147   3.193   1.580   9.186 -0.5018  0.6018  0.5244
  138MPD2    C4 2148   3.250   1.523   9.077 -0.6222 -0.2131  0.6816
  138MPD2    C5 2149   3.229   1.575   8.956 -1.1837  0.4771  0.4822
  138MPD2     H 2150   3.051   1.715   9.255 -1.2489 -0.5802  0.2650
  138MPD2    H1 2151   3.293   1.424   9.085 -1.3983 -0.5894  0.1912
  138MPD2    H2 2152   3.148   1.728   8.829  2.4764 -0.6294 -0.7983
  138MPD2    H3 2153   3.253   1.517   8.868  2.0919 -0.9437  2.3309
  138MPD2     N 2154   3.202   1.524   9.318  0.0057 -0.4746 -0.3282
  138MPD2    H5 2155   3.147   1.574   9.387  0.1397 -0.5646 -0.1560
  138MPD2    N1 2156   3.017   1.867   9.017 -0.2836  0.1492  0.9389
  138MPD2    H7 2157   3.027   1.913   8.928 -0.3269 -0.1735  0.7655
  139TMC2    C1 2158   4.317   4.342  13.655 -0.2617 -0.5040 -0.1915
  139TMC2    C2 2159   4.387   4.436  13.724 -0.5251 -0.8033  0.2566
  139TMC2    C3 2160   4.328   4.561  13.730 -0.4165  0.5902 -0.5754
  139TMC2    C4 2161   4.191   4.366  13.598  0.3661 -0.5495  0.1060
  139TMC2    C5 2162   4.140   4.491  13.615  0.6841  0.6755  0.3449
  139TMC2    C6 2163   4.207   4.597  13.678 -0.0567 -0.4485  0.2370
  139TMC2     C 2164   4.383   4.205  13.663 -0.6527  0.0749  0.4346
  139TMC2     O 2165   4.462   4.178  13.752 -0.2646  0.4214 -0.5209
  139TMC2     H 2166   4.490   4.430  13.758  0.4724  0.3470 -2.5666
  139TMC2    H1 2167   4.130   4.295  13.543  1.4159 -1.1228 -0.3254
  139TMC2    H2 2168   4.173   4.699  13.664 -0.9457 -1.0022 -1.6185
  139TMC2    C7 2169   3.996   4.504  13.623  0.5532 -0.4852  0.2686
  139TMC2    C8 2170   4.420   4.661  13.785  0.5105 -0.2272  0.4206
  139TMC2    O1 2171   3.959   4.620  13.618 -1.1098 -0.1991 -0.4088
  139TMC2    O2 2172   4.540   4.662  13.769  0.2172 -0.3393 -0.2621
  139TMC2    O5 2173   4.351   0.038  13.822 -0.4240  0.2612 -0.6537
  139TMC2    H5 2174   4.259   0.027  13.853 -0.2325 -2.5306 -1.0633
  140MPD2     C 2175   4.367   3.913  13.730  0.2667  0.0666 -0.7526
  140MPD2    C1 2176   4.326   3.965  13.608  0.2312 -0.3135  0.1467
  140MPD2    C2 2177   4.267   3.884  13.513  0.0813 -0.1320 -0.3497
  140MPD2    C3 2178   4.275   3.743  13.529  0.0614 -0.2297  0.0543
  140MPD2    C4 2179   4.320   3.688  13.644  0.1808 -0.0197 -0.3367
  140MPD2    C5 2180   4.359   3.777  13.744  0.0384 -0.1779  0.0949
  140MPD2     H 2181   4.216   3.935  13.432 -0.5544 -0.5345 -0.2052
  140MPD2    H1 2182   4.323   3.583  13.667 -0.4430 -0.0088 -0.2221
  140MPD2    H2 2183   4.394   3.967  13.820  1.6918  0.7488 -1.5943
  140MPD2    H3 2184   4.387   3.735  13.840  1.9346  2.6039  0.7510
  140MPD2     N 2185   4.213   3.664  13.426  0.8349  0.1135  0.0852
  140MPD2    H5 2186   4.168   3.706  13.346  0.4667  0.4844  0.4837
  140MPD2    N1 2187   4.318   4.106  13.590  0.5267 -0.7088  0.3199
  140MPD2    H7 2188   4.272   4.146  13.509  1.3905 -1.4615 -0.5477
  141TMC2    C1 2189   3.804   1.288  14.376  0.5147 -0.0690 -0.3973
  141TMC2    C2 2190   3.669   1.266  14.389  0.0982 -0.3081 -0.2669
  141TMC2    C3 2191   3.618   1.304  14.513 -0.5251 -0.1709  0.0299
  141TMC2    C4 2192   3.872   1.367  14.463  0.5900 -0.3231 -0.3441
  141TMC2    C5 2193   3.815   1.419  14.576 -0.3458  0.7156 -1.2095
  141TMC2    C6 2194   3.684   1.394  14.600 -0.2255 -0.3968  0.0781
  141TMC2     C 2195   3.865   1.262  14.248 -0.0066  0.1265 -0.1900
  141TMC2     O 2196   3.938   1.342  14.198 -0.5261 -0.2918  0.8114
  141TMC2     H 2197   3.606   1.221  14.312  0.0058  0.1450 -0.4573
  141TMC2    H1 2198   3.962   1.403  14.415  0.4688 -0.5182 -0.7184
  141TMC2    H2 2199   3.634   1.422  14.692 -1.3846 -4.3562  0.6546
  141TMC2    C7 2200   3.892   1.502  14.671 -0.4200 -0.4611 -0.5847
  141TMC2    C8 2201   3.475   1.332  14.509  0.3681  0.5199  0.0295
  141TMC2    O1 2202   3.831   1.568  14.756  0.1693 -0.0618  0.2349
  141TMC2    O2 2203   3.401   1.334  14.410  0.4514  1.0229  0.1351
  141TMC2    O5 2204   3.433   1.314  14.634 -0.3372  0.4583  0.1695
  141TMC2    H5 2205   3.502   1.294  14.701 -1.4599 -0.3437  1.0744
  142TMC2    C1 2206   1.385   3.295   9.925  0.6461  0.2585  0.2117
  142TMC2    C2 2207   1.312   3.188   9.872  0.5291 -0.2931  0.0169
  142TMC2    C3 2208   1.342   3.143   9.743  0.1434  0.4142  0.2419
  142TMC2    C4 2209   1.475   3.357   9.840  0.1637  0.2646  0.0506
  142TMC2    C5 2210   1.500   3.308   9.711 -0.5149 -0.0543 -0.3764
  142TMC2    C6 2211   1.438   3.199   9.661  0.2267 -0.1260 -0.1270
  142TMC2     C 2212   1.378   3.321  10.064  0.1962 -0.0849  0.8949
  142TMC2     O 2213   1.340   3.227  10.127 -0.0002 -0.1418 -0.1067
  142TMC2     H 2214   1.229   3.146   9.926 -1.1619  1.1824 -1.4254
  142TMC2    H1 2215   1.532   3.443   9.873  1.1633 -0.2979 -0.2068
  142TMC2    H2 2216   1.474   3.160   9.567  1.9582 -2.1241  1.3599
  142TMC2    C7 2217   1.591   3.388   9.636 -0.0848 -0.7950  0.1640
  142TMC2    C8 2218   1.287   3.019   9.693 -0.2370  0.1237  0.0215
  142TMC2    O1 2219   1.660   3.471   9.698  0.0671  0.0403  0.1352
  142TMC2    O2 2220   1.260   2.922   9.760  0.4622  0.1973 -0.1104
  142TMC2    O5 2221   1.279   3.034   9.553 -0.3573 -0.2960  0.3859
  142TMC2    H5 2222   1.297   3.120   9.509 -1.5784 -1.3757 -2.2246
  143MPD2     C 2223   1.434   3.651  10.458  0.3003  0.0278  0.5019
  143MPD2    C1 2224   1.417   3.516  10.464  0.4204  1.0850 -0.5114
  143MPD2    C2 2225   1.401   3.443  10.353  0.6224 -0.1137  0.2081
  143MPD2    C3 2226   1.405   3.509  10.232  0.6509 -0.0587  0.1439
  143MPD2    C4 2227   1.416   3.650  10.226 -0.9415  0.6628 -0.0268
  143MPD2    C5 2228   1.438   3.720  10.342  0.5094 -0.0839  0.2252
  143MPD2     H 2229   1.390   3.335  10.361  0.6605 -0.0822  0.6847
  143MPD2    H1 2230   1.421   3.698  10.128 -2.5997 -0.2870 -0.5663
  143MPD2    H2 2231   1.458   3.717  10.541  0.3139  1.4961 -0.6816
  143MPD2    H3 2232   1.447   3.828  10.339 -1.2377 -0.0142 -2.4862
  143MPD2     N 2233   1.402   3.450  10.101 -0.3244 -0.3743 -0.4279
  143MPD2    H5 2234   1.411   3.518  10.027 -0.1067  1.7754  1.5686
  143MPD2    N1 2235   1.403   3.470  10.593 -0.1623  0.0740  0.1050
  143MPD2    H7 2236   1.421   3.537  10.666 -2.1087 -0.1389  0.7917
  144TMC2    C1 2237   0.261   2.580   0.695  0.3962  0.5698 -0.0506
  144TMC2    C2 2238   0.304   2.452   0.666  0.2822  0.2711  0.1506
  144TMC2    C3 2239   0.420   2.408   0.731  0.4020  0.4833  0.2344
  144TMC2    C4 2240   0.338   2.663   0.774 -0.6342  0.0592  0.5121
  144TMC2    C5 2241   0.460   2.621   0.816 -0.3739  0.3556 -0.2641
  144TMC2    C6 2242   0.502   2.492   0.801  0.0688 -0.3813  0.1735
  144TMC2     C 2243   0.141   2.627   0.619 -0.3108 -0.2861  0.2435
  144TMC2     O 2244   0.079   2.549   0.547  0.5208  1.3643  0.1489
  144TMC2     H 2245   0.250   2.389   0.596  0.9230 -0.1033 -0.0087
  144TMC2    H1 2246   0.307   2.765   0.788 -1.0707  0.0450 -0.3393
  144TMC2    H2 2247   0.601   2.469   0.838 -0.9544 -2.4681  1.6389
  144TMC2    C7 2248   0.540   2.688   0.916  0.5027  0.8697 -0.1588
  144TMC2    C8 2249   0.465   2.272   0.708  0.7101  0.3395  0.3732
  144TMC2    O1 2250   0.650   2.648   0.940 -0.2727 -0.0118  0.0266
  144TMC2    O2 2251   0.585   2.242   0.724  0.5038 -0.2335  0.2437
  144TMC2    O5 2252   0.369   2.190   0.749  0.7442 -0.2555  0.2043
  144TMC2    H5 2253   0.286   2.215   0.703 -0.5001 -3.1581  0.8588
  145MPD2     C 2254   4.626   3.006   0.397 -0.1865  0.4323 -0.0897
  145MPD2    C1 2255   4.626   2.874   0.367 -0.4175  0.5873 -0.3627
  145MPD2    C2 2256   4.698   2.793   0.446  0.0645  0.1449  0.6872
  145MPD2    C3 2257   0.033   2.837   0.555  0.3441  0.1618  0.2735
  145MPD2    C4 2258   0.008   2.966   0.596  0.3737 -0.3010 -0.1594
  145MPD2    C5 2259   4.685   3.053   0.510  0.5158  0.8609  0.4589
  145MPD2     H 2260   4.709   2.687   0.427 -1.8594  0.3102 -1.3071
  145MPD2    H1 2261   0.047   3.003   0.691  2.7643 -0.2888 -1.1382
  145MPD2    H2 2262   4.585   3.079   0.328 -0.1499 -0.4704 -1.0780
  145MPD2    H3 2263   4.677   3.158   0.535 -0.8994  0.4856  1.5633
  145MPD2     N 2264   0.111   2.762   0.644  0.4586 -0.8657 -0.1448
  145MPD2    H5 2265   0.156   2.808   0.722  2.3189 -0.1393 -1.6612
  145MPD2    N1 2266   4.558   2.811   0.260 -0.6291  0.1615 -0.1511
  145MPD2    H7 2267   4.562   2.711   0.249  2.2526  0.3419 -0.9344
  146TMC2    C1 2268   1.356   1.781  13.120 -1.3851  0.4578 -0.0476
  146TMC2    C2 2269   1.265   1.867  13.061  0.3958  0.3887  0.3553
  146TMC2    C3 2270   1.139   1.827  13.037  0.5071 -0.2494  0.3554
  146TMC2    C4 2271   1.315   1.661  13.167  0.1417  0.6063 -0.3081
  146TMC2    C5 2272   1.187   1.620  13.136 -0.4419  0.1861  0.2055
  146TMC2    C6 2273   1.100   1.704  13.074  0.1555 -0.0466 -0.5664
  146TMC2     C 2274   1.485   1.844  13.148  0.0008  0.1375 -0.4021
  146TMC2     O 2275   1.491   1.964  13.141 -0.0971  0.3952 -0.0094
  146TMC2     H 2276   1.292   1.969  13.035 -1.0379  1.4255  2.9607
  146TMC2    H1 2277   1.372   1.596  13.233  1.8857 -0.2701 -2.6944
  146TMC2    H2 2278   0.997   1.676  13.055 -0.5693  0.6992  2.2466
  146TMC2    C7 2279   1.152   1.482  13.165 -0.2015  0.4329  0.7147
  146TMC2    C8 2280   1.033   1.925  13.000 -0.5607  0.3960  0.0617
  146TMC2    O1 2281   1.033   1.456  13.156 -0.2307 -0.4902 -0.5393
  146TMC2    O2 2282   1.044   2.040  13.039 -1.3398 -0.0751  0.1592
  146TMC2    O5 2283   0.971   1.880  12.891 -0.0104 -0.2789  0.3414
  146TMC2    H5 2284   0.998   1.790  12.862  0.6437  0.4734 -1.3513
  147MPD2     C 2285   1.240   0.995  13.312  0.1232  0.3700 -0.1773
  147MPD2    C1 2286   1.355   1.070  13.331 -0.3333  0.5348  0.2151
  147MPD2    C2 2287   1.354   1.207  13.295 -0.6581 -0.6191 -0.2865
  147MPD2    C3 2288   1.245   1.264  13.238 -0.6378 -0.2248 -0.3669
  147MPD2    C4 2289   1.134   1.185  13.217 -0.6817  0.0131  0.1890
  147MPD2    C5 2290   1.127   1.052  13.258  0.4126  0.0176  0.6926
  147MPD2     H 2291   1.432   1.281  13.302  0.0672 -1.5203  1.0074
  147MPD2    H1 2292   1.044   1.226  13.173 -0.1142  3.1697  1.8992
  147MPD2    H2 2293   1.252   0.888  13.323  2.3584  0.4349 -1.7740
  147MPD2    H3 2294   1.039   0.988  13.248  1.9522 -2.4382  2.7842
  147MPD2     N 2295   1.256   1.399  13.199  0.4880 -0.0128 -0.4532
  147MPD2    H5 2296   1.350   1.435  13.186  0.6329 -0.3130 -0.2320
  147MPD2    N1 2297   1.472   1.002  13.382 -0.0659 -0.4083 -0.4217
  147MPD2    H7 2298   1.451   0.905  13.404 -0.6780 -0.2742 -0.4115
  148TMC2    C1 2299   1.497   1.302  10.345  0.5058  0.4008 -0.2410
  148TMC2    C2 2300   1.612   1.356  10.291  0.3521 -0.6659 -1.0736
  148TMC2    C3 2301   1.705   1.264  10.257 -0.0148 -0.0853 -0.0772
  148TMC2    C4 2302   1.500   1.171  10.394  0.0532  0.1017 -0.2849
  148TMC2    C5 2303   1.609   1.091  10.373  0.1562 -0.0380  0.6194
  148TMC2    C6 2304   1.713   1.138  10.305 -0.3691  0.7335  0.3522
  148TMC2     C 2305   1.386   1.390  10.369 -0.1498 -0.0041 -0.6170
  148TMC2     O 2306   1.403   1.509  10.349  0.0708  0.3934  0.4764
  148TMC2     H 2307   1.610   1.462  10.268 -1.7865 -0.4038  0.2620
  148TMC2    H1 2308   1.408   1.129  10.433 -0.5023  0.9464 -0.6817
  148TMC2    H2 2309   1.800   1.072  10.301 -1.3319 -0.5283  0.0229
  148TMC2    C7 2310   1.581   0.945  10.379 -0.3678 -0.2120  0.2160
  148TMC2    C8 2311   1.820   1.303  10.194  0.5537 -0.7623  0.5645
  148TMC2    O1 2312   1.503   0.907  10.462 -0.7108 -0.1137  0.0726
  148TMC2    O2 2313   1.897   1.225  10.142  0.2513  0.4742  0.3734
  148TMC2    O5 2314   1.853   1.401  10.279 -0.1073  0.2042 -0.0161
  148TMC2    H5 2315   1.771   1.436  10.320 -0.9577 -1.1610 -0.5520
  149MPD2     C 2316   1.183   1.499  10.547 -0.5530  0.1641 -0.0848
  149MPD2    C1 2317   1.182   1.370  10.498 -0.1767 -0.0117  0.2793
  149MPD2    C2 2318   1.104   1.278  10.556  0.3736 -0.8650  0.0911
  149MPD2    C3 2319   1.014   1.310  10.659 -0.8439 -0.0168 -0.2112
  149MPD2    C4 2320   1.020   1.434  10.714  0.4107 -0.1826 -0.1895
  149MPD2    C5 2321   1.095   1.530  10.648 -0.1104 -0.0246 -0.3879
  149MPD2     H 2322   1.107   1.178  10.514  0.8159 -0.9190  0.2543
  149MPD2    H1 2323   0.963   1.462  10.801  0.6892 -0.0207 -0.0586
  149MPD2    H2 2324   1.240   1.584  10.511  1.9872 -0.7226  1.8109
  149MPD2    H3 2325   1.091   1.631  10.687 -2.0947 -0.0167 -0.5879
  149MPD2     N 2326   0.928   1.215  10.717  0.4761 -0.2500  0.1941
  149MPD2    H5 2327   0.864   1.240  10.791  0.9539  0.3595  0.4042
  149MPD2    N1 2328   1.277   1.322  10.409  0.3204  0.4224  0.1351
  149MPD2    H7 2329   1.276   1.222  10.389  0.1696  0.2820  0.8280
  150TMC2    C1 2330   3.873   0.757  12.250  0.7301 -0.5142  0.0319
  150TMC2    C2 2331   3.808   0.866  12.303 -0.3905 -0.3422 -0.9366
  150TMC2    C3 2332   3.868   0.947  12.395  0.3823 -0.7695  0.4958
  150TMC2    C4 2333   4.000   0.725  12.288 -0.0833 -0.0095  0.2161
  150TMC2    C5 2334   4.052   0.799  12.388  0.5036 -0.4789 -0.1557
  150TMC2    C6 2335   3.988   0.906  12.449  0.4979 -0.3081 -0.0236
  150TMC2     C 2336   3.826   0.702  12.129  0.4253  0.0420 -0.0584
  150TMC2     O 2337   3.916   0.692  12.045 -0.4294  0.3763 -0.1248
  150TMC2     H 2338   3.723   0.904  12.248  0.3246  0.6751 -1.3501
  150TMC2    H1 2339   4.052   0.648  12.232 -1.3124 -1.2602  0.7672
  150TMC2    H2 2340   4.040   0.969  12.520 -1.5734  1.6513 -0.2555
  150TMC2    C7 2341   4.174   0.747  12.466  0.6164  0.0979 -0.8535
  150TMC2    C8 2342   3.844   1.094  12.385 -0.2585 -0.3175 -0.9327
  150TMC2    O1 2343   4.215   0.822  12.556 -0.1005 -0.0425 -0.2637
  150TMC2    O2 2344   3.934   1.169  12.402  0.3362 -0.4086 -0.1501
  150TMC2    O5 2345   3.719   1.116  12.427  0.1602 -0.3471 -0.3791
  150TMC2    H5 2346   3.678   1.030  12.452 -1.7799  1.0023  1.0190
  151MPD2     C 2347   3.461   0.620  11.785 -0.7528 -0.0300 -0.1131
  151MPD2    C1 2348   3.403   0.594  11.906  0.3101  0.2504 -0.6265
  151MPD2    C2 2349   3.482   0.620  12.012  0.1995 -0.2081  0.1280
  151MPD2    C3 2350   3.612   0.660  12.006 -0.1820 -0.0394 -0.0285
  151MPD2    C4 2351   3.669   0.677  11.882  0.4471 -0.2938 -0.3900
  151MPD2    C5 2352   3.589   0.662  11.776  0.1276  0.7190 -0.2900
  151MPD2     H 2353   3.456   0.606  12.117 -2.1850  0.9626 -0.3028
  151MPD2    H1 2354   3.772   0.709  11.877 -0.1062  1.6651  0.4323
  151MPD2    H2 2355   3.416   0.604  11.687  2.9635 -1.3814 -1.5997
  151MPD2    H3 2356   3.631   0.683  11.678  0.9066 -1.5254 -0.4490
  151MPD2     N 2357   3.690   0.690  12.120 -0.2263  0.2131  0.1737
  151MPD2    H5 2358   3.634   0.699  12.204 -0.1025  0.6834  0.2033
  151MPD2    N1 2359   3.261   0.552  11.915  0.1421  0.6015  0.3482
  151MPD2    H7 2360   3.209   0.549  11.828 -1.0579  1.1488  1.0490
  152TMC2    C1 2361   3.596   0.020  12.247 -0.1618  0.5541  0.5948
  152TMC2    C2 2362   3.547   0.050  12.122 -0.4571  0.6301  0.6902
  152TMC2    C3 2363   3.573   0.172  12.070 -0.1506 -0.3219  0.5296
  152TMC2    C4 2364   3.687   0.092  12.315 -0.4370  0.6004  0.1244
  152TMC2    C5 2365   3.713   0.215  12.255  0.6289 -0.4720  0.1162
  152TMC2    C6 2366   3.658   0.257  12.138  0.6577  0.6892 -0.2646
  152TMC2     C 2367   3.506   4.668  12.313 -0.2554 -0.7591  0.3820
  152TMC2     O 2368   3.387   4.686  12.293  0.3223  0.1149 -0.1121
  152TMC2     H 2369   3.467   4.727  12.079 -0.5902  3.3402 -2.7905
  152TMC2    H1 2370   3.722   0.069  12.415 -0.2100  0.0376 -0.0858
  152TMC2    H2 2371   3.662   0.362  12.110  0.3653  1.0674  1.1396
  152TMC2    C7 2372   3.756   0.327  12.341 -0.2876 -0.4158 -0.8084
  152TMC2    C8 2373   3.489   0.214  11.968 -0.2674 -0.2890  0.4159
  152TMC2    O1 2374   3.772   0.438  12.289  0.3163  0.2005  0.5857
  152TMC2    O2 2375   3.377   0.166  11.953  0.2664 -0.2945  0.0871
  152TMC2    O5 2376   3.546   0.299  11.879 -0.4382  0.5981  0.2749
  152TMC2    H5 2377   3.643   0.315  11.887 -0.4204  0.7709 -0.2541
  153MPD2     C 2378   3.576   4.473  12.625  0.0649 -0.3131  0.0431
  153MPD2    C1 2379   3.498   4.532  12.523 -0.3592 -0.1565  0.4491
  153MPD2    C2 2380   3.364   4.533  12.548 -0.0022  0.2760 -0.5662
  153MPD2    C3 2381   3.305   4.475  12.659 -0.2622  0.0156 -0.1034
  153MPD2    C4 2382   3.379   4.400  12.747 -0.0312  0.4341 -0.1436
  153MPD2    C5 2383   3.514   4.400  12.727  0.2886 -0.6758 -0.3535
  153MPD2     H 2384   3.294   4.583  12.482 -0.1136 -0.0418 -0.6880
  153MPD2    H1 2385   3.338   4.348  12.833 -0.8265  2.8323  0.9407
  153MPD2    H2 2386   3.684   4.475  12.620 -0.0545  1.3020 -1.9087
  153MPD2    H3 2387   3.579   4.357  12.802 -2.0878 -0.9013  1.5814
  153MPD2     N 2388   3.162   4.483  12.665  0.4845 -0.4387  0.5539
  153MPD2    H5 2389   3.113   4.519  12.583  0.0291  0.5465  1.2688
  153MPD2    N1 2390   3.566   4.605  12.422  0.7668 -0.0298 -0.1449
  153MPD2    H7 2391   3.667   4.618  12.430  0.4572  1.7412  0.7296
  154TMC2    C1 2392   0.039   3.629   0.718  0.7136  0.8379  0.0386
  154TMC2    C2 2393   0.055   3.496   0.684 -0.1714  0.2661  0.4513
  154TMC2    C3 2394   0.165   3.429   0.726  0.0062  0.2136  0.3745
  154TMC2    C4 2395   0.142   3.698   0.770 -0.4704 -0.1192  0.2382
  154TMC2    C5 2396   0.259   3.626   0.806  0.0332  0.8959  0.7762
  154TMC2    C6 2397   0.268   3.491   0.791 -0.6534  0.1484  0.3553
  154TMC2     C 2398   4.654   3.706   0.686 -0.2966 -0.3321  0.0346
  154TMC2     O 2399   4.651   3.815   0.743  0.4802 -0.4701  0.2031
  154TMC2     H 2400   4.707   3.435   0.652 -0.2739 -0.0264  1.2850
  154TMC2    H1 2401   0.149   3.806   0.768 -2.3882 -0.0189 -0.8210
  154TMC2    H2 2402   0.357   3.457   0.842 -0.5162 -0.6713 -0.4275
  154TMC2    C7 2403   0.376   3.703   0.847  0.5646  0.1916 -0.5683
  154TMC2    C8 2404   0.148   3.285   0.744  0.3922  0.3308  0.0018
  154TMC2    O1 2405   0.484   3.647   0.833 -1.1066  0.3146  0.3486
  154TMC2    O2 2406   0.039   3.229   0.762  0.4257 -0.3157  0.0286
  154TMC2    O5 2407   0.269   3.224   0.770 -0.2424  0.2509  0.3984
  154TMC2    H5 2408   0.340   3.281   0.734 -0.0606 -1.9714 -2.7979
  155MPD2     C 2409   4.353   3.632   0.486 -0.1854  0.4018 -0.6357
  155MPD2    C1 2410   4.440   3.700   0.571 -0.9305 -0.1292 -0.0930
  155MPD2    C2 2411   4.393   3.826   0.620 -0.2783 -0.0782 -0.3767
  155MPD2    C3 2412   4.264   3.866   0.603 -0.2672  0.1677 -0.4827
  155MPD2    C4 2413   4.173   3.792   0.526 -0.3717  0.3412 -0.3884
  155MPD2    C5 2414   4.222   3.675   0.469  0.4305 -0.4269  0.3339
  155MPD2     H 2415   4.462   3.893   0.669  1.1113 -0.1553 -2.2320
  155MPD2    H1 2416   4.074   3.828   0.500  0.2081  0.5038 -2.3601
  155MPD2    H2 2417   4.381   3.544   0.430  0.2919  0.9040 -1.1863
  155MPD2    H3 2418   4.160   3.614   0.404 -0.6733  0.6270  0.3962
  155MPD2     N 2419   4.219   3.982   0.673  0.5094  0.0906 -0.3203
  155MPD2    H5 2420   4.291   4.032   0.724 -0.7287  0.5314  1.0072
  155MPD2    N1 2421   4.565   3.647   0.603  0.3870 -0.4782 -0.1903
  155MPD2    H7 2422   4.589   3.554   0.571  1.3101 -0.9094  1.7890
  156TMC2    C1 2423   3.544   1.780  12.031 -0.0457  0.4042 -0.2515
  156TMC2    C2 2424   3.542   1.643  12.016 -0.4517  0.4398 -0.1029
  156TMC2    C3 2425   3.547   1.600  11.888 -0.2322  0.4097  0.2537
  156TMC2    C4 2426   3.533   1.873  11.929 -0.2578 -0.3351  0.7277
  156TMC2    C5 2427   3.528   1.820  11.810  0.1861 -0.2284 -0.5079
  156TMC2    C6 2428   3.533   1.685  11.781  0.2085  0.2477 -0.0557
  156TMC2     C 2429   3.539   1.841  12.158  0.1298  0.1740  0.3280
  156TMC2     O 2430   3.563   1.959  12.161  0.1141 -0.0545  0.5041
  156TMC2     H 2431   3.549   1.577  12.102  0.3605  0.8209  0.1214
  156TMC2    H1 2432   3.535   1.981  11.934  1.6569 -0.2574 -2.0014
  156TMC2    H2 2433   3.513   1.656  11.678  1.8652 -1.1325  0.0038
  156TMC2    C7 2434   3.494   1.923  11.712  0.4010  0.3491  0.0658
  156TMC2    C8 2435   3.513   1.460  11.885  0.1245 -0.1741  0.3011
  156TMC2    O1 2436   3.564   2.026  11.711  0.3235  0.0474  0.2434
  156TMC2    O2 2437   3.444   1.407  11.970 -0.4159 -0.3064 -0.2793
  156TMC2    O5 2438   3.542   1.410  11.759 -0.1957  0.1562  0.0092
  156TMC2    H5 2439   3.604   1.472  11.717 -2.6847  2.1945 -0.6601
  157MPD2     C 2440   3.344   1.735  12.454 -0.1339 -0.2849 -0.8130
  157MPD2    C1 2441   3.438   1.812  12.379 -0.4644 -0.0937 -0.2324
  157MPD2    C2 2442   3.468   1.938  12.432  0.2194  0.4881  0.5359
  157MPD2    C3 2443   3.404   1.989  12.544 -0.1193  0.0461  0.1273
  157MPD2    C4 2444   3.322   1.908  12.614 -0.8113  0.8649 -1.0415
  157MPD2    C5 2445   3.298   1.778  12.574 -0.3947 -0.5171  0.1528
  157MPD2     H 2446   3.525   2.011  12.377 -0.5864 -0.1994 -1.2341
  157MPD2    H1 2447   3.270   1.949  12.700 -0.7690 -0.3415 -0.4396
  157MPD2    H2 2448   3.317   1.632  12.434 -0.4696 -0.2956 -0.3290
  157MPD2    H3 2449   3.220   1.725  12.628 -1.3678 -1.0673 -1.7816
  157MPD2     N 2450   3.424   2.126  12.565 -0.3180 -0.1792  0.3284
  157MPD2    H5 2451   3.494   2.169  12.506 -0.0040 -0.7508  0.2775
  157MPD2    N1 2452   3.486   1.765  12.259 -0.5405 -0.4412  0.0926
  157MPD2    H7 2453   3.456   1.669  12.244  0.1339 -0.5873 -0.3450
  158TMC2    C1 2454   4.313   0.813  13.670 -0.2641 -0.4176 -0.6742
  158TMC2    C2 2455   4.394   0.879  13.583  0.7281  0.2363 -0.6561
  158TMC2    C3 2456   4.343   0.922  13.466 -0.1676  0.1181 -0.2002
  158TMC2    C4 2457   4.185   0.782  13.634 -0.5163 -0.0934  0.6291
  158TMC2    C5 2458   4.140   0.818  13.508 -0.4111  0.7955  0.2475
  158TMC2    C6 2459   4.213   0.899  13.424  0.0254  0.2489  0.2895
  158TMC2     C 2460   4.357   0.818  13.806 -0.4047 -0.5670 -0.6109
  158TMC2     O 2461   4.449   0.898  13.826  0.3918  0.1687 -1.0450
  158TMC2     H 2462   4.500   0.886  13.604  0.5590  2.2102 -0.4947
  158TMC2    H1 2463   4.128   0.726  13.707 -1.8116 -0.2521 -0.5053
  158TMC2    H2 2464   4.163   0.950  13.342 -2.2429 -1.9422  0.3369
  158TMC2    C7 2465   3.998   0.842  13.499 -0.5078 -0.4851  0.4932
  158TMC2    C8 2466   4.430   1.009  13.399 -0.3334 -0.2134  0.0679
  158TMC2    O1 2467   3.958   0.957  13.468 -0.3735  0.0678 -0.1387
  158TMC2    O2 2468   4.513   1.071  13.461 -0.3818  0.6910  0.1012
  158TMC2    O5 2469   4.372   1.051  13.286  0.4993 -0.2473 -0.2848
  158TMC2    H5 2470   4.335   0.975  13.236  1.6662  0.2234 -1.8761
  159MPD2     C 2471   4.367   0.694  14.296  0.1907 -0.2014  0.6360
  159MPD2    C1 2472   4.308   0.584  14.227  0.5769  0.2962  0.2443
  159MPD2    C2 2473   4.278   0.598  14.091  0.1837 -0.4120 -0.7999
  159MPD2    C3 2474   4.314   0.716  14.031 -0.4180 -0.4666 -0.2789
  159MPD2    C4 2475   4.361   0.823  14.102 -0.2351  0.0314 -0.3194
  159MPD2    C5 2476   4.397   0.812  14.232 -0.4593 -0.3820  0.0924
  159MPD2     H 2477   4.231   0.518  14.035 -0.7293  1.9559 -3.4002
  159MPD2    H1 2478   4.378   0.915  14.047 -0.9823  0.0451 -0.5259
  159MPD2    H2 2479   4.394   0.685  14.400  0.3506  0.1172  0.6201
  159MPD2    H3 2480   4.464   0.887  14.271  2.7749 -3.0129 -0.3459
  159MPD2     N 2481   4.294   0.726  13.891 -0.0673 -0.4783 -0.1455
  159MPD2    H5 2482   4.228   0.655  13.860  0.2250 -0.5355 -0.6421
  159MPD2    N1 2483   4.270   0.468  14.297  0.8771 -0.4457  0.3134
  159MPD2    H7 2484   4.195   0.416  14.252  1.7059 -1.5176  0.1608
  160TMC2    C1 2485   3.408   3.166   0.990 -0.1196 -0.2445 -0.4241
  160TMC2    C2 2486   3.454   3.042   0.957 -0.4296 -0.4484  0.1538
  160TMC2    C3 2487   3.584   3.018   0.953 -1.1271 -0.3359 -0.4120
  160TMC2    C4 2488   3.499   3.264   1.027 -0.0296  0.0294  0.2538
  160TMC2    C5 2489   3.634   3.233   1.038 -0.1956  0.3413 -0.2639
  160TMC2    C6 2490   3.677   3.110   0.996 -0.0930  0.0434  0.3633
  160TMC2     C 2491   3.265   3.179   1.028  1.0201  0.2115 -0.1921
  160TMC2     O 2492   3.210   3.077   1.066  0.2297  0.0053  0.2850
  160TMC2     H 2493   3.394   2.952   0.961 -1.1699  0.0066 -0.9097
  160TMC2    H1 2494   3.465   3.360   1.062 -0.2283 -0.8498  2.5122
  160TMC2    H2 2495   3.780   3.081   1.014 -0.2750 -1.0140 -0.2802
  160TMC2    C7 2496   3.723   3.345   1.045 -0.2762  0.1008  0.3410
  160TMC2    C8 2497   3.622   2.881   0.940  0.5745 -0.2973 -0.0313
  160TMC2    O1 2498   3.687   3.444   1.113 -0.1347 -0.7658 -0.0396
  160TMC2    O2 2499   3.709   2.833   1.014 -0.2160  0.0571  0.1306
  160TMC2    O5 2500   3.558   2.814   0.845  0.6228  0.1688  0.4163
  160TMC2    H5 2501   3.510   2.875   0.785  0.4457  0.2748  0.6682
  161MPD2     C 2502   2.974   3.251   1.022 -0.3922  0.1690 -0.5673
  161MPD2    C1 2503   3.070   3.348   1.027  0.1311  0.4465  0.7018
  161MPD2    C2 2504   3.034   3.479   1.017 -0.1525 -0.6144  0.4775
  161MPD2    C3 2505   2.893   3.514   1.021 -0.4681  0.4515  0.2238
  161MPD2    C4 2506   2.801   3.415   1.011  0.3852  0.3561  0.4620
  161MPD2    C5 2507   2.839   3.284   1.012  0.4199  0.9738  0.4627
  161MPD2     H 2508   3.107   3.558   1.006  0.4218 -1.4573 -1.8642
  161MPD2    H1 2509   2.696   3.441   1.007  0.6663  1.6660  1.5997
  161MPD2    H2 2510   2.996   3.148   1.044 -1.2719  0.7823  3.0491
  161MPD2    H3 2511   2.764   3.206   1.004 -0.0982  1.5275 -0.0563
  161MPD2     N 2512   2.844   3.642   1.007 -0.2159  0.0859 -0.0643
  161MPD2    H5 2513   2.743   3.654   1.004 -0.4576 -2.3855 -1.4837
  161MPD2    N1 2514   3.211   3.307   1.022  0.4438  0.3438  0.1802
  161MPD2    H7 2515   3.275   3.383   1.000 -0.8636  1.0758 -1.0540
  162TMC2    C1 2516   1.469   0.712   1.647 -0.2773 -0.4473  0.1591
  162TMC2    C2 2517   1.452   0.734   1.781 -0.2974 -0.2440 -0.0192
  162TMC2    C3 2518   1.560   0.762   1.863  0.1539 -0.9277  0.1107
  162TMC2    C4 2519   1.599   0.706   1.586  0.1796  0.1179 -0.3430
  162TMC2    C5 2520   1.695   0.718   1.680  0.1595  0.8101  0.4013
  162TMC2    C6 2521   1.686   0.745   1.816 -0.3333 -0.0893  1.0226
  162TMC2     C 2522   1.348   0.708   1.569 -0.3712 -0.8106 -0.2300
  162TMC2     O 2523   1.244   0.719   1.632 -0.2147  0.1647  0.7085
  162TMC2     H 2524   1.353   0.724   1.822 -0.2751 -0.0672  0.0754
  162TMC2    H1 2525   1.614   0.712   1.479 -3.4369  0.3067 -0.8338
  162TMC2    H2 2526   1.769   0.736   1.885 -0.4804 -0.0472  1.2046
  162TMC2    C7 2527   1.834   0.701   1.639  0.0041 -0.7406 -0.0222
  162TMC2    C8 2528   1.550   0.749   2.008  0.8300  0.3143 -0.3022
  162TMC2    O1 2529   1.914   0.752   1.719  0.3383 -0.1490  0.0744
  162TMC2    O2 2530   1.645   0.701   2.070 -0.0909 -0.0998  0.3752
  162TMC2    O5 2531   1.427   0.782   2.044  0.2400 -0.2116  0.3294
  162TMC2    H5 2532   1.384   0.838   1.976  2.7943  0.6005 -0.5871
  163MPD2     C 2533   1.030   0.662   1.163  0.5269 -0.8637  0.0354
  163MPD2    C1 2534   1.159   0.660   1.116  0.4200 -0.0041 -0.5145
  163MPD2    C2 2535   1.266   0.663   1.207 -0.0657  0.5142 -0.2809
  163MPD2    C3 2536   1.244   0.685   1.341  0.4299 -0.1638  0.4771
  163MPD2    C4 2537   1.111   0.694   1.379  0.7145  0.5292 -0.6972
  163MPD2    C5 2538   1.011   0.675   1.293 -0.0628  0.2673  0.3917
  163MPD2     H 2539   1.368   0.653   1.171 -0.5558  1.1426 -1.8617
  163MPD2    H1 2540   1.088   0.724   1.481  0.4274  0.5778 -0.7769
  163MPD2    H2 2541   0.942   0.644   1.101  1.9756 -1.8557 -1.7360
  163MPD2    H3 2542   0.907   0.672   1.325 -0.1350  2.6771  0.3591
  163MPD2     N 2543   1.355   0.704   1.428  0.5221 -0.3259 -0.4220
  163MPD2    H5 2544   1.445   0.688   1.384 -0.1322 -0.3966 -1.7330
  163MPD2    N1 2545   1.178   0.647   0.978  0.0798  0.4053 -0.5707
  163MPD2    H7 2546   1.096   0.620   0.925  0.1858  0.9701 -1.0304
  164TMC2    C1 2547   1.771   1.133  10.837 -0.4059 -0.6928  0.0694
  164TMC2    C2 2548   1.889   1.196  10.872  0.6337 -0.0525  0.7749
  164TMC2    C3 2549   1.888   1.264  10.991 -0.3360  0.0186  0.5723
  164TMC2    C4 2550   1.658   1.130  10.918 -0.2414  0.0562  0.2321
  164TMC2    C5 2551   1.681   1.168  11.046 -0.1704  0.2968 -0.6697
  164TMC2    C6 2552   1.783   1.248  11.080  0.0665 -0.1551  0.1644
  164TMC2     C 2553   1.765   1.048  10.722 -0.4072 -1.6424  0.8497
  164TMC2     O 2554   1.670   0.974  10.716 -0.2616 -0.7845  0.3112
  164TMC2     H 2555   1.970   1.211  10.801 -0.1790  2.6536  0.4025
  164TMC2    H1 2556   1.565   1.078  10.905 -0.2930 -0.0131  0.8830
  164TMC2    H2 2557   1.782   1.307  11.171  0.6402  1.5417 -0.9340
  164TMC2    C7 2558   1.561   1.164  11.131 -0.4460  0.1418 -0.5868
  164TMC2    C8 2559   1.995   1.357  11.021 -0.0242  1.0190  0.1058
  164TMC2    O1 2560   1.448   1.170  11.079 -0.5929  0.0345 -0.6741
  164TMC2    O2 2561   1.962   1.470  11.060  0.4723 -0.2804 -0.1417
  164TMC2    O5 2562   2.118   1.311  10.983 -0.1789  0.7053 -0.0521
  164TMC2    H5 2563   2.106   1.228  10.933 -0.4867  1.4456 -1.1951
  165TMC2    C1 2564   4.010   3.059   1.612 -0.4040  0.6249  0.4214
  165TMC2    C2 2565   4.026   3.146   1.499 -0.5728  0.1715  0.3347
  165TMC2    C3 2566   4.104   3.261   1.517  0.6135 -0.0337  0.2451
  165TMC2    C4 2567   4.082   3.088   1.725 -0.3677  0.2134 -0.3608
  165TMC2    C5 2568   4.161   3.206   1.735 -0.1827  0.2255 -0.2351
  165TMC2    C6 2569   4.165   3.298   1.633  0.4352  0.6690 -0.1252
  165TMC2     C 2570   4.002   2.917   1.586 -0.5594 -0.3419 -1.1243
  165TMC2     O 2571   4.038   2.845   1.678  0.6114 -0.4631  0.3925
  165TMC2     H 2572   3.986   3.124   1.400  0.0271  1.7697 -0.2646
  165TMC2    H1 2573   4.068   3.024   1.811 -0.0898  1.2878  0.4979
  165TMC2    H2 2574   4.231   3.384   1.636  0.3562  0.7349 -0.2413
  165TMC2    C7 2575   4.286   3.208   1.814  0.5434  0.2236  0.3933
  165TMC2    C8 2576   4.057   3.363   1.419  0.1574  0.6472 -0.1984
  165TMC2    O1 2577   4.392   3.230   1.751  0.4689 -0.2384  0.2860
  165TMC2    O2 2578   3.935   3.391   1.406 -0.5632  0.3281  0.2151
  165TMC2    O5 2579   4.158   3.459   1.428 -0.2289 -0.2041 -0.3503
  165TMC2    H5 2580   4.252   3.432   1.419 -0.3195 -0.5771 -0.2076
  166MPD2     C 2581   3.832   2.527   1.309 -0.0658 -0.2706 -0.2385
  166MPD2    C1 2582   3.872   2.531   1.441 -0.4940  0.2930 -0.7353
  166MPD2    C2 2583   3.906   2.654   1.496  0.3175  0.4205  0.0887
  166MPD2    C3 2584   3.904   2.766   1.418 -0.2344  0.2695 -1.0943
  166MPD2    C4 2585   3.862   2.763   1.285  0.1559 -0.2435 -0.2257
  166MPD2    C5 2586   3.828   2.643   1.238 -0.6244  0.8063  0.2711
  166MPD2     H 2587   3.955   2.648   1.593 -2.2295 -2.6316  1.2216
  166MPD2    H1 2588   3.866   2.843   1.212 -1.6900 -1.6999 -1.8884
  166MPD2    H2 2589   3.813   2.432   1.259 -1.8871  0.1891 -0.4184
  166MPD2    H3 2590   3.811   2.629   1.132  0.3012 -0.0223  0.2311
  166MPD2     N 2591   3.959   2.890   1.464 -0.0608 -0.5750  0.0641
  166MPD2    H5 2592   3.949   2.970   1.402 -0.5261 -1.4197 -0.9572
  166MPD2    N1 2593   3.882   2.410   1.506 -0.0161 -0.3340  0.3799
  166MPD2    H7 2594   3.866   2.326   1.451  1.4369 -1.2057  1.3212
  167TMC2    C1 2595   1.240   0.447  12.923  0.2489 -1.1484  1.0702
  167TMC2    C2 2596   1.121   0.405  12.982  0.8189 -0.4235  0.6667
  167TMC2    C3 2597   1.099   0.271  13.007 -0.0058  0.4336  0.4413
  167TMC2    C4 2598   1.331   0.351  12.884 -0.3704  0.5810  0.4985
  167TMC2    C5 2599   1.311   0.220  12.917  0.0201 -1.1491  0.7115
  167TMC2    C6 2600   1.190   0.174  12.967 -1.0694  0.9455  0.3112
  167TMC2     C 2601   1.235   0.581  12.871 -0.0330 -0.2593 -0.1136
  167TMC2     O 2602   1.162   0.668  12.922  0.2852  0.2891 -0.0529
  167TMC2     H 2603   1.050   0.482  13.008  0.1269 -0.5406 -0.8771
  167TMC2    H1 2604   1.425   0.380  12.839 -1.0898  0.1603 -1.2912
  167TMC2    H2 2605   1.186   0.070  12.997 -2.0413  0.8935 -0.0091
  167TMC2    C7 2606   1.408   0.119  12.868 -0.1030 -0.2830  0.0651
  167TMC2    C8 2607   0.959   0.234  12.987 -0.2258 -0.5338 -0.1050
  167TMC2    O1 2608   1.405   0.012  12.924 -0.3316 -0.5892 -0.2946
  167TMC2    O2 2609   0.927   0.188  12.878 -0.6164  0.6025  0.2953
  167TMC2    O5 2610   0.891   0.313  13.071 -0.1258  0.5701  0.3609
  167TMC2    H5 2611   0.947   0.331  13.150  2.0150  1.0123 -1.2607
  168MPD2     C 2612   1.234   0.810  12.684  0.4320 -0.1389 -0.0745
  168MPD2    C1 2613   1.342   0.726  12.693  0.0003 -0.6112  0.0594
  168MPD2    C2 2614   1.464   0.761  12.634 -0.5368 -0.6314 -0.9791
  168MPD2    C3 2615   1.468   0.883  12.559 -0.8291  0.7655 -0.0634
  168MPD2    C4 2616   1.351   0.961  12.544 -0.5203 -0.2964  0.3896
  168MPD2    C5 2617   1.235   0.917  12.600 -0.1443  0.6853  0.1637
  168MPD2     H 2618   1.545   0.694  12.659 -0.3273 -0.1196 -0.2658
  168MPD2    H1 2619   1.337   1.054  12.490  1.0940 -0.5206 -0.4125
  168MPD2    H2 2620   1.140   0.787  12.731 -0.3252  0.9084 -1.0625
  168MPD2    H3 2621   1.145   0.977  12.595  0.9849  2.5880  2.4806
  168MPD2     N 2622   1.581   0.928  12.492 -0.9267 -0.9398 -0.0376
  168MPD2    H5 2623   1.560   0.996  12.419  1.2807  1.9332  2.0042
  168MPD2    N1 2624   1.334   0.613  12.774 -0.5257 -0.2104  0.2529
  168MPD2    H7 2625   1.405   0.545  12.750 -0.2477  0.1328  0.1048
  169MPD1     C 2626   3.122   1.021   9.441 -0.1491  0.0818 -0.2866
  169MPD1    C1 2627   3.238   0.963   9.391  0.5187  0.2441  0.2296
  169MPD1    C2 2628   3.245   0.826   9.393  0.2709 -0.1436  0.5073
  169MPD1    C3 2629   3.128   0.749   9.428 -0.6732  0.5577  0.3259
  169MPD1    C4 2630   3.015   0.811   9.476 -0.2176 -0.7698  0.5498
  169MPD1    C5 2631   3.015   0.946   9.477 -0.6555  0.3189 -0.5718
  169MPD1     H 2632   3.339   0.774   9.377  0.3076  0.1195 -0.1171
  169MPD1    H1 2633   2.933   0.756   9.520 -1.3490  1.0850  0.7336
  169MPD1    H2 2634   3.120   1.129   9.449 -1.3308  0.1195 -1.1201
  169MPD1    H3 2635   2.930   1.002   9.514  1.0711  2.7730 -0.3907
  169MPD1     N 2636   3.150   0.610   9.436 -0.3570 -0.0846  0.6762
  169MPD1    H5 2637   3.236   0.569   9.403 -1.1967 -2.1638  1.1000
  169MPD1    N1 2638   3.354   1.043   9.377 -0.3368 -0.5376 -0.1308
  169MPD1    H6 2639   3.324   1.133   9.338  2.3803  1.5233  2.5103
  169MPD1    H7 2640   3.421   0.996   9.316 -0.5333 -1.1403  0.1212
  170MPD1     C 2641   3.099   3.309  13.286 -0.2063  1.4025 -0.0469
  170MPD1    C1 2642   3.047   3.308  13.156  0.2059  0.1971 -0.8161
  170MPD1    C2 2643   2.939   3.229  13.126 -0.5875  0.2381 -0.3038
  170MPD1    C3 2644   2.880   3.154  13.226 -0.0833 -0.1999  0.0905
  170MPD1    C4 2645   2.935   3.150  13.350  0.1062  0.4392 -0.3958
  170MPD1    C5 2646   3.046   3.219  13.370 -1.1676 -0.3106  0.1323
  170MPD1     H 2647   2.900   3.221  13.025  0.4831 -0.9441 -0.6281
  170MPD1    H1 2648   2.885   3.097  13.431  0.3907  0.0332 -0.4868
  170MPD1    H2 2649   3.170   3.385  13.317 -0.6982  1.2036  1.5784
  170MPD1    H3 2650   3.095   3.229  13.467  0.2185  0.3360 -0.6353
  170MPD1     N 2651   2.754   3.089  13.193 -0.3603 -0.4149  0.0202
  170MPD1    H5 2652   2.744   3.087  13.092 -2.7886 -3.3738  0.3176
  170MPD1    N1 2653   3.090   3.399  13.059  0.3930 -0.7309 -0.2367
  170MPD1    H6 2654   3.159   3.471  13.079 -0.8219  0.3296  0.1126
  170MPD1    H7 2655   3.002   3.449  13.046  0.7984 -0.0454 -0.3350
  171MPD1     C 2656   0.940   3.885  15.399 -0.1689  0.2643  0.0499
  171MPD1    C1 2657   0.960   3.764  15.336  0.4934  0.4215  0.1504
  171MPD1    C2 2658   1.024   3.662  15.413 -0.1621  0.8743 -0.3414
  171MPD1    C3 2659   1.052   3.669  15.547 -0.1817  1.2277 -0.2628
  171MPD1    C4 2660   0.998   3.774  15.613 -0.3705  0.3357  0.0070
  171MPD1    C5 2661   0.956   3.887  15.537  0.2135  0.0404 -0.8458
  171MPD1     H 2662   1.053   3.577  15.354 -1.4594  0.3418 -0.2114
  171MPD1    H1 2663   0.999   3.785  15.721 -0.9385  0.5215 -0.0070
  171MPD1    H2 2664   0.905   3.975  15.349 -0.2044  0.7300  0.9083
  171MPD1    H3 2665   0.936   3.978  15.592  2.0384  1.9343 -3.2856
  171MPD1     N 2666   1.115   3.568  15.626  0.0314  0.4821 -0.2040
  171MPD1    H5 2667   1.146   3.599  15.718 -1.4876  1.5347 -0.0516
  171MPD1    N1 2668   0.948   3.759  15.193 -0.3506  0.3426 -0.3172
  171MPD1    H6 2669   0.924   3.667  15.158 -0.1671  0.2317 -0.1443
  171MPD1    H7 2670   0.891   3.824  15.139  0.6227  0.5770 -1.0515
  172MPD1     C 2671   0.723   2.267   0.444 -0.5555 -0.1435 -0.2562
  172MPD1    C1 2672   0.764   2.397   0.484  0.3011  0.1330  0.1742
  172MPD1    C2 2673   0.683   2.505   0.462  0.4721 -0.0138  0.0020
  172MPD1    C3 2674   0.561   2.496   0.402 -0.2267  0.4584 -0.0389
  172MPD1    C4 2675   0.516   2.369   0.368  0.2661  0.1096  0.3737
  172MPD1    C5 2676   0.595   2.251   0.382 -0.6181  0.0247 -0.0116
  172MPD1     H 2677   0.715   2.600   0.501 -1.2821  0.5677  0.0175
  172MPD1    H1 2678   0.420   2.355   0.319 -0.7838  2.4839  1.7717
  172MPD1    H2 2679   0.791   2.183   0.446  0.3993  0.6606  1.1587
  172MPD1    H3 2680   0.547   2.157   0.357 -1.6471  0.1819  1.3829
  172MPD1     N 2681   0.476   2.606   0.379 -0.0871  0.1245 -0.2399
  172MPD1    H5 2682   0.391   2.593   0.326 -0.0168 -1.1116 -0.0555
  172MPD1    N1 2683   0.890   2.413   0.561  0.5293  0.0061 -0.8199
  172MPD1    H6 2684   0.924   2.507   0.543  0.7054  0.0553 -0.2077
  172MPD1    H7 2685   0.963   2.346   0.537  0.4137  0.5614 -2.7765
  173MPD1     C 2686   1.258   3.330  13.865  0.2483 -0.6217  0.2384
  173MPD1    C1 2687   1.334   3.234  13.817 -0.6788  0.6137  0.4070
  173MPD1    C2 2688   1.320   3.108  13.877 -0.6983 -0.4764 -0.2834
  173MPD1    C3 2689   1.258   3.087  13.998  0.3770  0.3409  0.5391
  173MPD1    C4 2690   1.197   3.202  14.051 -0.2586  0.5061  0.2870
  173MPD1    C5 2691   1.190   3.321  13.982 -0.6177  1.0322 -0.1059
  173MPD1     H 2692   1.364   3.022  13.828 -0.9039 -0.9484  0.3720
  173MPD1    H1 2693   1.161   3.201  14.153 -1.2695  2.0996 -0.0665
  173MPD1    H2 2694   1.270   3.420  13.807  0.2502 -1.7740 -1.5406
  173MPD1    H3 2695   1.147   3.409  14.027 -0.4746  1.3325 -0.5600
  173MPD1     N 2696   1.269   2.961  14.057 -0.4027  0.3135 -0.0493
  173MPD1    H5 2697   1.325   2.897  14.001 -0.8619  2.5951 -3.1642
  173MPD1    N1 2698   1.404   3.252  13.696  0.7626  0.4927 -0.1326
  173MPD1    H6 2699   1.476   3.182  13.677 -0.0030  0.3469 -2.5906
  173MPD1    H7 2700   1.433   3.346  13.669  1.8162  0.4728  0.9328
  174MPD1     C 2701   1.900   2.393  13.930  0.1928  0.0260 -0.4971
  174MPD1    C1 2702   1.877   2.366  14.061  0.3208 -0.0949  0.1918
  174MPD1    C2 2703   1.775   2.436  14.118 -0.6781  0.2652  0.1766
  174MPD1    C3 2704   1.691   2.518  14.043  0.1897  0.4635  0.0768
  174MPD1    C4 2705   1.710   2.530  13.907  0.0131  0.4025 -0.1524
  174MPD1    C5 2706   1.823   2.470  13.855  0.2517  0.0339 -0.0480
  174MPD1     H 2707   1.757   2.422  14.224 -0.4359  1.1206  0.3284
  174MPD1    H1 2708   1.644   2.586  13.842  0.6468  1.3893  0.0506
  174MPD1    H2 2709   1.982   2.348  13.875  2.0410  0.8217  1.6119
  174MPD1    H3 2710   1.852   2.475  13.750 -1.4452  0.8686 -0.4727
  174MPD1     N 2711   1.567   2.570  14.096 -0.4793  0.0739 -0.0854
  174MPD1    H5 2712   1.503   2.605  14.026 -0.9412 -0.5747  0.0134
  174MPD1    N1 2713   1.975   2.303  14.141 -0.4283 -0.3476 -0.6176
  174MPD1    H6 2714   2.047   2.252  14.089  0.3379 -1.2573  1.3568
  174MPD1    H7 2715   1.937   2.255  14.222 -1.6043  1.2024 -0.2466
  175MPD1     C 2716   4.327   3.454  16.227  0.3917 -0.4468  1.1016
  175MPD1    C1 2717   4.355   3.372  16.337  0.8200 -0.0860 -0.9494
  175MPD1    C2 2718   4.418   3.431  16.448  0.2052 -0.1091 -0.2758
  175MPD1    C3 2719   4.434   3.568  16.462  0.2468  0.0062  0.6526
  175MPD1    C4 2720   4.415   3.648  16.351  0.1192 -0.3556 -0.6183
  175MPD1    C5 2721   4.357   3.594  16.241 -0.7015  0.3048  0.5982
  175MPD1     H 2722   4.458   3.364  16.524 -2.6852 -1.5213 -0.0051
  175MPD1    H1 2723   4.448   3.751  16.344  1.2661 -0.5026  2.6223
  175MPD1    H2 2724   4.300   3.412  16.131 -0.2742 -0.3222  1.2331
  175MPD1    H3 2725   4.338   3.664  16.160 -0.4690 -0.9104 -0.5081
  175MPD1     N 2726   4.491   3.627  16.580  0.0962 -0.2878 -0.1230
  175MPD1    H5 2727   4.499   3.728  16.576  1.7201 -0.5439 -3.1879
  175MPD1    N1 2728   4.335   3.233  16.320 -0.3701 -0.3078  0.1553
  175MPD1    H6 2729   4.324   3.189  16.411 -2.8778  0.5380  0.2691
  175MPD1    H7 2730   4.252   3.215  16.264  0.2949 -1.7331 -0.3727
  176MPD1     C 2731   2.259   0.695  16.092 -0.4609  0.1821  0.3299
  176MPD1    C1 2732   2.189   0.621  16.192 -0.6839  0.0286 -0.2340
  176MPD1    C2 2733   2.159   0.698  16.304 -0.1571  0.0841 -0.4907
  176MPD1    C3 2734   2.182   0.835  16.313  0.0639  0.8422  0.0951
  176MPD1    C4 2735   2.243   0.905  16.210  0.0878 -0.6150  0.1012
  176MPD1    C5 2736   2.281   0.833  16.096  0.2940 -0.0727 -1.0687
  176MPD1     H 2737   2.124   0.649  16.395  0.3753  0.4554 -0.0857
  176MPD1    H1 2738   2.254   1.012  16.217 -0.7334 -0.4794 -0.7857
  176MPD1    H2 2739   2.300   0.647  16.004  0.0986  0.2620  0.5484
  176MPD1    H3 2740   2.340   0.889  16.024 -0.1470  0.9735 -0.6116
  176MPD1     N 2741   2.124   0.900  16.424  0.3124 -0.4090 -0.4744
  176MPD1    H5 2742   2.089   0.838  16.495  1.3583  0.0837  0.4695
  176MPD1    N1 2743   2.180   0.480  16.193 -0.0290  0.0217 -0.0590
  176MPD1    H6 2744   2.095   0.456  16.245  0.0647 -2.0182 -0.8354
  176MPD1    H7 2745   2.184   0.440  16.099  1.0578  0.2642 -0.1168
  177MPD1     C 2746   4.568   1.245  10.665  0.4359 -0.1737  0.3200
  177MPD1    C1 2747   4.499   1.154  10.584 -1.0798 -0.1360  0.3509
  177MPD1    C2 2748   4.499   1.188  10.449 -0.1570  0.4579  1.0058
  177MPD1    C3 2749   4.573   1.283  10.383  0.2266  0.1119  0.5527
  177MPD1    C4 2750   4.633   1.372  10.467 -0.3556  0.2179  0.7495
  177MPD1    C5 2751   4.634   1.352  10.607  0.7037  0.3846  0.1414
  177MPD1     H 2752   4.432   1.127  10.389  2.5398 -1.1432 -0.3709
  177MPD1    H1 2753   4.677   1.468  10.444 -0.8424  0.3930  0.5409
  177MPD1    H2 2754   4.569   1.232  10.773  0.7437  1.5675  0.5293
  177MPD1    H3 2755   4.688   1.424  10.667 -1.3283  1.3717  0.8020
  177MPD1     N 2756   4.560   1.298  10.240 -0.9270  0.0629 -0.0442
  177MPD1    H5 2757   4.487   1.242  10.198  1.2840 -0.6720 -2.9378
  177MPD1    N1 2758   4.412   1.051  10.628 -0.1554 -0.2479 -0.3440
  177MPD1    H6 2759   4.389   0.979  10.560 -1.6030  1.2574 -1.4130
  177MPD1    H7 2760   4.430   1.009  10.719 -2.0321 -0.7614 -0.2197
  178MPD1     C 2761   2.535   0.967   0.755 -0.3396  0.3919  0.4909
  178MPD1    C1 2762   2.441   0.953   0.650 -0.1953 -0.5234 -0.3245
  178MPD1    C2 2763   2.424   1.056   0.562 -0.6688  0.3322 -0.1846
  178MPD1    C3 2764   2.507   1.170   0.561  0.4274 -0.6346 -0.4470
  178MPD1    C4 2765   2.595   1.177   0.665  0.3279  0.4741  0.2194
  178MPD1    C5 2766   2.605   1.080   0.758  0.0578 -0.2158 -0.5225
  178MPD1     H 2767   2.348   1.048   0.485  0.3686  2.2151 -1.4059
  178MPD1    H1 2768   2.651   1.267   0.685 -0.4263  1.5159 -2.3084
  178MPD1    H2 2769   2.553   0.897   0.836  0.0233  0.3041  0.3375
  178MPD1    H3 2770   2.664   1.086   0.849 -1.0404  1.5810  0.0939
  178MPD1     N 2771   2.496   1.275   0.465 -0.2693  0.1944  0.1417
  178MPD1    H5 2772   2.544   1.362   0.484 -0.8548  0.3922  0.7185
  178MPD1    N1 2773   2.347   0.850   0.660  0.0517 -0.1831  0.0136
  178MPD1    H6 2774   2.395   0.764   0.688  1.1353  0.3226 -0.2946
  178MPD1    H7 2775   2.298   0.836   0.572 -0.0702  2.5092 -0.3452
  179MPD1     C 2776   2.107   0.430  15.700 -0.1577  0.7220  0.3974
  179MPD1    C1 2777   2.043   0.344  15.614 -0.1670  0.1461 -0.2343
  179MPD1    C2 2778   1.953   0.247  15.661 -0.3869  0.1702 -0.7363
  179MPD1    C3 2779   1.925   0.245  15.797 -0.0056 -0.2815  0.3806
  179MPD1    C4 2780   1.974   0.340  15.875  0.2847  0.1363  0.4370
  179MPD1    C5 2781   2.063   0.431  15.832  0.0963 -0.1460  0.0673
  179MPD1     H 2782   1.912   0.180  15.585  1.0441 -0.4394 -0.9730
  179MPD1    H1 2783   1.933   0.351  15.976 -0.4825 -2.9286  0.4807
  179MPD1    H2 2784   2.187   0.498  15.673  1.0203 -0.3178  1.2693
  179MPD1    H3 2785   2.096   0.508  15.901  0.0010  2.1769 -2.4849
  179MPD1     N 2786   1.848   0.148  15.853  0.7746 -0.3848 -0.5707
  179MPD1    H5 2787   1.841   0.147  15.954 -0.9547 -0.4498 -0.6988
  179MPD1    N1 2788   2.088   0.328  15.484  0.6032  0.6260  0.7212
  179MPD1    H6 2789   2.023   0.294  15.414  1.4559  1.1990 -0.3504
  179MPD1    H7 2790   2.138   0.411  15.452  0.5811 -0.2388 -1.5628
  180MPD1     C 2791   1.605   1.989  14.483 -0.5147 -0.1805 -0.1352
  180MPD1    C1 2792   1.682   1.905  14.412  0.9801 -0.6209 -0.5456
  180MPD1    C2 2793   1.650   1.774  14.429 -1.1375 -0.1361  0.6578
  180MPD1    C3 2794   1.581   1.731  14.544  0.8855 -0.4742 -0.0377
  180MPD1    C4 2795   1.536   1.828  14.627 -0.8508 -0.1210 -0.1103
  180MPD1    C5 2796   1.542   1.958  14.594 -0.3505  0.1039 -0.7134
  180MPD1     H 2797   1.701   1.700  14.368  0.1356  1.6366 -0.4417
  180MPD1    H1 2798   1.471   1.803  14.710 -0.4283  1.5132  0.7112
  180MPD1    H2 2799   1.610   2.095  14.464  3.7093  0.0951  2.4887
  180MPD1    H3 2800   1.490   2.036  14.649 -0.7434 -0.4995 -0.2305
  180MPD1     N 2801   1.560   1.591  14.559  0.4922 -0.5462  0.1813
  180MPD1    H5 2802   1.595   1.525  14.490  2.4828 -0.7152  1.3416
  180MPD1    N1 2803   1.745   1.950  14.301  0.3601 -0.1075 -0.2169
  180MPD1    H6 2804   1.810   1.883  14.260 -1.5616 -0.2854 -3.0262
  180MPD1    H7 2805   1.792   2.033  14.335  0.7884 -0.5258  0.2078
  181MPD1     C 2806   2.787   2.899  10.086  0.0674  0.4629  0.6058
  181MPD1    C1 2807   2.744   3.012  10.151 -0.9406 -0.2439  0.4650
  181MPD1    C2 2808   2.836   3.108  10.189  0.3836 -0.6177 -0.6524
  181MPD1    C3 2809   2.968   3.098  10.141  0.1808 -0.8575 -0.2189
  181MPD1    C4 2810   3.005   2.988  10.061 -0.1948  0.7568  0.4577
  181MPD1    C5 2811   2.917   2.887  10.040 -0.1633  1.0408  0.0468
  181MPD1     H 2812   2.810   3.194  10.251 -1.3954 -0.3722 -1.7361
  181MPD1    H1 2813   3.105   2.966  10.025  0.1832  0.8128  1.4487
  181MPD1    H2 2814   2.729   2.808  10.072  0.3386 -0.1225  3.2578
  181MPD1    H3 2815   2.954   2.799   9.988 -0.4895  1.2222 -0.4857
  181MPD1     N 2816   3.065   3.197  10.156  0.0856 -0.1080 -0.5193
  181MPD1    H5 2817   3.162   3.180  10.132  0.7264  2.2724  0.3802
  181MPD1    N1 2818   2.613   3.016  10.209 -0.7248  0.1235 -0.4390
  181MPD1    H6 2819   2.540   2.967  10.158  0.0538 -0.2737 -1.1751
  181MPD1    H7 2820   2.581   3.112  10.212  1.1419  0.6780  2.0139
  182MPD1     C 2821   4.719   1.054   1.252 -0.2562 -0.4392  0.1862
  182MPD1    C1 2822   0.028   1.171   1.306 -0.2717  0.5096  0.1792
  182MPD1    C2 2823   0.007   1.285   1.228 -0.0105  0.0646 -0.5473
  182MPD1    C3 2824   4.676   1.275   1.112  0.1510 -0.0205  0.6313
  182MPD1    C4 2825   4.647   1.153   1.052 -0.2895 -0.0432  0.6379
  182MPD1    C5 2826   4.670   1.040   1.126 -0.3549  0.0360  0.2604
  182MPD1     H 2827   0.021   1.376   1.284  2.0354 -0.4519 -0.2160
  182MPD1    H1 2828   4.623   1.139   0.947  0.7226  2.1271  0.1312
  182MPD1    H2 2829   4.726   0.961   1.308  1.2140  0.2211  1.0943
  182MPD1    H3 2830   4.650   0.945   1.078  0.3564 -0.1928  0.4064
  182MPD1     N 2831   4.645   1.392   1.038 -0.3403 -0.2596  0.0700
  182MPD1    H5 2832   4.601   1.376   0.948  1.1980 -0.4764 -0.6461
  182MPD1    N1 2833   0.098   1.160   1.433 -0.4275 -0.3270 -0.5388
  182MPD1    H6 2834   0.086   1.254   1.470 -2.2014 -0.5879 -0.4476
  182MPD1    H7 2835   0.045   1.093   1.489  0.8332  0.2201  1.2987
  183MPD1     C 2836   4.300   2.748   8.904 -0.2846 -0.5235  0.0794
  183MPD1    C1 2837   4.213   2.853   8.888  0.2200  0.2139  0.5721
  183MPD1    C2 2838   4.170   2.913   9.009  0.6744  0.4189  0.7471
  183MPD1    C3 2839   4.232   2.880   9.134 -0.8999  1.0569 -0.1333
  183MPD1    C4 2840   4.328   2.779   9.138 -0.9324 -0.3971 -0.0297
  183MPD1    C5 2841   4.356   2.717   9.024  0.2464 -0.2306  0.2495
  183MPD1     H 2842   4.090   2.986   9.009  0.1060 -0.1973  0.7194
  183MPD1    H1 2843   4.378   2.743   9.227 -1.1017  3.4083  1.6226
  183MPD1    H2 2844   4.313   2.675   8.824  2.4172  0.7243 -0.6267
  183MPD1    H3 2845   4.432   2.640   9.028 -0.6080 -1.2105 -2.3595
  183MPD1     N 2846   4.184   2.950   9.254 -0.1690 -0.0756  0.3807
  183MPD1    H5 2847   4.114   3.020   9.232 -1.5584 -1.9857 -1.3144
  183MPD1    N1 2848   4.149   2.861   8.760  0.1169 -0.2939  0.5930
  183MPD1    H6 2849   4.192   2.810   8.683  0.4556  2.2568 -0.8935
  183MPD1    H7 2850   4.140   2.956   8.724 -0.7456  0.0050  1.5774
  184MPD1     C 2851   3.798   0.644  10.847  0.4397 -0.4381 -0.1302
  184MPD1    C1 2852   3.903   0.731  10.853 -0.8145 -0.2818 -0.1749
  184MPD1    C2 2853   3.929   0.819  10.750 -0.9506  0.6828  0.3928
  184MPD1    C3 2854   3.842   0.830  10.641  0.2195 -0.3487 -0.0552
  184MPD1    C4 2855   3.726   0.756  10.650 -0.4537 -0.2182 -0.5995
  184MPD1    C5 2856   3.704   0.664  10.751 -0.3918  0.0796 -0.0809
  184MPD1     H 2857   4.017   0.881  10.762 -0.7022  0.3748  0.1915
  184MPD1    H1 2858   3.639   0.782  10.590 -0.2847  0.1687 -0.6782
  184MPD1    H2 2859   3.782   0.571  10.925  0.7661 -0.3375  0.0304
  184MPD1    H3 2860   3.618   0.599  10.747  0.4180 -0.9925 -0.0553
  184MPD1     N 2861   3.869   0.910  10.526  0.1893 -0.5713  0.4494
  184MPD1    H5 2862   3.800   0.907  10.452 -0.5739  2.6903  1.0493
  184MPD1    N1 2863   4.010   0.698  10.940 -0.1849  0.0761  0.1415
  184MPD1    H6 2864   4.072   0.778  10.953  1.5648 -1.3101  0.2540
  184MPD1    H7 2865   3.986   0.656  11.029 -2.3140  2.4902  0.6904
  185MPD1     C 2866   3.672   1.144   9.569 -0.0680 -0.5171  0.0872
  185MPD1    C1 2867   3.621   1.060   9.662 -0.7465  0.2496 -0.6905
  185MPD1    C2 2868   3.687   1.050   9.787 -0.6517 -0.3237 -0.1266
  185MPD1    C3 2869   3.796   1.131   9.810  0.2525  0.5885  0.6321
  185MPD1    C4 2870   3.846   1.212   9.716  0.5592 -0.3621 -0.2115
  185MPD1    C5 2871   3.782   1.225   9.588 -0.1665 -0.0545  0.0007
  185MPD1     H 2872   3.642   0.989   9.865 -0.8956  0.3356  0.2540
  185MPD1    H1 2873   3.920   1.286   9.743  0.6298 -0.4595 -0.1379
  185MPD1    H2 2874   3.628   1.163   9.472  1.5102  0.3391 -0.4598
  185MPD1    H3 2875   3.817   1.295   9.513 -1.6481  0.3580 -0.3219
  185MPD1     N 2876   3.856   1.137   9.939 -0.2159 -0.1035  0.2073
  185MPD1    H5 2877   3.950   1.175   9.939 -0.1673 -0.2127  1.1045
  185MPD1    N1 2878   3.509   0.982   9.628 -0.1788 -0.2157 -0.6414
  185MPD1    H6 2879   3.461   1.021   9.547 -0.4062  0.1924 -0.3123
  185MPD1    H7 2880   3.442   0.969   9.704  0.8078  1.2568  0.4862
  186MPD1     C 2881   2.568   0.123  15.966  0.3665 -0.1657  0.4177
  186MPD1    C1 2882   2.520   0.034  16.055  0.1423 -0.1061  0.2695
  186MPD1    C2 2883   2.468   0.096  16.169 -0.6719  0.2614 -0.4964
  186MPD1    C3 2884   2.439   0.228  16.185  0.3322 -0.7700  0.4671
  186MPD1    C4 2885   2.467   0.311  16.077 -0.1240  0.2715  0.4473
  186MPD1    C5 2886   2.547   0.258  15.976 -0.3158 -0.5502  0.5517
  186MPD1     H 2887   2.441   0.023  16.244  0.3064  0.2961 -0.1227
  186MPD1    H1 2888   2.457   0.419  16.083 -1.1085  0.1101  1.7743
  186MPD1    H2 2889   2.618   0.104  15.872 -0.2733 -0.7874  0.2001
  186MPD1    H3 2890   2.596   0.320  15.903 -0.2635  1.8658  2.6172
  186MPD1     N 2891   2.373   0.288  16.291 -0.3957 -0.2479  0.5175
  186MPD1    H5 2892   2.353   0.387  16.280 -1.8660 -0.7739 -1.5389
  186MPD1    N1 2893   2.571   4.639  16.054  0.3407 -0.0291 -0.2572
  186MPD1    H6 2894   2.580   4.605  15.959  0.4964  1.0662 -0.6346
  186MPD1    H7 2895   2.507   4.577  16.102  0.4563 -0.3592 -0.5310
  187MPD1     C 2896   2.202   1.910  17.528 -0.1557 -0.8076 -0.0515
  187MPD1    C1 2897   2.138   1.970  17.417  0.0285 -0.3328  0.4412
  187MPD1    C2 2898   2.002   1.985  17.416  0.5723 -0.2593 -0.2184
  187MPD1    C3 2899   1.930   1.954  17.537 -0.9765 -0.3850  0.1756
  187MPD1    C4 2900   1.996   1.906  17.648  0.5847 -0.2578 -0.2078
  187MPD1    C5 2901   2.132   1.878  17.641  0.4323  0.3946  0.0152
  187MPD1     H 2902   1.952   2.019  17.327 -0.9454 -1.0905  0.3185
  187MPD1    H1 2903   1.948   1.884  17.743  1.4257  0.9614  0.4933
  187MPD1    H2 2904   2.307   1.883  17.522 -0.1914 -0.5340 -2.0404
  187MPD1    H3 2905   2.181   1.850  17.734  0.2238  0.8558  0.2659
  187MPD1     N 2906   1.797   1.990  17.550 -0.0082 -0.1654  0.0267
  187MPD1    H5 2907   1.758   1.978  17.643 -0.5773 -0.7572 -0.2865
  187MPD1    N1 2908   2.217   1.995  17.302 -0.1570  0.0532  0.3286
  187MPD1    H6 2909   2.312   2.017  17.331 -0.9206 -0.7974  3.4891
  187MPD1    H7 2910   2.191   2.085  17.262  1.0748  0.3813  0.2509
  188MPD1     C 2911   1.269   2.733  10.280 -0.4157  0.0146  0.1014
  188MPD1    C1 2912   1.272   2.661  10.166  0.0385 -0.2326 -0.3717
  188MPD1    C2 2913   1.238   2.530  10.167 -0.5330  0.7304  0.2241
  188MPD1    C3 2914   1.184   2.474  10.283 -0.7148  0.5490 -0.0957
  188MPD1    C4 2915   1.162   2.554  10.389 -0.4331  1.2081 -0.4584
  188MPD1    C5 2916   1.203   2.682  10.389  0.3946  0.1135  0.0791
  188MPD1     H 2917   1.234   2.473  10.075  0.9383 -1.1372  1.3075
  188MPD1    H1 2918   1.097   2.519  10.469  0.3499 -0.5595 -0.5880
  188MPD1    H2 2919   1.281   2.841  10.285 -1.1135  0.1843 -1.9191
  188MPD1    H3 2920   1.191   2.735  10.483  0.7607  2.0071 -0.9326
  188MPD1     N 2921   1.153   2.334  10.297  0.1112 -0.2559 -0.3603
  188MPD1    H5 2922   1.124   2.302  10.389  0.1081  3.2514  0.8575
  188MPD1    N1 2923   1.314   2.721  10.048  0.9298  0.0170 -0.2184
  188MPD1    H6 2924   1.369   2.658   9.990  1.0530 -0.6153  0.5814
  188MPD1    H7 2925   1.363   2.808  10.066 -2.8979  1.7654  1.7181
  189MPD1     C 2926   3.594   3.151   0.319 -1.4032  0.8805  0.4542
  189MPD1    C1 2927   3.521   3.097   0.219  0.5953  0.2132  0.3356
  189MPD1    C2 2928   3.388   3.138   0.218 -0.1975  0.8652  0.8128
  189MPD1    C3 2929   3.340   3.241   0.291  0.0384  0.1616  0.8386
  189MPD1    C4 2930   3.418   3.299   0.387  0.7374 -0.3462  0.9276
  189MPD1    C5 2931   3.550   3.258   0.404 -0.5038 -0.7695  0.4754
  189MPD1     H 2932   3.322   3.084   0.151 -1.9999  1.9997  1.6988
  189MPD1    H1 2933   3.376   3.369   0.459  0.5787  1.5395 -0.9929
  189MPD1    H2 2934   3.693   3.113   0.341  0.1340  3.4779 -1.8858
  189MPD1    H3 2935   3.614   3.300   0.481 -3.9552  0.1011  2.9187
  189MPD1     N 2936   3.204   3.274   0.274 -0.2874 -0.8411 -0.0727
  189MPD1    H5 2937   3.142   3.203   0.235 -2.6888 -0.7379  3.6386
  189MPD1    N1 2938   3.564   2.973   0.162 -0.3107  0.3552 -0.2206
  189MPD1    H6 2939   3.665   2.969   0.149 -0.6335 -2.9791 -1.7055
  189MPD1    H7 2940   3.517   2.958   0.073 -0.8929 -0.5580  0.2379
  190MPD1     C 2941   1.689   0.992  15.658 -0.5150  0.0507 -0.7087
  190MPD1    C1 2942   1.805   1.012  15.579 -0.1409  0.3733  0.7172
  190MPD1    C2 2943   1.909   1.079  15.648 -0.3268  1.2330 -0.6470
  190MPD1    C3 2944   1.908   1.110  15.784  0.4912 -0.1044 -0.1055
  190MPD1    C4 2945   1.798   1.065  15.853 -0.5644 -0.4923  0.5636
  190MPD1    C5 2946   1.686   1.012  15.794  0.1545 -0.3115 -0.2154
  190MPD1     H 2947   2.002   1.101  15.596 -0.5645  1.7325 -0.8627
  190MPD1    H1 2948   1.797   1.082  15.960 -2.1776 -0.5423  0.5514
  190MPD1    H2 2949   1.600   0.945  15.618 -0.5528 -0.0659 -0.4908
  190MPD1    H3 2950   1.607   0.976  15.860  0.1739  0.7303  0.3769
  190MPD1     N 2951   2.017   1.179  15.837  0.5228  0.3869  0.4314
  190MPD1    H5 2952   2.085   1.229  15.781 -0.4018  1.7848  0.5757
  190MPD1    N1 2953   1.798   0.987  15.438  0.3084  0.4415  0.0041
  190MPD1    H6 2954   1.883   0.967  15.386 -1.3278  0.0381 -2.5563
  190MPD1    H7 2955   1.744   0.903  15.421  2.0629 -0.8917  1.0578
  191MPD1     C 2956   1.230   3.602  12.538 -0.1438 -0.5267 -0.0117
  191MPD1    C1 2957   1.341   3.669  12.585  0.3764 -0.2365  0.2478
  191MPD1    C2 2958   1.386   3.783  12.526 -0.3287 -0.0672 -0.9621
  191MPD1    C3 2959   1.307   3.844  12.427  0.4245 -0.5978  0.3225
  191MPD1    C4 2960   1.180   3.789  12.400  0.0670 -0.6686 -0.2539
  191MPD1    C5 2961   1.140   3.672  12.465  0.6884 -0.1999  0.1876
  191MPD1     H 2962   1.480   3.832  12.549 -0.1297 -0.7104 -0.4430
  191MPD1    H1 2963   1.104   3.834  12.337  1.1115  0.3400 -0.8051
  191MPD1    H2 2964   1.194   3.507  12.577  0.4590  0.3744  2.7106
  191MPD1    H3 2965   1.044   3.633  12.433 -0.0080  1.1860  0.5910
  191MPD1     N 2966   1.370   3.956  12.363  0.0151 -0.0792 -0.1486
  191MPD1    H5 2967   1.470   3.965  12.377 -0.0628  1.7802 -0.8206
  191MPD1    N1 2968   1.429   3.600  12.672  0.1769 -0.0225 -0.0190
  191MPD1    H6 2969   1.470   3.659  12.745  0.3650  0.1036 -0.2257
  191MPD1    H7 2970   1.399   3.516  12.721  0.4903  1.3265  2.5011
  192MPD1     C 2971   1.404   0.112  11.706 -0.4309  0.0604 -0.9978
  192MPD1    C1 2972   1.311   0.080  11.791  0.1927  0.2169 -0.2321
  192MPD1    C2 2973   1.304   4.689  11.842  0.1315 -0.5006 -0.0715
  192MPD1    C3 2974   1.408   4.611  11.827 -0.1722 -0.3227 -0.2225
  192MPD1    C4 2975   1.515   4.645  11.746 -0.3163  0.5834  0.5957
  192MPD1    C5 2976   1.511   0.032  11.686  0.2404  0.6521  0.0490
  192MPD1     H 2977   1.214   4.662  11.896  0.8806  1.2415  2.0248
  192MPD1    H1 2978   1.602   4.582  11.728  0.2370  1.0682  1.5662
  192MPD1    H2 2979   1.401   0.205  11.650  0.3036 -1.0476 -2.8953
  192MPD1    H3 2980   1.586   0.054  11.611 -1.1723  1.6858 -1.0647
  192MPD1     N 2981   1.420   4.482  11.884 -0.5688  0.2527 -0.4568
  192MPD1    H5 2982   1.499   4.421  11.866  1.1820  2.6534 -0.8688
  192MPD1    N1 2983   1.202   0.173  11.806 -0.3754  0.1323 -0.5637
  192MPD1    H6 2984   1.153   0.163  11.895  0.6058 -1.5621 -0.1976
  192MPD1    H7 2985   1.238   0.268  11.799  2.1263 -0.7309  0.3906
  193MPD1     C 2986   1.102   3.326  16.180 -0.2209  0.3736  0.1036
  193MPD1    C1 2987   1.050   3.436  16.257 -0.5044 -0.3390 -0.1813
  193MPD1    C2 2988   1.100   3.462  16.387 -0.1554  1.3439  0.9174
  193MPD1    C3 2989   1.212   3.395  16.427  0.7042  0.3801  0.3212
  193MPD1    C4 2990   1.268   3.298  16.350 -0.0311  1.0280 -0.5025
  193MPD1    C5 2991   1.215   3.263  16.228  0.4178  0.3500  0.1100
  193MPD1     H 2992   1.055   3.543  16.443 -3.8049  0.7753 -1.1784
  193MPD1    H1 2993   1.367   3.261  16.372 -1.2055  0.1061  3.1200
  193MPD1    H2 2994   1.071   3.303  16.079 -0.9103 -1.2243  0.6854
  193MPD1    H3 2995   1.266   3.180  16.180 -1.9697  0.3420 -2.4483
  193MPD1     N 2996   1.282   3.438  16.540  0.0550 -0.1158 -0.7741
  193MPD1    H5 2997   1.366   3.385  16.560  0.3734  0.9714  0.7565
  193MPD1    N1 2998   0.934   3.499  16.220 -0.5888  0.1327  0.3493
  193MPD1    H6 2999   0.918   3.501  16.120 -0.6373 -1.5449  0.3251
  193MPD1    H7 3000   0.951   3.593  16.254  2.3707  0.2784 -1.5187
  194MPD1     C 3001   3.401   1.366  17.368 -0.4963 -0.4074 -0.1098
  194MPD1    C1 3002   3.290   1.286  17.372  0.2003  0.6533  0.2992
  194MPD1    C2 3003   3.295   1.150  17.410  0.0669 -0.8367 -0.0340
  194MPD1    C3 3004   3.409   1.097  17.464  0.3040 -0.5930  0.1085
  194MPD1    C4 3005   3.517   1.180  17.471  0.5829 -0.0512 -1.3244
  194MPD1    C5 3006   3.512   1.312  17.418  0.2677 -0.6113 -0.2200
  194MPD1     H 3007   3.205   1.089  17.415 -2.2202  2.5480 -0.0160
  194MPD1    H1 3008   3.607   1.140  17.515 -0.7586 -2.4966 -0.8013
  194MPD1    H2 3009   3.403   1.471  17.341 -0.9291  0.4267  3.0734
  194MPD1    H3 3010   3.596   1.378  17.437 -0.4789  0.3140 -0.1584
  194MPD1     N 3011   3.424   0.970  17.529  0.4509 -0.2845 -0.2924
  194MPD1    H5 3012   3.515   0.949  17.568  1.2724 -1.8472 -3.0331
  194MPD1    N1 3013   3.172   1.340  17.314 -0.1282  0.2602 -0.0154
  194MPD1    H6 3014   3.161   1.441  17.307 -0.5237  0.2644  0.6135
  194MPD1    H7 3015   3.085   1.311  17.358 -0.8580  3.1803  0.4277
  195MPD1     C 3016   1.299   1.797   0.064 -0.8245 -0.7167  0.3264
  195MPD1    C1 3017   1.396   1.722   0.016  0.5871  0.5023 -0.4589
  195MPD1    C2 3018   1.349   1.609  17.693 -0.8392  0.4228  0.1695
  195MPD1    C3 3019   1.214   1.578  17.668  0.4049  0.4404 -0.1520
  195MPD1    C4 3020   1.122   1.661  17.722  0.1964 -0.2364  0.5692
  195MPD1    C5 3021   1.164   1.775   0.054 -0.4549  0.2275  0.3546
  195MPD1     H 3022   1.424   1.541  17.655  0.0429  1.9101 -0.7538
  195MPD1    H1 3023   1.017   1.641  17.708  0.4053 -0.8671 -0.1003
  195MPD1    H2 3024   1.326   1.881   0.128 -2.8316  2.9622 -3.6214
  195MPD1    H3 3025   1.096   1.847   0.096 -0.4423  1.4126 -1.6305
  195MPD1     N 3026   1.165   1.465  17.596  0.9367  0.7260 -0.6268
  195MPD1    H5 3027   1.064   1.460  17.585  0.8216  0.6844  0.4348
  195MPD1    N1 3028   1.532   1.750   0.049  0.3814  0.1235 -0.2875
  195MPD1    H6 3029   1.532   1.848   0.075  0.1457  0.2695 -0.8289
  195MPD1    H7 3030   1.590   1.742  17.709  0.3168 -0.5305 -0.2724
  196MPD1     C 3031   4.617   0.890   0.575  0.0276  0.2506  0.3592
  196MPD1    C1 3032   4.700   0.947   0.487 -0.2729  0.5379  0.2554
  196MPD1    C2 3033   0.076   1.006   0.534 -0.3003  0.1246  0.3020
  196MPD1    C3 3034   0.103   1.013   0.671 -0.4606  0.4180  0.6860
  196MPD1    C4 3035   0.006   0.970   0.758  0.0533 -0.2421 -0.0058
  196MPD1    C5 3036   4.634   0.912   0.707 -0.1344 -0.3380  0.7691
  196MPD1     H 3037   0.153   1.041   0.466  0.8943 -1.9633  0.5565
  196MPD1    H1 3038   0.010   0.983   0.866 -0.7335  2.3470 -0.2926
  196MPD1    H2 3039   4.532   0.831   0.542  0.3823  0.6934 -1.3410
  196MPD1    H3 3040   4.563   0.874   0.780 -0.6037  0.0433  0.5119
  196MPD1     N 3041   0.223   1.071   0.725  0.3408  0.0907  0.3329
  196MPD1    H5 3042   0.245   1.064   0.824  0.0355  0.4529  0.4249
  196MPD1    N1 3043   4.691   0.905   0.360 -0.3196  0.2765 -0.3856
  196MPD1    H6 3044   4.593   0.890   0.337 -0.2297 -1.2404  0.2081
  196MPD1    H7 3045   0.008   0.959   0.293  1.7593 -0.5231  0.6264
  197MPD1     C 3046   4.642   4.114   0.094  0.3719 -0.7072  0.8772
  197MPD1    C1 3047   4.728   4.054   0.009  0.3789  0.2268 -0.4442
  197MPD1    C2 3048   0.002   4.104  17.624 -1.0292 -0.4377 -0.3342
  197MPD1    C3 3049   4.639   4.195  17.569 -0.4513 -0.2170 -0.3885
  197MPD1    C4 3050   4.536   4.235  17.649 -0.2079 -0.2962 -0.5188
  197MPD1    C5 3051   4.549   4.205   0.037 -0.4353 -0.2374  0.0290
  197MPD1     H 3052   0.086   4.073  17.563 -1.1305 -0.3737 -0.5078
  197MPD1    H1 3053   4.461   4.304  17.615 -1.3462 -0.7147  1.1497
  197MPD1    H2 3054   4.647   4.103   0.201  0.2189  0.6235  1.0145
  197MPD1    H3 3055   4.483   4.248   0.111  1.4187 -0.9946  2.1205
  197MPD1     N 3056   4.640   4.246  17.436 -0.0886 -0.1606 -0.3979
  197MPD1    H5 3057   4.551   4.273  17.395 -1.0501  1.6990  2.8311
  197MPD1    N1 3058   0.091   3.970   0.067  0.3658 -0.3329 -0.1015
  197MPD1    H6 3059   0.126   3.903  17.743  2.3825  0.6188  0.0090
  197MPD1    H7 3060   0.058   3.917   0.147 -1.1508 -2.1885 -1.9508
  198MPD1     C 3061   1.732   1.189  16.288  0.2971  0.0027  0.3740
  198MPD1    C1 3062   1.659   1.197  16.168  0.0933 -0.2247  0.2897
  198MPD1    C2 3063   1.670   1.313  16.092 -0.3267 -0.1363  0.0500
  198MPD1    C3 3064   1.761   1.415  16.137  0.0835  0.4286 -0.4214
  198MPD1    C4 3065   1.838   1.400  16.250  0.4062  0.0171  0.6689
  198MPD1    C5 3066   1.819   1.287  16.327 -0.4306  0.4349  0.1582
  198MPD1     H 3067   1.604   1.336  16.009  1.1115  3.9731  0.0778
  198MPD1    H1 3068   1.916   1.467  16.286  0.8747 -0.1403 -0.0369
  198MPD1    H2 3069   1.727   1.108  16.359 -0.7543 -1.0194 -0.8886
  198MPD1    H3 3070   1.876   1.270  16.418  0.3328  1.5227 -0.1198
  198MPD1     N 3071   1.766   1.527  16.053 -0.0302  0.0111 -0.3318
  198MPD1    H5 3072   1.727   1.511  15.960  0.3276 -0.1301 -0.4562
  198MPD1    N1 3073   1.559   1.104  16.143  0.3418 -0.2149 -0.3616
  198MPD1    H6 3074   1.599   1.015  16.174  0.4739  0.3618  1.1291
  198MPD1    H7 3075   1.536   1.101  16.044  1.0576  0.2946 -0.5405
  199MPD1     C 3076   3.687   3.664  10.024  0.0594  0.3901  0.4466
  199MPD1    C1 3077   3.561   3.607  10.018  1.1457  0.0479 -0.3518
  199MPD1    C2 3078   3.453   3.695  10.035 -0.0946 -0.7564  0.3022
  199MPD1    C3 3079   3.469   3.825  10.083  0.4134  0.4730 -0.3458
  199MPD1    C4 3080   3.594   3.873  10.088  0.1831  0.0441  0.8851
  199MPD1    C5 3081   3.702   3.793  10.057 -0.4847  0.0998 -0.2765
  199MPD1     H 3082   3.351   3.656  10.034 -0.3174 -0.1913  0.5895
  199MPD1    H1 3083   3.617   3.975  10.116 -0.3976  0.3329  0.2905
  199MPD1    H2 3084   3.783   3.613  10.023  0.3493  0.9337  0.5623
  199MPD1    H3 3085   3.800   3.839  10.057  0.3530 -1.6919  0.1860
  199MPD1     N 3086   3.367   3.919  10.117 -0.5595 -0.3553 -0.6471
  199MPD1    H5 3087   3.393   4.013  10.144 -1.8368  0.4305 -2.1319
  199MPD1    N1 3088   3.540   3.469  10.010  1.0875  0.0919  0.3083
  199MPD1    H6 3089   3.447   3.431   9.993  2.0032 -2.1726  0.4346
  199MPD1    H7 3090   3.617   3.417   9.966  0.4676 -0.4797 -0.1015
  200MPD1     C 3091   4.384   4.114  15.290  0.5987 -0.8605 -0.7522
  200MPD1    C1 3092   4.318   4.050  15.184 -0.4844  0.2432 -0.8853
  200MPD1    C2 3093   4.316   4.121  15.064 -0.4743  0.0645 -0.9588
  200MPD1    C3 3094   4.360   4.248  15.059  0.0643 -0.0344 -0.0926
  200MPD1    C4 3095   4.427   4.312  15.165  0.1475 -0.8392  0.6340
  200MPD1    C5 3096   4.444   4.236  15.270 -0.3950 -0.0801  0.0424
  200MPD1     H 3097   4.261   4.077  14.981  2.1006 -2.5222 -1.2590
  200MPD1    H1 3098   4.479   4.407  15.157 -1.5276  0.0619  0.5746
  200MPD1    H2 3099   4.380   4.064  15.385  2.0447 -0.5466 -0.5223
  200MPD1    H3 3100   4.484   4.285  15.357 -0.0249 -0.4626  0.0873
  200MPD1     N 3101   4.351   4.312  14.935  1.1223  0.4703 -0.0074
  200MPD1    H5 3102   4.305   4.264  14.859 -0.9594  0.4635  1.2678
  200MPD1    N1 3103   4.235   3.942  15.191  0.2756 -0.5057 -0.2415
  200MPD1    H6 3104   4.276   3.871  15.251 -3.3845 -0.0727  2.7950
  200MPD1    H7 3105   4.215   3.897  15.102 -2.1134 -1.0355  0.5516
  201MPD1     C 3106   0.350   2.840  13.175 -0.5738  0.3833 -0.4626
  201MPD1    C1 3107   0.299   2.719  13.133 -1.3669  0.5248  0.1641
  201MPD1    C2 3108   0.281   2.618  13.224  0.1577  0.2306 -0.4290
  201MPD1    C3 3109   0.321   2.627  13.355 -0.0601  0.1361 -0.0013
  201MPD1    C4 3110   0.367   2.754  13.395  0.2214 -0.4670 -0.0838
  201MPD1    C5 3111   0.383   2.861  13.307  0.3987  0.9875 -0.7984
  201MPD1     H 3112   0.229   2.525  13.204 -2.3518  1.4538  0.3118
  201MPD1    H1 3113   0.384   2.776  13.499 -0.6553 -0.6709  0.0973
  201MPD1    H2 3114   0.365   2.928  13.114 -1.6256  2.2639  1.9909
  201MPD1    H3 3115   0.404   2.959  13.347  1.2359  1.5151 -2.5527
  201MPD1     N 3116   0.306   2.521  13.447 -0.5903  0.1126 -0.0815
  201MPD1    H5 3117   0.277   2.430  13.413 -1.8219  0.3163  0.4080
  201MPD1    N1 3118   0.238   2.717  13.002 -0.5304  0.0280  0.3081
  201MPD1    H6 3119   0.230   2.620  12.973 -0.1598 -0.0981  0.6287
  201MPD1    H7 3120   0.297   2.766  12.934  0.7480  0.9268  2.0532
  202MPD1     C 3121   0.699   2.606   9.829 -0.5399 -0.3302  0.0990
  202MPD1    C1 3122   0.654   2.709   9.914  0.0573  0.4824  0.1567
  202MPD1    C2 3123   0.517   2.705   9.957  0.3970 -0.2541 -0.0807
  202MPD1    C3 3124   0.448   2.584   9.955  0.1602  0.2779 -0.2023
  202MPD1    C4 3125   0.504   2.479   9.884  0.4137  0.5593  0.2808
  202MPD1    C5 3126   0.622   2.492   9.819 -0.1131  0.4242 -0.3436
  202MPD1     H 3127   0.484   2.791  10.014 -0.5104 -0.9437  0.4483
  202MPD1    H1 3128   0.453   2.384   9.870  1.0716  0.1047  0.9674
  202MPD1    H2 3129   0.788   2.611   9.768 -1.4163 -0.7046 -1.1912
  202MPD1    H3 3130   0.662   2.416   9.753 -1.5796  1.1249 -2.0284
  202MPD1     N 3131   0.325   2.560  10.017 -0.5032  0.4816  0.1935
  202MPD1    H5 3132   0.281   2.474   9.987  0.2837 -0.3828  1.5149
  202MPD1    N1 3133   0.727   2.834   9.913  0.1579 -0.2922 -0.2718
  202MPD1    H6 3134   0.826   2.833   9.890  0.5349  3.4255  1.1645
  202MPD1    H7 3135   0.721   2.881  10.004  2.5493 -0.3103 -0.1162
  203MPD1     C 3136   3.199   3.165  12.254  0.1534  0.2959  0.3295
  203MPD1    C1 3137   3.216   3.029  12.270  0.1100 -0.7572  0.0091
  203MPD1    C2 3138   3.261   2.984  12.392  0.1167  0.7357 -0.5891
  203MPD1    C3 3139   3.306   3.066  12.491 -0.0551  0.6816 -0.2039
  203MPD1    C4 3140   3.297   3.206  12.470  0.0363  0.4235  0.5459
  203MPD1    C5 3141   3.242   3.254  12.351  0.4870  0.0713  0.6663
  203MPD1     H 3142   3.276   2.878  12.404 -2.7611  0.4221  0.2335
  203MPD1    H1 3143   3.335   3.280  12.539  0.2658  0.7772  0.0404
  203MPD1    H2 3144   3.155   3.202  12.162  0.1305  0.9605  0.6088
  203MPD1    H3 3145   3.233   3.362  12.339 -1.0928 -0.1319  0.0605
  203MPD1     N 3146   3.376   3.017  12.603  0.2582  0.7571 -0.0095
  203MPD1    H5 3147   3.404   2.920  12.594 -1.3950  0.1123  1.8283
  203MPD1    N1 3148   3.170   2.931  12.178 -0.1224 -0.4988  0.3636
  203MPD1    H6 3149   3.171   2.968  12.083  1.9866 -0.1578  0.5183
  203MPD1    H7 3150   3.210   2.838  12.182 -0.3368 -0.5452  1.3088
  204MPD1     C 3151   2.710   4.379  17.478 -0.3232  0.3059  0.0589
  204MPD1    C1 3152   2.777   4.429  17.367 -0.4357  0.6648  0.1442
  204MPD1    C2 3153   2.918   4.403  17.371  0.1759  0.4095  0.0225
  204MPD1    C3 3154   2.986   4.336  17.474  0.1430  0.2237  1.0395
  204MPD1    C4 3155   2.912   4.286  17.579  1.1377  0.1328 -0.0495
  204MPD1    C5 3156   2.776   4.306  17.577 -0.1784  0.3568 -0.1123
  204MPD1     H 3157   2.977   4.442  17.289 -1.0001 -1.1722 -1.5637
  204MPD1    H1 3158   2.950   4.214  17.651 -0.9908 -2.5974 -1.6337
  204MPD1    H2 3159   2.603   4.392  17.487 -0.7065 -2.2543 -0.7270
  204MPD1    H3 3160   2.712   4.249  17.643 -1.0489  2.5529  0.9388
  204MPD1     N 3161   3.126   4.315  17.459  0.2165 -0.2579  0.4075
  204MPD1    H5 3162   3.169   4.336  17.369  0.5405 -0.7200  0.4541
  204MPD1    N1 3163   2.712   4.481  17.251  0.0103 -0.3531  0.1625
  204MPD1    H6 3164   2.612   4.483  17.269  0.1907 -0.8709  1.2506
  204MPD1    H7 3165   2.751   4.567  17.213 -1.5902 -0.7022 -2.1962
  205MPD1     C 3166   4.014   3.183  16.942  0.1185  0.3819 -0.6617
  205MPD1    C1 3167   4.043   3.073  17.022 -0.1075 -0.9437  0.2650
  205MPD1    C2 3168   3.992   3.074  17.150 -0.1729  0.1260  0.7440
  205MPD1    C3 3169   3.931   3.186  17.199  0.8004  0.4194 -0.2654
  205MPD1    C4 3170   3.922   3.306  17.127  0.3769 -0.2439  0.1595
  205MPD1    C5 3171   3.955   3.295  16.995  0.0214  0.3774  0.4755
  205MPD1     H 3172   4.005   2.986  17.212  0.7289 -0.9251 -0.9102
  205MPD1    H1 3173   3.868   3.391  17.166  0.9999  1.5999 -3.0410
  205MPD1    H2 3174   4.028   3.172  16.835  1.3591 -2.6382 -0.1935
  205MPD1    H3 3175   3.939   3.382  16.933 -0.9959 -1.0961 -1.3313
  205MPD1     N 3176   3.875   3.190  17.324  0.1255  0.2678  0.3534
  205MPD1    H5 3177   3.854   3.285  17.354  0.9643  0.2756  0.9183
  205MPD1    N1 3178   4.087   2.947  16.969 -0.0915  0.2454  0.1959
  205MPD1    H6 3179   4.147   2.906  17.040  1.5005  0.8806 -0.7675
  205MPD1    H7 3180   4.149   2.954  16.889  0.6133  0.7401  0.7766
  206MPD1     C 3181   3.718   1.268  16.975 -0.4189 -0.3933 -0.4835
  206MPD1    C1 3182   3.619   1.360  16.943 -0.3500  0.0005 -0.3770
  206MPD1    C2 3183   3.572   1.368  16.814  0.5282 -0.4633 -1.0617
  206MPD1    C3 3184   3.621   1.283  16.716 -0.9643  0.2069  0.3641
  206MPD1    C4 3185   3.725   1.202  16.750  0.5055  0.3235  0.1522
  206MPD1    C5 3186   3.772   1.200  16.874 -0.0713 -0.3760  0.6560
  206MPD1     H 3187   3.496   1.440  16.786  1.6613  0.4463 -1.8018
  206MPD1    H1 3188   3.763   1.132  16.676  0.9872  1.9200 -1.1027
  206MPD1    H2 3189   3.749   1.254  17.078  0.7100 -0.7610 -0.8753
  206MPD1    H3 3190   3.860   1.137  16.888  1.5717  1.1802 -2.5590
  206MPD1     N 3191   3.573   1.278  16.584  0.1968 -0.1051 -0.1576
  206MPD1    H5 3192   3.613   1.213  16.518 -0.2320 -1.1750  0.6191
  206MPD1    N1 3193   3.556   1.430  17.044  0.3472  0.9840  0.7966
  206MPD1    H6 3194   3.507   1.513  17.011  1.5751  1.1172 -0.7068
  206MPD1    H7 3195   3.613   1.446  17.127  0.9176  0.2217  0.5544
  207MPD1     C 3196   0.958   2.995  11.448  0.1762  0.2742 -0.4738
  207MPD1    C1 3197   0.921   3.020  11.318  0.3611 -0.2343  0.6192
  207MPD1    C2 3198   1.009   3.067  11.229  0.1536 -0.1073  0.3415
  207MPD1    C3 3199   1.132   3.120  11.267 -0.0051 -0.4510  0.6094
  207MPD1    C4 3200   1.154   3.118  11.403  0.8086 -0.7768  0.0117
  207MPD1    C5 3201   1.077   3.045  11.489 -0.4022  0.0544  0.2620
  207MPD1     H 3202   0.972   3.070  11.127  2.9064 -1.8000 -0.7335
  207MPD1    H1 3203   1.241   3.160  11.452  1.7880 -1.3700 -1.2468
  207MPD1    H2 3204   0.876   2.970  11.515 -0.2996  1.5843 -0.5765
  207MPD1    H3 3205   1.104   3.046  11.594 -1.7071 -1.0082  0.6014
  207MPD1     N 3206   1.227   3.183  11.184 -0.0779 -0.6124 -0.0467
  207MPD1    H5 3207   1.314   3.212  11.228 -0.7141  0.8469  0.2612
  207MPD1    N1 3208   0.799   2.979  11.273 -0.2220  0.5922  0.6400
  207MPD1    H6 3209   0.772   3.012  11.180  0.1473  1.1244  0.7197
  207MPD1    H7 3210   0.721   2.983  11.338 -0.7228  0.8251  0.0314
  208MPD1     C 3211   3.779   2.182  17.269 -0.8137 -0.2658 -0.4417
  208MPD1    C1 3212   3.860   2.288  17.309 -0.8680 -0.1630 -0.1819
  208MPD1    C2 3213   3.916   2.286  17.436 -0.2506  0.3016  0.7778
  208MPD1    C3 3214   3.918   2.167  17.515 -0.4840 -0.1180  0.6412
  208MPD1    C4 3215   3.838   2.060  17.471  0.0691 -0.4888 -0.2437
  208MPD1    C5 3216   3.764   2.076  17.350  0.0438 -0.5255 -0.7660
  208MPD1     H 3217   3.974   2.375  17.457 -1.0397  1.3888 -1.6002
  208MPD1    H1 3218   3.824   1.976  17.537  0.0143  0.0959  0.4824
  208MPD1    H2 3219   3.707   2.189  17.188 -0.8184  0.4848 -0.3773
  208MPD1    H3 3220   3.691   2.001  17.321  1.9131 -1.9876 -1.6476
  208MPD1     N 3221   4.000   2.178  17.628 -0.3319 -0.1430  0.4437
  208MPD1    H5 3222   4.035   2.270  17.651  1.3488 -1.1149  1.7395
  208MPD1    N1 3223   3.870   2.397  17.221 -0.4920 -0.2047 -0.1433
  208MPD1    H6 3224   3.962   2.441  17.219  0.0400 -1.2980  0.1394
  208MPD1    H7 3225   3.837   2.361  17.132  2.3154 -2.2684 -0.3720
  209MPD1     C 3226   2.691   3.155  10.970  0.5227  0.0258  0.1042
  209MPD1    C1 3227   2.572   3.144  11.041  0.0071  0.2382 -0.5133
  209MPD1    C2 3228   2.507   3.257  11.086 -0.4647 -0.3741  0.5997
  209MPD1    C3 3229   2.557   3.381  11.069  0.1274 -0.2995  0.5565
  209MPD1    C4 3230   2.666   3.388  10.985 -0.3695 -0.5768 -0.5787
  209MPD1    C5 3231   2.727   3.277  10.933  0.3599 -0.4449 -0.2339
  209MPD1     H 3232   2.420   3.241  11.148 -2.4254  0.6311 -1.8860
  209MPD1    H1 3233   2.711   3.479  10.947 -2.5612  0.5062 -0.5666
  209MPD1    H2 3234   2.741   3.071  10.923  0.9043  1.0268 -1.2759
  209MPD1    H3 3235   2.816   3.296  10.874 -0.9059  3.1693 -1.0338
  209MPD1     N 3236   2.486   3.496  11.117  0.0273  0.1879  0.1237
  209MPD1    H5 3237   2.399   3.469  11.161  0.0197  0.8151  0.5098
  209MPD1    N1 3238   2.519   3.014  11.075 -0.5060 -0.1370 -0.3794
  209MPD1    H6 3239   2.507   2.948  10.998 -1.8928 -1.1718  0.7301
  209MPD1    H7 3240   2.426   3.016  11.116 -0.8814  0.8156 -1.2785
  210MPD1     C 3241   2.314   4.376  11.712  0.0101 -0.7745  0.4039
  210MPD1    C1 3242   2.421   4.363  11.618 -1.2869  0.5334  0.2622
  210MPD1    C2 3243   2.412   4.268  11.520 -0.6054 -0.3168 -0.4367
  210MPD1    C3 3244   2.317   4.171  11.531 -0.3967  0.1603  0.1559
  210MPD1    C4 3245   2.224   4.170  11.634  0.3797  0.6014 -0.1898
  210MPD1    C5 3246   2.219   4.281  11.716  0.6409  0.1907 -0.8010
  210MPD1     H 3247   2.483   4.270  11.439  1.1806  0.7576  1.1575
  210MPD1    H1 3248   2.143   4.098  11.638  2.5210 -1.9118 -1.9668
  210MPD1    H2 3249   2.311   4.449  11.792 -2.7806 -0.1745 -0.2568
  210MPD1    H3 3250   2.141   4.297  11.790  0.1742 -3.9743 -0.3942
  210MPD1     N 3251   2.306   4.064  11.441 -0.0649 -0.1013  0.0734
  210MPD1    H5 3252   2.226   4.003  11.453  0.7009 -0.9157  1.0672
  210MPD1    N1 3253   2.507   4.473  11.600  0.4175  0.3206  0.6128
  210MPD1    H6 3254   2.525   4.506  11.695  2.6738 -1.2320  0.7239
  210MPD1    H7 3255   2.594   4.450  11.553  0.0507  0.4531 -0.1229
  211MPD1     C 3256   3.712   2.061  16.239 -0.0782  0.4507  0.9641
  211MPD1    C1 3257   3.742   2.128  16.350 -0.4343 -0.0358 -0.3535
  211MPD1    C2 3258   3.668   2.238  16.376 -0.0625 -0.2478 -0.3705
  211MPD1    C3 3259   3.566   2.284  16.297 -0.0309  0.1719 -0.0375
  211MPD1    C4 3260   3.530   2.208  16.192 -0.5071  0.3500 -0.9102
  211MPD1    C5 3261   3.602   2.097  16.169  0.5636  0.0583 -0.4274
  211MPD1     H 3262   3.701   2.294  16.463 -1.8668 -0.5427  0.5052
  211MPD1    H1 3263   3.450   2.229  16.122 -0.3872  2.7632 -0.3323
  211MPD1    H2 3264   3.763   1.971  16.207  0.7930  1.0746  0.6183
  211MPD1    H3 3265   3.571   2.019  16.100 -0.2959  1.5257 -1.6967
  211MPD1     N 3266   3.505   2.407  16.334  0.2033 -0.3253 -0.1910
  211MPD1    H5 3267   3.556   2.452  16.410  2.0301 -2.7861  0.0329
  211MPD1    N1 3268   3.849   2.086  16.427  0.3048 -0.1071 -0.1434
  211MPD1    H6 3269   3.878   2.143  16.507  0.5166 -0.7706  0.2459
  211MPD1    H7 3270   3.917   2.026  16.382  0.2287 -0.4551  0.2142
  212MPD1     C 3271   3.226   0.872  17.007  0.1660  0.9690 -0.2856
  212MPD1    C1 3272   3.243   0.850  17.139  0.4715  0.3158  0.2715
  212MPD1    C2 3273   3.199   0.728  17.187 -0.2147 -0.0069 -0.5563
  212MPD1    C3 3274   3.128   0.635  17.115  0.1295 -0.3757  0.4795
  212MPD1    C4 3275   3.107   0.668  16.981  0.6071 -0.1323 -0.8891
  212MPD1    C5 3276   3.152   0.783  16.931 -0.5144  0.8594 -0.1853
  212MPD1     H 3277   3.213   0.694  17.289  2.2908 -2.0397 -1.5847
  212MPD1    H1 3278   3.059   0.599  16.911 -0.0205 -1.9845  1.3589
  212MPD1    H2 3279   3.266   0.961  16.960  0.4496  0.6974 -0.5571
  212MPD1    H3 3280   3.142   0.806  16.826  1.7101  0.7624 -0.4325
  212MPD1     N 3281   3.070   0.515  17.160 -0.8986 -0.3266  0.1513
  212MPD1    H5 3282   3.009   0.470  17.093  0.0548 -0.2796 -0.7387
  212MPD1    N1 3283   3.326   0.925  17.212 -0.1308  0.3315 -0.4199
  212MPD1    H6 3284   3.304   0.920  17.311 -2.6966 -0.3051 -1.0304
  212MPD1    H7 3285   3.317   1.022  17.182  1.2868  1.1463  1.7802
  213MPD1     C 3286   1.469   1.599  16.205  0.3316  0.1933 -0.2208
  213MPD1    C1 3287   1.402   1.481  16.171  0.4937  0.4480 -0.9714
  213MPD1    C2 3288   1.313   1.491  16.069  0.1791 -0.3995 -0.0702
  213MPD1    C3 3289   1.326   1.584  15.972 -0.3005 -0.4367  0.0089
  213MPD1    C4 3290   1.424   1.680  15.989  0.6752  0.0817 -0.5128
  213MPD1    C5 3291   1.480   1.702  16.113  0.2769 -0.1818  1.0388
  213MPD1     H 3292   1.239   1.415  16.049 -0.9273  0.4549  0.8028
  213MPD1    H1 3293   1.469   1.738  15.908 -0.1036  1.4043 -0.0021
  213MPD1    H2 3294   1.546   1.601  16.281 -1.1541  0.6384  1.2816
  213MPD1    H3 3295   1.562   1.771  16.128 -0.7654  0.9512  1.4490
  213MPD1     N 3296   1.257   1.562  15.852  0.0923  0.3282 -0.3153
  213MPD1    H5 3297   1.177   1.500  15.849 -1.1317  1.9235 -0.5493
  213MPD1    N1 3298   1.384   1.388  16.275  0.6055  0.4223 -0.0759
  213MPD1    H6 3299   1.464   1.357  16.331 -0.3020 -0.1680  0.8941
  213MPD1    H7 3300   1.345   1.299  16.246 -1.1584  0.6711  1.5322
  214MPD1     C 3301   1.010   0.830  15.316  0.1398 -0.3614 -0.3873
  214MPD1    C1 3302   1.002   0.865  15.447  0.8358 -0.4216 -0.4371
  214MPD1    C2 3303   1.002   0.998  15.479  0.6089 -0.3774 -0.2606
  214MPD1    C3 3304   1.008   1.095  15.376  0.4960  0.0608 -0.2324
  214MPD1    C4 3305   1.006   1.059  15.247 -0.2877 -0.2039  0.0323
  214MPD1    C5 3306   1.005   0.927  15.217  0.0149 -0.5447  1.4016
  214MPD1     H 3307   0.996   1.020  15.585 -2.1160  1.4369 -0.7855
  214MPD1    H1 3308   1.002   1.131  15.166  0.7095 -1.3532 -1.0442
  214MPD1    H2 3309   1.013   0.729  15.277  1.7910 -0.2308 -0.5827
  214MPD1    H3 3310   1.010   0.880  15.119  0.8424  0.4133  0.9890
  214MPD1     N 3311   1.011   1.235  15.401 -0.5258  0.1581 -0.2961
  214MPD1    H5 3312   0.997   1.300  15.325 -0.9013  1.8591  1.2063
  214MPD1    N1 3313   1.007   0.765  15.544 -0.2084 -0.3166  0.1588
  214MPD1    H6 3314   0.965   0.680  15.507  4.7237 -2.7018  0.0597
  214MPD1    H7 3315   0.957   0.796  15.628  3.0818 -1.0217  2.3620
  215MPD1     C 3316   0.281   3.233  11.205  0.1675 -0.6163 -0.4513
  215MPD1    C1 3317   0.373   3.207  11.107 -0.0850  0.4663 -0.1874
  215MPD1    C2 3318   0.511   3.236  11.131  0.2411  0.2301  0.3231
  215MPD1    C3 3319   0.553   3.297  11.249  0.2045 -0.7757  0.0860
  215MPD1    C4 3320   0.455   3.312  11.352 -0.6888 -0.3669  0.7181
  215MPD1    C5 3321   0.325   3.278  11.324  0.1144 -0.4824  0.3729
  215MPD1     H 3322   0.590   3.210  11.061  1.0446 -0.2180  1.4110
  215MPD1    H1 3323   0.472   3.368  11.443 -1.4503  1.9906 -0.6033
  215MPD1    H2 3324   0.177   3.210  11.189 -0.9676  1.7199  3.4439
  215MPD1    H3 3325   0.250   3.309  11.396 -1.1571 -1.3543 -0.5637
  215MPD1     N 3326   0.688   3.337  11.263  0.1606  0.3386 -0.7741
  215MPD1    H5 3327   0.747   3.329  11.181 -0.4556 -2.1396 -0.9764
  215MPD1    N1 3328   0.333   3.131  10.998  0.9522  0.4490 -0.1710
  215MPD1    H6 3329   0.232   3.127  10.983  0.2692  1.6516  4.1330
  215MPD1    H7 3330   0.383   3.135  10.910 -0.5335  3.4525 -0.8800
  216MPD1     C 3331   2.371   0.524   0.436  0.5276  0.4492  0.6326
  216MPD1    C1 3332   2.497   0.476   0.419  0.0732  0.1026  0.1537
  216MPD1    C2 3333   2.515   0.344   0.396 -0.0994  0.2001  0.1186
  216MPD1    C3 3334   2.410   0.255   0.378  0.2690  0.4724 -0.2979
  216MPD1    C4 3335   2.289   0.303   0.407  0.0987 -0.3852  0.4632
  216MPD1    C5 3336   2.267   0.436   0.424  0.0983  0.1075  0.4721
  216MPD1     H 3337   2.615   0.310   0.372  0.3436  0.8260  1.0983
  216MPD1    H1 3338   2.200   0.241   0.401  0.6872 -1.1158 -0.6861
  216MPD1    H2 3339   2.351   0.628   0.459  0.6935  0.7499 -0.6062
  216MPD1    H3 3340   2.163   0.465   0.435  0.4329  1.8012 -0.8675
  216MPD1     N 3341   2.443   0.125   0.354  0.6106  0.2401  0.6987
  216MPD1    H5 3342   2.541   0.113   0.330  0.1453 -0.4169 -0.8874
  216MPD1    N1 3343   2.605   0.563   0.450 -0.1587  0.4746 -0.5045
  216MPD1    H6 3344   2.696   0.531   0.416  1.2954  0.9268  2.9039
  216MPD1    H7 3345   2.587   0.653   0.406  2.2871  2.3295  2.2380
  217MPD1     C 3346   3.853   2.713   8.341 -0.2218 -0.8226 -0.2560
  217MPD1    C1 3347   3.976   2.661   8.323 -0.3893  0.2224 -0.0467
  217MPD1    C2 3348   4.033   2.601   8.432 -0.8228  0.0754  0.2269
  217MPD1    C3 3349   3.971   2.599   8.558  0.0306  0.4754 -0.0406
  217MPD1    C4 3350   3.847   2.656   8.574  0.0736 -0.6702  0.7254
  217MPD1    C5 3351   3.783   2.706   8.458 -0.4820  0.9648 -0.1508
  217MPD1     H 3352   4.129   2.552   8.417 -1.0292 -0.4620  0.6353
  217MPD1    H1 3353   3.791   2.663   8.666  0.2601  1.0518  0.7058
  217MPD1    H2 3354   3.811   2.767   8.257  0.7900 -0.0403 -0.2625
  217MPD1    H3 3355   3.688   2.758   8.472 -1.9508 -1.0689 -2.5882
  217MPD1     N 3356   4.021   2.543   8.679  0.1860 -1.1250 -0.2038
  217MPD1    H5 3357   3.957   2.536   8.758 -2.6555 -2.7234 -2.6577
  217MPD1    N1 3358   4.044   2.671   8.199 -0.0367 -0.1440 -0.3273
  217MPD1    H6 3359   4.115   2.601   8.176  0.2276  0.1559 -0.4272
  217MPD1    H7 3360   3.987   2.684   8.116  0.6772  1.7812 -0.5321
  218MPD1     C 3361   0.430   3.613  13.031  0.3377 -0.0673 -0.3070
  218MPD1    C1 3362   0.444   3.495  13.100 -0.7085 -0.9327 -0.2214
  218MPD1    C2 3363   0.574   3.445  13.111 -0.2246 -0.2866 -0.3720
  218MPD1    C3 3364   0.684   3.504  13.059 -0.4587  0.2685 -0.5078
  218MPD1    C4 3365   0.671   3.625  12.993 -0.0199  0.4441 -0.2516
  218MPD1    C5 3366   0.542   3.675  12.971  0.3667 -0.3134 -0.5950
  218MPD1     H 3367   0.588   3.351  13.163  0.0814  0.9702  1.8289
  218MPD1    H1 3368   0.754   3.666  12.935  2.1463 -0.7269  2.0103
  218MPD1    H2 3369   0.335   3.658  13.005 -0.3911 -0.7433  1.1928
  218MPD1    H3 3370   0.533   3.760  12.904 -1.1799  2.2974  2.9566
  218MPD1     N 3371   0.808   3.428  13.064 -0.2127 -0.1774  0.1335
  218MPD1    H5 3372   0.799   3.346  13.123 -0.1526 -0.7444 -0.6366
  218MPD1    N1 3373   0.332   3.420  13.140 -0.1664 -0.6618 -0.1055
  218MPD1    H6 3374   0.250   3.480  13.136  0.5167  0.0426 -3.1474
  218MPD1    H7 3375   0.353   3.388  13.234  0.3944  0.9488  0.3034
  219MPD1     C 3376   1.747   3.053  12.616 -0.2850 -0.2408  0.5195
  219MPD1    C1 3377   1.718   3.187  12.649 -0.0350  0.0988 -0.0542
  219MPD1    C2 3378   1.598   3.216  12.715  0.3714  0.0621  0.0640
  219MPD1    C3 3379   1.497   3.123  12.699 -0.4174 -0.5300 -0.3301
  219MPD1    C4 3380   1.525   2.999  12.644 -0.3880  0.3934  0.0977
  219MPD1    C5 3381   1.650   2.958  12.605 -0.3586 -0.2496  0.5568
  219MPD1     H 3382   1.585   3.315  12.756  0.7874 -0.4894  1.5033
  219MPD1    H1 3383   1.442   2.929  12.637  0.1924 -0.4099  1.1298
  219MPD1    H2 3384   1.845   3.029  12.578  0.7509  1.4417  2.1512
  219MPD1    H3 3385   1.668   2.856  12.574  4.7337  0.6831  0.4403
  219MPD1     N 3386   1.360   3.144  12.743  0.2550  0.1406 -0.0105
  219MPD1    H5 3387   1.308   3.057  12.755  2.5342 -1.5952 -2.9235
  219MPD1    N1 3388   1.824   3.278  12.670  0.2425  0.0871 -0.5037
  219MPD1    H6 3389   1.799   3.377  12.675 -0.6098 -0.1378 -0.2986
  219MPD1    H7 3390   1.894   3.280  12.597  0.3197  4.2211 -0.3272
  220MPD1     C 3391   1.008   3.301   9.496 -0.2334  0.3921 -0.2949
  220MPD1    C1 3392   1.046   3.422   9.549 -0.0625 -0.0616  0.3069
  220MPD1    C2 3393   1.038   3.435   9.683 -1.2853 -0.3505 -1.1162
  220MPD1    C3 3394   1.002   3.328   9.761  0.3222 -0.0738  0.5263
  220MPD1    C4 3395   0.965   3.214   9.701  0.2237  0.0582 -0.6242
  220MPD1    C5 3396   0.964   3.200   9.566 -0.3994 -0.7403 -0.1220
  220MPD1     H 3397   1.068   3.528   9.730  0.3518 -0.9227 -1.0072
  220MPD1    H1 3398   0.923   3.133   9.760 -1.3487  1.8521  0.7169
  220MPD1    H2 3399   1.006   3.286   9.389 -1.0568  0.3167 -0.2695
  220MPD1    H3 3400   0.920   3.111   9.524 -0.0572 -1.1662  0.4261
  220MPD1     N 3401   0.985   3.336   9.902 -0.6427 -0.7878 -0.1986
  220MPD1    H5 3402   0.953   3.255   9.953 -0.4100  0.4849  1.9785
  220MPD1    N1 3403   1.072   3.534   9.465  0.2098 -0.6023  0.7352
  220MPD1    H6 3404   1.122   3.511   9.379  1.0686 -2.0103  1.6135
  220MPD1    H7 3405   1.135   3.598   9.514 -0.8907  0.6550  0.4940
  221MPD1     C 3406   3.250   2.978  17.044 -0.9594  0.4073  0.5852
  221MPD1    C1 3407   3.174   2.954  16.932  0.2401 -0.3924 -0.1687
  221MPD1    C2 3408   3.190   2.834  16.861  0.0713 -0.8207 -0.4810
  221MPD1    C3 3409   3.271   2.741  16.904 -0.1503  0.2914 -0.0979
  221MPD1    C4 3410   3.353   2.770  17.007 -0.3197  0.0509 -0.1117
  221MPD1    C5 3411   3.345   2.885  17.082 -0.8299  0.0564  0.1562
  221MPD1     H 3412   3.133   2.825  16.768 -0.4591 -0.6745 -0.1704
  221MPD1    H1 3413   3.421   2.697  17.050  0.1403  0.8211  0.4604
  221MPD1    H2 3414   3.249   3.074  17.096  2.3536  1.6834 -1.6756
  221MPD1    H3 3415   3.413   2.907  17.163 -0.4120  0.0472 -0.1883
  221MPD1     N 3416   3.288   2.620  16.842 -0.2369 -0.2030  0.2257
  221MPD1    H5 3417   3.361   2.563  16.883 -0.3859 -0.9614 -0.5616
  221MPD1    N1 3418   3.094   3.059  16.885  0.6734  0.3115 -1.2382
  221MPD1    H6 3419   3.047   3.098  16.966  0.3877  0.0364 -1.2740
  221MPD1    H7 3420   3.019   3.017  16.831 -0.3003 -0.1534  0.4972
  222MPD1     C 3421   3.132   0.385  17.713 -0.0693 -0.7558 -0.7809
  222MPD1    C1 3422   3.159   0.336   0.096 -0.0000 -0.6713  0.2406
  222MPD1    C2 3423   3.178   0.431   0.199  0.3670 -0.5534  0.0959
  222MPD1    C3 3424   3.163   0.568   0.180 -0.6384  0.4388  0.3324
  222MPD1    C4 3425   3.130   0.604   0.044  1.4867  0.2672  0.3264
  222MPD1    C5 3426   3.114   0.514  17.687 -0.5532 -0.1839 -0.2467
  222MPD1     H 3427   3.201   0.388   0.296 -0.4589 -2.7076 -0.6664
  222MPD1    H1 3428   3.122   0.708   0.014  0.8702  0.2336  0.3737
  222MPD1    H2 3429   3.113   0.315  17.632  1.5957 -0.9203 -1.0256
  222MPD1    H3 3430   3.083   0.556  17.592 -1.0200 -0.6184 -0.2871
  222MPD1     N 3431   3.179   0.674   0.268  0.0046  0.3161 -0.4796
  222MPD1    H5 3432   3.191   0.765   0.225  1.5503  0.8902  1.1452
  222MPD1    N1 3433   3.197   0.206   0.122 -0.2448 -0.0106 -0.1682
  222MPD1    H6 3434   3.173   0.178   0.217  2.6344  2.7343  1.3960
  222MPD1    H7 3435   3.141   0.156   0.054 -0.6166 -0.3102  0.3590
  223MPD1     C 3436   3.379   1.080   1.285 -0.3095 -0.4420 -0.7776
  223MPD1    C1 3437   3.471   1.130   1.203  0.4386  0.0545 -0.1458
  223MPD1    C2 3438   3.467   1.078   1.074 -0.2294 -0.2812 -0.2936
  223MPD1    C3 3439   3.369   0.989   1.030  0.2224  0.6133 -0.6989
  223MPD1    C4 3440   3.263   0.960   1.106 -0.4436 -0.7356 -0.1078
  223MPD1    C5 3441   3.281   0.996   1.238  0.8596 -0.8220  0.0926
  223MPD1     H 3442   3.550   1.087   1.004 -0.1635 -0.6613 -0.2692
  223MPD1    H1 3443   3.188   0.889   1.072 -1.3939  0.0299  0.3849
  223MPD1    H2 3444   3.375   1.097   1.392  0.2400  1.1813 -1.0148
  223MPD1    H3 3445   3.216   0.964   1.319 -0.4929  1.8305  0.0572
  223MPD1     N 3446   3.381   0.943   0.897 -0.1659  0.7546 -0.4475
  223MPD1    H5 3447   3.466   0.964   0.845 -0.2244 -1.0313 -1.2705
  223MPD1    N1 3448   3.582   1.198   1.254  0.4947  0.0293 -0.0881
  223MPD1    H6 3449   3.625   1.254   1.181  1.0910 -0.8140 -0.3946
  223MPD1    H7 3450   3.565   1.264   1.330 -1.8716  0.3525 -0.9271
  224MPD1     C 3451   3.629   3.069   9.057 -0.0589 -0.4128 -0.2001
  224MPD1    C1 3452   3.733   2.985   9.055  0.3842 -0.5112 -0.6710
  224MPD1    C2 3453   3.779   2.927   9.181  0.5531  0.8147 -0.9860
  224MPD1    C3 3454   3.725   2.973   9.299 -0.2862  0.5659  0.6516
  224MPD1    C4 3455   3.615   3.054   9.298  0.5561 -0.4385  0.5393
  224MPD1    C5 3456   3.561   3.095   9.175 -0.0678 -0.9000 -1.1158
  224MPD1     H 3457   3.865   2.861   9.175  1.0277  1.5349 -2.0800
  224MPD1    H1 3458   3.570   3.089   9.391  0.4308  1.0979 -0.1028
  224MPD1    H2 3459   3.613   3.129   8.968  2.0551  0.7645  0.2242
  224MPD1    H3 3460   3.479   3.165   9.170  1.0263  0.6183  1.9322
  224MPD1     N 3461   3.782   2.937   9.417 -0.5303 -0.3067 -0.3912
  224MPD1    H5 3462   3.745   2.981   9.501 -0.2095 -0.0833 -0.3653
  224MPD1    N1 3463   3.797   2.969   8.936  0.2674 -0.8158  0.2738
  224MPD1    H6 3464   3.840   2.878   8.950  1.0661 -0.5152 -0.2293
  224MPD1    H7 3465   3.728   2.958   8.862 -1.0846  2.3792  1.0412
  225MPD1     C 3466   1.138   4.521  12.832  0.1084 -0.2831 -0.2845
  225MPD1    C1 3467   1.045   4.438  12.890  0.5075  0.2243 -0.4849
  225MPD1    C2 3468   0.954   4.376  12.812 -0.4390  0.0226  0.0289
  225MPD1    C3 3469   0.943   4.421  12.677 -0.0988 -0.3991 -0.4519
  225MPD1    C4 3470   1.024   4.521  12.623  0.5675  0.1440 -0.8945
  225MPD1    C5 3471   1.130   4.558  12.701 -0.2412  0.5666 -0.4812
  225MPD1     H 3472   0.894   4.296  12.854 -1.8180  1.4367  0.7213
  225MPD1    H1 3473   1.014   4.569  12.527 -2.3314  2.0600  0.3358
  225MPD1    H2 3474   1.219   4.568  12.886  0.5069 -1.4849  0.1606
  225MPD1    H3 3475   1.193   4.640  12.669 -0.3724 -0.1579 -2.6213
  225MPD1     N 3476   0.851   4.359  12.591  0.4249 -0.2233  0.3665
  225MPD1    H5 3477   0.852   4.401  12.498  0.4462 -1.7159 -0.3052
  225MPD1    N1 3478   1.074   4.394  13.018  0.2068  0.3523 -0.1310
  225MPD1    H6 3479   0.985   4.379  13.065 -0.2751  1.8001 -0.5856
  225MPD1    H7 3480   1.115   4.471  13.070  0.5854  0.4703 -0.6127
  226MPD1     C 3481   2.704   3.912   9.843 -0.0853 -0.6574  0.2125
  226MPD1    C1 3482   2.763   3.790   9.821 -0.2273 -0.2077 -0.2523
  226MPD1    C2 3483   2.903   3.799   9.809  0.6448 -0.2784 -0.1028
  226MPD1    C3 3484   2.968   3.921   9.789  0.2073 -0.5475  0.2351
  226MPD1    C4 3485   2.897   4.034   9.787  0.2929  0.6417  0.6474
  226MPD1    C5 3486   2.765   4.029   9.812 -0.5441  0.0860  0.2635
  226MPD1     H 3487   2.965   3.710   9.807  2.0948  0.6613  2.4079
  226MPD1    H1 3488   2.944   4.130   9.772  1.5658 -0.0604  0.0773
  226MPD1    H2 3489   2.602   3.919   9.880  0.5478  0.8382  1.6552
  226MPD1    H3 3490   2.714   4.124   9.819 -0.6208 -0.1488  2.7949
  226MPD1     N 3491   3.106   3.910   9.762  0.1317 -0.2370 -0.3755
  226MPD1    H5 3492   3.148   3.817   9.757 -1.5096 -1.0231  0.5757
  226MPD1    N1 3493   2.704   3.665   9.849  0.1129 -0.3176  0.0676
  226MPD1    H6 3494   2.729   3.584   9.793 -2.3221 -0.2643 -1.0979
  226MPD1    H7 3495   2.602   3.673   9.846 -0.0542 -1.6022  2.3878
  227MPD1     C 3496   4.111   4.196   9.960 -0.0672 -0.4858  0.4971
  227MPD1    C1 3497   4.116   4.061   9.916 -0.1572  0.2013  0.2888
  227MPD1    C2 3498   4.003   4.012   9.862  0.2630  0.2214  0.0152
  227MPD1    C3 3499   3.891   4.094   9.844 -0.1288 -0.0736 -0.4242
  227MPD1    C4 3500   3.888   4.231   9.875  0.0374  0.6866  0.4071
  227MPD1    C5 3501   4.000   4.274   9.936  0.0505 -0.5395 -0.2594
  227MPD1     H 3502   3.996   3.906   9.843 -1.1938  0.2694  0.2365
  227MPD1    H1 3503   3.806   4.301   9.868 -0.9128 -0.4236  0.3820
  227MPD1    H2 3504   4.198   4.244  10.003 -0.7171  0.7710  0.4093
  227MPD1    H3 3505   4.005   4.377   9.970 -2.3994 -0.5262  0.0876
  227MPD1     N 3506   3.775   4.029   9.802  0.3448  0.2381 -0.4037
  227MPD1    H5 3507   3.776   3.930   9.783 -3.0269  0.2542 -0.5793
  227MPD1    N1 3508   4.228   3.980   9.941  0.0577 -0.0066 -0.2305
  227MPD1    H6 3509   4.317   4.028   9.947 -0.5998  1.3206 -1.0848
  227MPD1    H7 3510   4.231   3.892   9.889  0.1117 -0.0347 -0.1794
  228MPD1     C 3511   2.487   1.205  13.477 -0.3836  0.2575 -0.0796
  228MPD1    C1 3512   2.388   1.277  13.404 -0.6398  0.6880 -0.0582
  228MPD1    C2 3513   2.256   1.248  13.429 -0.3103  0.1444 -0.9454
  228MPD1    C3 3514   2.216   1.153  13.527 -0.5311 -0.3064 -0.4310
  228MPD1    C4 3515   2.312   1.081  13.596  1.0478  0.2069  0.2303
  228MPD1    C5 3516   2.445   1.114  13.569  0.2340  1.0925  0.7856
  228MPD1     H 3517   2.179   1.309  13.384 -0.5260  0.0024 -0.7701
  228MPD1    H1 3518   2.291   1.008  13.673  0.5446 -0.4758 -0.5631
  228MPD1    H2 3519   2.591   1.218  13.450 -0.9618  0.6314 -2.1320
  228MPD1    H3 3520   2.512   1.047  13.622  0.0777  0.5443  0.2953
  228MPD1     N 3521   2.074   1.112  13.526 -0.1955  0.0159  0.6784
  228MPD1    H5 3522   2.005   1.159  13.468  0.9193 -0.1703 -0.7934
  228MPD1    N1 3523   2.419   1.364  13.297 -0.2528 -0.1334 -0.7168
  228MPD1    H6 3524   2.347   1.435  13.285  1.1617  1.7456  1.7186
  228MPD1    H7 3525   2.514   1.402  13.295 -1.1203  2.0855  0.2106
  229MPD1     C 3526   1.747   0.796  14.888  0.2646 -0.1290 -0.2862
  229MPD1    C1 3527   1.713   0.660  14.892 -0.4953 -0.0803 -0.1022
  229MPD1    C2 3528   1.819   0.572  14.926  0.3157  0.2723 -0.4352
  229MPD1    C3 3529   1.940   0.618  14.987 -0.0936  0.2066  0.6133
  229MPD1    C4 3530   1.958   0.750  14.997  0.6485  0.2442  0.4171
  229MPD1    C5 3531   1.861   0.835  14.949 -0.2909 -0.3694 -0.2209
  229MPD1     H 3532   1.811   0.467  14.902  1.0297 -0.4000  2.2816
  229MPD1    H1 3533   2.053   0.789  15.030  0.8937  0.4489 -0.5307
  229MPD1    H2 3534   1.686   0.876  14.848 -0.0954  0.5458  1.6441
  229MPD1    H3 3535   1.895   0.937  14.959 -0.6108 -0.2719 -0.1295
  229MPD1     N 3536   2.045   0.532  15.015 -0.2301 -0.2035  0.4231
  229MPD1    H5 3537   2.118   0.581  15.066  0.1708  1.0694 -1.3606
  229MPD1    N1 3538   1.581   0.610  14.855  0.0350  0.2886  0.1242
  229MPD1    H6 3539   1.560   0.515  14.884 -0.2808 -0.0560 -1.2310
  229MPD1    H7 3540   1.544   0.627  14.762 -0.4896  1.8910  0.6290
  230MPD1     C 3541   2.749   0.287  15.688  0.5175 -0.2080  0.1901
  230MPD1    C1 3542   2.765   0.184  15.599  0.1523  0.8577 -0.2575
  230MPD1    C2 3543   2.676   0.172  15.499 -0.1850 -0.2819 -0.0325
  230MPD1    C3 3544   2.584   0.278  15.469  0.5451  0.3884 -0.3324
  230MPD1    C4 3545   2.573   0.387  15.558  0.5249  0.3959 -0.2948
  230MPD1    C5 3546   2.652   0.390  15.667  0.1230 -0.0760 -0.8297
  230MPD1     H 3547   2.686   0.094  15.425  1.6748 -1.3517  1.3738
  230MPD1    H1 3548   2.500   0.464  15.538  0.9197  0.4118 -1.6982
  230MPD1    H2 3549   2.804   0.286  15.781  0.0799  1.0899  0.4639
  230MPD1    H3 3550   2.640   0.469  15.740 -0.6730 -1.0490  0.0806
  230MPD1     N 3551   2.492   0.260  15.359 -0.1294 -0.3828  0.2117
  230MPD1    H5 3552   2.500   0.170  15.313 -1.9810 -0.3914 -0.0564
  230MPD1    N1 3553   2.862   0.085  15.635  0.1918 -0.2650  0.1430
  230MPD1    H6 3554   2.947   0.124  15.676  1.1636 -3.3821  1.0880
  230MPD1    H7 3555   2.885   0.028  15.554  0.0863  1.7930 -1.3417
  231MPD1     C 3556   0.305   1.797  15.637 -0.9079  0.3882  0.0474
  231MPD1    C1 3557   0.292   1.752  15.510  0.7041  0.3597 -0.3190
  231MPD1    C2 3558   0.393   1.778  15.418  0.1806  0.2793 -0.2600
  231MPD1    C3 3559   0.499   1.859  15.449  0.5489 -0.1887  0.3216
  231MPD1    C4 3560   0.502   1.918  15.575  0.1554  0.6088  0.1154
  231MPD1    C5 3561   0.400   1.888  15.661 -1.2562  0.0407  0.4322
  231MPD1     H 3562   0.393   1.727  15.322 -2.6824 -0.8172  0.3204
  231MPD1    H1 3563   0.579   1.989  15.600 -0.2209  1.0609 -0.0135
  231MPD1    H2 3564   0.233   1.768  15.714 -0.1705  0.7537  0.8685
  231MPD1    H3 3565   0.416   1.933  15.759  0.8213 -0.6580  0.4132
  231MPD1     N 3566   0.594   1.891  15.347 -0.4720  0.6338  0.3710
  231MPD1    H5 3567   0.584   1.871  15.248 -0.3147  3.0625 -0.1532
  231MPD1    N1 3568   0.187   1.666  15.477  0.1294  0.0470 -0.4147
  231MPD1    H6 3569   0.168   1.677  15.377  1.4250  2.0292 -0.4219
  231MPD1    H7 3570   0.102   1.682  15.530  1.1609 -1.0237  1.5428
  232MPD1     C 3571   2.055   4.512   0.378  0.5144  0.4960 -0.1215
  232MPD1    C1 3572   1.956   4.586   0.328 -0.3115  0.4149  0.5390
  232MPD1    C2 3573   1.832   4.536   0.287  0.7382 -0.3577 -0.7285
  232MPD1    C3 3574   1.805   4.404   0.300 -0.3472  0.4670  0.5251
  232MPD1    C4 3575   1.907   4.319   0.342 -0.6622  0.2390 -0.6547
  232MPD1    C5 3576   2.032   4.376   0.381  0.3468  0.8706 -0.5321
  232MPD1     H 3577   1.752   4.608   0.274  0.2699 -0.5637  0.9544
  232MPD1    H1 3578   1.900   4.212   0.352 -2.7700  0.4395 -0.1200
  232MPD1    H2 3579   2.149   4.552   0.417  0.8951 -0.2995 -0.2182
  232MPD1    H3 3580   2.107   4.303   0.407 -2.4096 -1.5724  0.5566
  232MPD1     N 3581   1.669   4.359   0.276 -0.1463  1.1162 -0.6836
  232MPD1    H5 3582   1.604   4.437   0.280 -2.2596 -0.6707  0.0534
  232MPD1    N1 3583   1.969   4.722   0.326 -0.0160 -0.4649  0.3494
  232MPD1    H6 3584   2.069   0.003   0.325 -0.1258  0.1719  1.1416
  232MPD1    H7 3585   1.933   0.007   0.233 -1.7904  0.4480  1.2356
  233MPD1     C 3586   4.306   3.356   1.182  0.0557  0.1165 -0.2528
  233MPD1    C1 3587   4.356   3.282   1.291 -0.2532 -0.5052 -0.0875
  233MPD1    C2 3588   4.326   3.150   1.303  0.3691  0.1864 -0.9592
  233MPD1    C3 3589   4.245   3.081   1.209 -0.0559  0.1970 -0.4406
  233MPD1    C4 3590   4.182   3.160   1.110 -0.9708  0.4320 -0.0243
  233MPD1    C5 3591   4.221   3.292   1.094 -0.3399 -0.2878 -1.1757
  233MPD1     H 3592   4.372   3.097   1.386 -0.5630 -0.1819 -0.6783
  233MPD1    H1 3593   4.107   3.119   1.042 -0.6885  0.0645 -0.1150
  233MPD1    H2 3594   4.333   3.458   1.158  1.1186  0.6121  3.0389
  233MPD1    H3 3595   4.175   3.351   1.015 -3.0788  0.4106  0.9515
  233MPD1     N 3596   4.210   2.945   1.222 -0.7180  0.0054  0.0109
  233MPD1    H5 3597   4.162   2.909   1.140 -1.9636  0.5246  0.5088
  233MPD1    N1 3598   4.414   3.353   1.400 -0.1108 -0.5032 -0.0847
  233MPD1    H6 3599   4.470   3.287   1.453  2.0627  0.8342 -0.7258
  233MPD1    H7 3600   4.474   3.429   1.367  0.2919  0.0326  1.8720
  234MPD1     C 3601   0.896   2.059   9.476 -0.2620 -0.2461  0.7304
  234MPD1    C1 3602   0.850   2.156   9.390 -0.3133 -0.2482  0.0133
  234MPD1    C2 3603   0.726   2.211   9.417  0.2976 -0.1485 -0.3135
  234MPD1    C3 3604   0.635   2.155   9.508  0.3947 -0.0815  0.2295
  234MPD1    C4 3605   0.677   2.045   9.583 -0.4535 -0.1966 -0.1799
  234MPD1    C5 3606   0.807   1.995   9.560 -0.4803 -0.1094 -0.0210
  234MPD1     H 3607   0.692   2.300   9.366  0.7734  0.3119  0.1836
  234MPD1    H1 3608   0.603   1.989   9.638 -0.1714 -1.4917 -1.1311
  234MPD1    H2 3609   0.995   2.019   9.456 -0.6943 -0.5226 -0.8476
  234MPD1    H3 3610   0.830   1.906   9.618 -1.2458 -0.3140 -0.0372
  234MPD1     N 3611   0.513   2.221   9.544 -0.1899  0.2058  0.4271
  234MPD1    H5 3612   0.487   2.305   9.494 -0.3644 -0.8790 -1.3109
  234MPD1    N1 3613   0.936   2.224   9.298 -0.1669  0.1158 -0.4613
  234MPD1    H6 3614   0.886   2.242   9.211  2.1106 -0.2923 -1.8589
  234MPD1    H7 3615   1.011   2.158   9.281  1.8754  2.5586 -0.9333
  235MPD1     C 3616   1.247   4.003  10.533 -0.0530  0.0845  0.4911
  235MPD1    C1 3617   1.166   4.091  10.459  0.0091 -0.3562  0.4502
  235MPD1    C2 3618   1.229   4.183  10.385 -0.0192 -0.0516 -0.8195
  235MPD1    C3 3619   1.365   4.216  10.400  0.0840 -0.1385 -0.2437
  235MPD1    C4 3620   1.440   4.132  10.484 -0.7037 -0.5474  0.0081
  235MPD1    C5 3621   1.385   4.025  10.547  0.1534  0.1047 -0.7988
  235MPD1     H 3622   1.174   4.234  10.308 -1.1561 -0.4218 -0.2514
  235MPD1    H1 3623   1.543   4.157  10.502 -0.7399 -0.3899 -0.0009
  235MPD1    H2 3624   1.193   3.929  10.591  0.5660 -0.8308 -0.0987
  235MPD1    H3 3625   1.444   3.969  10.620  0.1026  2.6196  1.1583
  235MPD1     N 3626   1.419   4.317  10.321  0.5407 -0.4509  0.3670
  235MPD1    H5 3627   1.355   4.358  10.254 -2.0649 -4.1734  0.6089
  235MPD1    N1 3628   1.022   4.065  10.452 -0.0590  0.1192  0.3022
  235MPD1    H6 3629   0.964   4.145  10.426  1.1657  0.6289 -0.8505
  235MPD1    H7 3630   0.985   4.015  10.533 -0.2510 -1.1246 -0.5567
  236MPD1     C 3631   0.041   0.765  10.727  0.2101  0.1632  0.0743
  236MPD1    C1 3632   0.103   0.885  10.690  0.7108  0.1393  0.4994
  236MPD1    C2 3633   0.231   0.913  10.739 -0.6475  0.0322 -0.9304
  236MPD1    C3 3634   0.303   0.818  10.808 -0.1675  0.3992 -0.4218
  236MPD1    C4 3635   0.242   0.697  10.841  0.3633  0.0996  0.5766
  236MPD1    C5 3636   0.113   0.668  10.797 -0.0163 -0.5569 -0.0482
  236MPD1     H 3637   0.278   1.007  10.713 -0.2340  0.3044  0.8205
  236MPD1    H1 3638   0.298   0.625  10.898 -1.2662 -0.5038  1.4159
  236MPD1    H2 3639   4.681   0.732  10.689  0.7776 -0.3458 -0.8912
  236MPD1    H3 3640   0.073   0.569  10.812  0.4191 -0.7151  0.0592
  236MPD1     N 3641   0.441   0.822  10.852  0.0421  0.0376  0.2686
  236MPD1    H5 3642   0.479   0.733  10.882 -0.1010 -0.5935 -1.4768
  236MPD1    N1 3643   0.032   0.978  10.611  0.2758 -0.2394 -0.1956
  236MPD1    H6 3644   0.079   1.066  10.592 -1.6236  0.8311  0.0063
  236MPD1    H7 3645   4.682   1.005  10.659  1.3544  1.2254  0.9513
  237MPD1     C 3646   1.000   2.606  15.404 -0.1369  0.2258  0.3194
  237MPD1    C1 3647   0.910   2.610  15.503  0.4986 -0.0904 -0.7914
  237MPD1    C2 3648   0.784   2.663  15.479  0.2994  0.7405  0.2365
  237MPD1    C3 3649   0.758   2.720  15.356 -0.0026 -0.6356  0.3600
  237MPD1    C4 3650   0.854   2.725  15.264 -0.5115 -0.2044  0.7999
  237MPD1    C5 3651   0.970   2.656  15.284 -0.2265  0.4653  0.3993
  237MPD1     H 3652   0.708   2.660  15.556 -1.4878  0.6172 -1.5303
  237MPD1    H1 3653   0.838   2.757  15.162 -0.6494  1.0546  1.2167
  237MPD1    H2 3654   1.098   2.561  15.415  1.1556  3.3554  1.5761
  237MPD1    H3 3655   1.039   2.636  15.203 -0.6155  1.1130 -0.1015
  237MPD1     N 3656   0.638   2.777  15.311 -0.0640  0.0831  0.3335
  237MPD1    H5 3657   0.629   2.798  15.212 -1.1937  0.6675  0.5575
  237MPD1    N1 3658   0.942   2.539  15.619 -0.1002 -0.7929  0.3444
  237MPD1    H6 3659   0.880   2.573  15.693  0.1362  0.4171 -0.0133
  237MPD1    H7 3660   1.037   2.556  15.649  0.4179  0.9282 -2.2231
  238MPD1     C 3661   2.372   2.285  13.977  0.6832 -0.1208  0.6452
  238MPD1    C1 3662   2.425   2.242  14.093  0.6629  0.4380 -0.6086
  238MPD1    C2 3663   2.365   2.129  14.150  0.4778 -0.3127  0.0523
  238MPD1    C3 3664   2.264   2.056  14.082  0.2042  0.4407 -0.2106
  238MPD1    C4 3665   2.217   2.109  13.959 -0.3214 -0.0223 -0.0949
  238MPD1    C5 3666   2.274   2.218  13.911 -0.4224  0.3838 -0.2867
  238MPD1     H 3667   2.387   2.105  14.253 -2.9757 -0.8751  0.6878
  238MPD1    H1 3668   2.138   2.058  13.905 -0.8084  0.0296  0.5754
  238MPD1    H2 3669   2.417   2.374  13.932 -2.0020  0.9412  0.0699
  238MPD1    H3 3670   2.243   2.271  13.822  0.3047  1.2291 -0.0308
  238MPD1     N 3671   2.203   1.940  14.140  0.3584 -0.5119  1.0061
  238MPD1    H5 3672   2.118   1.908  14.094 -0.6767 -0.2414  2.6935
  238MPD1    N1 3673   2.514   2.315  14.169  0.3441  1.0203  0.1293
  238MPD1    H6 3674   2.573   2.261  14.233 -1.0394  0.6563  1.0831
  238MPD1    H7 3675   2.579   2.370  14.114  1.0794 -0.3050 -0.3355
  239MPD1     C 3676   2.647   3.048  14.335  0.5005 -0.2926  0.1701
  239MPD1    C1 3677   2.530   3.024  14.406  0.1474  0.2955 -0.2320
  239MPD1    C2 3678   2.408   3.024  14.338  0.8006 -0.1318  0.3629
  239MPD1    C3 3679   2.396   3.031  14.197  0.2865 -0.1801 -0.0224
  239MPD1    C4 3680   2.515   3.041  14.133 -0.0446  0.8039 -0.5995
  239MPD1    C5 3681   2.639   3.051  14.192  0.3223  0.5155  0.1804
  239MPD1     H 3682   2.323   3.003  14.401 -1.5972  1.6438 -2.2847
  239MPD1    H1 3683   2.516   3.046  14.024 -1.3754  1.0996 -0.5980
  239MPD1    H2 3684   2.746   3.044  14.377  0.6441  0.0078 -0.1417
  239MPD1    H3 3685   2.729   3.058  14.133 -1.5658  0.5961 -2.7211
  239MPD1     N 3686   2.282   2.996  14.123  0.0824  0.1754 -0.0109
  239MPD1    H5 3687   2.296   2.993  14.023  0.7670  0.5102  0.0802
  239MPD1    N1 3688   2.527   3.018  14.547 -0.3134 -0.4464 -0.2538
  239MPD1    H6 3689   2.612   2.988  14.593  0.0633  3.9002  1.8698
  239MPD1    H7 3690   2.458   2.953  14.584 -1.3281  0.6250 -0.2573
  240MPD1     C 3691   1.355   2.771  13.306 -0.4834  0.7429 -0.0479
  240MPD1    C1 3692   1.478   2.711  13.283 -0.1526  0.3596 -0.3541
  240MPD1    C2 3693   1.516   2.609  13.369 -0.4753  0.1236  0.0716
  240MPD1    C3 3694   1.432   2.571  13.473  0.9172 -0.8319 -0.2218
  240MPD1    C4 3695   1.310   2.637  13.496 -0.3640 -0.0874  0.2026
  240MPD1    C5 3696   1.276   2.742  13.415  0.1832  0.0869 -0.5494
  240MPD1     H 3697   1.619   2.577  13.356 -0.5156  0.0980 -0.1868
  240MPD1    H1 3698   1.242   2.621  13.579  0.8654  2.2105  1.6711
  240MPD1    H2 3699   1.322   2.850  13.240 -0.3615  1.5322  0.8244
  240MPD1    H3 3700   1.179   2.790  13.419 -0.3043 -0.8682 -0.8174
  240MPD1     N 3701   1.473   2.463  13.564  0.0729 -0.3036  0.3898
  240MPD1    H5 3702   1.571   2.438  13.568 -0.9582 -4.5983 -1.4972
  240MPD1    N1 3703   1.557   2.782  13.193  0.0774 -0.1261  0.0943
  240MPD1    H6 3704   1.502   2.809  13.112 -0.3210  0.5495  0.5902
  240MPD1    H7 3705   1.640   2.729  13.168  0.9299  1.7034 -0.9486
  241MPD1     C 3706   2.262   2.170  13.507  0.5368  0.7368  0.2328
  241MPD1    C1 3707   2.211   2.062  13.577 -0.0472  0.4509  0.0459
  241MPD1    C2 3708   2.081   2.072  13.622  0.3996  0.8627  1.1300
  241MPD1    C3 3709   2.009   2.191  13.621 -0.4896 -0.4119  0.1253
  241MPD1    C4 3710   2.069   2.299  13.571 -0.5850 -0.5717 -0.5349
  241MPD1    C5 3711   2.192   2.290  13.508 -0.1539 -0.0256 -0.9198
  241MPD1     H 3712   2.042   1.981  13.667  0.0151  0.2972 -0.3276
  241MPD1    H1 3713   2.014   2.392  13.562 -0.0516 -0.1572  0.4197
  241MPD1    H2 3714   2.341   2.160  13.433  0.6032  0.4778  0.3387
  241MPD1    H3 3715   2.228   2.366  13.440 -0.2334  0.1282 -0.7896
  241MPD1     N 3716   1.874   2.208  13.654  0.3835  0.3482  0.1729
  241MPD1    H5 3717   1.825   2.288  13.614  1.6950  1.5549  0.9738
  241MPD1    N1 3718   2.277   1.938  13.568  0.2120 -0.2056 -0.6798
  241MPD1    H6 3719   2.239   1.872  13.635 -3.6051  1.2934 -1.3717
  241MPD1    H7 3720   2.378   1.951  13.574  0.0650  1.8045 -2.3252
  242MPD1     C 3721   1.531   0.242  16.058  0.2620 -0.4268 -0.5149
  242MPD1    C1 3722   1.609   0.363  16.048 -1.1176  0.4508 -0.0598
  242MPD1    C2 3723   1.607   0.429  15.928 -0.1276 -0.4386  0.4238
  242MPD1    C3 3724   1.546   0.378  15.814  0.6984 -0.7191 -0.7122
  242MPD1    C4 3725   1.496   0.252  15.818 -0.0188  0.3168  0.3920
  242MPD1    C5 3726   1.480   0.192  15.940 -0.4414 -0.1273  0.2987
  242MPD1     H 3727   1.659   0.523  15.911  0.2005 -0.6880  0.0215
  242MPD1    H1 3728   1.469   0.193  15.731  0.4539  0.7380 -0.0376
  242MPD1    H2 3729   1.522   0.183  16.148  1.5266  2.7667  1.6975
  242MPD1    H3 3730   1.440   0.092  15.947 -0.6154 -0.2314 -2.3943
  242MPD1     N 3731   1.557   0.434  15.681 -0.2189 -0.3176 -0.2600
  242MPD1    H5 3732   1.544   0.367  15.606  1.2839 -1.7932  0.7797
  242MPD1    N1 3733   1.662   0.427  16.165 -0.1417 -0.2740 -0.3881
  242MPD1    H6 3734   1.696   0.359  16.234  1.9113 -1.0934 -2.2223
  242MPD1    H7 3735   1.724   0.507  16.157  0.5084 -0.4971  2.1616
  243MPD1     C 3736   2.366   3.889  17.547 -0.0849  0.0373  0.4185
  243MPD1    C1 3737   2.459   3.826  17.627  0.2893  0.1699  0.4105
  243MPD1    C2 3738   2.591   3.845  17.600  0.0480 -0.0574  0.1602
  243MPD1    C3 3739   2.634   3.924  17.499  0.4132  0.6064  0.4301
  243MPD1    C4 3740   2.540   3.994  17.423  0.0175  0.4311  0.1872
  243MPD1    C5 3741   2.411   3.991  17.464 -0.0222  0.1894  0.3309
  243MPD1     H 3742   2.661   3.784  17.656 -0.0520 -1.1448 -0.9216
  243MPD1    H1 3743   2.576   4.061  17.345 -0.3303 -0.5773 -0.8474
  243MPD1    H2 3744   2.258   3.882  17.554  0.0618 -1.4028  1.1704
  243MPD1    H3 3745   2.334   4.044  17.408  1.4995  1.3572 -0.6377
  243MPD1     N 3746   2.771   3.931  17.476  0.6858 -0.0243 -0.0671
  243MPD1    H5 3747   2.823   3.883  17.549 -0.2545  0.1270  0.6964
  243MPD1    N1 3748   2.413   3.712  17.696 -0.7846  0.0474  0.3523
  243MPD1    H6 3749   2.322   3.731  17.736 -1.1048 -0.0774 -0.3191
  243MPD1    H7 3750   2.482   3.690   0.024  2.0120  0.6452 -2.1190
  244MPD1     C 3751   3.340   3.269  17.601 -0.8441  0.1232 -0.2929
  244MPD1    C1 3752   3.360   3.297  17.464 -0.3618  0.5484  0.5268
  244MPD1    C2 3753   3.344   3.428  17.427  0.2175 -0.0196  0.4586
  244MPD1    C3 3754   3.325   3.527  17.517  0.2527  0.0883 -0.0802
  244MPD1    C4 3755   3.324   3.504  17.650  0.1235  0.2664  0.3107
  244MPD1    C5 3756   3.328   3.376  17.690  0.7803 -0.6162 -0.4075
  244MPD1     H 3757   3.346   3.449  17.320 -0.8316 -0.1518  0.4101
  244MPD1    H1 3758   3.311   3.582  17.723  1.7707  1.6096 -0.8540
  244MPD1    H2 3759   3.353   3.168  17.638 -1.4026  0.1692  0.0445
  244MPD1    H3 3760   3.322   3.356   0.053  0.1804  0.0490 -0.3163
  244MPD1     N 3761   3.283   3.645  17.460  0.7230  0.4934 -0.6372
  244MPD1    H5 3762   3.286   3.656  17.359 -0.6730 -0.3049 -0.7759
  244MPD1    N1 3763   3.371   3.191  17.368  0.4674 -0.0100  0.5597
  244MPD1    H6 3764   3.437   3.123  17.405  0.5452 -0.5316 -0.5435
  244MPD1    H7 3765   3.429   3.215  17.288  1.3528  3.4032  2.1964
  245MPD1     C 3766   0.578   0.151  13.241  0.1622  0.3892 -0.8703
  245MPD1    C1 3767   0.577   0.279  13.302 -0.2172 -0.2598  0.5492
  245MPD1    C2 3768   0.514   0.302  13.425  0.3060 -0.0286 -0.7216
  245MPD1    C3 3769   0.461   0.198  13.494 -0.0097  0.4558  0.7349
  245MPD1    C4 3770   0.466   0.070  13.438 -0.3132 -0.1821 -0.4752
  245MPD1    C5 3771   0.516   0.053  13.310  0.2125  0.0386  0.4069
  245MPD1     H 3772   0.516   0.396  13.479  1.1475 -0.1992 -0.4545
  245MPD1    H1 3773   0.420   4.717  13.479  0.4572  0.0732  0.9347
  245MPD1    H2 3774   0.622   0.141  13.142 -0.3125  0.4640 -1.0881
  245MPD1    H3 3775   0.499   4.691  13.267 -2.5903  0.7382 -0.0668
  245MPD1     N 3776   0.409   0.224  13.627  0.2093 -0.5864  0.1449
  245MPD1    H5 3777   0.393   0.320  13.654  1.9745 -0.2745  0.1108
  245MPD1    N1 3778   0.624   0.392  13.230 -0.1591  0.0572 -0.1262
  245MPD1    H6 3779   0.700   0.368  13.167 -1.0410  0.0670 -1.1950
  245MPD1    H7 3780   0.653   0.471  13.288  1.7156 -1.5489  1.1502
  246MPD1     C 3781   0.795   2.657  10.614 -0.0844 -0.3461 -0.7975
  246MPD1    C1 3782   0.808   2.526  10.606  0.5910  0.5715  0.5659
  246MPD1    C2 3783   0.822   2.471  10.479 -0.2917  0.2641  0.7560
  246MPD1    C3 3784   0.808   2.540  10.360  0.1570 -0.3109 -0.3535
  246MPD1    C4 3785   0.779   2.676  10.368 -0.4268 -0.9934  0.4323
  246MPD1    C5 3786   0.778   2.731  10.494 -0.4099 -0.0067 -0.3099
  246MPD1     H 3787   0.834   2.363  10.473 -1.5076  0.3007 -2.2218
  246MPD1    H1 3788   0.752   2.740  10.284  0.2744 -0.5950  0.5099
  246MPD1    H2 3789   0.773   2.701  10.710  2.3974  4.2982 -2.3763
  246MPD1    H3 3790   0.751   2.835  10.510 -0.0008  0.2492 -1.3500
  246MPD1     N 3791   0.828   2.489  10.228  0.5734 -0.1233 -0.6165
  246MPD1    H5 3792   0.810   2.548  10.147  2.7176 -0.3428 -1.2522
  246MPD1    N1 3793   0.823   2.452  10.721  0.2148  0.0661 -0.0239
  246MPD1    H6 3794   0.803   2.353  10.705 -1.3877  0.2469  0.8933
  246MPD1    H7 3795   0.766   2.487  10.797 -2.3853 -0.6789 -1.6115
  247MPD1     C 3796   4.286   1.142  15.889 -0.1448 -0.5580  0.1159
  247MPD1    C1 3797   4.287   1.038  15.804  0.0916 -0.2819  0.1058
  247MPD1    C2 3798   4.349   0.922  15.843 -0.2340 -0.5705  0.2478
  247MPD1    C3 3799   4.393   0.904  15.972  0.5465  0.6450 -0.1030
  247MPD1    C4 3800   4.378   1.010  16.060 -0.5278 -0.5090 -0.3366
  247MPD1    C5 3801   4.329   1.124  16.018 -0.2111  0.6178 -0.0209
  247MPD1     H 3802   4.362   0.843  15.770 -0.1461  0.7023 -1.1096
  247MPD1    H1 3803   4.426   0.998  16.156 -0.3530 -0.5121 -0.4234
  247MPD1    H2 3804   4.235   1.233  15.859 -1.2147  0.0763  3.9898
  247MPD1    H3 3805   4.312   1.211  16.081  0.7462 -0.3961  1.6115
  247MPD1     N 3806   4.448   0.780  16.027 -0.5549 -0.8348 -0.3843
  247MPD1    H5 3807   4.476   0.773  16.124 -0.4486  0.3890 -0.3234
  247MPD1    N1 3808   4.258   1.058  15.664 -0.2388  0.4160  0.3954
  247MPD1    H6 3809   4.176   1.113  15.639 -0.8602 -0.4744  0.4695
  247MPD1    H7 3810   4.229   0.970  15.621  0.7885 -0.2723  1.1164
  248MPD1     C 3811   0.627   4.102   1.060  0.7144  0.3779 -0.8092
  248MPD1    C1 3812   0.495   4.115   1.086  0.2022  0.2226 -0.0789
  248MPD1    C2 3813   0.406   4.019   1.039  0.9525  0.0976 -0.6257
  248MPD1    C3 3814   0.450   3.911   0.959 -0.2876  0.2683  0.8032
  248MPD1    C4 3815   0.586   3.914   0.926 -0.2945  0.1458  0.8056
  248MPD1    C5 3816   0.668   4.008   0.973 -0.5472 -0.6813  0.9845
  248MPD1     H 3817   0.298   4.018   1.054  0.7280  2.7536 -2.1193
  248MPD1    H1 3818   0.638   3.838   0.868 -1.8362  0.3303 -0.8289
  248MPD1    H2 3819   0.701   4.172   1.096  0.9912  0.6802 -1.9639
  248MPD1    H3 3820   0.773   3.999   0.947 -1.4394 -1.7741 -2.1803
  248MPD1     N 3821   0.353   3.820   0.908  0.5685  0.7365  0.3752
  248MPD1    H5 3822   0.257   3.849   0.925  0.5190 -0.2004  1.6939
  248MPD1    N1 3823   0.462   4.216   1.172 -0.2437  0.5203 -0.3838
  248MPD1    H6 3824   0.515   4.297   1.142  0.2686  1.0538  1.9081
  248MPD1    H7 3825   0.364   4.239   1.160 -0.1214  0.9719 -0.4901
  249MPD1     C 3826   1.834   3.051  11.029 -0.4147 -0.2019 -0.9651
  249MPD1    C1 3827   1.795   3.179  11.012 -0.2721  0.3077 -0.3395
  249MPD1    C2 3828   1.765   3.232  10.885  0.3571  0.0498  0.0206
  249MPD1    C3 3829   1.741   3.144  10.778  0.3663 -0.2574 -1.1386
  249MPD1    C4 3830   1.752   3.011  10.810  0.1100 -0.1253  0.3239
  249MPD1    C5 3831   1.793   2.970  10.932  0.1481  0.1645  0.0047
  249MPD1     H 3832   1.747   3.338  10.874 -0.7849 -0.1297  0.1009
  249MPD1    H1 3833   1.726   2.930  10.742  1.9206 -0.2312 -0.2417
  249MPD1    H2 3834   1.878   3.012  11.120  1.8258 -0.9012 -2.3462
  249MPD1    H3 3835   1.808   2.864  10.945 -1.7103  0.0197  0.8925
  249MPD1     N 3836   1.702   3.190  10.650 -0.0779  0.1788 -0.2581
  249MPD1    H5 3837   1.714   3.290  10.640  0.6534 -0.2176 -3.1882
  249MPD1    N1 3838   1.795   3.268  11.121 -0.0527 -0.6808 -0.3175
  249MPD1    H6 3839   1.767   3.228  11.210 -0.3558  0.1489 -0.0473
  249MPD1    H7 3840   1.727   3.342  11.107 -2.8945 -3.4202 -1.1106
  250MPD2     C 3841   3.805   3.594  12.722  0.3354 -0.1856 -0.2785
  250MPD2    C1 3842   3.716   3.681  12.672  0.0257 -0.3228  0.0549
  250MPD2    C2 3843   3.581   3.656  12.684  0.1502  0.3879 -0.2171
  250MPD2    C3 3844   3.529   3.534  12.733  0.1604 -0.6720  0.8296
  250MPD2    C4 3845   3.621   3.440  12.768  0.9424  0.4094  0.7218
  250MPD2    C5 3846   3.754   3.484  12.782 -0.6655 -0.1123  0.6774
  250MPD2     H 3847   3.514   3.727  12.638  0.6439  2.3468  2.0761
  250MPD2    H1 3848   3.596   3.337  12.791  1.8640  0.1796  0.7079
  250MPD2    H2 3849   3.912   3.606  12.706  0.7660  2.1580  4.4858
  250MPD2    H3 3850   3.826   3.405  12.801  0.4545  0.5841 -0.6523
  250MPD2     N 3851   3.396   3.493  12.718 -0.0613 -0.1950 -0.2442
  250MPD2    H5 3852   3.379   3.395  12.739  0.8658 -0.1144  0.8531
  250MPD2    N1 3853   3.763   3.789  12.593  0.4793  0.3870 -0.1488
  250MPD2    H7 3854   3.864   3.795  12.583  0.1994  0.2671 -3.2289
  251TMC3    C1 3855   3.757   4.008  12.496  0.3530  0.5495  0.1731
  251TMC3    C2 3856   3.724   4.111  12.581 -0.4054 -0.3433 -0.0705
  251TMC3    C3 3857   3.823   4.159  12.664  0.4113 -0.9363 -0.1992
  251TMC3    C4 3858   3.892   3.976  12.477 -0.6868 -1.0874 -0.0958
  251TMC3    C5 3859   3.986   4.031  12.550 -0.2545  0.4055 -0.8246
  251TMC3    C6 3860   3.952   4.111  12.650  0.9368 -0.0138 -0.1509
  251TMC3     C 3861   3.685   3.890  12.541  0.6431  0.9885  0.3340
  251TMC3     O 3862   3.567   3.916  12.549 -0.2204 -0.1182  0.0719
  251TMC3     H 3863   3.628   4.159  12.596 -0.0600  0.7392 -1.3637
  251TMC3    H1 3864   3.918   3.903  12.402 -2.5966  1.4814 -3.2864
  251TMC3    H2 3865   4.021   4.140  12.729 -2.0201  1.2801  1.9223
  251TMC3    C7 3866   4.089   3.935  12.580 -0.4643 -0.3845  0.4397
  251TMC3    C8 3867   3.774   4.154  12.805  0.1414  0.6074 -0.0937
  251TMC3    O1 3868   4.059   3.817  12.580  0.2818 -0.0103  0.0058
  251TMC3    O2 3869   3.678   4.084  12.822 -0.7718 -0.4184  0.0769
  252TMC3    C1 3870   3.124   0.408   9.560  0.0773  0.1486  0.2401
  252TMC3    C2 3871   3.262   0.393   9.572  0.4316  0.3830 -0.6115
  252TMC3    C3 3872   3.306   0.280   9.645  0.2528  0.9523  0.9251
  252TMC3    C4 3873   3.038   0.311   9.606 -0.3649 -0.3217 -0.7733
  252TMC3    C5 3874   3.089   0.194   9.652  0.3994  1.1303 -0.4671
  252TMC3    C6 3875   3.223   0.175   9.680  0.2000  0.3358 -0.0492
  252TMC3     C 3876   3.064   0.526   9.513  0.2328  0.2046 -0.1709
  252TMC3     O 3877   2.943   0.535   9.538 -0.2481  0.0740 -0.3971
  252TMC3     H 3878   3.338   0.465   9.545  0.7789  0.4878  0.6365
  252TMC3    H1 3879   2.931   0.327   9.606 -0.4727 -0.9725  1.7172
  252TMC3    H2 3880   3.253   0.082   9.726  0.0868  0.3812  0.1172
  252TMC3    C7 3881   2.985   0.103   9.706  0.3918 -0.7832 -1.0872
  252TMC3    C8 3882   3.443   0.264   9.667  0.1127 -0.3180 -0.8926
  252TMC3    O1 3883   2.873   0.118   9.658 -0.0417 -0.6245  0.5663
  252TMC3    O2 3884   3.517   0.322   9.592  0.3547  0.0733 -0.5230
  253MPD2     C 3885   4.315   2.959  15.327  0.1999 -0.3478 -0.3534
  253MPD2    C1 3886   4.195   3.029  15.317 -0.4256 -0.1144 -0.0305
  253MPD2    C2 3887   4.124   3.057  15.432  0.2669 -0.2850 -0.8240
  253MPD2    C3 3888   4.153   3.010  15.560  0.5496  0.1553 -0.3661
  253MPD2    C4 3889   4.265   2.927  15.562 -0.8864  0.2983 -0.0448
  253MPD2    C5 3890   4.358   2.925  15.456  0.8636  0.2711 -0.0507
  253MPD2     H 3891   4.037   3.121  15.420 -0.0506 -0.6475 -0.4822
  253MPD2    H1 3892   4.309   2.886  15.652 -0.2138  0.7583 -0.1603
  253MPD2    H2 3893   4.375   2.925  15.243 -1.0168 -0.7888 -1.0489
  253MPD2    H3 3894   4.459   2.885  15.463  0.7895  0.1419  0.2746
  253MPD2     N 3895   4.093   3.045  15.684  0.0133  0.4087 -0.0521
  253MPD2    H5 3896   4.137   2.995  15.760 -1.0161  1.0207  0.9516
  253MPD2    N1 3897   4.149   3.090  15.200  0.4791  0.5512  0.0573
  253MPD2    H7 3898   4.069   3.150  15.215  1.0084  0.7340  2.1732
  254TMC3    C1 3899   4.014   3.189  15.839 -0.0032  0.3065 -0.0749
  254TMC3    C2 3900   4.013   3.316  15.874  0.5517 -0.4126  0.0293
  254TMC3    C3 3901   3.985   3.343  16.005  0.8497 -0.6528 -0.5911
  254TMC3    C4 3902   3.987   3.087  15.926  0.5208 -0.4662  0.1137
  254TMC3    C5 3903   3.956   3.118  16.055  0.9065 -0.1810 -0.6292
  254TMC3    C6 3904   3.955   3.250  16.098 -0.3599 -0.0023 -0.7324
  254TMC3     C 3905   4.027   3.163  15.701 -0.3535 -0.4518 -0.5972
  254TMC3     O 3906   4.013   3.254  15.618 -0.0309 -0.0935 -0.2113
  254TMC3     H 3907   4.045   3.385  15.796 -1.2472 -1.4400 -1.6279
  254TMC3    H1 3908   3.964   2.985  15.895 -0.9500 -0.4543  1.1458
  254TMC3    H2 3909   3.927   3.274  16.200  0.6744  0.0440 -0.4558
  254TMC3    C7 3910   3.954   3.012  16.151 -0.5677  0.6481  0.1806
  254TMC3    C8 3911   3.987   3.484  16.063 -0.4077 -0.2205  0.7062
  254TMC3    O1 3912   4.024   2.912  16.130 -0.0343  0.4708 -0.4419
  254TMC3    O2 3913   3.956   3.495  16.180 -0.0777  0.2689 -0.1311
  255MPD2     C 3914   2.903   1.645  10.225  0.0606 -0.3297 -0.4248
  255MPD2    C1 3915   3.028   1.693  10.204  0.5426 -0.5822 -0.0742
  255MPD2    C2 3916   3.088   1.662  10.083  0.1842 -0.5505  0.1355
  255MPD2    C3 3917   3.031   1.573   9.987 -0.2727 -0.4681 -0.2614
  255MPD2    C4 3918   2.899   1.533  10.007  0.3328  0.2501  0.2714
  255MPD2    C5 3919   2.838   1.575  10.125 -0.2257 -1.0454  0.2118
  255MPD2     H 3920   3.188   1.698  10.059 -0.5633  0.4683 -1.4553
  255MPD2    H1 3921   2.838   1.486   9.931  0.4598 -1.2448  1.0888
  255MPD2    H2 3922   2.849   1.673  10.315  2.8026  1.4015  0.6711
  255MPD2    H3 3923   2.735   1.543  10.142 -0.6194  1.7122  3.0858
  255MPD2     N 3924   3.112   1.531   9.875 -0.5180 -0.2144 -0.2393
  255MPD2    H5 3925   3.211   1.553   9.871 -0.5697  0.2958  1.2873
  255MPD2    N1 3926   3.092   1.761  10.313 -0.2176  0.8593  0.1279
  255MPD2    H7 3927   3.033   1.768  10.395 -0.8147  1.2385 -0.3301
  256TMC3    C1 3928   3.254   1.859  10.451  0.3899 -0.1987 -0.3510
  256TMC3    C2 3929   3.260   1.998  10.447  0.3838  0.4175  0.7377
  256TMC3    C3 3930   3.179   2.078  10.521 -0.7014 -0.0627 -0.0419
  256TMC3    C4 3931   3.173   1.807  10.547 -0.0503  0.3998 -0.1137
  256TMC3    C5 3932   3.095   1.890  10.630  0.2404 -0.0418  0.4246
  256TMC3    C6 3933   3.092   2.025  10.614 -0.0319  0.9909  0.0384
  256TMC3     C 3934   3.217   1.809  10.321  0.1083  0.3130  0.5200
  256TMC3     O 3935   3.288   1.826  10.220  0.4237  0.3415 -0.9928
  256TMC3     H 3936   3.318   2.037  10.364  0.5492  2.1602  1.6681
  256TMC3    H1 3937   3.161   1.699  10.542 -1.5462  0.5443  0.3601
  256TMC3    H2 3938   3.026   2.084  10.675  1.7087  0.7426  2.1764
  256TMC3    C7 3939   2.962   1.846  10.609  0.3759 -0.5054 -0.0719
  256TMC3    C8 3940   3.148   2.219  10.477 -0.3046  0.4394  0.3463
  256TMC3    O1 3941   2.951   1.752  10.530 -0.2384  0.3092  0.0703
  256TMC3    O2 3942   3.100   2.296  10.562  0.1522 -0.1286  0.4723
  257MPD2     C 3943   2.183   3.350  12.642  0.2280  0.6320 -0.1234
  257MPD2    C1 3944   2.277   3.412  12.732 -0.0552 -0.2376 -0.1484
  257MPD2    C2 3945   2.320   3.333  12.838  0.3637 -0.2753  0.2925
  257MPD2    C3 3946   2.285   3.198  12.846 -0.7244  0.1450 -0.4751
  257MPD2    C4 3947   2.200   3.142  12.757  0.1278  0.1882  0.4794
  257MPD2    C5 3948   2.150   3.213  12.648 -0.0269 -0.0879  0.4833
  257MPD2     H 3949   2.379   3.374  12.920 -0.7339 -1.4819  1.6861
  257MPD2    H1 3950   2.162   3.042  12.773  2.4142 -0.7111  0.2582
  257MPD2    H2 3951   2.124   3.418  12.581 -1.2239 -0.8350 -0.3439
  257MPD2    H3 3952   2.088   3.175  12.568  2.6049 -1.6662 -0.8034
  257MPD2     N 3953   2.323   3.132  12.963 -0.2028 -0.5603  0.5791
  257MPD2    H5 3954   2.375   3.189  13.030  1.3882 -1.4484  0.1040
  257MPD2    N1 3955   2.305   3.551  12.721  0.4288  0.4816 -0.4767
  257MPD2    H7 3956   2.261   3.592  12.640 -1.2054  2.1305  1.2237
  258TMC3    C1 3957   2.370   2.952  13.099 -0.4155  0.8932 -0.7029
  258TMC3    C2 3958   2.497   2.995  13.118 -0.1375 -0.1765 -0.3931
  258TMC3    C3 3959   2.569   2.941  13.220 -0.1506  0.2975 -0.3184
  258TMC3    C4 3960   2.318   2.842  13.162 -0.3871  0.4852 -0.2528
  258TMC3    C5 3961   2.385   2.799  13.266  0.1615  0.3256  0.5354
  258TMC3    C6 3962   2.516   2.839  13.293 -0.4518 -0.1996 -0.3376
  258TMC3     C 3963   2.309   2.996  12.984  0.3721 -0.1336  0.8001
  258TMC3     O 3964   2.265   2.910  12.906 -0.1747 -0.6248  0.0605
  258TMC3     H 3965   2.547   3.067  13.053 -2.6341  1.1373 -0.8706
  258TMC3    H1 3966   2.215   2.814  13.141 -0.0023 -0.1512 -1.2632
  258TMC3    H2 3967   2.578   2.786  13.365 -1.7993 -0.8257  0.3568
  258TMC3    C7 3968   2.312   2.714  13.358  0.5745 -0.0780 -0.1587
  258TMC3    C8 3969   2.675   3.018  13.278 -0.3238  0.4663  0.8536
  258TMC3    O1 3970   2.205   2.661  13.326  0.2821 -0.3454 -0.1773
  258TMC3    O2 3971   2.686   3.005  13.398  0.2759 -0.3127  0.0427
  259MPD2     C 3972   0.792   0.341   0.653  0.7891  0.0686  0.4837
  259MPD2    C1 3973   0.793   0.204   0.630 -0.1179  0.5965  1.1056
  259MPD2    C2 3974   0.722   0.155   0.522  0.0727  0.2229 -0.8302
  259MPD2    C3 3975   0.661   0.241   0.429 -0.1557  0.5738 -0.2927
  259MPD2    C4 3976   0.679   0.381   0.443 -0.3920 -0.2336 -0.4999
  259MPD2    C5 3977   0.744   0.422   0.555  0.2896 -0.4196 -0.0411
  259MPD2     H 3978   0.715   0.049   0.503 -0.0911 -0.0385  0.7114
  259MPD2    H1 3979   0.635   0.448   0.370  2.0985  1.8678 -0.0955
  259MPD2    H2 3980   0.836   0.384   0.742 -0.6033  0.7749  0.8327
  259MPD2    H3 3981   0.762   0.528   0.566  1.0140 -0.3297 -2.0480
  259MPD2     N 3982   0.600   0.183   0.323 -0.1221  0.1443  0.2553
  259MPD2    H5 3983   0.597   0.082   0.324 -0.5606  0.1485 -0.5067
  259MPD2    N1 3984   0.858   0.123   0.723  0.1799 -0.4668 -0.4388
  259MPD2    H7 3985   0.909   0.168   0.798  1.0076  1.1282 -1.9802
  260TMC3    C1 3986   0.482   0.157   0.122  0.1885  0.7996 -0.0822
  260TMC3    C2 3987   0.556   0.169   0.008 -0.5340  0.3210 -0.2690
  260TMC3    C3 3988   0.631   0.058  17.705  0.0262 -0.0862  0.0500
  260TMC3    C4 3989   0.463   0.034   0.176 -0.0033  0.4264  0.4233
  260TMC3    C5 3990   0.528   4.665   0.124 -0.2373 -0.1956  0.2374
  260TMC3    C6 3991   0.611   4.675   0.015  0.5873 -0.0139 -0.4726
  260TMC3     C 3992   0.525   0.251   0.229  0.3617 -0.3775 -0.2087
  260TMC3     O 3993   0.476   0.360   0.227 -0.0328 -0.1310  0.0017
  260TMC3     H 3994   0.576   0.269  17.716  1.7842 -0.3083 -0.7749
  260TMC3    H1 3995   0.382   0.024   0.247 -0.3928 -0.8408 -0.1978
  260TMC3    H2 3996   0.658   4.588  17.713  2.6365 -0.2835  2.1780
  260TMC3    C7 3997   0.583   4.571   0.223  0.3334  0.3403  0.1040
  260TMC3    C8 3998   0.773   0.096  17.710  0.7708 -0.5120 -0.1743
  260TMC3    O1 3999   0.601   4.629   0.331  0.3062  0.1865 -0.5687
  260TMC3    O2 4000   0.803   0.216  17.705  0.1287  0.3936  0.6928
  261MPD2     C 4001   2.944   3.401  12.071  0.6080 -0.1353 -0.2905
  261MPD2    C1 4002   2.969   3.523  12.131  0.0877 -0.0441 -0.0344
  261MPD2    C2 4003   2.968   3.636  12.051 -0.2612 -0.0056 -0.3581
  261MPD2    C3 4004   2.917   3.635  11.920  0.2534 -0.2756 -0.0368
  261MPD2    C4 4005   2.903   3.512  11.871 -0.7082 -0.3061 -0.1379
  261MPD2    C5 4006   2.914   3.396  11.940 -0.0976 -0.3075 -0.6483
  261MPD2     H 4007   2.970   3.731  12.104  1.4737 -0.4120  0.3168
  261MPD2    H1 4008   2.869   3.514  11.768 -1.9732  2.4843  0.3202
  261MPD2    H2 4009   2.951   3.309  12.128  0.3059 -0.0498 -0.1137
  261MPD2    H3 4010   2.887   3.300  11.897 -0.0805  0.5988 -2.6951
  261MPD2     N 4011   2.895   3.745  11.835 -0.1379 -0.1338  0.0212
  261MPD2    H5 4012   2.863   3.737  11.739  2.2592 -1.0683 -0.6965
  261MPD2    N1 4013   2.983   3.536  12.271 -0.3865 -0.0008 -0.4401
  261MPD2    H7 4014   3.016   3.620  12.318 -0.9871  0.7165 -1.3075
  262TMC3    C1 4015   2.858   3.965  11.749 -0.0128  0.0891  0.0353
  262TMC3    C2 4016   2.808   4.085  11.787  0.8928 -0.8466 -0.4689
  262TMC3    C3 4017   2.771   4.176  11.693 -0.6797 -0.0397  0.4095
  262TMC3    C4 4018   2.868   3.930  11.617  1.0999  0.0713  0.1791
  262TMC3    C5 4019   2.850   4.030  11.526  0.8141 -0.2913  0.0262
  262TMC3    C6 4020   2.799   4.155  11.560  0.5956 -1.0056  0.7336
  262TMC3     C 4021   2.914   3.880  11.854 -0.3640 -0.0098  0.4019
  262TMC3     O 4022   2.946   3.939  11.957 -1.1670  0.2571  0.0448
  262TMC3     H 4023   2.790   4.093  11.893  0.2452 -0.7199 -0.5873
  262TMC3    H1 4024   2.892   3.833  11.574 -4.8330 -1.2178 -0.2753
  262TMC3    H2 4025   2.784   4.232  11.485  2.2346 -0.8877  0.5414
  262TMC3    C7 4026   2.841   3.995  11.379  0.4084 -0.1192 -0.0856
  262TMC3    C8 4027   2.746   4.311  11.738  0.0397  0.3583 -0.3517
  262TMC3    O1 4028   2.819   3.875  11.351 -0.2936  0.7448  0.2413
  262TMC3    O2 4029   2.765   4.397  11.653 -0.3225 -0.4994  0.3100
  263MPD2     C 4030   3.780   2.706  11.568  0.7378 -0.3324 -0.1492
  263MPD2    C1 4031   3.880   2.801  11.572  0.4044  0.2096  0.3773
  263MPD2    C2 4032   3.907   2.874  11.455  0.7766 -0.0705  0.3650
  263MPD2    C3 4033   3.836   2.853  11.337  0.7167 -0.1082  0.2261
  263MPD2    C4 4034   3.751   2.751  11.333  0.4930  0.2756  0.9025
  263MPD2    C5 4035   3.723   2.676  11.449 -0.3154  0.3509 -0.2399
  263MPD2     H 4036   3.976   2.958  11.462  0.2498  0.1252  3.1450
  263MPD2    H1 4037   3.692   2.728  11.245  3.9867 -0.8892 -1.1384
  263MPD2    H2 4038   3.745   2.661  11.660 -1.6983  2.5227  0.3164
  263MPD2    H3 4039   3.649   2.600  11.430 -1.0768  0.4200  2.4637
  263MPD2     N 4040   3.853   2.941  11.228  0.1043 -0.2228 -0.5950
  263MPD2    H5 4041   3.902   3.027  11.250 -1.0565  0.3402 -0.2331
  263MPD2    N1 4042   3.944   2.809  11.697  0.5409 -0.1644  0.3083
  263MPD2    H7 4043   3.921   2.739  11.767 -1.3539  1.1136  0.9560
  264TMC3    C1 4044   3.772   3.042  11.043  0.2056 -0.2290  0.5324
  264TMC3    C2 4045   3.733   3.162  11.099  0.6186 -0.5020 -0.6945
  264TMC3    C3 4046   3.727   3.271  11.012 -0.8504  0.4594 -0.2748
  264TMC3    C4 4047   3.775   3.022  10.913  0.0471 -0.0319 -0.0352
  264TMC3    C5 4048   3.765   3.123  10.823  0.3055 -0.1144  0.0887
  264TMC3    C6 4049   3.742   3.248  10.876 -0.2255 -0.5578 -0.0684
  264TMC3     C 4050   3.781   2.923  11.112 -0.4675 -0.2339 -0.0210
  264TMC3     O 4051   3.753   2.819  11.054 -0.4192  0.2737  0.3314
  264TMC3     H 4052   3.730   3.168  11.207  1.1336  0.0917 -0.7151
  264TMC3    H1 4053   3.806   2.929  10.868 -0.3023 -0.2150  0.1048
  264TMC3    H2 4054   3.756   3.336  10.815  3.2030 -1.0906 -0.0124
  264TMC3    C7 4055   3.861   3.111  10.716 -0.3575  0.9780  0.1361
  264TMC3    C8 4056   3.814   3.378  11.061  0.3436 -0.1505 -0.3291
  264TMC3    O1 4057   3.953   3.031  10.734 -0.2488 -0.0245 -0.0958
  264TMC3    O2 4058   3.906   3.411  10.985  0.2796  0.4287  0.4232
  265MPD2     C 4059   1.265   2.732  15.678 -0.5496  0.0302  0.3618
  265MPD2    C1 4060   1.282   2.832  15.583  0.5908  0.5440 -0.1553
  265MPD2    C2 4061   1.309   2.798  15.453  0.3349 -0.4408 -0.4226
  265MPD2    C3 4062   1.333   2.665  15.413  0.4268  0.7358  0.3060
  265MPD2    C4 4063   1.330   2.569  15.513  0.5616  0.5471  0.1346
  265MPD2    C5 4064   1.295   2.601  15.646 -0.1264  0.5740  0.5662
  265MPD2     H 4065   1.320   2.885  15.389 -1.0759  0.0654  0.0262
  265MPD2    H1 4066   1.350   2.464  15.497  0.1025  0.3209  1.0294
  265MPD2    H2 4067   1.234   2.750  15.780  1.7810  2.3808  0.6460
  265MPD2    H3 4068   1.308   2.529  15.726  1.2336 -2.3756 -2.3024
  265MPD2     N 4069   1.355   2.615  15.286  0.4778 -0.0958 -0.1642
  265MPD2    H5 4070   1.391   2.521  15.276 -1.1980 -0.6048 -1.3581
  265MPD2    N1 4071   1.275   2.968  15.625  0.1224 -0.2433 -0.5974
  265MPD2    H7 4072   1.294   3.041  15.557  0.9448 -0.8203 -0.9868
  266TMC3    C1 4073   1.243   3.152  15.759 -0.1427  0.3556 -0.4294
  266TMC3    C2 4074   1.281   3.197  15.880  0.1327  0.2607 -0.6615
  266TMC3    C3 4075   1.289   3.334  15.898 -0.2158 -0.4551  0.2464
  266TMC3    C4 4076   1.198   3.231  15.661  0.4317 -0.2927  0.1568
  266TMC3    C5 4077   1.217   3.363  15.671 -0.3107 -0.5977 -0.2421
  266TMC3    C6 4078   1.257   3.416  15.792 -0.3663  0.4462 -0.2826
  266TMC3     C 4079   1.242   3.010  15.748  1.0331  0.4573  0.6046
  266TMC3     O 4080   1.242   2.951  15.857 -0.6860 -0.3942 -0.1823
  266TMC3     H 4081   1.342   3.137  15.947 -0.3311 -0.9351 -1.3132
  266TMC3    H1 4082   1.169   3.187  15.566  1.3812  0.2388 -0.3812
  266TMC3    H2 4083   1.276   3.522  15.801  1.0349  0.2206 -0.6131
  266TMC3    C7 4084   1.165   3.451  15.575  0.4021 -0.1886 -0.3631
  266TMC3    C8 4085   1.394   3.378  15.987  0.0978  0.4606 -0.3838
  266TMC3    O1 4086   1.154   3.401  15.463  0.0048  0.0714 -0.3537
  266TMC3    O2 4087   1.457   3.291  16.036  0.3980 -0.1882  0.3965
  267MPD2     C 4088   3.142   4.222   0.695 -0.1297 -0.0402 -0.4327
  267MPD2    C1 4089   3.126   4.355   0.671 -0.2851 -0.0380 -0.4399
  267MPD2    C2 4090   3.002   4.404   0.627 -0.3323  0.3744  0.3718
  267MPD2    C3 4091   2.899   4.310   0.596  0.6890  0.2075  0.3591
  267MPD2    C4 4092   2.924   4.178   0.622  0.0880 -0.1617  1.1064
  267MPD2    C5 4093   3.044   4.140   0.659 -0.1483 -0.7392  0.0413
  267MPD2     H 4094   2.986   4.510   0.616  1.0822  0.6065  0.5312
  267MPD2    H1 4095   2.849   4.102   0.605 -0.8750  0.7494  1.3048
  267MPD2    H2 4096   3.233   4.175   0.729 -1.1214 -0.2613  1.9355
  267MPD2    H3 4097   3.059   4.033   0.669  1.7152 -0.5104 -0.3482
  267MPD2     N 4098   2.773   4.344   0.545 -0.0246  0.2464 -0.2228
  267MPD2    H5 4099   2.714   4.263   0.528  1.7906 -0.8524 -1.2815
  267MPD2    N1 4100   3.230   4.444   0.707  0.3516 -0.5599  0.2277
  267MPD2    H7 4101   3.309   4.402   0.754 -0.6371 -0.7253  1.7490
  268TMC3    C1 4102   3.378   4.623   0.722 -0.4464  0.4145  0.2717
  268TMC3    C2 4103   3.395   0.025   0.716 -1.2845  0.1683  0.1583
  268TMC3    C3 4104   3.505   0.076   0.784  0.0129  0.3572  0.1647
  268TMC3    C4 4105   3.472   4.544   0.789  0.1836  0.5324 -0.1223
  268TMC3    C5 4106   3.569   4.600   0.862 -0.1430  0.6170  0.2675
  268TMC3    C6 4107   3.592   4.733   0.852 -0.1858 -0.3963  0.1775
  268TMC3     C 4108   3.251   4.570   0.666 -0.0491  0.6562 -0.0041
  268TMC3     O 4109   3.183   4.640   0.586 -0.2013 -0.0976 -0.3483
  268TMC3     H 4110   3.324   0.075   0.651 -1.0490  0.5049  0.1648
  268TMC3    H1 4111   3.456   4.438   0.804 -0.1418  0.9628  2.5302
  268TMC3    H2 4112   3.687   0.035   0.889 -0.6840 -1.6388  2.7628
  268TMC3    C7 4113   3.648   4.510   0.945  0.1283 -0.8358  0.5440
  268TMC3    C8 4114   3.553   0.209   0.753 -0.3229  0.7788 -0.6084
  268TMC3    O1 4115   3.634   4.386   0.933 -0.0662 -0.3372  0.4761
  268TMC3    O2 4116   3.629   0.260   0.834  0.0536 -0.0580  0.1194
  269MPD2     C 4117   3.916   3.592  15.528 -0.2731  0.4461 -0.1781
  269MPD2    C1 4118   3.827   3.627  15.629  0.2467  0.5471  0.6692
  269MPD2    C2 4119   3.835   3.757  15.682 -0.2979  0.7350 -0.2323
  269MPD2    C3 4120   3.913   3.857  15.627  0.3434  0.5479 -0.4401
  269MPD2    C4 4121   3.999   3.816  15.526 -0.1336  0.7212 -0.0586
  269MPD2    C5 4122   3.996   3.689  15.478  0.1292  0.7736 -0.6077
  269MPD2     H 4123   3.788   3.778  15.777 -2.4948 -0.4233 -1.0743
  269MPD2    H1 4124   4.067   3.880  15.471  0.6372 -0.5805 -0.6225
  269MPD2    H2 4125   3.917   3.492  15.487 -0.1381  0.9850 -1.5166
  269MPD2    H3 4126   4.066   3.655  15.403  2.1185  1.1199  1.1045
  269MPD2     N 4127   3.904   3.988  15.678  0.3404 -0.5363 -0.1518
  269MPD2    H5 4128   3.837   4.010  15.751 -1.5358 -3.1569 -1.0599
  269MPD2    N1 4129   3.744   3.527  15.679  0.0485 -0.5126  0.0132
  269MPD2    H7 4130   3.735   3.440  15.628 -0.4156 -0.2619 -0.3335
  270TMC3    C1 4131   3.573   3.423  15.817  0.2501  0.4681  0.2981
  270TMC3    C2 4132   3.437   3.446  15.822 -0.5086  0.4118  0.1115
  270TMC3    C3 4133   3.360   3.339  15.851 -0.3864 -0.5373  0.1362
  270TMC3    C4 4134   3.628   3.298  15.827 -1.1773  0.3248  0.2653
  270TMC3    C5 4135   3.545   3.194  15.835 -0.1379 -0.1080 -0.5311
  270TMC3    C6 4136   3.409   3.212  15.856  0.7545  0.3185  0.0350
  270TMC3     C 4137   3.657   3.543  15.791 -0.7335 -0.0181 -0.7941
  270TMC3     O 4138   3.629   3.644  15.847  0.2777  0.2032  0.1959
  270TMC3     H 4139   3.383   3.537  15.798 -0.1765  1.4116  3.2101
  270TMC3    H1 4140   3.736   3.292  15.836 -1.1778  0.5214  0.3973
  270TMC3    H2 4141   3.337   3.132  15.866  1.2338  0.1985  2.3781
  270TMC3    C7 4142   3.610   3.065  15.846  0.3236  0.4511 -0.1916
  270TMC3    C8 4143   3.230   3.355  15.794 -0.0673  0.0896 -0.3603
  270TMC3    O1 4144   3.719   3.050  15.790  0.1674 -0.4749  0.5277
  270TMC3    O2 4145   3.170   3.458  15.821 -0.5216 -0.1149 -0.3585
  271MPD2     C 4146   2.841   3.442  14.156  0.2475 -0.4593 -0.7332
  271MPD2    C1 4147   2.772   3.413  14.277  0.1565  0.3359 -0.3203
  271MPD2    C2 4148   2.634   3.416  14.267  0.2760  0.5387  0.2512
  271MPD2    C3 4149   2.563   3.442  14.152  0.0979 -0.6127 -0.6293
  271MPD2    C4 4150   2.635   3.447  14.033  0.0840  0.1606 -0.0913
  271MPD2    C5 4151   2.773   3.456  14.038  0.1858 -0.5864 -0.5510
  271MPD2     H 4152   2.573   3.404  14.356  0.6769  1.1646  0.6179
  271MPD2    H1 4153   2.587   3.450  13.937  1.1979  1.1639 -0.6212
  271MPD2    H2 4154   2.949   3.443  14.144  0.3137 -1.0619 -0.1625
  271MPD2    H3 4155   2.826   3.482  13.947 -2.7893  2.0907 -1.5409
  271MPD2     N 4156   2.423   3.447  14.143 -0.0240  0.2391  0.4564
  271MPD2    H5 4157   2.388   3.448  14.048 -0.3689  1.1074  0.5923
  271MPD2    N1 4158   2.840   3.374  14.394 -0.0464  0.9221  0.2812
  271MPD2    H7 4159   2.785   3.344  14.474  0.2321  1.1200  0.5484
  272TMC3    C1 4160   3.029   3.296  14.520  0.2539  0.3177 -0.9293
  272TMC3    C2 4161   3.119   3.198  14.503 -0.0318  0.4630  0.1808
  272TMC3    C3 4162   3.141   3.114  14.611 -0.2902  0.2775  0.7614
  272TMC3    C4 4163   2.962   3.314  14.635  0.2961 -0.8702  0.5653
  272TMC3    C5 4164   2.999   3.240  14.743  0.4155  0.1567  0.1524
  272TMC3    C6 4165   3.086   3.135  14.735  0.0508 -0.0296 -0.4786
  272TMC3     C 4166   2.976   3.349  14.403  0.4936 -0.7571  0.2926
  272TMC3     O 4167   3.067   3.361  14.317  0.0283 -0.0785 -0.0221
  272TMC3     H 4168   3.176   3.184  14.411 -1.6016 -1.2712 -0.5461
  272TMC3    H1 4169   2.882   3.385  14.652 -0.1454 -1.6450  1.7310
  272TMC3    H2 4170   3.105   3.072  14.822 -0.2738 -1.8821 -1.7532
  272TMC3    C7 4171   2.922   3.259  14.862  0.3499 -0.3745  0.5722
  272TMC3    C8 4172   3.246   3.016  14.595  0.2267  0.4509  0.1065
  272TMC3    O1 4173   2.926   3.174  14.945 -0.3967  0.0096  0.0944
  272TMC3    O2 4174   3.301   3.024  14.487  0.1610  0.1898 -0.8227
  273MPD2     C 4175   4.205   1.890  12.189  0.1791  0.6832  0.3790
  273MPD2    C1 4176   4.342   1.908  12.190  0.0619 -0.1565  0.6664
  273MPD2    C2 4177   4.403   1.924  12.065  0.0273  0.4181  0.2576
  273MPD2    C3 4178   4.330   1.926  11.946 -0.4692 -0.9772  0.1331
  273MPD2    C4 4179   4.195   1.913  11.953  0.4317 -0.6645  0.1188
  273MPD2    C5 4180   4.136   1.891  12.069 -0.3617  0.2018  0.0860
  273MPD2     H 4181   4.510   1.934  12.050  0.0376 -0.6114 -0.3667
  273MPD2    H1 4182   4.137   1.930  11.863  0.7209  0.3104  0.1236
  273MPD2    H2 4183   4.153   1.908  12.282 -1.5542 -0.6454 -0.3232
  273MPD2    H3 4184   4.028   1.889  12.066 -0.2928 -2.4821 -0.7018
  273MPD2     N 4185   4.388   1.955  11.815  0.0084  0.0030 -0.3681
  273MPD2    H5 4186   4.317   1.965  11.743  1.2077 -0.8689 -1.6650
  273MPD2    N1 4187   4.411   1.913  12.314 -0.6110  1.2144 -0.2583
  273MPD2    H7 4188   4.353   1.929  12.395 -1.0204 -3.1973  0.3302
  274TMC3    C1 4189   4.569   1.997  11.653  0.2226  0.0935  1.2120
  274TMC3    C2 4190   4.473   1.974  11.561  0.0601  0.7602 -0.5140
  274TMC3    C3 4191   4.496   2.045  11.450  0.7339  0.1624 -0.1872
  274TMC3    C4 4192   4.681   2.079  11.641  0.5778 -0.6456 -0.5586
  274TMC3    C5 4193   4.689   2.140  11.516  0.6214  0.3574  0.1274
  274TMC3    C6 4194   4.603   2.124  11.416  0.0056  0.5117  0.0760
  274TMC3     C 4195   4.528   1.968  11.789  0.0175 -0.3188 -0.0455
  274TMC3     O 4196   4.627   1.967  11.861  0.0010  0.3669  0.1390
  274TMC3     H 4197   4.390   1.905  11.568 -0.0826  1.2755  2.6324
  274TMC3    H1 4198   0.005   2.102  11.728  0.8692 -0.6044 -0.7746
  274TMC3    H2 4199   4.612   2.207  11.347  0.6419  0.4624  0.0987
  274TMC3    C7 4200   0.025   2.262  11.514  0.2980 -0.5693 -0.1832
  274TMC3    C8 4201   4.393   2.034  11.349 -0.6636  0.3415 -0.3571
  274TMC3    O1 4202   0.095   2.289  11.414  0.3179  0.4522 -0.2366
  274TMC3    O2 4203   4.284   1.996  11.382  0.0836  0.1603 -0.4810
  275MPD2     C 4204   4.660   3.881  14.585 -0.5960  0.5942  0.4170
  275MPD2    C1 4205   4.616   3.977  14.675 -0.5885 -0.0634  0.1139
  275MPD2    C2 4206   4.485   4.017  14.686 -0.1148 -0.5196  0.1644
  275MPD2    C3 4207   4.395   3.951  14.595  0.7883 -0.5474  0.9572
  275MPD2    C4 4208   4.447   3.866  14.492 -0.1635  0.5376  0.4138
  275MPD2    C5 4209   4.580   3.832  14.487  0.3355 -0.0421  0.7882
  275MPD2     H 4210   4.449   4.085  14.762 -1.5775  0.4705 -1.3895
  275MPD2    H1 4211   4.383   3.818  14.419  1.3393  1.1326 -1.2939
  275MPD2    H2 4212   0.028   3.855  14.577 -1.0099 -0.9866  0.0799
  275MPD2    H3 4213   4.606   3.759  14.412  0.3870  1.1571 -0.3543
  275MPD2     N 4214   4.256   3.968  14.589  0.2849 -0.0953 -0.6472
  275MPD2    H5 4215   4.201   3.913  14.525 -0.5953 -0.7643  0.6825
  275MPD2    N1 4216   4.718   4.018  14.774 -0.3006 -0.3995 -0.4534
  275MPD2    H7 4217   0.056   3.952  14.795 -0.2520  0.0856  0.8964
  276TMC3    C1 4218   0.040   4.115  14.988 -0.7350 -0.3117 -0.7197
  276TMC3    C2 4219   0.018   4.007  15.067  0.8459 -0.6285  0.4486
  276TMC3    C3 4220   0.026   4.027  15.205  0.4797  0.7412  0.4420
  276TMC3    C4 4221   0.068   4.243  15.036 -0.3336  0.0691 -0.9298
  276TMC3    C5 4222   0.087   4.250  15.172 -0.0081 -0.2979  0.1516
  276TMC3    C6 4223   0.058   4.148  15.255 -0.6813  0.3117 -0.7676
  276TMC3     C 4224   4.702   4.121  14.865 -0.1305 -0.4512 -0.1657
  276TMC3     O 4225   4.640   4.226  14.844 -0.0902  0.6181  0.5427
  276TMC3     H 4226   4.725   3.911  15.025  1.0389 -0.5625  0.1642
  276TMC3    H1 4227   0.067   4.325  14.965 -0.3684 -1.2561 -2.4495
  276TMC3    H2 4228   0.060   4.165  15.362  2.4560 -1.2959 -0.5805
  276TMC3    C7 4229   0.184   4.343  15.227  0.4678  0.1393 -0.0126
  276TMC3    C8 4230   4.714   3.928  15.300 -0.2316  0.1112  0.5539
  276TMC3    O1 4231   0.190   4.350  15.345  0.1263 -1.1533  0.7301
  276TMC3    O2 4232   0.023   3.934  15.410 -0.4046 -0.3552  0.8031
  277MPD2     C 4233   1.458   3.501  13.076 -0.0294  0.3721  0.2988
  277MPD2    C1 4234   1.335   3.553  13.114 -0.0600  1.1371  0.2423
  277MPD2    C2 4235   1.260   3.473  13.194 -0.5034 -0.1382  0.2875
  277MPD2    C3 4236   1.313   3.355  13.248 -0.3070  0.0724  0.1953
  277MPD2    C4 4237   1.446   3.329  13.238 -0.1653 -0.5552 -0.0587
  277MPD2    C5 4238   1.510   3.392  13.138  0.6936  0.6196  0.1430
  277MPD2     H 4239   1.157   3.496  13.220 -0.0633  1.5688  0.5249
  277MPD2    H1 4240   1.496   3.241  13.277 -0.4471  0.1227  1.8293
  277MPD2    H2 4241   1.518   3.552  13.002 -1.5319  2.3999  0.4705
  277MPD2    H3 4242   1.611   3.367  13.107  0.2740 -3.2810  1.8658
  277MPD2     N 4243   1.226   3.274  13.319 -0.4486 -0.5913 -0.7088
  277MPD2    H5 4244   1.136   3.319  13.337 -1.5540 -2.4693 -1.4983
  277MPD2    N1 4245   1.291   3.667  13.048 -0.4978 -0.5635  0.3626
  277MPD2    H7 4246   1.353   3.704  12.976 -1.1322  0.2708  0.2598
  278TMC3    C1 4247   1.120   3.113  13.448  0.0443 -0.0049 -0.5860
  278TMC3    C2 4248   1.122   3.035  13.559  0.3540  0.9031 -0.0563
  278TMC3    C3 4249   1.007   3.003  13.625 -0.1263  0.2171 -0.4171
  278TMC3    C4 4250   0.999   3.164  13.397 -0.1681 -0.3173  0.2987
  278TMC3    C5 4251   0.886   3.119  13.456  0.0587  0.8783  0.2367
  278TMC3    C6 4252   0.886   3.041  13.565  0.1629 -0.0342  0.2524
  278TMC3     C 4253   1.251   3.160  13.395 -0.2892  0.4299 -0.1069
  278TMC3     O 4254   1.350   3.088  13.395  0.2539 -0.6871  0.1283
  278TMC3     H 4255   1.216   2.997  13.597  0.6524  2.2844  0.5871
  278TMC3    H1 4256   1.006   3.225  13.308  0.1289  0.2979  0.7388
  278TMC3    H2 4257   0.790   3.014  13.607 -0.4685 -0.1961 -1.2860
  278TMC3    C7 4258   0.769   3.183  13.402  0.0084  0.4725  0.3772
  278TMC3    C8 4259   1.018   2.892  13.713  0.0320  0.0305  1.0093
  278TMC3    O1 4260   0.787   3.261  13.309 -0.5383  0.1245  0.2588
  278TMC3    O2 4261   1.133   2.850  13.726  0.1139  0.4558  0.5255
  279MPD2     C 4262   0.157   2.545  17.645  0.0782 -0.6981 -0.8783
  279MPD2    C1 4263   0.162   2.677  17.681 -0.5372  0.5037 -0.4912
  279MPD2    C2 4264   0.175   2.765  17.575  0.8943 -0.3820 -0.3496
  279MPD2    C3 4265   0.193   2.726  17.444  1.1792  0.1254 -0.6218
  279MPD2    C4 4266   0.188   2.592  17.417  0.4907 -0.0038  0.7971
  279MPD2    C5 4267   0.169   2.503  17.516 -0.0364 -0.0507 -0.0893
  279MPD2     H 4268   0.187   2.869  17.605  0.5604 -0.3226 -0.4179
  279MPD2    H1 4269   0.196   2.550  17.318  0.1793  1.9111 -0.0326
  279MPD2    H2 4270   0.146   2.463  17.714  0.3213  0.1021  0.1198
  279MPD2    H3 4271   0.163   2.396  17.499 -2.1371 -0.3083  2.2683
  279MPD2     N 4272   0.235   2.805  17.340 -0.3160 -0.0659  0.7469
  279MPD2    H5 4273   0.243   2.765  17.247 -2.5462 -1.6583  1.2658
  279MPD2    N1 4274   0.164   2.715   0.073 -0.1041  0.3912  0.5191
  279MPD2    H7 4275   0.199   2.647   0.140  2.6013  0.4331 -0.8553
  280TMC3    C1 4276   0.219   2.869   0.230  0.1800 -0.4375  0.2777
  280TMC3    C2 4277   0.318   2.780   0.269 -0.3518 -0.7893 -0.8697
  280TMC3    C3 4278   0.396   2.819   0.372  0.0949  0.3478 -0.0955
  280TMC3    C4 4279   0.207   2.990   0.279 -0.4901  0.3048  0.3858
  280TMC3    C5 4280   0.295   3.033   0.376  0.1195  0.2001  0.5391
  280TMC3    C6 4281   0.382   2.943   0.427  0.0333 -0.2852  0.5205
  280TMC3     C 4282   0.137   2.840   0.118 -0.7463 -0.4955  0.3449
  280TMC3     O 4283   0.075   2.929   0.066  0.0480  0.5187  0.3637
  280TMC3     H 4284   0.343   2.693   0.210  1.3119 -0.0027 -1.3258
  280TMC3    H1 4285   0.119   3.041   0.243 -0.3494  1.0538  1.1070
  280TMC3    H2 4286   0.450   2.979   0.504  2.5224 -1.4014 -1.1740
  280TMC3    C7 4287   0.309   3.176   0.415 -0.5969 -0.3496 -0.3101
  280TMC3    C8 4288   0.497   2.731   0.422  0.5079  0.3353 -0.3533
  280TMC3    O1 4289   0.402   3.206   0.485  0.4715  0.0082 -0.1175
  280TMC3    O2 4290   0.590   2.782   0.491 -0.5260  0.4156 -0.0821
  281TMC3    C1 4291   4.154   3.468  13.307  0.0935 -1.1055 -0.0173
  281TMC3    C2 4292   4.214   3.511  13.197  0.0709  0.3847 -0.1154
  281TMC3    C3 4293   4.148   3.500  13.081  0.2680 -0.0396  0.4115
  281TMC3    C4 4294   4.033   3.398  13.314 -0.3409 -0.3487  0.2894
  281TMC3    C5 4295   3.969   3.375  13.194  0.0751  0.0176 -0.1095
  281TMC3    C6 4296   4.022   3.433  13.077 -0.6721 -0.2961  0.0497
  281TMC3     C 4297   4.195   3.529  13.435  0.0299 -0.5350 -0.0277
  281TMC3     O 4298   4.214   3.451  13.524  0.0061 -0.6620  0.3218
  281TMC3     H 4299   4.308   3.565  13.206  0.1061  0.0868  1.3931
  281TMC3    H1 4300   4.018   3.328  13.396  0.1225 -1.3150 -0.4522
  281TMC3    H2 4301   3.963   3.440  12.986  1.3909 -1.9870 -1.4201
  281TMC3    C7 4302   3.824   3.355  13.200 -0.2652  0.3234 -0.1620
  281TMC3    C8 4303   4.178   3.581  12.965 -0.1418 -0.2832 -0.3211
  281TMC3    O1 4304   3.759   3.363  13.095  0.4168  0.4353  0.2476
  281TMC3    O2 4305   4.091   3.597  12.877 -0.0068 -0.2232 -0.3971
  282MPD2     C 4306   1.181   0.267  15.227  0.6070  0.2374  0.2730
  282MPD2    C1 4307   1.086   0.278  15.323 -0.3271  0.8025  0.3835
  282MPD2    C2 4308   0.956   0.244  15.290  0.7157 -0.3177 -0.1007
  282MPD2    C3 4309   0.920   0.192  15.168  0.3956 -1.1742 -0.5180
  282MPD2    C4 4310   1.020   0.174  15.074 -0.2898  0.0212 -0.3196
  282MPD2    C5 4311   1.146   0.206  15.115 -0.6512  0.0026 -0.1563
  282MPD2     H 4312   0.877   0.254  15.363 -0.1602 -0.4107 -1.0414
  282MPD2    H1 4313   1.007   0.115  14.984 -0.2236 -0.1639 -0.2072
  282MPD2    H2 4314   1.286   0.290  15.244  1.3168 -2.1857 -0.6827
  282MPD2    H3 4315   1.229   0.174  15.052 -0.3313  0.6639 -0.0716
  282MPD2     N 4316   0.779   0.177  15.136  0.1063 -0.3129 -0.3480
  282MPD2    H5 4317   0.712   0.212  15.204  0.6209  1.0679 -0.5465
  282MPD2    N1 4318   1.107   0.343  15.447 -0.1458 -0.1937  0.5974
  282MPD2    H7 4319   1.033   0.330  15.516 -0.9344 -0.9586 -0.4047
  283TMC3    C1 4320   1.207   0.464  15.627  0.3863 -0.0130 -0.6159
  283TMC3    C2 4321   1.246   0.590  15.664 -0.4219 -0.6173  0.4603
  283TMC3    C3 4322   1.218   0.624  15.796  0.6057 -0.7676 -0.0308
  283TMC3    C4 4323   1.178   0.366  15.717  0.4806  0.3652 -0.0136
  283TMC3    C5 4324   1.182   0.404  15.847 -0.1922  0.8205  0.1436
  283TMC3    C6 4325   1.204   0.530  15.893 -0.3441  0.2718 -0.0155
  283TMC3     C 4326   1.212   0.426  15.484 -0.0227  0.6784  0.9443
  283TMC3     O 4327   1.296   0.479  15.414  0.0751 -0.1835 -0.0545
  283TMC3     H 4328   1.282   0.659  15.589 -1.8378 -0.2593  0.1060
  283TMC3    H1 4329   1.142   0.271  15.677  0.5194  1.6364 -3.0378
  283TMC3    H2 4330   1.193   0.553  15.999  1.2432  0.9150  0.0225
  283TMC3    C7 4331   1.137   0.301  15.943 -0.3445 -0.2237 -0.0806
  283TMC3    C8 4332   1.248   0.756  15.841  0.5164 -0.4508  1.0480
  283TMC3    O1 4333   1.078   0.333  16.046 -0.2897  0.5157  0.0826
  283TMC3    O2 4334   1.268   0.775  15.960 -0.5427  0.3140  0.1295
  284MPD2     C 4335   3.745   4.574  11.902  0.2102 -0.7394  0.1412
  284MPD2    C1 4336   3.858   4.502  11.863 -0.2570  0.3074 -0.5362
  284MPD2    C2 4337   3.860   4.365  11.879  0.3063 -1.1396 -0.2084
  284MPD2    C3 4338   3.752   4.288  11.925 -0.8681  0.3359  0.1867
  284MPD2    C4 4339   3.642   4.368  11.964 -0.1698  0.4203 -0.4363
  284MPD2    C5 4340   3.642   4.503  11.945  0.0845  0.1643 -0.4143
  284MPD2     H 4341   3.956   4.320  11.856  0.3741 -0.6607 -0.8848
  284MPD2    H1 4342   3.552   4.317  11.998  0.0880  0.3801  0.1946
  284MPD2    H2 4343   3.735   4.682  11.899  0.3465 -0.7695 -1.1570
  284MPD2    H3 4344   3.551   4.556  11.970 -0.3475 -1.5769  1.6718
  284MPD2     N 4345   3.745   4.148  11.932  0.4036  0.0651 -0.0025
  284MPD2    H5 4346   3.681   4.098  11.992  0.7394  0.8898  1.0634
  284MPD2    N1 4347   3.980   4.567  11.823  0.3832  0.4028  0.2071
  284MPD2    H7 4348   4.053   4.505  11.791 -0.3220 -1.0796  1.4962
  285TMC3    C1 4349   4.140   4.725  11.751 -0.1389 -0.1782 -0.2273
  285TMC3    C2 4350   4.216   4.629  11.689 -0.1966  0.0659  0.2787
  285TMC3    C3 4351   4.334   4.660  11.638 -0.4161 -0.0989 -0.0526
  285TMC3    C4 4352   4.184   0.120  11.759 -0.2236  0.3321  0.4361
  285TMC3    C5 4353   4.309   0.136  11.708  0.4501 -0.1789 -0.3618
  285TMC3    C6 4354   4.388   0.048  11.641 -0.1625  0.1398 -0.5277
  285TMC3     C 4355   4.010   4.702  11.816 -0.4742  0.8899  0.0508
  285TMC3     O 4356   3.937   0.053  11.864  0.4376  1.0655  0.1255
  285TMC3     H 4357   4.181   4.529  11.671  0.6284 -0.7710  3.3175
  285TMC3    H1 4358   4.125   0.194  11.813 -1.9556  0.6124 -1.8145
  285TMC3    H2 4359   4.481   0.066  11.589 -1.2063  0.6858 -2.1768
  285TMC3    C7 4360   4.377   0.259  11.740 -0.6611  0.0483 -0.0017
  285TMC3    C8 4361   4.383   4.556  11.545 -0.0358  0.6194 -0.0430
  285TMC3    O1 4362   4.299   0.350  11.760 -0.1048 -0.7299  0.7871
  285TMC3    O2 4363   4.320   4.457  11.512 -0.1404  0.1698 -0.4939
  286MPD2     C 4364   0.580   2.321   1.704 -0.2873  0.3371  0.1112
  286MPD2    C1 4365   0.470   2.313   1.619 -0.3222 -0.7376  0.3289
  286MPD2    C2 4366   0.467   2.219   1.516  0.1526 -0.7162  0.1792
  286MPD2    C3 4367   0.577   2.133   1.507 -0.0202  0.8057 -0.7137
  286MPD2    C4 4368   0.685   2.144   1.588 -0.1716 -0.2586  0.4356
  286MPD2    C5 4369   0.690   2.241   1.684  0.0424 -0.3017  0.1752
  286MPD2     H 4370   0.368   2.207   1.473 -0.5636  1.3915  1.2141
  286MPD2    H1 4371   0.767   2.077   1.567 -0.7646 -0.9675  0.3850
  286MPD2    H2 4372   0.583   2.386   1.791 -1.0251  0.2044  0.2395
  286MPD2    H3 4373   0.772   2.248   1.755  0.3288 -0.8389 -0.1055
  286MPD2     N 4374   0.578   2.022   1.425 -0.0514  0.6579 -0.0933
  286MPD2    H5 4375   0.666   1.972   1.426 -0.5144 -0.1760 -1.0710
  286MPD2    N1 4376   0.363   2.409   1.640 -0.1581 -0.6099 -0.5086
  286MPD2    H7 4377   0.292   2.401   1.567  0.2906  0.4743 -1.0578
  287TMC3    C1 4378   0.533   1.869   1.254  0.6484 -0.2678 -0.2714
  287TMC3    C2 4379   0.457   1.827   1.151 -0.0317  1.2016 -0.0271
  287TMC3    C3 4380   0.489   1.715   1.088 -0.4466 -0.1912 -0.0180
  287TMC3    C4 4381   0.651   1.800   1.281 -0.1818  0.7650 -0.3455
  287TMC3    C5 4382   0.675   1.680   1.224  1.2402  0.4881  0.0802
  287TMC3    C6 4383   0.588   1.632   1.124 -0.3025  0.9454 -1.0084
  287TMC3     C 4384   0.482   1.981   1.338 -0.6825  0.8343 -0.2651
  287TMC3     O 4385   0.375   2.036   1.311  0.7297 -0.1750  0.4194
  287TMC3     H 4386   0.364   1.879   1.128 -1.2482 -0.8959  0.1131
  287TMC3    H1 4387   0.715   1.829   1.363  0.6242  0.8918 -1.0253
  287TMC3    H2 4388   0.600   1.536   1.075 -0.4668  0.7534 -0.6736
  287TMC3    C7 4389   0.803   1.617   1.246 -0.1290  0.1407  0.4050
  287TMC3    C8 4390   0.398   1.653   0.988  0.0662  0.4106  0.0825
  287TMC3    O1 4391   0.876   1.660   1.336  0.7410  0.5285 -0.3899
  287TMC3    O2 4392   0.391   1.531   0.989  0.5859  0.4003  0.1674
  288TMC3    C1 4393   1.395   2.627  14.253  0.2686 -0.3122 -0.4089
  288TMC3    C2 4394   1.326   2.576  14.358 -0.1830  0.1595 -0.1839
  288TMC3    C3 4395   1.207   2.632  14.381 -0.6458 -0.3922  0.2605
  288TMC3    C4 4396   1.352   2.725  14.172  0.0016 -0.2031  0.2164
  288TMC3    C5 4397   1.228   2.780  14.196 -0.6360 -0.4968 -1.1649
  288TMC3    C6 4398   1.149   2.721  14.296 -0.3627  0.1373  0.0058
  288TMC3     C 4399   1.529   2.574  14.234 -0.5334  0.0678  0.0012
  288TMC3     O 4400   1.593   2.559  14.336 -0.1610  0.4324 -0.4460
  288TMC3     H 4401   1.363   2.501  14.427 -1.4176  0.5609  0.9086
  288TMC3    H1 4402   1.421   2.780  14.109 -1.1873  0.4318 -0.5492
  288TMC3    H2 4403   1.051   2.766  14.309 -0.5999 -0.0017 -1.2364
  288TMC3    C7 4404   1.199   2.920  14.166  0.0357  0.1342 -0.3308
  288TMC3    C8 4405   1.144   2.638  14.510 -0.1030  0.3630 -0.3775
  288TMC3    O1 4406   1.113   2.970  14.234  0.2767  0.1068 -0.2583
  288TMC3    O2 4407   1.054   2.724  14.521  0.5011  0.4569  0.1782
  289MPD2     C 4408   1.443   1.729  14.177  0.2129 -0.1187 -0.2040
  289MPD2    C1 4409   1.364   1.821  14.104 -0.1620  0.5704  0.2011
  289MPD2    C2 4410   1.224   1.827  14.130 -0.6405 -0.8804 -0.4385
  289MPD2    C3 4411   1.162   1.744  14.223  0.0589 -0.4901 -0.2214
  289MPD2    C4 4412   1.247   1.660  14.293 -0.0859 -0.0002  0.0244
  289MPD2    C5 4413   1.385   1.648  14.272  0.1058 -0.7342  0.6607
  289MPD2     H 4414   1.166   1.906  14.083  1.0491  0.2148 -0.6518
  289MPD2    H1 4415   1.210   1.582  14.359 -1.9392  0.2263 -0.7263
  289MPD2    H2 4416   1.541   1.699  14.141  0.5141  2.0651 -1.1880
  289MPD2    H3 4417   1.429   1.557  14.310  1.1081 -0.9169 -0.9384
  289MPD2     N 4418   1.024   1.735  14.250 -0.3765  0.1843 -0.1956
  289MPD2    H5 4419   0.995   1.661  14.314  0.4380  0.4258  0.4483
  289MPD2    N1 4420   1.432   1.917  14.016  0.6381 -0.1618  0.6870
  289MPD2    H7 4421   1.531   1.901  14.003  0.5363  1.4249 -1.8740
  290TMC3    C1 4422   0.801   1.792  14.251  0.1141 -0.4309  0.2386
  290TMC3    C2 4423   0.707   1.893  14.264  0.0426 -0.2138 -0.1863
  290TMC3    C3 4424   0.576   1.866  14.250  0.0412  0.5248  0.2372
  290TMC3    C4 4425   0.770   1.661  14.237  0.3228  0.6876  0.6537
  290TMC3    C5 4426   0.634   1.639  14.239 -0.2422  0.4876 -0.0117
  290TMC3    C6 4427   0.537   1.737  14.245 -0.2847  0.0842  0.1741
  290TMC3     C 4428   0.934   1.832  14.210 -0.2898 -0.1915  0.0905
  290TMC3     O 4429   0.942   1.942  14.150  0.3292 -0.1575  0.2273
  290TMC3     H 4430   0.736   1.996  14.246  0.4790  0.0127  1.7952
  290TMC3    H1 4431   0.841   1.581  14.220 -0.5937 -0.4837  2.3637
  290TMC3    H2 4432   0.430   1.723  14.253 -0.2855  0.4122  0.7165
  290TMC3    C7 4433   0.581   1.506  14.239 -0.6619 -0.1388  0.0699
  290TMC3    C8 4434   0.472   1.971  14.249  0.1172  0.2377  0.2629
  290TMC3    O1 4435   0.467   1.497  14.194 -0.3683  0.1856  0.2528
  290TMC3    O2 4436   0.355   1.939  14.253  0.0903 -0.1396  0.1800
  291MPD2     C 4437   0.880   0.770   0.328 -0.3166 -0.4491 -0.8956
  291MPD2    C1 4438   0.789   0.850   0.271 -0.3334  1.3439  0.1407
  291MPD2    C2 4439   0.829   0.921   0.162  0.8324  0.1761  0.0643
  291MPD2    C3 4440   0.959   0.909   0.115  0.2817 -0.4592 -0.5360
  291MPD2    C4 4441   1.049   0.822   0.175  0.2802 -0.2801  0.5869
  291MPD2    C5 4442   1.011   0.754   0.287  0.0874 -0.1901  0.3703
  291MPD2     H 4443   0.756   0.990   0.121  0.4772  0.1886  0.7089
  291MPD2    H1 4444   1.149   0.803   0.138 -0.7359  0.3331 -2.4647
  291MPD2    H2 4445   0.858   0.729   0.426  1.0521 -0.6072 -0.6557
  291MPD2    H3 4446   1.079   0.695   0.347  0.7747  1.6445  1.3762
  291MPD2     N 4447   1.008   0.966  17.736  0.2516 -0.7693  1.0050
  291MPD2    H5 4448   1.097   0.930  17.704  0.6664  3.8388 -2.8934
  291MPD2    N1 4449   0.651   0.849   0.306  0.0529  0.8326 -0.0277
  291MPD2    H7 4450   0.593   0.900   0.239  0.5382 -1.7891 -2.4620
  292TMC3    C1 4451   0.460   0.810   0.441 -0.2485 -0.2176 -0.3833
  292TMC3    C2 4452   0.433   0.799   0.579 -0.1365 -0.7722  0.2837
  292TMC3    C3 4453   0.321   0.729   0.628 -1.0063  0.0039  0.0696
  292TMC3    C4 4454   0.377   0.757   0.349  0.3520 -0.4924 -0.0477
  292TMC3    C5 4455   0.266   0.690   0.403  0.3802  0.9728  0.4723
  292TMC3    C6 4456   0.237   0.676   0.536  0.5061  0.1408  0.5671
  292TMC3     C 4457   0.599   0.789   0.421 -0.4689 -0.2186 -0.0155
  292TMC3     O 4458   0.652   0.736   0.518 -0.1340 -0.3800 -0.0660
  292TMC3     H 4459   0.489   0.862   0.647  0.7084  0.1379 -1.2454
  292TMC3    H1 4460   0.411   0.745   0.247 -2.3199 -0.2160 -0.9749
  292TMC3    H2 4461   0.147   0.626   0.569  0.3102  0.8344  1.0886
  292TMC3    C7 4462   0.181   0.629   0.299 -1.6171 -0.3180 -0.1155
  292TMC3    C8 4463   0.325   0.706   0.768 -0.5248 -0.6284  0.4451
  292TMC3    O1 4464   0.192   0.668   0.187 -0.4377  0.2576  0.2689
  292TMC3    O2 4465   0.428   0.746   0.827  0.5710 -0.3180 -0.2612
  293MPD2     C 4466   2.873   3.710  12.655 -0.4278  0.9132  0.5434
  293MPD2    C1 4467   2.767   3.619  12.661 -0.3589  0.4997 -0.1032
  293MPD2    C2 4468   2.737   3.555  12.782 -0.8017 -0.4739 -0.3550
  293MPD2    C3 4469   2.799   3.598  12.896  1.1270 -0.2198  0.1739
  293MPD2    C4 4470   2.901   3.692  12.892  0.1499 -0.2162  0.0697
  293MPD2    C5 4471   2.951   3.740  12.769 -0.0098  0.3597 -0.1070
  293MPD2     H 4472   2.647   3.495  12.784 -1.9273  1.2941  2.0298
  293MPD2    H1 4473   2.955   3.722  12.981  1.0156 -0.2311 -0.4476
  293MPD2    H2 4474   2.908   3.745  12.559  1.0734 -1.0405  0.3723
  293MPD2    H3 4475   3.042   3.796  12.754 -0.6272  2.0087  2.1988
  293MPD2     N 4476   2.746   3.537  13.015 -0.0452  0.3697  0.3124
  293MPD2    H5 4477   2.672   3.469  13.005  0.0690 -0.0408  2.2971
  293MPD2    N1 4478   2.691   3.585  12.544 -0.2302  0.2961  0.5689
  293MPD2    H7 4479   2.694   3.648  12.464  0.2958 -0.4335  0.0105
  294TMC3    C1 4480   2.543   3.472  12.387 -0.3013  0.9978 -0.5193
  294TMC3    C2 4481   2.447   3.376  12.369 -0.0858  1.0485  0.1924
  294TMC3    C3 4482   2.419   3.329  12.246  1.1828  0.0451  0.0568
  294TMC3    C4 4483   2.606   3.534  12.281  0.7625  1.0775 -0.1858
  294TMC3    C5 4484   2.578   3.476  12.155 -0.4820  0.1332  0.4410
  294TMC3    C6 4485   2.484   3.381  12.140 -0.3476  0.0334  0.1214
  294TMC3     C 4486   2.613   3.471  12.517 -0.0613 -0.9933  0.3733
  294TMC3     O 4487   2.597   3.367  12.587 -1.2097 -0.4399 -0.3935
  294TMC3     H 4488   2.401   3.329  12.456  1.2713  0.5016  0.6077
  294TMC3    H1 4489   2.680   3.612  12.293  2.1756  0.2556 -3.5119
  294TMC3    H2 4490   2.450   3.349  12.042 -3.5142  0.1554  1.1663
  294TMC3    C7 4491   2.576   3.567  12.041 -0.6076  0.2129 -0.9771
  294TMC3    C8 4492   2.300   3.244  12.219 -1.0033  0.0672  0.3562
  294TMC3    O1 4493   2.575   3.686  12.073 -0.2914  0.1565 -0.2316
  294TMC3    O2 4494   2.243   3.276  12.115  0.0118  0.2793  0.8523
  295MPD2     C 4495   4.158   1.864   0.665  0.8189  0.5569  0.0061
  295MPD2    C1 4496   4.061   1.769   0.631  0.2839  0.4527  0.6004
  295MPD2    C2 4497   4.047   1.656   0.709 -0.0008  0.3039  0.3921
  295MPD2    C3 4498   4.126   1.636   0.817 -0.1368  0.2218  0.5927
  295MPD2    C4 4499   4.224   1.726   0.852 -0.6925 -0.2329  0.2488
  295MPD2    C5 4500   4.241   1.834   0.765  0.3927  0.4138 -1.5020
  295MPD2     H 4501   3.966   1.586   0.688 -0.6168  1.2549 -0.3899
  295MPD2    H1 4502   4.291   1.716   0.937 -2.1502  1.2570  1.5493
  295MPD2    H2 4503   4.171   1.953   0.605  1.5919  1.4968  1.5761
  295MPD2    H3 4504   4.323   1.903   0.783 -0.6413  1.4258 -0.6885
  295MPD2     N 4505   4.124   1.519   0.894  0.5906 -0.5361  0.3251
  295MPD2    H5 4506   4.170   1.515   0.984  0.8094 -1.0202  0.1906
  295MPD2    N1 4507   3.970   1.781   0.529 -0.0159 -0.3338 -0.1264
  295MPD2    H7 4508   3.903   1.705   0.518 -2.0093  1.5984 -1.4260
  296TMC3    C1 4509   4.008   1.317   0.960 -0.5443 -0.1652  0.4727
  296TMC3    C2 4510   4.011   1.370   1.091 -0.0865 -0.0120 -0.3162
  296TMC3    C3 4511   3.961   1.284   1.183 -0.0035 -0.6466 -0.0280
  296TMC3    C4 4512   3.963   1.192   0.917  0.1165 -0.3458  0.2293
  296TMC3    C5 4513   3.916   1.111   1.021 -0.1182 -0.1200 -0.8347
  296TMC3    C6 4514   3.920   1.155   1.153  0.5289 -0.0947 -0.6627
  296TMC3     C 4515   4.058   1.402   0.851  0.3955  0.4707 -0.1980
  296TMC3     O 4516   4.025   1.372   0.735  0.6856  0.2263  0.1150
  296TMC3     H 4517   4.051   1.465   1.124  1.4622 -0.4049 -1.0606
  296TMC3    H1 4518   3.987   1.146   0.823  2.7597  1.5699 -0.0343
  296TMC3    H2 4519   3.883   1.086   1.227 -1.6457  0.1260 -1.5409
  296TMC3    C7 4520   3.875   0.978   0.990 -0.3580 -0.5190 -0.1602
  296TMC3    C8 4521   3.995   1.307   1.332 -0.5183 -0.2792 -0.6308
  296TMC3    O1 4522   3.895   0.942   0.876  0.7089 -0.0059 -0.0876
  296TMC3    O2 4523   4.018   1.203   1.392  0.0216 -0.3823  0.5051
  297MPD2     C 4524   0.384   3.704  16.915  0.5856  0.3584 -0.0864
  297MPD2    C1 4525   0.294   3.804  16.887 -0.4943  0.6052  0.5491
  297MPD2    C2 4526   0.336   3.907  16.801 -0.2767 -0.6593 -0.0805
  297MPD2    C3 4527   0.451   3.902  16.734  0.0022  0.6467  0.8036
  297MPD2    C4 4528   0.534   3.787  16.753  0.4264 -0.6065 -0.0202
  297MPD2    C5 4529   0.500   3.692  16.846 -0.5515 -0.1065  0.6122
  297MPD2     H 4530   0.262   3.985  16.782  0.2834 -0.5185 -1.7165
  297MPD2    H1 4531   0.630   3.778  16.703  0.7822 -1.0411  0.7555
  297MPD2    H2 4532   0.356   3.617  16.973  2.5370 -0.9943 -1.1574
  297MPD2    H3 4533   0.561   3.603  16.848  2.5011  1.9541  0.3750
  297MPD2     N 4534   0.473   4.005  16.634  0.7874  0.5820 -0.4484
  297MPD2    H5 4535   0.425   4.093  16.649 -1.8323 -1.4556  3.3956
  297MPD2    N1 4536   0.163   3.801  16.936  0.0333 -0.2944 -0.0597
  297MPD2    H7 4537   0.112   3.883  16.906  0.9082  0.3872  0.3210
  298TMC3    C1 4538   4.700   3.712  16.988  0.6057  0.0773  0.7786
  298TMC3    C2 4539   4.660   3.624  16.890 -0.8767 -0.1945  0.2974
  298TMC3    C3 4540   4.565   3.666  16.800 -0.0648  0.6907  0.2187
  298TMC3    C4 4541   4.641   3.832  16.999  0.6902  0.2777 -0.5569
  298TMC3    C5 4542   4.533   3.861  16.918  0.1495 -0.3177  0.2319
  298TMC3    C6 4543   4.487   3.780  16.818 -0.1317  0.7979 -0.2375
  298TMC3     C 4544   0.107   3.709  17.020  0.0403  0.1714  0.3278
  298TMC3     O 4545   0.154   3.609  17.073 -0.3825 -0.7830  0.0092
  298TMC3     H 4546   4.715   3.535  16.864 -0.3875 -0.3566  1.8638
  298TMC3    H1 4547   4.674   3.906  17.071 -1.0723  3.0571 -2.6031
  298TMC3    H2 4548   4.412   3.809  16.745 -1.3464 -0.1575  0.6375
  298TMC3    C7 4549   4.475   3.993  16.934  0.5418 -0.1789 -0.1429
  298TMC3    C8 4550   4.535   3.568  16.689 -0.6110 -0.0340 -0.2829
  298TMC3    O1 4551   4.469   4.040  17.049  0.5661  0.7593  0.2852
  298TMC3    O2 4552   4.597   3.464  16.702 -0.1527  0.3087 -0.6080
  299MPD2     C 4553   0.703   3.564  10.792 -0.4303 -0.5383 -0.6000
  299MPD2    C1 4554   0.745   3.685  10.742  0.3280 -0.1699  0.3604
  299MPD2    C2 4555   0.691   3.726  10.613 -0.4607 -0.2427  0.0964
  299MPD2    C3 4556   0.599   3.655  10.545  0.1519  0.3003  0.1254
  299MPD2    C4 4557   0.563   3.531  10.600 -0.5496  0.0710 -0.2120
  299MPD2    C5 4558   0.626   3.486  10.714  0.5805 -0.9303  0.4093
  299MPD2     H 4559   0.715   3.823  10.571 -0.1623  0.0245  0.8762
  299MPD2    H1 4560   0.489   3.468  10.551 -3.6091  2.8354  0.8356
  299MPD2    H2 4561   0.730   3.521  10.888 -0.1498 -1.4759 -1.1004
  299MPD2    H3 4562   0.606   3.383  10.739  0.5569 -0.6426  1.5739
  299MPD2     N 4563   0.535   3.710  10.429 -0.1974  0.2408  0.1297
  299MPD2    H5 4564   0.584   3.789  10.390  0.2581  0.0280  0.2640
  299MPD2    N1 4565   0.826   3.767  10.824  0.4950  0.3298 -0.3515
  299MPD2    H7 4566   0.842   3.734  10.919 -0.5423  1.2681  0.1473
  300TMC3    C1 4567   0.358   3.755  10.263  0.1842  1.0116  0.6846
  300TMC3    C2 4568   0.443   3.835  10.194  0.3243  0.7405 -0.8904
  300TMC3    C3 4569   0.380   3.912  10.092  0.2853  0.3650  0.5299
  300TMC3    C4 4570   0.224   3.747  10.257  0.4980  0.0454  0.3794
  300TMC3    C5 4571   0.173   3.826  10.159  0.7181 -0.2004  0.2384
  300TMC3    C6 4572   0.245   3.903  10.075 -1.3689  0.2941  0.3518
  300TMC3     C 4573   0.412   3.675  10.376  0.2411  0.4251  1.0637
  300TMC3     O 4574   0.338   3.595  10.435  0.3087  0.6016 -0.3115
  300TMC3     H 4575   0.551   3.836  10.191  0.3974  0.1121  1.4004
  300TMC3    H1 4576   0.167   3.674  10.313  1.0014 -0.0023  0.8293
  300TMC3    H2 4577   0.190   3.976  10.016 -3.9590  0.0431  2.4601
  300TMC3    C7 4578   0.029   3.851  10.178 -0.5881  0.1616 -0.3188
  300TMC3    C8 4579   0.446   4.040  10.068  0.4793 -0.3397 -0.3123
  300TMC3    O1 4580   4.701   3.882  10.076 -0.1400 -0.6325 -0.3457
  300TMC3    O2 4581   0.426   4.098   9.960  0.5688 -0.0654 -0.3790
  301MPD2     C 4582   3.179   4.631   1.005 -0.1012  0.4073  0.2452
  301MPD2    C1 4583   3.054   4.606   0.956  0.1915 -0.1700 -0.4567
  301MPD2    C2 4584   2.991   4.483   0.967  0.5981 -0.5181 -0.0751
  301MPD2    C3 4585   3.062   4.378   1.022 -0.4433  0.5619 -0.3023
  301MPD2    C4 4586   3.188   4.404   1.072  0.4032  0.2993  0.3954
  301MPD2    C5 4587   3.240   4.530   1.077  0.0834 -0.0038  0.6184
  301MPD2     H 4588   2.897   4.463   0.917  0.4789 -0.1615  0.0071
  301MPD2    H1 4589   3.245   4.323   1.116 -1.3106  0.4691  2.9293
  301MPD2    H2 4590   3.228   4.727   0.995 -0.4811  0.2082 -3.5914
  301MPD2    H3 4591   3.339   4.553   1.115  0.3920  1.1428 -0.8602
  301MPD2     N 4592   2.997   4.254   1.034 -0.6708  0.3998  0.1543
  301MPD2    H5 4593   3.045   4.175   1.077  0.2859 -0.2264 -2.0677
  301MPD2    N1 4594   2.981   4.710   0.901  0.0328 -0.0017  0.5738
  301MPD2    H7 4595   2.887   4.681   0.876  0.3672 -0.0985 -0.5545
  302TMC3    C1 4596   2.821   4.100   1.029  0.3335  0.7369  0.3124
  302TMC3    C2 4597   2.899   3.992   0.996 -0.3073  0.4127 -0.4679
  302TMC3    C3 4598   2.843   3.873   1.019  0.3886 -0.2658  0.4883
  302TMC3    C4 4599   2.692   4.086   1.074  0.9889  0.5756 -0.2379
  302TMC3    C5 4600   2.640   3.963   1.097 -0.2156  0.1918 -0.3383
  302TMC3    C6 4601   2.718   3.855   1.068  0.4508  0.0714  0.4048
  302TMC3     C 4602   2.864   4.230   0.997 -0.0543 -0.1315 -0.4968
  302TMC3     O 4603   2.774   4.308   0.980  0.1111  0.2052  0.9591
  302TMC3     H 4604   2.997   3.998   0.951 -0.3346  1.4179 -0.3941
  302TMC3    H1 4605   2.646   4.172   1.120 -0.1399  0.3497 -0.9596
  302TMC3    H2 4606   2.675   3.762   1.103  1.7549 -0.4332  0.6392
  302TMC3    C7 4607   2.499   3.954   1.123  0.4453 -0.1158 -1.0131
  302TMC3    C8 4608   2.920   3.754   1.008  0.0537 -0.2635 -0.9472
  302TMC3    O1 4609   2.471   3.874   1.210 -0.4746  0.1275 -0.3253
  302TMC3    O2 4610   3.040   3.780   1.010  0.4324 -0.1168  0.1701
  303MPD2     C 4611   2.936   3.088  10.685  0.3479  0.6317  0.5739
  303MPD2    C1 4612   2.819   3.020  10.683 -0.1825  0.3671 -1.2113
  303MPD2    C2 4613   2.702   3.066  10.627  0.1590  0.2909  0.0870
  303MPD2    C3 4614   2.706   3.183  10.559 -0.1982  0.3597  0.1701
  303MPD2    C4 4615   2.824   3.259  10.558  0.3523 -0.2157  0.4660
  303MPD2    C5 4616   2.933   3.204  10.617 -0.0781 -0.4428 -0.3100
  303MPD2     H 4617   2.614   3.004  10.633  0.3819 -0.0275  0.0395
  303MPD2    H1 4618   2.827   3.350  10.499 -1.2023 -0.1414  0.5175
  303MPD2    H2 4619   3.031   3.059  10.729  1.3820  1.0320 -1.4201
  303MPD2    H3 4620   3.015   3.276  10.618 -0.2777 -0.2360  1.5030
  303MPD2     N 4621   2.600   3.236  10.489  0.1001  0.7487 -0.5997
  303MPD2    H5 4622   2.614   3.312  10.423  2.0656  0.6278 -0.3472
  303MPD2    N1 4623   2.828   2.894  10.750 -0.3052  0.0473  0.6625
  303MPD2    H7 4624   2.920   2.871  10.788 -0.2652  1.3826  1.3817
  304TMC3    C1 4625   2.753   2.697  10.868 -0.6539 -0.8234 -0.3933
  304TMC3    C2 4626   2.640   2.644  10.930  0.3186  0.2368 -0.0815
  304TMC3    C3 4627   2.623   2.508  10.926 -0.0601  0.4857  0.4407
  304TMC3    C4 4628   2.844   2.620  10.810 -0.2004 -0.5211  0.2840
  304TMC3    C5 4629   2.822   2.484  10.802 -0.1530  0.3308  0.2239
  304TMC3    C6 4630   2.719   2.427  10.865  0.6630 -0.2086 -0.1440
  304TMC3     C 4631   2.723   2.822  10.794 -0.0995 -0.1973 -0.4297
  304TMC3     O 4632   2.603   2.846  10.795  0.1049 -0.4077  0.8465
  304TMC3     H 4633   2.564   2.712  10.968  1.0657  0.8662  0.2836
  304TMC3    H1 4634   2.925   2.667  10.755 -0.2381 -0.9565 -0.1411
  304TMC3    H2 4635   2.702   2.320  10.862 -0.7007 -0.0775  3.5601
  304TMC3    C7 4636   2.824   2.450  10.657 -0.0238  0.8750 -0.0667
  304TMC3    C8 4637   2.492   2.454  10.892 -0.0842  0.2272  0.4319
  304TMC3    O1 4638   2.887   2.533  10.594 -0.3717  0.3726  0.4964
  304TMC3    O2 4639   2.473   2.345  10.840 -0.3600 -0.2840  0.6909
  305MPD2     C 4640   0.942   0.036  14.155  1.0229 -0.2627  0.0556
  305MPD2    C1 4641   1.073   0.061  14.113  1.4676  0.0616 -0.2329
  305MPD2    C2 4642   1.094   0.082  13.979 -0.3558 -0.7060 -0.1566
  305MPD2    C3 4643   0.996   0.087  13.882 -0.2848 -0.2224 -0.1586
  305MPD2    C4 4644   0.868   0.057  13.924 -0.0786  0.0726  0.4292
  305MPD2    C5 4645   0.845   0.038  14.059  0.0626  0.8352 -0.6269
  305MPD2     H 4646   1.196   0.108  13.953  0.3159 -2.9816  0.1580
  305MPD2    H1 4647   0.787   0.043  13.854 -2.3050  2.3898  2.5513
  305MPD2    H2 4648   0.909   0.018  14.256 -1.1410  1.4850 -0.3381
  305MPD2    H3 4649   0.742   0.022  14.090  0.4382 -0.2855  0.0217
  305MPD2     N 4650   1.003   0.114  13.739  0.6148 -0.6268 -0.6064
  305MPD2    H5 4651   0.916   0.103  13.688 -1.0149  0.8556  1.8360
  305MPD2    N1 4652   1.177   0.045  14.210  0.6535 -0.0649  0.7034
  305MPD2    H7 4653   1.131   0.024  14.298  1.2212 -3.8958  0.0489
  306TMC3    C1 4654   1.387   0.092  14.319 -0.1559  0.1129 -0.5639
  306TMC3    C2 4655   1.517   0.053  14.320  0.3055 -0.1417 -0.1210
  306TMC3    C3 4656   1.575   0.058  14.442 -0.1325  0.2247  0.6681
  306TMC3    C4 4657   1.318   0.137  14.428 -0.2170 -0.4467 -0.0490
  306TMC3    C5 4658   1.387   0.146  14.544 -0.3520 -0.9261  0.4809
  306TMC3    C6 4659   1.517   0.111  14.557  0.2837 -0.4017 -0.2257
  306TMC3     C 4660   1.315   0.069  14.199 -0.6415  0.3458 -0.1028
  306TMC3     O 4661   1.376   0.098  14.095 -0.2988  0.6523 -0.6118
  306TMC3     H 4662   1.567   0.029  14.227 -0.0458 -1.8738  0.1252
  306TMC3    H1 4663   1.213   0.162  14.424  0.5027  2.8247  1.3395
  306TMC3    H2 4664   1.552   0.098  14.658  0.4069 -0.2374 -0.2464
  306TMC3    C7 4665   1.318   0.202  14.661  0.1974  0.1956  0.6800
  306TMC3    C8 4666   1.709   4.735  14.446 -0.1542 -0.8246  0.0278
  306TMC3    O1 4667   1.201   0.239  14.636 -0.8926  0.5561  0.1268
  306TMC3    O2 4668   1.744   4.662  14.355 -0.0617  0.7812  0.0460
  307MPD2     C 4669   4.016   3.602  17.698  0.5350 -0.7829  0.4634
  307MPD2    C1 4670   3.957   3.716  17.732  0.6942 -0.4603 -0.0956
  307MPD2    C2 4671   3.922   3.738   0.117 -1.3330  0.0936  0.3122
  307MPD2    C3 4672   3.927   3.635   0.211  0.5228  0.7897 -0.3590
  307MPD2    C4 4673   3.976   3.514   0.174  0.3947  0.1693  0.4787
  307MPD2    C5 4674   4.030   3.500   0.050  0.0988  0.4414  0.5245
  307MPD2     H 4675   3.871   3.831   0.139 -1.4412 -0.1479  1.0958
  307MPD2    H1 4676   3.997   3.433   0.243 -2.5127 -1.7194 -0.8667
  307MPD2    H2 4677   4.068   3.588  17.604 -0.4913  0.0253 -0.2243
  307MPD2    H3 4678   4.082   3.410   0.021 -1.5641 -0.6462  0.9373
  307MPD2     N 4679   3.878   3.672   0.340 -0.2255 -1.3078  0.0471
  307MPD2    H5 4680   3.840   3.764   0.358  0.4254 -0.6952 -1.7034
  307MPD2    N1 4681   3.930   3.824  17.641 -0.3190 -0.4209  0.3542
  307MPD2    H7 4682   3.917   3.918  17.677  0.2676 -0.1413 -0.1718
  308TMC3    C1 4683   3.611   3.607   0.682  0.3860  0.5349  0.1942
  308TMC3    C2 4684   3.584   3.740   0.680  0.1464 -0.7426  0.1235
  308TMC3    C3 4685   3.677   3.827   0.631  0.7051 -0.0964 -0.0472
  308TMC3    C4 4686   3.730   3.560   0.629 -0.1284  0.4382  0.1768
  308TMC3    C5 4687   3.807   3.647   0.554  1.0102 -0.3250 -0.1800
  308TMC3    C6 4688   3.786   3.781   0.552  0.2719  0.0110 -0.1816
  308TMC3     C 4689   3.521   3.503   0.708  0.3244  0.4150  0.3793
  308TMC3     O 4690   3.563   3.393   0.727 -0.2075 -0.6888 -0.6203
  308TMC3     H 4691   3.492   3.774   0.727  1.3565 -0.9009  2.5827
  308TMC3    H1 4692   3.745   3.453   0.624 -1.2392  0.3418 -0.8848
  308TMC3    H2 4693   3.855   3.844   0.498  2.0121 -2.8900 -1.3663
  308TMC3    C7 4694   3.872   3.584   0.446 -0.3592  0.1296 -0.1017
  308TMC3    C8 4695   3.641   3.966   0.614 -0.0597  0.2451 -0.4196
  308TMC3    O1 4696   3.910   3.470   0.449 -0.1146  0.3512  0.0180
  308TMC3    O2 4697   3.523   3.991   0.636  0.2859  0.9611  0.2077
  309MPD2     C 4698   2.924   3.579  17.370 -0.2664  0.6075  0.5306
  309MPD2    C1 4699   2.862   3.590  17.242 -0.4445 -0.6092  0.2580
  309MPD2    C2 4700   2.719   3.594  17.238 -0.1232 -0.1357 -0.1616
  309MPD2    C3 4701   2.644   3.583  17.355 -0.1527  0.8578 -0.2614
  309MPD2    C4 4702   2.709   3.560  17.478  0.3664 -1.1806  0.3932
  309MPD2    C5 4703   2.849   3.551  17.484  0.0976 -0.2916  0.0229
  309MPD2     H 4704   2.671   3.612  17.142 -2.1983 -0.2532  0.8546
  309MPD2    H1 4705   2.654   3.538  17.569  0.6583 -3.3205  0.0601
  309MPD2    H2 4706   3.030   3.592  17.385 -0.2568  2.4075 -1.0733
  309MPD2    H3 4707   2.901   3.529  17.576  1.9696 -3.4297 -1.7772
  309MPD2     N 4708   2.498   3.585  17.352 -0.4673 -0.3263  0.0185
  309MPD2    H5 4709   2.453   3.583  17.443 -1.7723 -0.7642 -0.6477
  309MPD2    N1 4710   2.936   3.604  17.124 -0.2711 -0.2370 -0.1171
  309MPD2    H7 4711   2.883   3.624  17.039  2.2161  1.9481 -1.1506
  310TMC3    C1 4712   3.128   3.609  16.981  0.4001  0.7952  0.9383
  310TMC3    C2 4713   3.053   3.683  16.888  0.6031  1.1193  0.0608
  310TMC3    C3 4714   3.106   3.696  16.761 -0.7134 -0.2881 -0.8948
  310TMC3    C4 4715   3.225   3.518  16.940  0.7417  0.7058 -0.7753
  310TMC3    C5 4716   3.265   3.530  16.809  0.5181 -0.1077 -0.3850
  310TMC3    C6 4717   3.214   3.619  16.719  0.0309  0.4288  0.1283
  310TMC3     C 4718   3.074   3.591  17.111  0.6330 -0.0699  0.3148
  310TMC3     O 4719   3.161   3.577  17.200 -0.0517  0.7974 -0.4715
  310TMC3     H 4720   2.991   3.763  16.926  1.1969  2.1257 -1.1041
  310TMC3    H1 4721   3.272   3.453  17.013  0.1340  1.1471  0.0091
  310TMC3    H2 4722   3.260   3.629  16.621  0.3321 -0.1380  0.2143
  310TMC3    C7 4723   3.340   3.423  16.756  0.7172  0.2087 -0.0865
  310TMC3    C8 4724   3.029   3.774  16.663  0.2918 -0.3670 -0.1753
  310TMC3    O1 4725   3.337   3.410  16.637 -0.2018  0.4273 -0.3556
  310TMC3    O2 4726   2.914   3.819  16.689 -0.0553  0.7540  0.1887
  311MPD2     C 4727   0.354   0.055  12.955  0.0869 -0.0791 -0.1444
  311MPD2    C1 4728   0.321   0.185  12.966 -0.6497  0.0643 -0.0071
  311MPD2    C2 4729   0.188   0.210  12.998  0.7016 -0.3664 -0.5231
  311MPD2    C3 4730   0.105   0.110  13.007 -0.1541  0.4345 -0.3904
  311MPD2    C4 4731   0.141   4.715  13.007  0.5272 -0.6903  0.8746
  311MPD2    C5 4732   0.265   4.689  12.974 -0.2698 -0.5810 -0.0967
  311MPD2     H 4733   0.161   0.315  13.009  1.4952 -0.4437  2.1593
  311MPD2    H1 4734   0.071   4.632  13.012  0.3281 -0.5218  0.8700
  311MPD2    H2 4735   0.458   0.036  12.931 -0.2462  1.3870 -2.8073
  311MPD2    H3 4736   0.300   4.591  12.945  1.6334  1.0002 -3.2541
  311MPD2     N 4737   4.709   0.146  13.030 -0.0824  0.5588 -0.2172
  311MPD2    H5 4738   4.698   0.240  13.068  0.6176  0.9139 -0.8821
  311MPD2    N1 4739   0.419   0.287  12.956  0.1624  0.0773 -0.2231
  311MPD2    H7 4740   0.404   0.377  13.002  0.6293 -0.1938  0.4604
  312TMC3    C1 4741   4.484   0.131  13.039  0.9998 -0.1793  0.2523
  312TMC3    C2 4742   4.395   0.143  12.939  0.7185  0.5465  0.6769
  312TMC3    C3 4743   4.312   0.250  12.930 -0.1865 -0.1337 -0.2051
  312TMC3    C4 4744   4.494   0.229  13.133 -0.1126 -0.5300 -0.4009
  312TMC3    C5 4745   4.418   0.347  13.116 -0.4711  0.0109  0.0239
  312TMC3    C6 4746   4.331   0.361  13.011  0.1054 -0.8838 -0.1797
  312TMC3     C 4747   4.600   0.063  13.007  0.2636  0.0588  0.3481
  312TMC3     O 4748   4.597   4.687  12.958 -0.1827  0.1204  0.5572
  312TMC3     H 4749   4.387   0.064  12.865  3.0250  0.1510  0.8451
  312TMC3    H1 4750   4.570   0.226  13.210 -0.3248  1.9764 -0.0862
  312TMC3    H2 4751   4.285   0.458  12.997  0.2239 -1.1127 -2.1252
  312TMC3    C7 4752   4.471   0.464  13.180  0.1595 -0.5372 -0.6874
  312TMC3    C8 4753   4.223   0.263  12.819  0.8665 -0.3686  0.0838
  312TMC3    O1 4754   4.486   0.560  13.102  0.2098  0.4880 -0.1082
  312TMC3    O2 4755   4.221   0.167  12.743 -0.1213 -0.7362  0.2023
  313MPD2     C 4756   3.501   4.438  11.658 -0.0745 -0.0138 -0.3362
  313MPD2    C1 4757   3.572   4.502  11.559 -1.1182 -1.0501  0.3062
  313MPD2    C2 4758   3.622   4.439  11.445 -0.1702 -0.5782  0.3450
  313MPD2    C3 4759   3.590   4.306  11.422  0.3435 -1.0096 -0.2403
  313MPD2    C4 4760   3.517   4.237  11.515  0.6265  0.7820  0.2077
  313MPD2    C5 4761   3.483   4.299  11.633  0.0455  0.8217  0.7473
  313MPD2     H 4762   3.694   4.483  11.377  1.7850 -0.3287  2.5417
  313MPD2    H1 4763   3.482   4.135  11.497  0.3806  1.3046 -2.3318
  313MPD2    H2 4764   3.463   4.483  11.749 -1.3308  0.6115 -1.1762
  313MPD2    H3 4765   3.421   4.242  11.701  0.3778 -0.2303  0.1717
  313MPD2     N 4766   3.638   4.232  11.309  0.2980  0.0772  0.3147
  313MPD2    H5 4767   3.615   4.133  11.307 -1.4110  0.4681  0.7449
  313MPD2    N1 4768   3.607   4.640  11.568  0.1613  0.1490  0.5962
  313MPD2    H7 4769   3.664   4.673  11.491  0.1667  2.4430  1.5792
  314TMC3    C1 4770   3.595   0.134  11.609  0.3005  0.2393  0.4857
  314TMC3    C2 4771   3.728   0.143  11.580 -0.2700 -0.2910 -0.3591
  314TMC3    C3 4772   3.766   0.263  11.517 -0.2778  0.0460  0.3452
  314TMC3    C4 4773   3.496   0.224  11.575 -0.0883 -0.2208  0.3490
  314TMC3    C5 4774   3.540   0.330  11.507 -0.9580  0.1208  1.1252
  314TMC3    C6 4775   3.671   0.359  11.491  0.2357 -0.1838 -0.2199
  314TMC3     C 4776   3.547   0.001  11.642 -0.1713  0.3695  0.1315
  314TMC3     O 4777   3.442   4.736  11.708  0.5177 -0.3854 -0.2397
  314TMC3     H 4778   3.802   0.077  11.623  0.9097  1.9986  1.1680
  314TMC3    H1 4779   3.392   0.198  11.591  0.1872 -0.9709  0.9080
  314TMC3    H2 4780   3.700   0.460  11.463  2.0499 -0.5617  0.3040
  314TMC3    C7 4781   3.456   0.352  11.392  0.2028  0.0574 -0.0008
  314TMC3    C8 4782   3.903   0.304  11.485 -0.5078  0.3283 -0.3293
  314TMC3    O1 4783   3.340   0.376  11.406 -0.5969 -0.1017 -0.3207
  314TMC3    O2 4784   3.920   0.426  11.481  0.0216  0.0838 -0.3360
  315MPD2     C 4785   4.203   3.221  17.421 -0.4992  0.0702 -0.2112
  315MPD2    C1 4786   4.268   3.198  17.538  0.5828  0.1317  0.2874
  315MPD2    C2 4787   4.319   3.301  17.609  0.1849  0.2537 -0.0441
  315MPD2    C3 4788   4.314   3.431  17.568 -0.4374  0.0525  0.3895
  315MPD2    C4 4789   4.246   3.461  17.455  0.0990 -0.0936 -0.6187
  315MPD2    C5 4790   4.191   3.356  17.381 -0.4932 -0.9199  0.1554
  315MPD2     H 4791   4.363   3.278  17.705 -1.8874  2.3891  1.4038
  315MPD2    H1 4792   4.224   3.564  17.430  0.1895  0.0705 -0.0242
  315MPD2    H2 4793   4.151   3.141  17.370 -0.7441  0.6767 -0.9151
  315MPD2    H3 4794   4.139   3.370  17.287  0.7104  1.2480 -0.1736
  315MPD2     N 4795   4.375   3.531  17.652 -0.0262  0.4294  0.1107
  315MPD2    H5 4796   4.414   3.510  17.744  0.0906  1.4288  0.2873
  315MPD2    N1 4797   4.288   3.068  17.598 -0.4039 -0.0510 -0.0686
  315MPD2    H7 4798   4.346   3.070  17.682  0.7407  0.6390 -0.8835
  316TMC3    C1 4799   4.371   3.734   0.008 -0.0254  0.2294 -0.2338
  316TMC3    C2 4800   4.471   3.701   0.092  0.5537 -0.1873 -0.3974
  316TMC3    C3 4801   4.481   3.769   0.212  0.3091 -0.8432  0.1920
  316TMC3    C4 4802   4.294   3.841   0.028 -0.3170 -0.5035  0.8681
  316TMC3    C5 4803   4.301   3.906   0.151 -0.0064 -0.2990  0.5991
  316TMC3    C6 4804   4.394   3.867   0.248 -0.8905 -0.7141  0.3669
  316TMC3     C 4805   4.352   3.664  17.632  0.2039  0.4486  0.2502
  316TMC3     O 4806   4.326   3.728  17.533  0.3930  0.1973  0.1616
  316TMC3     H 4807   4.556   3.639   0.065 -0.1102 -2.0139  1.6464
  316TMC3    H1 4808   4.222   3.867  17.695  0.6572 -0.7012 -0.1225
  316TMC3    H2 4809   4.416   3.926   0.336 -0.4400 -0.4156  0.0582
  316TMC3    C7 4810   4.242   4.039   0.174 -0.0013  0.2905  0.7054
  316TMC3    C8 4811   4.594   3.741   0.295 -0.0546 -0.2740 -0.1283
  316TMC3    O1 4812   4.229   4.072   0.291 -0.0078 -0.6068 -0.5381
  316TMC3    O2 4813   4.643   3.836   0.348 -0.0879 -0.3295 -0.0735
  317MPD2     C 4814   1.746   1.908  13.281  0.0599 -0.1835 -0.1833
  317MPD2    C1 4815   1.701   1.781  13.264 -0.4536  0.1464 -0.1562
  317MPD2    C2 4816   1.758   1.673  13.326 -0.4258  0.5602  0.4501
  317MPD2    C3 4817   1.865   1.686  13.407 -0.7111  0.3997 -0.5141
  317MPD2    C4 4818   1.919   1.811  13.414  0.0440  0.2174  0.7634
  317MPD2    C5 4819   1.865   1.916  13.353  0.6189 -0.4945 -0.2497
  317MPD2     H 4820   1.711   1.575  13.315  1.6978 -0.5736  1.5716
  317MPD2    H1 4821   2.004   1.832  13.477 -0.6137  1.4106  1.2595
  317MPD2    H2 4822   1.693   1.999  13.256 -0.6729 -0.6406 -0.2811
  317MPD2    H3 4823   1.916   2.011  13.366 -0.3454  0.0103 -0.1825
  317MPD2     N 4824   1.918   1.581  13.485  0.3267 -0.3030  0.2313
  317MPD2    H5 4825   1.884   1.485  13.481 -1.1785  0.2886 -1.1276
  317MPD2    N1 4826   1.579   1.755  13.201  0.3965  0.3165  0.8150
  317MPD2    H7 4827   1.560   1.657  13.183 -2.8708  1.2460 -0.7732
  318TMC3    C1 4828   2.022   1.462  13.662  0.0355  1.0133  0.1371
  318TMC3    C2 4829   1.920   1.381  13.679  0.2147 -0.5535  0.3861
  318TMC3    C3 4830   1.914   1.304  13.793  0.3638 -0.2921  0.0838
  318TMC3    C4 4831   2.125   1.462  13.749  0.2524  0.4357 -0.3114
  318TMC3    C5 4832   2.129   1.373  13.851  0.4057 -0.7949  0.1884
  318TMC3    C6 4833   2.019   1.291  13.884 -0.2623 -0.8408 -0.9127
  318TMC3     C 4834   2.013   1.589  13.581  0.4460 -0.3662  0.2831
  318TMC3     O 4835   2.103   1.670  13.600 -0.9309  0.3936  0.5441
  318TMC3     H 4836   1.830   1.418  13.631  0.1515 -1.1972 -0.0025
  318TMC3    H1 4837   2.217   1.517  13.734 -0.4749  1.4809 -0.9249
  318TMC3    H2 4838   2.022   1.222  13.968 -0.9351  0.5767  0.2646
  318TMC3    C7 4839   2.210   1.409  13.968  0.7061  0.3911  0.0705
  318TMC3    C8 4840   1.792   1.230  13.836  0.6775 -0.5190 -0.0242
  318TMC3    O1 4841   2.244   1.526  13.980 -0.3191 -0.0563  0.2649
  318TMC3    O2 4842   1.808   1.160  13.934  0.0942  0.4883  0.2014
  319MPD2     C 4843   2.726   3.127  16.564  0.4212 -0.1787 -0.1423
  319MPD2    C1 4844   2.623   3.112  16.652 -0.2420  0.9059 -0.2509
  319MPD2    C2 4845   2.494   3.127  16.604  0.2433  0.4319  0.0334
  319MPD2    C3 4846   2.463   3.143  16.471 -0.3230 -0.0543  0.0442
  319MPD2    C4 4847   2.570   3.164  16.390  0.0087 -0.3306 -0.3504
  319MPD2    C5 4848   2.698   3.148  16.433  0.2512 -0.1085  0.2264
  319MPD2     H 4849   2.417   3.119  16.680 -0.0233 -0.4839 -0.3305
  319MPD2    H1 4850   2.553   3.176  16.283  2.5225 -1.5774 -0.8780
  319MPD2    H2 4851   2.830   3.130  16.595  0.6987 -1.7063 -0.9511
  319MPD2    H3 4852   2.786   3.156  16.370  0.2689 -2.0877  0.0240
  319MPD2     N 4853   2.339   3.141  16.406 -0.3736 -0.8462 -0.1131
  319MPD2    H5 4854   2.351   3.154  16.307 -2.6588  0.9916 -0.1615
  319MPD2    N1 4855   2.645   3.076  16.790 -0.7570  0.3223 -0.1949
  319MPD2    H7 4856   2.567   3.083  16.854  0.5953  0.0197  1.4752
  320TMC3    C1 4857   2.100   3.105  16.377 -0.2720  0.0642  0.7003
  320TMC3    C2 4858   2.090   3.169  16.255 -0.0669 -0.0276  0.2680
  320TMC3    C3 4859   1.993   3.125  16.165 -0.4040 -0.1512 -0.3610
  320TMC3    C4 4860   2.017   3.008  16.421  0.9648  0.0462 -0.6003
  320TMC3    C5 4861   1.917   2.973  16.331  0.5523 -1.0303 -0.2354
  320TMC3    C6 4862   1.900   3.025  16.200 -0.2954 -0.2786 -0.0956
  320TMC3     C 4863   2.219   3.112  16.461  0.5829  0.3331 -1.2997
  320TMC3     O 4864   2.194   3.094  16.580  0.3838  0.3195 -0.9009
  320TMC3     H 4865   2.160   3.243  16.218 -0.3747 -0.2658 -0.8010
  320TMC3    H1 4866   2.020   2.963  16.520  3.2622 -0.7437 -1.0422
  320TMC3    H2 4867   1.811   2.999  16.145  0.5232 -1.8117 -0.6912
  320TMC3    C7 4868   1.809   2.901  16.392  0.6514 -0.0243 -0.3829
  320TMC3    C8 4869   1.946   3.226  16.076 -0.5415  0.0003 -0.1782
  320TMC3    O1 4870   1.840   2.814  16.474 -0.9655 -0.3510 -0.5295
  320TMC3    O2 4871   1.964   3.348  16.097 -0.1538 -0.4319 -0.2599
  321TMC3    C1 4872   2.746   2.946  16.970  0.0398 -0.3460 -0.7423
  321TMC3    C2 4873   2.793   2.822  16.998  0.2457 -0.3579  0.4914
  321TMC3    C3 4874   2.744   2.755  17.105 -0.1498  0.4281  0.8688
  321TMC3    C4 4875   2.671   3.012  17.063  0.0030  0.0240 -0.5227
  321TMC3    C5 4876   2.635   2.948  17.177  0.5878 -0.2953 -0.0593
  321TMC3    C6 4877   2.656   2.812  17.187 -0.2646  0.7575 -0.3773
  321TMC3     C 4878   2.754   3.000  16.835  0.1125  0.3565 -0.8374
  321TMC3     O 4879   2.845   2.959  16.765  0.0786 -0.8709 -0.0386
  321TMC3     H 4880   2.867   2.778  16.933 -1.9166 -2.1183 -0.7599
  321TMC3    H1 4881   2.648   3.118  17.054  1.1613  0.3364  0.1657
  321TMC3    H2 4882   2.632   2.763  17.281 -0.4481 -2.4072 -2.0635
  321TMC3    C7 4883   2.632   3.023  17.304  0.4277 -0.5272  0.2075
  321TMC3    C8 4884   2.828   2.668  17.177 -0.1076 -0.0934 -0.7296
  321TMC3    O1 4885   2.562   2.973  17.390 -0.3174 -0.4661  0.4095
  321TMC3    O2 4886   2.939   2.706  17.206  0.4127 -0.3577  0.5772
  322MPD2     C 4887   1.389   4.512  13.386 -0.2813 -0.0273 -0.0683
  322MPD2    C1 4888   1.374   4.455  13.509  0.3018 -0.1105  0.1503
  322MPD2    C2 4889   1.323   4.330  13.514  0.4153 -0.3568  0.2460
  322MPD2    C3 4890   1.303   4.251  13.406 -0.8138 -0.2608  0.3466
  322MPD2    C4 4891   1.307   4.310  13.280  0.2347  0.3386 -0.3754
  322MPD2    C5 4892   1.344   4.441  13.273 -0.0076  0.6997 -0.0648
  322MPD2     H 4893   1.307   4.286  13.612  0.4655 -0.7344  0.0862
  322MPD2    H1 4894   1.274   4.273  13.183  2.1596  0.6672 -1.1630
  322MPD2    H2 4895   1.434   4.608  13.363 -0.6435  0.3179  0.6467
  322MPD2    H3 4896   1.349   4.497  13.181  1.1867 -0.1814 -0.5351
  322MPD2     N 4897   1.271   4.114  13.424  0.2327  0.2079  0.6683
  322MPD2    H5 4898   1.240   4.080  13.514 -0.0857 -2.3466 -0.3900
  322MPD2    N1 4899   1.405   4.535  13.619  0.2579 -0.0186  0.3254
  322MPD2    H7 4900   1.469   4.613  13.603  2.3984 -1.7909  0.2759
  323TMC3    C1 4901   1.452   4.551  13.846  0.1395 -0.1461  0.0558
  323TMC3    C2 4902   1.577   4.585  13.807 -0.6062 -0.9475  0.6471
  323TMC3    C3 4903   1.668   4.595  13.906  0.5584 -0.3296 -0.5925
  323TMC3    C4 4904   1.413   4.517  13.972 -0.2218 -0.1577  0.4570
  323TMC3    C5 4905   1.506   4.518  14.068 -0.7906 -0.1695  0.3605
  323TMC3    C6 4906   1.637   4.554  14.032 -0.1623 -0.1533  0.4861
  323TMC3     C 4907   1.358   4.508  13.743 -0.6606  0.6463  1.0537
  323TMC3     O 4908   1.260   4.440  13.764 -0.1071  0.2248  0.8452
  323TMC3     H 4909   1.602   4.633  13.714  1.0526 -1.4524  0.8343
  323TMC3    H1 4910   1.309   4.495  13.992 -0.2235 -1.1982 -0.7001
  323TMC3    H2 4911   1.714   4.558  14.108 -0.9886  1.5360  1.2338
  323TMC3    C7 4912   1.490   4.418  14.171  0.2130 -0.1147  0.2283
  323TMC3    C8 4913   1.811   4.620  13.882 -0.4963  0.7651  0.5577
  323TMC3    O1 4914   1.405   4.333  14.132 -0.1531 -0.0500 -0.0790
  323TMC3    O2 4915   1.885   4.624  13.979  0.2965 -0.3789 -0.2324
  324MPD2     C 4916   2.984   0.165  14.741  0.1395  0.2828  0.1918
  324MPD2    C1 4917   2.955   0.275  14.665 -0.7140 -0.9557 -0.4778
  324MPD2    C2 4918   2.825   0.322  14.656 -0.6083 -0.4726 -0.1243
  324MPD2    C3 4919   2.724   0.270  14.742 -0.6071  0.2760  0.1854
  324MPD2    C4 4920   2.755   0.149  14.801  0.0110 -0.1933  0.9551
  324MPD2    C5 4921   2.884   0.097  14.801 -0.1799 -0.4306 -0.0682
  324MPD2     H 4922   2.806   0.405  14.589 -1.2661  0.5849  1.3703
  324MPD2    H1 4923   2.673   0.102  14.855 -0.7823  0.4039  0.2745
  324MPD2    H2 4924   3.085   0.125  14.751 -0.1319 -0.9060 -1.9214
  324MPD2    H3 4925   2.911   0.002  14.846 -0.7161  0.2096  1.6041
  324MPD2     N 4926   2.587   0.322  14.750 -0.2319 -0.2234  0.3028
  324MPD2    H5 4927   2.514   0.258  14.780 -0.3895  0.1770  0.7915
  324MPD2    N1 4928   3.061   0.347  14.601 -0.1306  0.0698 -0.1031
  324MPD2    H7 4929   3.033   0.413  14.528 -3.2478 -2.1906 -0.9447
  325TMC3    C1 4930   2.422   0.483  14.710  0.5616 -0.6111 -0.5310
  325TMC3    C2 4931   2.326   0.392  14.678 -0.3741  0.3299 -0.3403
  325TMC3    C3 4932   2.191   0.428  14.690 -0.1202 -0.9618  0.5579
  325TMC3    C4 4933   2.390   0.606  14.755 -0.2180  0.5299 -0.5956
  325TMC3    C5 4934   2.254   0.642  14.757 -0.2483  0.3101  0.8782
  325TMC3    C6 4935   2.151   0.556  14.724  0.0154 -0.3916  0.5236
  325TMC3     C 4936   2.557   0.453  14.721 -0.1930  0.7940 -0.3157
  325TMC3     O 4937   2.629   0.541  14.688 -0.3824 -0.2916  0.3340
  325TMC3     H 4938   2.350   0.288  14.657 -3.0889 -0.5980  1.1209
  325TMC3    H1 4939   2.465   0.683  14.772  0.2167 -0.0435  0.0684
  325TMC3    H2 4940   2.053   0.600  14.713 -0.2703 -1.1622  0.0227
  325TMC3    C7 4941   2.216   0.783  14.785 -0.1845 -0.6188 -0.4885
  325TMC3    C8 4942   2.106   0.347  14.603 -0.1297 -0.4644 -0.3528
  325TMC3    O1 4943   2.281   0.829  14.875  0.2355  0.7619 -0.4911
  325TMC3    O2 4944   2.153   0.257  14.538  0.1197  0.9301 -0.8441
  326MPD2     C 4945   3.670   2.185  11.343  0.1888 -0.2457  0.3097
  326MPD2    C1 4946   3.760   2.149  11.251  0.9821 -1.2022  0.5490
  326MPD2    C2 4947   3.885   2.214  11.258  0.3075 -0.1386  0.4479
  326MPD2    C3 4948   3.915   2.315  11.353  0.2316 -0.4213 -0.4559
  326MPD2    C4 4949   3.817   2.344  11.437 -0.0443 -0.2089 -0.2764
  326MPD2    C5 4950   3.694   2.282  11.435  0.3034 -0.1827 -0.1259
  326MPD2     H 4951   3.967   2.182  11.194  2.2131  1.0162  2.3060
  326MPD2    H1 4952   3.832   2.412  11.520 -1.4629 -1.0321  0.6558
  326MPD2    H2 4953   3.572   2.139  11.345 -0.6162  1.4724  0.6276
  326MPD2    H3 4954   3.618   2.311  11.507  1.2423  0.2908  0.6978
  326MPD2     N 4955   4.040   2.394  11.349  0.4311  0.3537  0.0122
  326MPD2    H5 4956   4.054   2.450  11.432  1.9890  1.9031 -1.3098
  326MPD2    N1 4957   3.742   2.051  11.150  0.0116  0.0270  0.2814
  326MPD2    H7 4958   3.820   2.026  11.091 -1.2371 -2.8880 -0.1760
  327TMC3    C1 4959   3.669   1.918  10.993  0.5953 -0.8791  0.2801
  327TMC3    C2 4960   3.600   1.948  10.883  0.0700  0.4583  0.1130
  327TMC3    C3 4961   3.662   1.934  10.757  0.5540 -0.3441  0.3842
  327TMC3    C4 4962   3.804   1.885  10.979  0.3678 -0.8087 -0.0877
  327TMC3    C5 4963   3.864   1.881  10.855  0.5635  0.0004 -0.1585
  327TMC3    C6 4964   3.794   1.903  10.740  0.1667 -0.3004  0.4049
  327TMC3     C 4965   3.630   1.996  11.100  0.0418 -0.0523  0.5734
  327TMC3     O 4966   3.512   2.013  11.124  0.1168  0.3977  0.6146
  327TMC3     H 4967   3.508   2.006  10.885 -0.4003 -0.3020  0.4362
  327TMC3    H1 4968   3.851   1.858  11.073 -1.3871  0.5478  1.1859
  327TMC3    H2 4969   3.840   1.884  10.644  2.5681  0.9853  1.3027
  327TMC3    C7 4970   4.007   1.907  10.838  0.3712 -0.2110  0.3951
  327TMC3    C8 4971   3.593   1.999  10.649  0.3931 -0.3365  0.6735
  327TMC3    O1 4972   4.040   1.932  10.722  0.2854 -0.2491 -0.2523
  327TMC3    O2 4973   3.516   2.087  10.680 -0.3451 -0.0096 -0.8682
  328MPD2     C 4974   2.042   1.580  16.989 -0.5964 -0.1506 -0.3297
  328MPD2    C1 4975   1.927   1.519  16.946  0.1783 -0.6961  0.9446
  328MPD2    C2 4976   1.807   1.578  16.975 -0.6776 -0.2877  0.1059
  328MPD2    C3 4977   1.805   1.700  17.042  0.0335 -0.6664  0.3157
  328MPD2    C4 4978   1.915   1.753  17.100  0.9672 -0.3477  0.0314
  328MPD2    C5 4979   2.032   1.696  17.064  0.1258 -0.9107 -0.3981
  328MPD2     H 4980   1.716   1.531  16.938 -1.2733  1.1346 -0.2645
  328MPD2    H1 4981   1.917   1.845  17.157  0.4705 -0.0613 -0.4186
  328MPD2    H2 4982   2.142   1.545  16.967 -0.9631 -1.3374 -0.1511
  328MPD2    H3 4983   2.118   1.748  17.104 -1.8485  0.6370  1.7937
  328MPD2     N 4984   1.684   1.769  17.063 -0.6628  0.4160  0.1084
  328MPD2    H5 4985   1.703   1.860  17.104 -0.9881  0.2814  0.5452
  328MPD2    N1 4986   1.924   1.405  16.867  0.6689  0.0999 -0.2297
  328MPD2    H7 4987   1.833   1.386  16.826 -0.0856  0.6175  1.1911
  329TMC3    C1 4988   1.980   1.233  16.728 -0.5720 -0.4361  0.2391
  329TMC3    C2 4989   1.866   1.157  16.767 -0.0425  0.4857  0.0576
  329TMC3    C3 4990   1.847   1.038  16.702  0.6595  0.2819 -0.5087
  329TMC3    C4 4991   2.074   1.186  16.638  0.6472  0.4941 -0.4072
  329TMC3    C5 4992   2.039   1.078  16.565  0.0766  0.0299 -0.4415
  329TMC3    C6 4993   1.933   0.999  16.602 -0.5109  0.3565 -0.1193
  329TMC3     C 4994   2.034   1.324  16.825 -0.0186  0.5242 -0.6462
  329TMC3     O 4995   2.155   1.332  16.842  0.6097 -0.4152  0.0698
  329TMC3     H 4996   1.797   1.198  16.839 -1.2034  0.1913 -0.8891
  329TMC3    H1 4997   2.154   1.255  16.616  0.3382 -0.1419 -3.5933
  329TMC3    H2 4998   1.904   0.922  16.533 -0.9427  0.6615 -0.2786
  329TMC3    C7 4999   2.118   1.035  16.452 -0.0413 -0.1821  0.6863
  329TMC3    C8 5000   1.747   0.941  16.748 -0.2669  0.8168  0.6127
  329TMC3    O1 5001   2.180   1.129  16.402  0.2986  0.3690  0.1928
  329TMC3    O2 5002   1.758   0.820  16.715 -0.1755  0.3223 -0.5510
  330TMC3    C1 5003   4.603   1.530   9.838 -0.3886  0.6128 -0.0409
  330TMC3    C2 5004   4.482   1.486   9.801  0.3160  0.5683  0.6850
  330TMC3    C3 5005   4.408   1.400   9.875  0.5934  0.8265  0.5859
  330TMC3    C4 5006   4.656   1.494   9.951 -0.6573 -0.0506 -0.0963
  330TMC3    C5 5007   4.576   1.411  10.036  0.3623 -0.7989 -0.0997
  330TMC3    C6 5008   4.454   1.365  10.000  0.2430  0.1676  0.1732
  330TMC3     C 5009   4.686   1.610   9.752  0.2169  0.2530  0.3732
  330TMC3     O 5010   0.064   1.614   9.790  0.5305 -0.1793  0.3312
  330TMC3     H 5011   4.454   1.496   9.697  1.5965 -1.3976  0.1529
  330TMC3    H1 5012   0.013   1.530   9.994 -1.5019  0.4941  1.2849
  330TMC3    H2 5013   4.391   1.311  10.069  1.8316 -0.8404  0.8206
  330TMC3    C7 5014   4.625   1.398  10.172 -0.0443  0.0631 -0.0703
  330TMC3    C8 5015   4.291   1.335   9.814  0.3922 -0.2135 -0.1146
  330TMC3    O1 5016   4.721   1.470  10.204  0.0387 -0.0407 -0.7024
  330TMC3    O2 5017   4.238   1.376   9.709  0.0789  0.4915 -0.3940
  331MPD2     C 5018   2.512   4.621  13.363 -0.3724  0.5035 -0.0467
  331MPD2    C1 5019   2.636   4.668  13.331  0.2102 -0.0992  0.3855
  331MPD2    C2 5020   2.698   4.607  13.225 -0.6368  0.1589 -0.1698
  331MPD2    C3 5021   2.636   4.505  13.147  0.3279 -0.5775 -0.8227
  331MPD2    C4 5022   2.514   4.464  13.186  0.0238 -0.5036 -0.2741
  331MPD2    C5 5023   2.452   4.522  13.294 -0.0964  0.4685 -0.3500
  331MPD2     H 5024   2.797   4.648  13.205  0.6235 -2.5164  0.6401
  331MPD2    H1 5025   2.457   4.388  13.134 -0.7465  1.1609 -1.8598
  331MPD2    H2 5026   2.462   4.658  13.452  0.0657  1.7787 -0.3290
  331MPD2    H3 5027   2.356   4.479  13.320  1.6140 -3.7239 -0.9567
  331MPD2     N 5028   2.693   4.467  13.025  0.4632  0.2092 -0.5039
  331MPD2    H5 5029   2.774   4.519  12.995  0.2841  0.7239 -0.0966
  331MPD2    N1 5030   2.688   0.048  13.401 -0.0701 -0.2711 -0.2591
  331MPD2    H7 5031   2.617   0.096  13.455 -0.3059 -1.6632  0.6730
  332TMC3    C1 5032   2.728   4.394  12.807 -0.1987 -0.1071 -0.3006
  332TMC3    C2 5033   2.675   4.473  12.706 -0.3055  0.2499  0.0260
  332TMC3    C3 5034   2.766   4.519  12.619 -0.7740 -0.9465  0.2254
  332TMC3    C4 5035   2.863   4.375  12.837  0.1897 -0.3665 -0.0342
  332TMC3    C5 5036   2.945   4.423  12.738  0.4814  0.5133  0.4812
  332TMC3    C6 5037   2.899   4.490  12.631  0.2060 -0.8115  0.0858
  332TMC3     C 5038   2.641   4.388  12.923 -0.4519  0.6634  0.0106
  332TMC3     O 5039   2.528   4.343  12.910 -0.1013 -0.3307  0.1845
  332TMC3     H 5040   2.569   4.496  12.706  0.0098  1.6521  0.3747
  332TMC3    H1 5041   2.911   4.322  12.919  3.8129  1.8461 -0.7305
  332TMC3    H2 5042   2.962   4.508  12.544  0.2599 -2.2494 -0.1600
  332TMC3    C7 5043   3.087   4.443  12.774 -0.1281 -0.3825 -0.7214
  332TMC3    C8 5044   2.739   4.640  12.552 -0.1325  0.2092  0.8715
  332TMC3    O1 5045   3.125   4.424  12.892 -0.2752  1.4181  0.0868
  332TMC3    O2 5046   2.836   4.715  12.536  0.2072 -0.2391 -0.5669
  333MPD2     C 5047   2.728   1.198  10.976  0.8045  0.1904  0.3978
  333MPD2    C1 5048   2.697   1.109  10.875 -0.1085 -0.1951 -0.3137
  333MPD2    C2 5049   2.664   0.975  10.907  0.2173 -0.0149 -0.0646
  333MPD2    C3 5050   2.673   0.926  11.034 -0.7742  0.4337  0.1466
  333MPD2    C4 5051   2.730   1.009  11.132  1.0510 -0.4302  0.5512
  333MPD2    C5 5052   2.754   1.139  11.098  0.2623  0.0542  0.0305
  333MPD2     H 5053   2.642   0.901  10.831  1.6029 -1.5452  1.0503
  333MPD2    H1 5054   2.753   0.981  11.234  0.2144 -0.8995  0.6110
  333MPD2    H2 5055   2.744   1.305  10.968  1.1558  0.3832  3.4857
  333MPD2    H3 5056   2.798   1.201  11.175 -0.3532 -1.1514  1.3289
  333MPD2     N 5057   2.649   0.789  11.051 -0.8395 -0.5336 -0.2523
  333MPD2    H5 5058   2.614   0.738  10.970 -1.0556  2.8812 -2.2955
  333MPD2    N1 5059   2.706   1.157  10.739  0.6044  0.2082 -0.3235
  333MPD2    H7 5060   2.750   1.247  10.722 -0.2031  0.5306 -0.7351
  334TMC3    C1 5061   2.708   1.110  10.503 -0.3960  0.4369  0.5979
  334TMC3    C2 5062   2.737   0.996  10.436 -0.0312 -0.1857 -0.7794
  334TMC3    C3 5063   2.859   0.989  10.376 -0.5779  0.2713  0.4131
  334TMC3    C4 5064   2.792   1.222  10.493  0.2899 -0.9350  0.0061
  334TMC3    C5 5065   2.901   1.212  10.414  0.5482 -0.6916 -0.0823
  334TMC3    C6 5066   2.938   1.100  10.351 -0.0284 -0.4421  0.5168
  334TMC3     C 5067   2.645   1.087  10.635  0.6758 -0.0242  0.4592
  334TMC3     O 5068   2.574   0.989  10.645  0.0952  0.8991  0.2867
  334TMC3     H 5069   2.691   0.907  10.477 -0.5682  0.0149 -0.9593
  334TMC3    H1 5070   2.766   1.314  10.544 -0.1751 -1.4551  0.7106
  334TMC3    H2 5071   3.026   1.092  10.288  1.1368 -1.1341  2.2277
  334TMC3    C7 5072   2.996   1.321  10.438 -0.4469  0.7056  0.1098
  334TMC3    C8 5073   2.935   0.872  10.409  0.5273 -0.5194 -0.1965
  334TMC3    O1 5074   2.976   1.389  10.539 -0.5701  0.3950  0.4205
  334TMC3    O2 5075   2.875   0.773  10.447 -0.2172  0.0152  0.0013
  335TMC3    C1 5076   2.451   1.376   0.256 -0.5651  0.6634  0.3508
  335TMC3    C2 5077   2.357   1.394   0.156  0.2920 -0.4665 -0.2991
  335TMC3    C3 5078   2.353   1.505   0.086  0.0712 -0.6673  0.4144
  335TMC3    C4 5079   2.544   1.471   0.289 -0.0672  0.1684 -0.0483
  335TMC3    C5 5080   2.537   1.584   0.208 -0.4301  0.2841  0.2076
  335TMC3    C6 5081   2.442   1.606   0.115 -0.5361  0.2489  0.1472
  335TMC3     C 5082   2.419   1.268   0.353 -0.6592 -0.1918 -0.9157
  335TMC3     O 5083   2.347   1.184   0.301  0.1217 -0.3304 -0.1399
  335TMC3     H 5084   2.279   1.320   0.137 -1.5653  0.9186  1.8864
  335TMC3    H1 5085   2.628   1.446   0.352  0.5552 -2.5332 -1.9413
  335TMC3    H2 5086   2.435   1.696   0.054 -0.0708 -0.8888 -1.5987
  335TMC3    C7 5087   2.643   1.679   0.208 -0.4410  0.5874  0.0351
  335TMC3    C8 5088   2.297   1.512  17.694 -0.6687 -0.3018 -0.2711
  335TMC3    O1 5089   2.641   1.772   0.131  0.0039 -0.0642 -0.4347
  335TMC3    O2 5090   2.330   1.602  17.616  0.3217 -0.1400  0.5271
  336MPD2     C 5091   2.018   4.329  16.378  0.1422 -0.3629 -1.0050
  336MPD2    C1 5092   2.029   4.277  16.244 -0.4448  0.4394 -0.3398
  336MPD2    C2 5093   2.089   4.154  16.231  0.7650  0.4552 -0.0366
  336MPD2    C3 5094   2.158   4.096  16.335  0.0768 -0.1170 -0.5846
  336MPD2    C4 5095   2.146   4.146  16.464 -0.6918  0.0449 -0.8303
  336MPD2    C5 5096   2.077   4.259  16.476 -0.2467 -0.6885 -0.1335
  336MPD2     H 5097   2.099   4.109  16.133  0.8945 -0.2861  0.3220
  336MPD2    H1 5098   2.193   4.102  16.551 -1.2485  0.4975 -0.2986
  336MPD2    H2 5099   1.956   4.414  16.403 -0.5677 -1.3346  0.5359
  336MPD2    H3 5100   2.070   4.298  16.577  0.9450 -3.0078  0.8644
  336MPD2     N 5101   2.226   3.973  16.325 -0.3794  0.4198 -0.2067
  336MPD2    H5 5102   2.272   3.933  16.406 -1.7056 -3.6761 -1.5096
  336MPD2    N1 5103   1.966   4.338  16.132  0.5798 -0.3036 -0.3779
  336MPD2    H7 5104   1.949   4.284  16.048  0.5531  0.7339 -1.0386
  337TMC3    C1 5105   1.854   4.504  16.002  0.4632 -0.0658 -0.4637
  337TMC3    C2 5106   1.777   4.404  15.946 -0.2262 -0.4777  0.3145
  337TMC3    C3 5107   1.688   4.449  15.852  0.1371 -0.5000  0.8861
  337TMC3    C4 5108   1.845   4.637  15.971 -0.1058  0.2082 -0.8530
  337TMC3    C5 5109   1.754   4.675  15.879 -0.1044 -0.3834 -0.4946
  337TMC3    C6 5110   1.672   4.581  15.821  0.3332 -0.6213  0.2827
  337TMC3     C 5111   1.930   4.469  16.122  0.5660  0.0031 -0.6550
  337TMC3     O 5112   1.932   4.551  16.209 -0.6809  0.5709  0.8741
  337TMC3     H 5113   1.765   4.309  15.996  1.1821 -1.0016 -0.3506
  337TMC3    H1 5114   1.910   4.712  16.014  0.3461  0.2890 -1.6831
  337TMC3    H2 5115   1.604   4.619  15.745  0.1415 -1.8798 -0.1741
  337TMC3    C7 5116   1.779   0.045  15.791 -0.4930  0.3954 -0.8423
  337TMC3    C8 5117   1.591   4.351  15.799  0.5919 -0.6524 -0.8382
  337TMC3    O1 5118   1.756   0.030  15.670  0.1657 -0.0313 -0.4281
  337TMC3    O2 5119   1.609   4.234  15.825  0.3683 -1.0653 -0.8784
  338MPD2     C 5120   2.322   3.588   1.105 -0.4509 -0.7124  0.4008
  338MPD2    C1 5121   2.266   3.584   0.976  0.1842 -0.6534  0.6937
  338MPD2    C2 5122   2.135   3.557   0.973  0.7038 -0.9802  0.1709
  338MPD2    C3 5123   2.057   3.538   1.081  0.5272 -0.5735  0.2969
  338MPD2    C4 5124   2.121   3.535   1.202  0.0087 -0.1581  0.4463
  338MPD2    C5 5125   2.259   3.556   1.217 -0.0307 -0.1130  0.2099
  338MPD2     H 5126   2.086   3.550   0.876 -0.8826  1.3003  0.8177
  338MPD2    H1 5127   2.078   3.531   1.301  0.6875 -1.4975  0.6876
  338MPD2    H2 5128   2.429   3.600   1.120 -0.3058  1.1427 -2.0449
  338MPD2    H3 5129   2.306   3.545   1.314  3.2658 -1.4145 -1.5177
  338MPD2     N 5130   1.921   3.524   1.062 -1.2545 -0.3258 -0.0170
  338MPD2    H5 5131   1.888   3.522   0.966 -1.6039  0.7350  0.0861
  338MPD2    N1 5132   2.347   3.604   0.860  0.8898 -0.2604 -0.5171
  338MPD2    H7 5133   2.296   3.594   0.773  1.2695  2.1027 -1.0169
  339TMC3    C1 5134   1.694   3.482   1.122 -0.0906 -0.0407 -0.1229
  339TMC3    C2 5135   1.602   3.430   1.211 -0.5552 -0.3113  0.5440
  339TMC3    C3 5136   1.471   3.473   1.204 -0.8095 -0.4307  0.2343
  339TMC3    C4 5137   1.650   3.567   1.023 -0.6412  0.2708  0.1461
  339TMC3    C5 5138   1.515   3.584   1.015  0.2802 -0.5086  0.2275
  339TMC3    C6 5139   1.423   3.551   1.106  0.6299  0.3888 -0.1145
  339TMC3     C 5140   1.835   3.479   1.159 -0.3574  0.3977 -0.4171
  339TMC3     O 5141   1.862   3.434   1.272 -0.3867 -0.1116 -0.0065
  339TMC3     H 5142   1.639   3.379   1.299  0.6030 -1.7476 -0.7596
  339TMC3    H1 5143   1.725   3.604   0.954  1.5388  0.0564  2.3789
  339TMC3    H2 5144   1.316   3.563   1.088  0.5301  1.1467  0.9592
  339TMC3    C7 5145   1.475   3.651   0.894  0.0260  0.0959  0.3108
  339TMC3    C8 5146   1.373   3.408   1.295 -0.0760  1.0834 -0.9995
  339TMC3    O1 5147   1.529   3.758   0.863 -0.0319  0.1959 -0.1209
  339TMC3    O2 5148   1.284   3.477   1.336 -0.4984 -0.6129  0.4345
  340MPD2     C 5149   2.454   1.942  10.590  0.4079 -0.0903 -0.3550
  340MPD2    C1 5150   2.538   1.890  10.498  0.1166 -0.1566  0.0858
  340MPD2    C2 5151   2.676   1.873  10.532  0.2113 -0.3781 -0.1294
  340MPD2    C3 5152   2.729   1.913  10.651 -0.3457  0.1570  0.8113
  340MPD2    C4 5153   2.645   1.979  10.737  0.8925  0.0785 -0.0694
  340MPD2    C5 5154   2.509   1.981  10.713 -0.1876 -0.6699 -0.1246
  340MPD2     H 5155   2.731   1.816  10.458  2.2336  0.5007  0.6947
  340MPD2    H1 5156   2.679   2.017  10.833  2.0344  0.1201 -0.4884
  340MPD2    H2 5157   2.348   1.943  10.570  0.4804  0.4637 -0.7115
  340MPD2    H3 5158   2.450   2.037  10.784 -1.3145 -1.5544 -0.3663
  340MPD2     N 5159   2.868   1.914  10.682 -0.1510  0.1404 -0.1346
  340MPD2    H5 5160   2.886   1.971  10.764  0.1214  1.2111 -0.9330
  340MPD2    N1 5161   2.484   1.843  10.377 -0.0715  0.1173  0.3982
  340MPD2    H7 5162   2.384   1.839  10.365  0.0603  3.2111 -1.5610
  341TMC3    C1 5163   2.477   1.791  10.152 -0.4000  0.2312  0.2331
  341TMC3    C2 5164   2.418   1.665  10.141  0.4437  0.7975  0.4018
  341TMC3    C3 5165   2.392   1.618  10.017 -0.3932  0.7731  0.2692
  341TMC3    C4 5166   2.511   1.865  10.040 -0.4520  0.0469 -0.5387
  341TMC3    C5 5167   2.468   1.810   9.918  0.3106 -0.0392 -0.4388
  341TMC3    C6 5168   2.409   1.689   9.898 -0.8777  0.1353 -0.2587
  341TMC3     C 5169   2.558   1.813  10.265 -0.2644  0.4562 -0.2408
  341TMC3     O 5170   2.662   1.863  10.240  0.2370  0.3605 -0.1821
  341TMC3     H 5171   2.400   1.599  10.225 -1.0230  0.8497  0.1217
  341TMC3    H1 5172   2.552   1.963  10.059 -0.9039  0.0164  0.5683
  341TMC3    H2 5173   2.397   1.644   9.801 -3.6057  1.5544 -0.5871
  341TMC3    C7 5174   2.504   1.883   9.806 -0.2727 -0.3394  0.3455
  341TMC3    C8 5175   2.348   1.481  10.017 -0.5814 -0.1105 -0.3334
  341TMC3    O1 5176   2.517   1.819   9.705  0.0876 -0.1558  0.0802
  341TMC3    O2 5177   2.287   1.439  10.115  0.0642  0.3287 -0.0277
  342MPD2     C 5178   0.440   4.468  16.978 -0.3518  0.8791 -0.4097
  342MPD2    C1 5179   0.374   4.434  17.099 -0.5098  0.1292 -0.0720
  342MPD2    C2 5180   0.270   4.509  17.154 -0.1746 -0.5630 -0.2302
  342MPD2    C3 5181   0.235   4.627  17.087  0.0519  0.8556  0.0070
  342MPD2    C4 5182   0.292   4.656  16.963 -0.8160 -0.7290 -0.4637
  342MPD2    C5 5183   0.399   4.579  16.914  0.6326  0.1986 -0.3783
  342MPD2     H 5184   0.227   4.477  17.248  1.9908  2.6214  1.8721
  342MPD2    H1 5185   0.259   0.005  16.905 -1.3301 -1.4570 -1.2479
  342MPD2    H2 5186   0.521   4.417  16.927  0.1756  1.1099  0.1948
  342MPD2    H3 5187   0.435   4.594  16.813  0.6383  0.4810 -0.3332
  342MPD2     N 5188   0.139   4.718  17.132 -0.2597  0.3554  0.0182
  342MPD2    H5 5189   0.108   0.053  17.066  0.7202 -2.9852 -4.0533
  342MPD2    N1 5190   0.415   4.321  17.175 -0.5222  0.5808  0.3291
  342MPD2    H7 5191   0.348   4.297  17.247 -0.4644 -1.5971 -0.3582
  343TMC3    C1 5192   0.534   4.137  17.244 -0.7556 -0.1899  0.0263
  343TMC3    C2 5193   0.663   4.100  17.269  0.2633 -0.8152  0.3593
  343TMC3    C3 5194   0.684   4.032  17.378  0.5734 -0.2371  1.3393
  343TMC3    C4 5195   0.431   4.109  17.325 -0.5245  0.4303  0.3056
  343TMC3    C5 5196   0.451   4.025  17.430  0.0732  0.4352 -0.1646
  343TMC3    C6 5197   0.580   3.987  17.456 -0.2153  0.0820 -0.8488
  343TMC3     C 5198   0.533   4.256  17.162 -0.0345 -0.5569  0.1187
  343TMC3     O 5199   0.625   4.282  17.090  0.2013  0.2635 -0.5344
  343TMC3     H 5200   0.745   4.132  17.206 -0.4182 -1.2490 -0.7383
  343TMC3    H1 5201   0.328   4.126  17.296 -0.7834 -0.2884  0.8143
  343TMC3    H2 5202   0.615   3.953  17.553 -0.8737  2.1407  0.0994
  343TMC3    C7 5203   0.342   3.942  17.470 -0.2492  0.2044 -0.4295
  343TMC3    C8 5204   0.813   3.993  17.424  0.0452 -0.4154  0.7100
  343TMC3    O1 5205   0.260   3.909  17.388  0.0281  0.1367  0.5142
  343TMC3    O2 5206   0.827   3.990  17.545 -0.2038 -0.2162 -0.0824
  344MPD2     C 5207   1.482   4.315  10.770 -0.7452 -0.1594 -0.0410
  344MPD2    C1 5208   1.345   4.338  10.757  0.2643  0.7278  0.5769
  344MPD2    C2 5209   1.300   4.450  10.680  0.1087 -0.8006  1.0258
  344MPD2    C3 5210   1.391   4.536  10.624 -0.4877 -0.1770 -0.0186
  344MPD2    C4 5211   1.524   4.507  10.634  0.2946 -0.5172  0.6805
  344MPD2    C5 5212   1.562   4.398  10.706  0.0564 -0.7412  0.3490
  344MPD2     H 5213   1.192   4.464  10.678  0.5220  2.0934 -1.0086
  344MPD2    H1 5214   1.601   4.568  10.588  1.5680  0.4191  4.0517
  344MPD2    H2 5215   1.520   4.225  10.816 -1.7182 -1.1896 -1.2639
  344MPD2    H3 5216   1.667   4.372  10.705  0.1003 -0.5625  0.1362
  344MPD2     N 5217   1.356   4.632  10.531  0.5783  0.1706  0.6130
  344MPD2    H5 5218   1.441   4.668  10.488 -0.5431  1.0449 -0.8582
  344MPD2    N1 5219   1.249   4.256  10.815  0.1434  0.4110  0.4350
  344MPD2    H7 5220   1.149   4.274  10.804  0.1557  0.5312  0.5272
  345TMC3    C1 5221   1.237   0.071  10.431  0.3941 -0.2492 -0.6708
  345TMC3    C2 5222   1.351   0.120  10.377 -0.4320 -0.7557  0.0265
  345TMC3    C3 5223   1.359   0.247  10.319  0.0266  0.1831  0.3418
  345TMC3    C4 5224   1.113   0.137  10.414  0.4711 -0.6964  0.1238
  345TMC3    C5 5225   1.117   0.250  10.329  0.6482 -0.1091  0.4697
  345TMC3    C6 5226   1.234   0.305  10.291 -0.3878 -0.4974 -0.0803
  345TMC3     C 5227   1.231   4.682  10.504  0.1904  0.0557 -0.3260
  345TMC3     O 5228   1.123   4.648  10.549 -0.4352 -0.3889  0.2251
  345TMC3     H 5229   1.443   0.070  10.407 -0.0879 -2.4314 -3.8442
  345TMC3    H1 5230   1.029   0.087  10.460 -0.5621  0.9347 -0.0251
  345TMC3    H2 5231   1.234   0.402  10.244 -1.0279  0.0439  1.0192
  345TMC3    C7 5232   1.000   0.334  10.318 -0.1586 -0.0435 -0.6917
  345TMC3    C8 5233   1.489   0.306  10.295  0.7159 -0.5722 -0.1041
  345TMC3    O1 5234   1.010   0.434  10.249 -0.7693  0.3288 -0.2712
  345TMC3    O2 5235   1.586   0.236  10.314 -0.4126 -0.1072  0.3884
  346MPD2     C 5236   0.893   0.829  14.310  0.1282 -0.1972  0.0413
  346MPD2    C1 5237   0.994   0.762  14.375 -0.4000  0.6330 -0.7887
  346MPD2    C2 5238   1.106   0.827  14.425  0.5106 -0.3808 -0.0215
  346MPD2    C3 5239   1.123   0.965  14.406  1.0930  0.8911 -0.1848
  346MPD2    C4 5240   1.028   1.028  14.337  0.6461  0.1786  0.1032
  346MPD2    C5 5241   0.922   0.965  14.291  0.3395  0.3936 -0.3211
  346MPD2     H 5242   1.187   0.779  14.479 -0.0665  1.5930  2.5876
  346MPD2    H1 5243   1.038   1.128  14.297 -2.3427 -0.3745 -1.9958
  346MPD2    H2 5244   0.801   0.790  14.268 -1.1705  3.7443 -0.7767
  346MPD2    H3 5245   0.847   1.019  14.232 -1.6003  1.2244  2.8916
  346MPD2     N 5246   1.237   1.032  14.460  0.3048  0.0405 -0.3610
  346MPD2    H5 5247   1.315   0.976  14.492  0.9214  1.3015  0.3446
  346MPD2    N1 5248   0.984   0.624  14.406  0.2501  0.4398 -0.3772
  346MPD2    H7 5249   1.072   0.589  14.444  1.0914  2.0721 -0.8113
  347TMC3    C1 5250   1.371   1.216  14.537 -0.1741  0.2972 -0.9515
  347TMC3    C2 5251   1.486   1.151  14.506  0.3905  0.4387 -1.0882
  347TMC3    C3 5252   1.607   1.211  14.531  0.3158 -0.1428 -0.3053
  347TMC3    C4 5253   1.368   1.334  14.600 -0.7438 -0.0873 -0.6745
  347TMC3    C5 5254   1.487   1.384  14.643 -0.3641 -0.3032  0.6863
  347TMC3    C6 5255   1.602   1.331  14.598 -0.0885  0.4524  0.0750
  347TMC3     C 5256   1.245   1.172  14.480 -0.0175  0.2289  0.6540
  347TMC3     O 5257   1.159   1.260  14.475  0.3439 -0.3497  0.5774
  347TMC3     H 5258   1.478   1.062  14.446 -0.9456  0.6824 -1.2936
  347TMC3    H1 5259   1.279   1.395  14.607  0.0298  1.2001 -1.8656
  347TMC3    H2 5260   1.692   1.372  14.644 -0.0514  0.7855 -0.2948
  347TMC3    C7 5261   1.492   1.532  14.659  0.0797 -0.0962  0.5756
  347TMC3    C8 5262   1.723   1.124  14.530  0.0394 -0.0810 -0.1821
  347TMC3    O1 5263   1.409   1.583  14.732 -0.2370 -0.0931 -0.8084
  347TMC3    O2 5264   1.695   1.003  14.549 -0.1721  0.5718 -0.2258
  348MPD2     C 5265   0.111   1.134  12.566  0.1442 -0.7597 -0.6182
  348MPD2    C1 5266   0.220   1.197  12.505 -0.3785  0.4971  0.9242
  348MPD2    C2 5267   0.196   1.311  12.430 -0.0497  0.2760  0.2502
  348MPD2    C3 5268   0.069   1.362  12.417 -0.7527 -0.1258 -0.2165
  348MPD2    C4 5269   4.710   1.304  12.499 -0.4771  0.1184 -0.1127
  348MPD2    C5 5270   4.728   1.194  12.579  0.8213  0.4596  0.1404
  348MPD2     H 5271   0.274   1.365  12.378  0.8893 -0.0705  1.3152
  348MPD2    H1 5272   4.609   1.335  12.479 -0.4015 -0.4386 -1.3579
  348MPD2    H2 5273   0.123   1.046  12.628  2.5121  0.5883  0.8122
  348MPD2    H3 5274   4.648   1.140  12.628 -1.8164  4.1428 -0.0942
  348MPD2     N 5275   0.045   1.471  12.331 -0.3710  0.4075  0.1152
  348MPD2    H5 5276   0.125   1.502  12.276 -1.7129  2.8881 -0.4142
  348MPD2    N1 5277   0.351   1.138  12.506  0.0844  0.4574 -0.3870
  348MPD2    H7 5278   0.430   1.196  12.477  1.0929 -0.1738  1.0915
  349TMC3    C1 5279   0.522   0.974  12.518 -0.0781  0.7768 -0.1223
  349TMC3    C2 5280   0.540   0.838  12.544 -0.1633 -0.0541 -0.1550
  349TMC3    C3 5281   0.596   0.762  12.446  0.2392 -0.0855 -0.7237
  349TMC3    C4 5282   0.567   1.027  12.406 -0.4908  0.0097 -0.3621
  349TMC3    C5 5283   0.622   0.944  12.307 -0.9124 -0.3397 -0.7012
  349TMC3    C6 5284   0.643   0.812  12.332  0.5171 -0.1455 -0.0943
  349TMC3     C 5285   0.382   1.009  12.549  0.5295 -0.5106  0.9607
  349TMC3     O 5286   0.303   0.922  12.571  0.0270  0.2808 -0.0743
  349TMC3     H 5287   0.485   0.792  12.625  1.2414 -0.5303  0.5162
  349TMC3    H1 5288   0.564   1.134  12.396 -3.4024  0.0728  1.2722
  349TMC3    H2 5289   0.660   0.747  12.246  2.0503  0.2288 -0.0755
  349TMC3    C7 5290   0.548   0.965  12.187 -0.8202 -0.0896 -0.4132
  349TMC3    C8 5291   0.617   0.631  12.476  0.3253 -0.2888 -0.6946
  349TMC3    O1 5292   0.491   0.870  12.138  0.2484  0.1440  0.3356
  349TMC3    O2 5293   0.537   0.579  12.546  0.6269 -0.0499 -0.4032
  350MPD2     C 5294   3.309   3.988  10.507 -0.5860 -0.0799 -0.6143
  350MPD2    C1 5295   3.407   3.894  10.496  0.5985 -0.3620 -1.0374
  350MPD2    C2 5296   3.533   3.926  10.543  0.1601 -0.3337 -0.6332
  350MPD2    C3 5297   3.559   4.043  10.599 -0.2528  0.2325 -0.4036
  350MPD2    C4 5298   3.468   4.146  10.578 -0.4332  0.2970 -0.4143
  350MPD2    C5 5299   3.339   4.120  10.538 -0.1956  0.7172  0.4538
  350MPD2     H 5300   3.608   3.847  10.549 -0.1342 -0.5471  0.2361
  350MPD2    H1 5301   3.480   4.244  10.622  0.5409 -0.8142  1.8087
  350MPD2    H2 5302   3.207   3.976  10.470  0.2918 -2.0038 -2.3958
  350MPD2    H3 5303   3.270   4.204  10.534 -1.4095 -0.3340 -1.0258
  350MPD2     N 5304   3.680   4.053  10.670 -0.0314  0.1117  0.2845
  350MPD2    H5 5305   3.732   3.966  10.682 -0.6200 -0.6028 -2.3448
  350MPD2    N1 5306   3.376   3.754  10.456  0.3884  0.1341  0.0507
  350MPD2    H7 5307   3.457   3.698  10.433  1.3778  0.8534  1.7792
  351TMC3    C1 5308   3.261   3.555  10.394  0.0055 -0.0093  0.1537
  351TMC3    C2 5309   3.368   3.474  10.429  0.0011  0.5378  0.3858
  351TMC3    C3 5310   3.371   3.343  10.386 -0.6758  0.0548 -0.1968
  351TMC3    C4 5311   3.166   3.505  10.314  0.8228  0.2575  0.4333
  351TMC3    C5 5312   3.162   3.371  10.274  0.8118  0.5052 -0.3563
  351TMC3    C6 5313   3.272   3.292  10.306  0.1382 -0.1017 -0.0083
  351TMC3     C 5314   3.255   3.700  10.426  0.8203 -0.2247 -0.0894
  351TMC3     O 5315   3.148   3.753  10.444  0.1773  0.0682 -0.2063
  351TMC3     H 5316   3.450   3.516  10.486  1.4849 -0.7526 -0.8182
  351TMC3    H1 5317   3.084   3.567  10.280 -0.0697  0.6493  3.3005
  351TMC3    H2 5318   3.271   3.184  10.302  1.3054 -0.1324  0.6177
  351TMC3    C7 5319   3.039   3.321  10.221 -0.3850 -0.9733 -0.0032
  351TMC3    C8 5320   3.483   3.256  10.401  0.2352  0.2033 -0.5515
  351TMC3    O1 5321   2.936   3.374  10.268  0.4013 -0.4223  0.2412
  351TMC3    O2 5322   3.562   3.276  10.495 -0.2930 -0.2402 -0.8427
  352MPD2     C 5323   2.616   0.911   1.137 -0.0896  0.0490  0.0424
  352MPD2    C1 5324   2.538   0.804   1.112  0.3348 -0.4511 -0.2750
  352MPD2    C2 5325   2.587   0.690   1.050 -0.1791 -0.1970 -0.0405
  352MPD2    C3 5326   2.721   0.691   1.005  0.1301  0.9386  0.8605
  352MPD2    C4 5327   2.803   0.795   1.038  0.0907  0.3270 -0.1835
  352MPD2    C5 5328   2.743   0.904   1.097  0.4438 -0.8175  0.6828
  352MPD2     H 5329   2.524   0.602   1.037  0.7229 -0.5743 -1.8096
  352MPD2    H1 5330   2.908   0.800   1.014  0.3423 -2.4848  0.3225
  352MPD2    H2 5331   2.584   1.008   1.174  1.1333 -0.4840  2.4833
  352MPD2    H3 5332   2.807   0.990   1.111 -0.5381 -0.3826  2.5215
  352MPD2     N 5333   2.789   0.581   0.952  0.4393  0.0455  0.0507
  352MPD2    H5 5334   2.887   0.589   0.930  0.1333 -1.3899 -1.7903
  352MPD2    N1 5335   2.401   0.814   1.150  0.5624 -0.3192  0.7264
  352MPD2    H7 5336   2.373   0.898   1.200  0.3141  0.5570 -0.8837
  353TMC3    C1 5337   2.803   0.394   0.805 -0.5526  0.0602 -0.5269
  353TMC3    C2 5338   2.908   0.318   0.848  0.1036 -0.0248  0.3787
  353TMC3    C3 5339   2.904   0.183   0.824  0.3960  0.2148  0.1489
  353TMC3    C4 5340   2.713   0.336   0.725 -0.4098 -1.0303  0.4469
  353TMC3    C5 5341   2.704   0.204   0.710  0.6592  0.1817  0.3196
  353TMC3    C6 5342   2.805   0.128   0.746  0.0537  0.0699  0.0885
  353TMC3     C 5343   2.722   0.469   0.904  0.0722  0.0599 -0.0798
  353TMC3     O 5344   2.605   0.435   0.910  0.2791  0.9502 -0.0471
  353TMC3     H 5345   2.983   0.354   0.917 -0.1727 -2.3226  1.9063
  353TMC3    H1 5346   2.641   0.406   0.684 -0.3756 -0.2996  1.6564
  353TMC3    H2 5347   2.815   0.025   0.713  2.2251  0.0587  0.7722
  353TMC3    C7 5348   2.572   0.148   0.702  0.5840  0.0550 -0.0888
  353TMC3    C8 5349   3.017   0.099   0.867  0.4871  0.0632  0.2498
  353TMC3    O1 5350   2.557   0.027   0.692 -0.3112 -0.1448 -0.2311
  353TMC3    O2 5351   3.120   0.157   0.901  0.2862 -0.3289 -0.9652
  354TMC3    C1 5352   3.940   2.219  13.578 -0.1794 -0.1035 -0.4965
  354TMC3    C2 5353   3.994   2.346  13.591 -0.5026  0.2503 -0.8987
  354TMC3    C3 5354   3.958   2.436  13.490 -0.4772  0.0872  0.0249
  354TMC3    C4 5355   3.875   2.188  13.459  0.3181 -0.8972  0.2216
  354TMC3    C5 5356   3.875   2.271  13.353  0.3375  0.3573  0.4551
  354TMC3    C6 5357   3.906   2.401  13.369  0.7157 -0.3600 -0.5922
  354TMC3     C 5358   3.907   2.152  13.699 -0.3149 -0.6006  0.5373
  354TMC3     O 5359   3.795   2.105  13.690 -0.5583 -0.1572  0.2555
  354TMC3     H 5360   4.045   2.381  13.679  2.1019 -1.0156 -1.9035
  354TMC3    H1 5361   3.832   2.089  13.450 -0.1345 -0.5440 -1.4379
  354TMC3    H2 5362   3.890   2.474  13.290 -0.1779 -2.3195 -2.2194
  354TMC3    C7 5363   3.904   2.215  13.222 -0.0759  0.5436  0.2486
  354TMC3    C8 5364   3.986   2.576  13.513  1.5656  0.5363  0.3480
  354TMC3    O1 5365   3.854   2.106  13.202 -0.0290  0.4785  0.2533
  354TMC3    O2 5366   4.064   2.607  13.603  0.2149 -0.1083 -0.2077
  355MPD2     C 5367   4.179   2.966  12.338  0.2936 -0.5714 -0.3648
  355MPD2    C1 5368   4.165   3.045  12.220  0.1869 -0.1488  0.3250
  355MPD2    C2 5369   4.285   3.069  12.152  0.3854  0.1262 -0.0600
  355MPD2    C3 5370   4.407   3.037  12.207  0.0775  0.5637  0.1041
  355MPD2    C4 5371   4.409   2.973  12.327 -0.4704  0.1412  0.0232
  355MPD2    C5 5372   4.298   2.928  12.388  0.1575  0.5559  0.5002
  355MPD2     H 5373   4.281   3.124  12.058 -0.6612  1.0975  0.5519
  355MPD2    H1 5374   4.508   2.941  12.360 -0.5463 -0.9882 -0.8299
  355MPD2    H2 5375   4.087   2.933  12.386  0.7667  0.5530  1.3161
  355MPD2    H3 5376   4.296   2.859  12.472  0.0203  0.9450  0.8186
  355MPD2     N 5377   4.532   3.082  12.149 -0.3373  0.4375  0.1809
  355MPD2    H5 5378   4.616   3.053  12.199 -0.0496  1.3614  0.2276
  355MPD2    N1 5379   4.036   3.074  12.167 -0.2917  0.4236 -0.9186
  355MPD2    H7 5380   3.963   3.014  12.204 -0.8460  2.8108  1.8179
  356TMC3    C1 5381   4.679   3.210  12.021 -1.0497  0.1672  0.1163
  356TMC3    C2 5382   4.705   3.268  11.904 -0.0275 -0.3894 -0.0290
  356TMC3    C3 5383   0.072   3.358  11.893  0.2446 -0.3021 -0.7055
  356TMC3    C4 5384   0.025   3.234  12.128 -0.4390  0.4952  0.5762
  356TMC3    C5 5385   0.122   3.327  12.129 -0.2974 -0.1086 -0.3209
  356TMC3    C6 5386   0.142   3.392  12.009  0.1547  0.0817 -0.6717
  356TMC3     C 5387   4.543   3.174  12.050  0.2971  0.2682 -0.5616
  356TMC3     O 5388   4.459   3.207  11.966 -0.1945 -0.2257  0.6919
  356TMC3     H 5389   4.644   3.252  11.816 -0.3470  2.4139 -0.3074
  356TMC3    H1 5390   0.006   3.182  12.221  1.8735 -0.6128  0.4194
  356TMC3    H2 5391   0.241   3.435  11.994  1.1951 -1.8866  0.6092
  356TMC3    C7 5392   0.144   3.388  12.260 -0.3267  0.0354 -0.0122
  356TMC3    C8 5393   0.096   3.414  11.758 -0.1943  0.8469  0.1954
  356TMC3    O1 5394   0.101   3.322  12.356  0.4488 -0.2356 -0.1857
  356TMC3    O2 5395   0.039   3.369  11.661  0.2745 -0.0146 -0.3157
  357MPD2     C 5396   4.419   2.143   0.707 -0.5330  0.9221  0.0997
  357MPD2    C1 5397   4.459   2.127   0.833 -0.7877  0.3390  0.1378
  357MPD2    C2 5398   4.411   2.215   0.929  0.2802 -0.0489 -0.3113
  357MPD2    C3 5399   4.324   2.318   0.891  0.8763  0.1247 -0.2666
  357MPD2    C4 5400   4.286   2.330   0.757 -0.0007  0.0738  0.5331
  357MPD2    C5 5401   4.336   2.245   0.671  0.9202  0.0661  0.1296
  357MPD2     H 5402   4.440   2.207   1.034  1.8155  0.2808 -0.7061
  357MPD2    H1 5403   4.222   2.414   0.730  0.3491  0.1789  0.0283
  357MPD2    H2 5404   4.469   2.089   0.627  1.3916 -1.8115  3.1644
  357MPD2    H3 5405   4.304   2.253   0.567  0.0546  0.8867  0.4585
  357MPD2     N 5406   4.268   2.396   0.996  0.2033 -0.3504  0.1942
  357MPD2    H5 5407   4.285   2.375   1.093  1.5746  0.4213  0.1086
  357MPD2    N1 5408   4.543   2.021   0.863  0.1844  0.6651  0.0951
  357MPD2    H7 5409   4.588   1.972   0.786 -0.1520 -1.7102  1.3883
  358TMC3    C1 5410   4.662   1.865   0.981 -0.5099  0.1340 -0.2970
  358TMC3    C2 5411   4.715   1.857   0.856  0.0289  0.6000  0.3254
  358TMC3    C3 5412   4.721   1.736   0.796 -0.5175 -0.5136  0.1094
  358TMC3    C4 5413   4.610   1.753   1.044 -0.1172  0.1978 -0.2041
  358TMC3    C5 5414   4.636   1.630   0.984  0.2902  0.0603 -0.4554
  358TMC3    C6 5415   4.675   1.624   0.857 -0.0199 -0.7390 -0.4441
  358TMC3     C 5416   4.578   1.983   0.989 -0.0287  0.1807  0.1410
  358TMC3     O 5417   4.532   2.009   1.098 -0.2641 -0.5130  0.1143
  358TMC3     H 5418   0.045   1.940   0.835  0.9485  0.2441  1.7694
  358TMC3    H1 5419   4.588   1.755   1.150 -1.1372  1.4974 -0.4402
  358TMC3    H2 5420   4.706   1.531   0.811 -1.0529 -0.8419 -0.9228
  358TMC3    C7 5421   4.660   1.523   1.079  0.4322 -0.2094 -0.5259
  358TMC3    C8 5422   4.653   1.765   0.669  0.2654 -0.3927 -0.1037
  358TMC3    O1 5423   4.703   1.566   1.186  0.0355 -0.4301 -0.1798
  358TMC3    O2 5424   4.659   1.880   0.626  0.2084 -0.4123  0.3474
  359MPD2     C 5425   4.305   1.866  12.986 -0.2344  0.1841 -0.7372
  359MPD2    C1 5426   4.355   1.782  12.888  0.1713  0.1144  0.0849
  359MPD2    C2 5427   4.311   1.655  12.878  0.7768 -0.9823 -0.6654
  359MPD2    C3 5428   4.223   1.603  12.967  0.4852  0.1527 -0.1524
  359MPD2    C4 5429   4.174   1.681  13.066 -0.4239  0.0281 -0.0838
  359MPD2    C5 5430   4.213   1.816  13.071 -0.0265 -0.1913 -0.3703
  359MPD2     H 5431   4.348   1.604  12.790  0.8315 -1.3410 -0.4380
  359MPD2    H1 5432   4.102   1.648  13.140  0.5681 -0.0249  0.8598
  359MPD2    H2 5433   4.315   1.974  12.984 -0.2863  0.1895 -0.7216
  359MPD2    H3 5434   4.174   1.876  13.153  3.1645  1.1119  0.2221
  359MPD2     N 5435   4.189   1.468  12.976 -1.3419  0.6818 -0.3776
  359MPD2    H5 5436   4.116   1.454  13.045 -0.5241 -0.7976  0.1829
  359MPD2    N1 5437   4.438   1.827  12.787 -0.0920  0.0565 -0.1106
  359MPD2    H7 5438   4.458   1.764  12.710  0.3562 -1.0444  0.9026
  360TMC3    C1 5439   4.566   1.987  12.668 -0.0709 -0.1354 -0.2178
  360TMC3    C2 5440   4.681   2.062  12.684  0.6157 -0.0586 -0.1829
  360TMC3    C3 5441   0.031   2.065  12.574  0.3427 -0.4639  0.6746
  360TMC3    C4 5442   4.527   1.926  12.551  0.0140  0.2193 -0.0873
  360TMC3    C5 5443   4.608   1.936  12.444 -0.2163 -0.1894 -0.4911
  360TMC3    C6 5444   4.729   2.003  12.451  0.2665  0.0155  0.2197
  360TMC3     C 5445   4.503   1.947  12.790 -0.1016 -0.7011 -0.0021
  360TMC3     O 5446   4.517   2.017  12.885  0.1193  0.1550  0.5999
  360TMC3     H 5447   4.725   2.078  12.782 -0.7957  0.0195  0.4450
  360TMC3    H1 5448   4.440   1.862  12.550  1.3219 -1.5359 -0.4120
  360TMC3    H2 5449   0.044   2.036  12.361 -2.1604  1.0543 -0.7985
  360TMC3    C7 5450   4.547   1.927  12.319  0.1772 -0.0554 -0.4177
  360TMC3    C8 5451   0.156   2.145  12.578 -0.3684  0.2976  0.5498
  360TMC3    O1 5452   4.633   1.942  12.230 -0.2508  0.2749 -0.3033
  360TMC3    O2 5453   0.149   2.259  12.619  0.2457 -0.1098  0.1151
  361MPD2     C 5454   1.490   0.061  16.932  0.0785 -0.0171 -0.2163
  361MPD2    C1 5455   1.392   0.101  17.023 -0.3507 -0.0374  0.8766
  361MPD2    C2 5456   1.369   0.015  17.122  0.3929 -0.0539  0.2018
  361MPD2    C3 5457   1.431   4.625  17.136  0.8985 -0.0819  0.1346
  361MPD2    C4 5458   1.514   4.582  17.034  0.2272  0.0738 -1.1328
  361MPD2    C5 5459   1.545   4.669  16.934  0.0872 -0.1900 -0.2574
  361MPD2     H 5460   1.295   0.039  17.197 -0.4257  1.1809 -0.9884
  361MPD2    H1 5461   1.570   4.490  17.044 -1.4140 -0.8024 -0.0127
  361MPD2    H2 5462   1.523   0.126  16.852  0.3363  1.0566  0.7641
  361MPD2    H3 5463   1.605   4.643  16.848 -0.7639 -0.3761 -0.7896
  361MPD2     N 5464   1.433   4.550  17.255  0.2976 -0.5756  0.6918
  361MPD2    H5 5465   1.462   4.453  17.251  1.7068 -0.1352  0.3573
  361MPD2    N1 5466   1.319   0.226  17.006  0.0799  0.6390  0.3702
  361MPD2    H7 5467   1.256   0.260  17.077 -0.7881 -2.1080  0.9046
  362TMC3    C1 5468   1.270   0.447  16.953 -0.9124  0.2965 -0.6484
  362TMC3    C2 5469   1.228   0.460  17.084 -0.0334 -0.5472 -0.0430
  362TMC3    C3 5470   1.159   0.569  17.117 -0.8281 -0.0540 -0.1951
  362TMC3    C4 5471   1.239   0.542  16.856  0.1639  0.1528 -0.0025
  362TMC3    C5 5472   1.165   0.645  16.901 -0.0687  0.4655 -0.4009
  362TMC3    C6 5473   1.114   0.657  17.025 -0.4016  0.0297  0.2705
  362TMC3     C 5474   1.331   0.323  16.906 -0.8931 -0.5501 -0.0498
  362TMC3     O 5475   1.390   0.320  16.799  0.7665  0.2253  0.0627
  362TMC3     H 5476   1.266   0.399  17.165  3.5940  1.4699 -0.2276
  362TMC3    H1 5477   1.256   0.523  16.750  1.0285 -1.5084  0.4285
  362TMC3    H2 5478   1.076   0.755  17.051  0.7633  1.3487 -3.0694
  362TMC3    C7 5479   1.162   0.775  16.827 -0.4976  0.1124  0.5096
  362TMC3    C8 5480   1.075   0.557  17.232 -0.0300 -0.4185  0.0996
  362TMC3    O1 5481   1.072   0.855  16.850 -0.1562 -0.1684  0.3484
  362TMC3    O2 5482   1.122   0.484  17.319 -0.0612 -0.0846  0.1722
  363TMC3    C1 5483   4.168   3.029   9.482 -0.2798  0.0465  0.4054
  363TMC3    C2 5484   4.204   3.006   9.612 -0.2146  0.3449  0.1007
  363TMC3    C3 5485   4.146   3.094   9.701  0.5491 -0.5773  0.4648
  363TMC3    C4 5486   4.076   3.123   9.446  0.5493 -0.2975 -0.7810
  363TMC3    C5 5487   4.037   3.221   9.534  0.0660  0.2956  0.3388
  363TMC3    C6 5488   4.078   3.206   9.660  0.7092  0.8577 -0.0034
  363TMC3     C 5489   4.229   2.940   9.386 -0.2555 -0.3554  1.1623
  363TMC3     O 5490   4.315   2.865   9.430  0.1694 -0.6544  0.7114
  363TMC3     H 5491   4.255   2.915   9.641  0.1055 -0.1318 -1.9069
  363TMC3    H1 5492   4.054   3.152   9.344 -1.2955 -0.7609 -0.5091
  363TMC3    H2 5493   4.028   3.262   9.739 -0.1542  0.5119 -0.2991
  363TMC3    C7 5494   3.945   3.335   9.508 -0.5722 -0.7805 -0.4442
  363TMC3    C8 5495   4.129   3.065   9.844 -0.4192  0.0930 -0.0502
  363TMC3    O1 5496   3.956   3.427   9.589 -0.1428  0.1800 -0.7548
  363TMC3    O2 5497   4.023   3.103   9.901 -0.3658  0.1216  0.5520
  364MPD2     C 5498   3.519   2.118  10.156  0.9367  0.2439 -0.0765
  364MPD2    C1 5499   3.525   2.202  10.265  0.0580 -0.2400  0.2344
  364MPD2    C2 5500   3.554   2.138  10.386  0.8019 -0.0509  0.1145
  364MPD2    C3 5501   3.587   2.001  10.396 -0.1693  0.2571 -0.4285
  364MPD2    C4 5502   3.582   1.925  10.283 -0.1482  0.0872  0.3170
  364MPD2    C5 5503   3.545   1.980  10.164  1.1193 -0.8347  0.0454
  364MPD2     H 5504   3.561   2.191  10.480  2.2116  1.0613 -0.6161
  364MPD2    H1 5505   3.608   1.820  10.278  0.9303  0.3333  0.8462
  364MPD2    H2 5506   3.482   2.150  10.060 -1.2951  1.7455  1.2797
  364MPD2    H3 5507   3.556   1.917  10.076 -0.0906  0.4616 -1.0437
  364MPD2     N 5508   3.618   1.945  10.524 -0.0675 -0.1572 -0.0629
  364MPD2    H5 5509   3.654   1.850  10.526  1.1774  0.2794 -1.6533
  364MPD2    N1 5510   3.493   2.335  10.251  0.2357 -1.0415  0.2967
  364MPD2    H7 5511   3.466   2.370  10.159  0.4533 -0.6384  0.3913
  365TMC3    C1 5512   3.443   2.560  10.306  0.2940 -0.2699 -0.9358
  365TMC3    C2 5513   3.448   2.597  10.181  0.4213 -0.9747  0.6012
  365TMC3    C3 5514   3.430   2.726  10.140 -0.0461 -0.2081 -0.0938
  365TMC3    C4 5515   3.401   2.642  10.403  0.1634  0.0212  0.0739
  365TMC3    C5 5516   3.373   2.774  10.359  1.0040  0.3382  0.4446
  365TMC3    C6 5517   3.388   2.818  10.232 -0.2885 -0.4652 -0.7781
  365TMC3     C 5518   3.495   2.428  10.352 -0.1777  0.1886 -0.7249
  365TMC3     O 5519   3.542   2.409  10.468  0.8923 -0.1278 -0.2614
  365TMC3     H 5520   3.466   2.520  10.106  0.9941  0.7457 -1.0306
  365TMC3    H1 5521   3.379   2.609  10.504 -1.4653  0.0052 -0.2887
  365TMC3    H2 5522   3.364   2.920  10.204 -0.3666 -1.0961 -2.9778
  365TMC3    C7 5523   3.350   2.873  10.456  1.6933 -0.6161  0.4614
  365TMC3    C8 5524   3.443   2.765  10.003 -0.2616  0.1159  0.1956
  365TMC3    O1 5525   3.287   2.977  10.431 -0.1312  0.4491  0.2975
  365TMC3    O2 5526   3.400   2.872   9.965 -0.2908 -0.7939  0.4781
  366MPD2     C 5527   1.393   3.984  15.373  0.0738 -0.2308  0.8283
  366MPD2    C1 5528   1.527   3.986  15.400 -0.9731  0.6254  0.4171
  366MPD2    C2 5529   1.591   3.870  15.417 -0.5369 -0.0647 -0.0923
  366MPD2    C3 5530   1.527   3.749  15.404 -0.0955 -0.0906 -0.3570
  366MPD2    C4 5531   1.389   3.745  15.384 -0.5199 -0.1361 -0.5638
  366MPD2    C5 5532   1.324   3.864  15.377  0.1237  0.1024  0.4116
  366MPD2     H 5533   1.699   3.877  15.423 -0.5223 -0.8183  0.5819
  366MPD2    H1 5534   1.326   3.657  15.394  0.5709 -0.9493 -0.8854
  366MPD2    H2 5535   1.331   4.070  15.353  0.5443 -0.1672 -0.3983
  366MPD2    H3 5536   1.215   3.860  15.372  0.2421 -0.8737 -1.7287
  366MPD2     N 5537   1.615   3.637  15.406 -0.7899  0.6353 -0.4774
  366MPD2    H5 5538   1.716   3.647  15.416 -1.1189  2.1644  1.1473
  366MPD2    N1 5539   1.604   4.100  15.410 -0.1489 -0.2778  0.5969
  366MPD2    H7 5540   1.691   4.082  15.459 -0.5012 -1.0586  0.9374
  367TMC3    C1 5541   1.681   4.316  15.389  0.1714  0.3918 -0.3542
  367TMC3    C2 5542   1.755   4.326  15.502  0.1101 -0.0864 -0.1404
  367TMC3    C3 5543   1.848   4.429  15.503  0.4117 -0.1138 -0.3367
  367TMC3    C4 5544   1.701   4.400  15.281  0.1651 -0.1846 -0.1909
  367TMC3    C5 5545   1.791   4.499  15.284 -0.1857  0.0357  0.0164
  367TMC3    C6 5546   1.870   4.519  15.399 -0.1667  0.1491 -0.0157
  367TMC3     C 5547   1.570   4.227  15.380  0.5442  0.4285  0.2306
  367TMC3     O 5548   1.477   4.261  15.312  0.3972  0.5042 -0.2671
  367TMC3     H 5549   1.731   4.259  15.584 -0.3879  0.2220 -0.0365
  367TMC3    H1 5550   1.633   4.396  15.196  1.4209  3.3819 -1.3605
  367TMC3    H2 5551   1.931   4.609  15.396 -0.2552  0.2444  1.0045
  367TMC3    C7 5552   1.737   4.619  15.227  0.0816 -1.0277 -0.1341
  367TMC3    C8 5553   1.944   4.416  15.604 -0.7888 -0.0195  0.1837
  367TMC3    O1 5554   1.647   4.673  15.290  0.4167  0.5439 -0.1775
  367TMC3    O2 5555   1.948   4.309  15.667  0.1025  0.5585  0.2501
  368MPD2     C 5556   2.858   0.439  13.632  0.3577 -0.5049 -1.1566
  368MPD2    C1 5557   2.871   0.562  13.570  0.0297  1.2735  0.1426
  368MPD2    C2 5558   2.994   0.582  13.503  0.5015  0.5304  0.0202
  368MPD2    C3 5559   3.090   0.484  13.500  0.4185  0.2712 -0.2826
  368MPD2    C4 5560   3.078   0.368  13.574 -0.6992  0.6531 -0.3596
  368MPD2    C5 5561   2.959   0.345  13.626  0.0198  0.2078  0.5089
  368MPD2     H 5562   3.020   0.672  13.447 -0.8625  0.6528 -0.3991
  368MPD2    H1 5563   3.140   0.279  13.577 -3.5591 -1.3978 -1.9847
  368MPD2    H2 5564   2.765   0.406  13.675  0.5291  0.1227 -0.3093
  368MPD2    H3 5565   2.945   0.249  13.674 -2.4452  1.2691  1.9376
  368MPD2     N 5566   3.206   0.515  13.426 -0.3823 -0.2341 -0.1228
  368MPD2    H5 5567   3.216   0.610  13.391 -0.9121 -0.6754 -1.4446
  368MPD2    N1 5568   2.766   0.655  13.555  0.4538  0.0921  0.2813
  368MPD2    H7 5569   2.679   0.637  13.605 -0.4382  2.4811 -0.3962
  369TMC3    C1 5570   2.653   0.841  13.453  0.2407 -0.0081 -0.2367
  369TMC3    C2 5571   2.666   0.923  13.345  0.5797  0.1443 -0.4744
  369TMC3    C3 5572   2.565   0.923  13.251  0.0363 -0.1211  1.2534
  369TMC3    C4 5573   2.537   0.771  13.474  0.5986  0.2832  0.1035
  369TMC3    C5 5574   2.434   0.778  13.382  0.1926 -0.0647  0.4330
  369TMC3    C6 5575   2.446   0.855  13.269  0.3077  0.0611 -0.7283
  369TMC3     C 5576   2.771   0.756  13.463 -0.0270 -0.4942  0.5407
  369TMC3     O 5577   2.844   0.775  13.364  0.4184  0.1132 -0.2976
  369TMC3     H 5578   2.756   0.984  13.335  0.7559 -0.1767 -0.8603
  369TMC3    H1 5579   2.520   0.705  13.558 -0.4234  0.4467  0.0190
  369TMC3    H2 5580   2.369   0.850  13.192 -1.1681 -0.4866  0.7874
  369TMC3    C7 5581   2.301   0.731  13.428 -0.1528 -0.2309 -0.0682
  369TMC3    C8 5582   2.612   0.933  13.117 -0.5472  0.5962  0.9283
  369TMC3    O1 5583   2.299   0.674  13.535  0.4281 -0.6642  0.0187
  369TMC3    O2 5584   2.540   0.970  13.025  0.1924 -0.1111 -0.5741
  370TMC3    C1 5585   2.592   1.226  16.596  0.7076  0.3193  0.5139
  370TMC3    C2 5586   2.521   1.164  16.693  0.0802 -0.3671  0.1520
  370TMC3    C3 5587   2.455   1.050  16.665 -0.3952  0.3849 -0.2905
  370TMC3    C4 5588   2.601   1.172  16.471  0.5251  0.5359 -0.3960
  370TMC3    C5 5589   2.539   1.053  16.447  0.4352  0.6369 -0.2925
  370TMC3    C6 5590   2.461   0.993  16.540  0.6645 -0.6115  0.4431
  370TMC3     C 5591   2.674   1.338  16.632  0.0226  0.2638  0.2743
  370TMC3     O 5592   2.725   1.334  16.746 -0.1223  0.1296  0.3576
  370TMC3     H 5593   2.541   1.192  16.796  1.2185 -0.7288  0.0307
  370TMC3    H1 5594   2.654   1.222  16.391  0.6116  0.7517 -0.2032
  370TMC3    H2 5595   2.406   0.902  16.518 -3.0656  2.0825 -1.4750
  370TMC3    C7 5596   2.559   0.989  16.315  0.2880 -0.3519 -0.8791
  370TMC3    C8 5597   2.370   1.001  16.769  0.4274  0.4063  0.1205
  370TMC3    O1 5598   2.574   1.079  16.232 -0.1542  0.1669  0.1736
  370TMC3    O2 5599   2.324   0.887  16.749 -0.0845 -0.0680 -0.2405
  371TMC3    C1 5600   3.926   4.231  15.661 -0.3255 -0.4081 -0.3793
  371TMC3    C2 5601   3.793   4.241  15.687  0.2236 -0.4945  0.6099
  371TMC3    C3 5602   3.733   4.362  15.690  0.6273  0.1518  0.1065
  371TMC3    C4 5603   3.999   4.344  15.626  0.4695  0.2882  0.2706
  371TMC3    C5 5604   3.932   4.462  15.616  0.4233  0.6315  0.0862
  371TMC3    C6 5605   3.805   4.479  15.662  0.8056  0.0946 -0.1076
  371TMC3     C 5606   3.977   4.100  15.631 -0.6312  0.1211 -0.2236
  371TMC3     O 5607   4.074   4.102  15.555 -0.0410 -0.2797 -0.4038
  371TMC3     H 5608   3.732   4.151  15.692  0.6559 -0.6733  2.6893
  371TMC3    H1 5609   4.107   4.339  15.623  0.4065 -0.9120  0.1686
  371TMC3    H2 5610   3.748   4.571  15.653  0.9212  0.2515  0.8180
  371TMC3    C7 5611   3.998   4.577  15.561  0.2651 -0.1052 -0.7087
  371TMC3    C8 5612   3.588   4.368  15.710 -0.0472 -0.5332 -0.5768
  371TMC3    O1 5613   3.945   4.683  15.593  0.3544  0.2857 -0.0385
  371TMC3    O2 5614   3.534   4.258  15.690  0.2730 -0.4666 -0.3692
  372MPD2     C 5615   3.694   0.841  13.527  0.1297  0.3838 -0.1845
  372MPD2    C1 5616   3.782   0.734  13.551 -0.3598 -0.6819  0.5172
  372MPD2    C2 5617   3.727   0.609  13.582  0.1666 -0.7875 -0.0446
  372MPD2    C3 5618   3.590   0.587  13.592  0.0842 -0.5787 -0.1371
  372MPD2    C4 5619   3.509   0.695  13.563  0.3485  0.2070  0.3719
  372MPD2    C5 5620   3.562   0.817  13.538  0.0379  0.1830 -0.1083
  372MPD2     H 5621   3.797   0.527  13.594 -0.1195 -1.0137  0.0721
  372MPD2    H1 5622   3.402   0.683  13.565  0.4977 -0.9999  1.8051
  372MPD2    H2 5623   3.731   0.937  13.491 -0.1971  0.3151 -0.6999
  372MPD2    H3 5624   3.503   0.907  13.524  1.6148  1.2132 -0.1661
  372MPD2     N 5625   3.544   0.461  13.642 -0.2523  0.1469  0.4294
  372MPD2    H5 5626   3.609   0.383  13.646 -0.4964 -0.1239 -0.8343
  372MPD2    N1 5627   3.920   0.732  13.535 -0.1047  0.0318  0.3582
  372MPD2    H7 5628   3.968   0.648  13.568  1.1416  0.1699 -1.0782
  373TMC3    C1 5629   3.397   0.316  13.753 -0.9865 -0.7840 -0.1307
  373TMC3    C2 5630   3.307   0.287  13.848  0.2048 -0.1906 -0.7821
  373TMC3    C3 5631   3.294   0.155  13.894 -0.0546  0.3311  0.4425
  373TMC3    C4 5632   3.466   0.217  13.687  0.2789 -0.5385  0.1571
  373TMC3    C5 5633   3.449   0.088  13.735  0.2858 -0.1454 -0.7627
  373TMC3    C6 5634   3.379   0.055  13.847 -0.3555  0.5063  0.1328
  373TMC3     C 5635   3.426   0.457  13.716 -0.6231 -0.1107  0.1305
  373TMC3     O 5636   3.358   0.552  13.761  0.8276  0.0333  0.1489
  373TMC3     H 5637   3.258   0.359  13.912 -1.5032 -1.2373 -0.9109
  373TMC3    H1 5638   3.533   0.234  13.603 -1.0785 -0.7541 -0.9608
  373TMC3    H2 5639   3.378   4.694  13.894  0.8593 -0.4600 -1.8292
  373TMC3    C7 5640   3.525   4.715  13.680 -0.3959  0.3890  0.1744
  373TMC3    C8 5641   3.281   0.151  14.040  0.8379  0.3249 -0.4749
  373TMC3    O1 5642   3.601   0.020  13.591 -0.3047 -0.1396 -0.5184
  373TMC3    O2 5643   3.177   0.163  14.102 -0.2774 -0.5169 -0.0868
  374TMC3    C1 5644   3.985   1.064  10.386 -0.0405 -0.2114  0.3182
  374TMC3    C2 5645   4.066   1.171  10.384  0.2338  0.2995 -0.2500
  374TMC3    C3 5646   4.079   1.236  10.263 -0.1897 -0.3853 -0.4372
  374TMC3    C4 5647   3.907   1.029  10.278 -0.0517 -0.2501  0.0408
  374TMC3    C5 5648   3.915   1.104  10.164  0.2793  0.6221 -0.2124
  374TMC3    C6 5649   4.002   1.206  10.152  0.0005  0.9155  0.1158
  374TMC3     C 5650   3.977   0.995  10.515  0.1493 -0.9424  0.0236
  374TMC3     O 5651   4.059   1.032  10.598  0.1917  0.0606  0.6499
  374TMC3     H 5652   4.146   1.183  10.456 -0.4019  1.0666  0.3223
  374TMC3    H1 5653   3.864   0.929  10.283  0.5866 -0.4454  1.8353
  374TMC3    H2 5654   3.996   1.283  10.076 -1.3727  1.0889  0.3978
  374TMC3    C7 5655   3.817   1.074  10.058  0.3900  0.5937 -0.4095
  374TMC3    C8 5656   4.158   1.355  10.254  0.0646  0.4778  0.2624
  374TMC3    O1 5657   3.719   1.008  10.086  0.0305 -0.0786 -0.0739
  374TMC3    O2 5658   4.164   1.400  10.134  0.1348  0.0828  0.0844
  375MPD2     C 5659   3.815   1.491  17.414  0.2181 -0.1474  0.1039
  375MPD2    C1 5660   3.766   1.587  17.328 -0.3393 -0.2656  0.0086
  375MPD2    C2 5661   3.830   1.605  17.206 -0.2435  0.5833  0.2883
  375MPD2    C3 5662   3.939   1.525  17.161 -0.2389 -0.2298 -0.2246
  375MPD2    C4 5663   3.985   1.437  17.251 -0.2733 -0.0951  0.9768
  375MPD2    C5 5664   3.929   1.420  17.376  0.7437  0.3083 -0.4556
  375MPD2     H 5665   3.802   1.692  17.148  0.2545  0.2501 -0.4469
  375MPD2    H1 5666   4.069   1.371  17.231  0.3197  1.1705 -0.6867
  375MPD2    H2 5667   3.769   1.462  17.508 -0.8048 -0.7160 -0.5746
  375MPD2    H3 5668   3.967   1.345  17.444  1.3082  0.4344 -0.6397
  375MPD2     N 5669   3.986   1.516  17.036  0.4175  0.0719  0.1225
  375MPD2    H5 5670   4.063   1.450  17.024 -0.4401 -0.7638 -0.8007
  375MPD2    N1 5671   3.659   1.675  17.359  0.3428 -0.1413 -0.0933
  375MPD2    H7 5672   3.622   1.739  17.289 -3.2307 -2.0077  0.0910
  376TMC3    C1 5673   3.973   1.532  16.797 -0.0911 -0.5713  0.5768
  376TMC3    C2 5674   4.082   1.449  16.789 -0.2109  0.3110  0.2671
  376TMC3    C3 5675   4.087   1.368  16.681 -0.1531  0.3037  0.0751
  376TMC3    C4 5676   3.883   1.551  16.696 -0.2393  0.5069 -0.1930
  376TMC3    C5 5677   3.902   1.476  16.581 -0.5437  0.2185  0.0341
  376TMC3    C6 5678   4.007   1.386  16.572  0.4427  0.2612 -0.1040
  376TMC3     C 5679   3.928   1.576  16.924 -0.1505 -0.1475  0.5192
  376TMC3     O 5680   3.834   1.651  16.930 -0.2460  0.3098  0.2622
  376TMC3     H 5681   4.159   1.451  16.864 -0.3207 -2.7053  0.4645
  376TMC3    H1 5682   3.808   1.629  16.705 -0.0104  0.5271  1.5456
  376TMC3    H2 5683   4.006   1.321  16.485 -0.9948  0.2139 -0.0535
  376TMC3    C7 5684   3.817   1.492  16.462  0.1779 -0.2101  0.2551
  376TMC3    C8 5685   4.211   1.295  16.656  0.2675  0.5887  0.5747
  376TMC3    O1 5686   3.840   1.415  16.367  0.3282  0.0014  0.2101
  376TMC3    O2 5687   4.233   1.254  16.541  0.0253  0.3163 -0.5483
  377MPD2     C 5688   2.099   1.229  12.660 -0.0637  1.0276 -1.2883
  377MPD2    C1 5689   1.990   1.307  12.691 -0.2078  0.3620 -0.1272
  377MPD2    C2 5690   1.866   1.257  12.724  1.0739  0.0901  0.6063
  377MPD2    C3 5691   1.846   1.122  12.697 -0.0049  0.2707 -1.0940
  377MPD2    C4 5692   1.950   1.045  12.650  1.3865 -0.7433 -0.6806
  377MPD2    C5 5693   2.079   1.098  12.639  0.0407  0.1627 -0.9325
  377MPD2     H 5694   1.797   1.316  12.784 -1.0873 -0.5464 -1.2460
  377MPD2    H1 5695   1.944   0.937  12.645  2.2171 -0.7812 -0.9062
  377MPD2    H2 5696   2.201   1.263  12.642  0.8166 -1.1333 -0.4482
  377MPD2    H3 5697   2.162   1.037  12.607 -0.3720 -0.6319 -0.4789
  377MPD2     N 5698   1.728   1.066  12.739  0.7536  0.3460  0.2262
  377MPD2    H5 5699   1.720   0.965  12.745  1.4942  0.4123  2.1550
  377MPD2    N1 5700   2.014   1.445  12.699  0.2787  0.0412  1.0083
  377MPD2    H7 5701   2.111   1.474  12.692  0.5282 -1.3826 -1.5005
  378TMC3    C1 5702   1.949   1.896  12.761  0.7984  0.8166 -0.5618
  378TMC3    C2 5703   1.913   1.770  12.765 -0.2772  0.0734 -0.1559
  378TMC3    C3 5704   1.986   1.681  12.706 -0.3638 -0.5827 -0.1357
  378TMC3    C4 5705   2.074   1.935  12.723 -0.5354 -0.8089 -0.2811
  378TMC3    C5 5706   2.154   1.833  12.680  0.2821  0.4735 -0.3557
  378TMC3    C6 5707   2.118   1.702  12.668 -0.0779 -0.3208 -0.3041
  378TMC3     C 5708   1.850   1.995  12.751  0.1331 -0.5283 -0.3076
  378TMC3     O 5709   1.774   2.006  12.845  0.0178 -1.1516 -0.0247
  378TMC3     H 5710   1.809   1.754  12.790 -0.4264  0.1289 -0.7303
  378TMC3    H1 5711   2.097   2.041  12.719  0.4216 -1.0832 -2.0580
  378TMC3    H2 5712   2.181   1.635  12.610  1.0276 -0.1566  0.6964
  378TMC3    C7 5713   2.270   1.881  12.613  0.7707  0.5458  0.3576
  378TMC3    C8 5714   1.920   1.550  12.706  0.4739 -0.3431  0.2088
  378TMC3    O1 5715   2.327   1.974  12.672  0.2060 -0.3985  0.0147
  378TMC3    O2 5716   1.801   1.535  12.744 -0.4224 -0.1365 -0.3045
  379MPD2     C 5717   3.039   4.053  16.221  0.0666 -0.2021  0.3851
  379MPD2    C1 5718   2.932   4.006  16.290  0.4102 -0.0217  0.2233
  379MPD2    C2 5719   2.956   3.932  16.406  0.1986 -0.2832  0.2376
  379MPD2    C3 5720   3.085   3.900  16.452  0.0298 -0.5506 -0.0555
  379MPD2    C4 5721   3.195   3.949  16.382  0.1324 -0.9045  0.6473
  379MPD2    C5 5722   3.166   4.029  16.272 -0.0740 -0.1727 -0.0361
  379MPD2     H 5723   2.874   3.890  16.464 -1.4329 -0.8617 -2.5311
  379MPD2    H1 5724   3.299   3.937  16.411  0.4734 -1.4257 -0.8029
  379MPD2    H2 5725   3.020   4.115  16.134 -0.6146  1.4853  1.7421
  379MPD2    H3 5726   3.249   4.072  16.217 -1.2335  1.9259 -0.1360
  379MPD2     N 5727   3.111   3.814  16.562 -0.2035  0.0037  0.3419
  379MPD2    H5 5728   3.211   3.796  16.569  0.5618  3.8275 -0.8114
  379MPD2    N1 5729   2.802   4.041  16.238  0.1264 -0.2178  0.0334
  379MPD2    H7 5730   2.812   4.091  16.151  1.3013  0.2558  0.4470
  380TMC3    C1 5731   2.586   4.003  16.169  0.9419 -0.2163 -0.0253
  380TMC3    C2 5732   2.632   3.953  16.048 -0.4297 -0.1524 -0.6430
  380TMC3    C3 5733   2.602   4.026  15.935  0.3439 -0.4255 -0.3678
  380TMC3    C4 5734   2.503   4.117  16.176  0.0881  0.6772  0.7392
  380TMC3    C5 5735   2.474   4.174  16.051  0.2673  0.6075 -0.4925
  380TMC3    C6 5736   2.530   4.141  15.938  0.3948 -0.3757 -0.5458
  380TMC3     C 5737   2.683   3.988  16.280 -0.5287  0.3925 -0.2345
  380TMC3     O 5738   2.648   3.933  16.387 -0.6427  0.0480 -0.8892
  380TMC3     H 5739   2.700   3.868  16.050  1.5420  1.3985 -1.5831
  380TMC3    H1 5740   2.475   4.172  16.265 -1.0993  0.9617  0.1804
  380TMC3    H2 5741   2.521   4.199  15.848 -0.6883 -0.2475 -0.3559
  380TMC3    C7 5742   2.398   4.297  16.061  0.8871 -0.3753  0.2169
  380TMC3    C8 5743   2.711   4.029  15.836 -0.1685  0.0262 -0.8087
  380TMC3    O1 5744   2.411   4.365  16.162 -0.3841 -0.4126  0.0439
  380TMC3    O2 5745   2.688   4.108  15.743  0.2061 -0.0818 -0.5929
  381TMC3    C1 5746   2.301   0.333  16.502  0.5647  0.7345 -0.3871
  381TMC3    C2 5747   2.357   0.461  16.489 -0.0057  0.3919  0.3913
  381TMC3    C3 5748   2.363   0.539  16.602 -0.8676 -0.0820 -0.1357
  381TMC3    C4 5749   2.252   0.288  16.617 -0.6920 -0.4521 -1.1257
  381TMC3    C5 5750   2.252   0.367  16.731 -0.5029 -0.2574  0.1253
  381TMC3    C6 5751   2.309   0.489  16.722 -1.0521 -0.4028 -0.0722
  381TMC3     C 5752   2.333   0.233  16.405  0.0063 -0.1684  0.8723
  381TMC3     O 5753   2.338   0.116  16.440  0.3320 -0.9337  0.5574
  381TMC3     H 5754   2.389   0.493  16.390  2.1633 -2.5441  0.1711
  381TMC3    H1 5755   2.209   0.189  16.613  0.0295 -0.9949  4.3478
  381TMC3    H2 5756   2.289   0.552  16.808  3.0124  0.4689  0.2020
  381TMC3    C7 5757   2.156   0.317  16.833  0.2117 -0.2652  0.2692
  381TMC3    C8 5758   2.477   0.622  16.596  0.4256  0.5606  0.1069
  381TMC3    O1 5759   2.124   0.198  16.823  0.0490 -0.3224  0.0149
  381TMC3    O2 5760   2.535   0.622  16.484 -0.0905 -0.9985 -0.2915
  382MPD2     C 5761   1.133   2.604   0.173 -0.0034 -0.1927 -0.0406
  382MPD2    C1 5762   1.262   2.594   0.138  0.4451 -0.1770  0.0992
  382MPD2    C2 5763   1.309   2.481   0.075 -0.4507 -0.3845 -1.0485
  382MPD2    C3 5764   1.226   2.371   0.052 -0.0485 -0.1662  0.1595
  382MPD2    C4 5765   1.101   2.374   0.106  0.4963  0.1727 -0.1965
  382MPD2    C5 5766   1.051   2.493   0.165 -0.0505 -0.1895  0.1170
  382MPD2     H 5767   1.410   2.479   0.034 -0.1142 -0.3970 -0.2345
  382MPD2    H1 5768   1.024   2.300   0.092  1.1464 -0.7585  1.2490
  382MPD2    H2 5769   1.098   2.689   0.230 -0.2833 -1.3428  1.5112
  382MPD2    H3 5770   0.948   2.493   0.198  0.3175  1.8770  1.2393
  382MPD2     N 5771   1.262   2.255  17.721  0.4455  0.1703  0.1545
  382MPD2    H5 5772   1.191   2.184  17.708  1.3720 -0.9500  1.1917
  382MPD2    N1 5773   1.357   2.700   0.154  0.4580  0.3854  0.0935
  382MPD2    H7 5774   1.450   2.683   0.118  1.0612  1.4371  1.1688
  383TMC3    C1 5775   1.405   2.106  17.602  0.6418 -0.0496 -0.4909
  383TMC3    C2 5776   1.304   2.047  17.536 -0.3704  0.3552  0.1522
  383TMC3    C3 5777   1.339   1.940  17.459 -0.5967 -0.0177  0.4439
  383TMC3    C4 5778   1.538   2.070  17.582 -0.7180 -0.0743 -0.2290
  383TMC3    C5 5779   1.570   1.978  17.493  0.2741 -0.1048 -0.3271
  383TMC3    C6 5780   1.468   1.914  17.426 -0.4522  0.3839  0.3645
  383TMC3     C 5781   1.390   2.235  17.672 -0.1478  0.7957 -0.2566
  383TMC3     O 5782   1.496   2.288  17.711  0.8391  0.0870  0.4721
  383TMC3     H 5783   1.199   2.066  17.553  0.3191  4.0759  0.2005
  383TMC3    H1 5784   1.618   2.132  17.622 -0.6518 -0.6342  0.5051
  383TMC3    H2 5785   1.491   1.852  17.341 -0.3893 -0.5323  1.0536
  383TMC3    C7 5786   1.706   1.962  17.453  0.3160 -0.1569 -0.0126
  383TMC3    C8 5787   1.233   1.861  17.396 -0.0327  0.5176  0.0347
  383TMC3    O1 5788   1.725   1.906  17.345  0.4568  0.1086 -0.3374
  383TMC3    O2 5789   1.122   1.909  17.407 -0.6148 -0.5310  0.2536
  384MPD2     C 5790   3.178   4.317  11.847  1.1252 -0.1779  0.3191
  384MPD2    C1 5791   3.264   4.219  11.906 -0.5863 -0.5565 -0.1421
  384MPD2    C2 5792   3.279   4.100  11.844  0.4617 -0.1686 -0.0924
  384MPD2    C3 5793   3.228   4.072  11.722  0.1124  0.1959  0.7720
  384MPD2    C4 5794   3.147   4.170  11.663 -0.4926 -0.2319  0.1385
  384MPD2    C5 5795   3.127   4.288  11.725  0.4848 -0.8407 -0.8584
  384MPD2     H 5796   3.345   4.024  11.885  1.1528  1.7200  2.2903
  384MPD2    H1 5797   3.107   4.162  11.563 -0.4815  1.4345  0.0095
  384MPD2    H2 5798   3.167   4.418  11.885 -1.4307  0.0662 -1.0299
  384MPD2    H3 5799   3.070   4.368  11.678  0.3337  1.3764  3.0695
  384MPD2     N 5800   3.257   3.943  11.662 -0.2531  0.1281 -0.5628
  384MPD2    H5 5801   3.317   3.886  11.721  1.5431  1.3626 -1.1859
  384MPD2    N1 5802   3.304   4.235  12.043 -0.0037 -0.1783 -0.1122
  384MPD2    H7 5803   3.353   4.158  12.087  2.6712  0.6553 -1.6427
  385TMC3    C1 5804   3.293   3.767  11.525  0.3729  0.1788 -0.3298
  385TMC3    C2 5805   3.196   3.673  11.531 -0.2839 -0.0409 -0.3540
  385TMC3    C3 5806   3.214   3.560  11.600 -0.4346 -0.3131 -0.2005
  385TMC3    C4 5807   3.412   3.753  11.602  0.1770 -0.2346 -0.1308
  385TMC3    C5 5808   3.419   3.644  11.680  0.2606  0.0712 -0.4588
  385TMC3    C6 5809   3.318   3.553  11.684  0.2325  0.6744  0.0942
  385TMC3     C 5810   3.233   3.894  11.536  0.1948 -0.2133 -0.3142
  385TMC3     O 5811   3.159   3.934  11.445  0.2743 -0.0568  0.0248
  385TMC3     H 5812   3.111   3.684  11.464 -0.2820 -2.5171 -0.7576
  385TMC3    H1 5813   3.493   3.825  11.603  0.4726 -0.5143 -2.3661
  385TMC3    H2 5814   3.317   3.474  11.759  2.1055  0.8936  0.3317
  385TMC3    C7 5815   3.444   3.699  11.815  0.3168  0.5171  0.0885
  385TMC3    C8 5816   3.112   3.455  11.594 -0.2444 -0.7075  0.2502
  385TMC3    O1 5817   3.446   3.821  11.823  0.3655 -0.1980  0.0936
  385TMC3    O2 5818   3.002   3.497  11.568  0.1740 -0.0498  0.1451
  386TMC3    C1 5819   3.800   1.062  11.937  0.0486  0.8942 -0.5855
  386TMC3    C2 5820   3.836   1.075  11.807 -0.2488  0.7801 -0.8378
  386TMC3    C3 5821   3.732   1.082  11.714 -0.3952  0.2016  0.3461
  386TMC3    C4 5822   3.673   1.058  11.982 -0.3071 -0.1563  0.1934
  386TMC3    C5 5823   3.571   1.058  11.889  1.3133  0.9790  0.2326
  386TMC3    C6 5824   3.602   1.058  11.755 -0.7298 -0.0589  0.1231
  386TMC3     C 5825   3.903   1.100  12.030  0.5391 -0.6983 -0.3862
  386TMC3     O 5826   3.874   1.165  12.129  0.1049  0.1997  0.2988
  386TMC3     H 5827   3.940   1.087  11.779  0.9144 -0.3037  3.0262
  386TMC3    H1 5828   3.649   1.058  12.088 -0.0858  0.3696  0.2433
  386TMC3    H2 5829   3.524   1.038  11.682 -0.0654  1.0603 -0.8914
  386TMC3    C7 5830   3.432   1.074  11.935  0.2759  0.1340 -0.8324
  386TMC3    C8 5831   3.743   1.141  11.578 -0.9782 -0.2095 -0.7728
  386TMC3    O1 5832   3.405   1.058  12.052  0.3590 -0.0708  0.2292
  386TMC3    O2 5833   3.632   1.162  11.525  0.0970 -0.7012 -1.1448
  387MPD2     C 5834   0.795   1.785  10.696 -0.1813 -0.1618  0.0267
  387MPD2    C1 5835   0.832   1.751  10.567 -0.1339 -0.4249  0.5994
  387MPD2    C2 5836   0.780   1.636  10.510 -0.2899 -0.0747  0.5625
  387MPD2    C3 5837   0.701   1.557  10.580 -0.5309 -0.8287 -0.2368
  387MPD2    C4 5838   0.661   1.589  10.708 -0.1026 -0.4836 -0.1367
  387MPD2    C5 5839   0.711   1.699  10.766 -0.1963 -0.0951  0.6358
  387MPD2     H 5840   0.801   1.599  10.410 -2.6348  0.5238 -0.1545
  387MPD2    H1 5841   0.610   1.527  10.780  1.0853 -0.9623  0.2968
  387MPD2    H2 5842   0.835   1.873  10.746  1.4837 -1.1308  0.3833
  387MPD2    H3 5843   0.687   1.724  10.868 -1.8946 -1.3351  0.5464
  387MPD2     N 5844   0.677   1.435  10.517  0.0295  0.6716 -0.4031
  387MPD2    H5 5845   0.726   1.431  10.428 -0.8402 -0.7355 -0.8116
  387MPD2    N1 5846   0.919   1.826  10.479  0.1164 -0.3932 -0.0380
  387MPD2    H7 5847   0.915   1.793  10.383 -2.0746  4.3065 -1.5996
  388TMC3    C1 5848   1.088   1.953  10.402  0.0959 -0.0485  0.3102
  388TMC3    C2 5849   1.102   2.085  10.363 -0.1446 -0.6173 -0.2552
  388TMC3    C3 5850   1.134   2.111  10.234 -0.5538  0.1843  0.4504
  388TMC3    C4 5851   1.122   1.855  10.316  0.3623 -0.3360 -0.1238
  388TMC3    C5 5852   1.167   1.879  10.191  0.0941  0.7964  0.4484
  388TMC3    C6 5853   1.171   2.009  10.145 -0.5957  0.4438  0.0740
  388TMC3     C 5854   1.001   1.929  10.513  0.9979 -0.2570  0.2693
  388TMC3     O 5855   0.993   2.000  10.612  0.3765  0.3869 -0.4929
  388TMC3     H 5856   1.062   2.162  10.429 -0.0459  0.3183 -1.2886
  388TMC3    H1 5857   1.121   1.759  10.366  0.1920  0.0558  0.6187
  388TMC3    H2 5858   1.194   2.026  10.040  0.0713 -1.2455 -0.0457
  388TMC3    C7 5859   1.218   1.768  10.113 -0.6487  0.3014 -0.3092
  388TMC3    C8 5860   1.175   2.245  10.193  0.2701  0.4816 -0.0615
  388TMC3    O1 5861   1.319   1.787  10.045 -0.3235  0.5383  0.2054
  388TMC3    O2 5862   1.240   2.258  10.092 -1.0252 -0.2264 -0.8545
  389MPD2     C 5863   0.578   4.431  11.365 -0.3188  0.2089 -0.3576
  389MPD2    C1 5864   0.486   4.389  11.271 -0.2407  0.1992  0.5275
  389MPD2    C2 5865   0.391   4.288  11.310  0.5248  0.5227  0.3445
  389MPD2    C3 5866   0.399   4.237  11.441  0.0735 -0.1339  0.6418
  389MPD2    C4 5867   0.476   4.294  11.535  0.3948 -0.7049 -0.4871
  389MPD2    C5 5868   0.571   4.384  11.494 -0.2860  0.6355  0.3437
  389MPD2     H 5869   0.322   4.243  11.239 -1.6313  2.0523  1.4550
  389MPD2    H1 5870   0.483   4.251  11.634 -2.0214 -3.9083 -1.6882
  389MPD2    H2 5871   0.663   4.494  11.339  1.0186 -1.3900  0.0803
  389MPD2    H3 5872   0.644   4.429  11.560 -0.6345 -0.3490  1.3979
  389MPD2     N 5873   0.313   4.130  11.481  0.0459  0.3444 -0.0829
  389MPD2    H5 5874   0.311   4.110  11.581  1.9178  1.6605  0.2137
  389MPD2    N1 5875   0.494   4.444  11.144 -0.1992 -0.3170  0.1295
  389MPD2    H7 5876   0.569   4.511  11.127 -0.4374 -0.0497  0.1313
  390TMC3    C1 5877   0.163   3.956  11.481 -1.0706 -0.4488 -0.2462
  390TMC3    C2 5878   0.160   3.973  11.617 -0.1576 -0.2259  0.2653
  390TMC3    C3 5879   0.047   3.924  11.682  0.4633  0.5191 -0.8430
  390TMC3    C4 5880   0.046   3.916  11.417 -0.5583 -1.2329 -0.9851
  390TMC3    C5 5881   4.672   3.878  11.478  0.2641 -0.2076 -1.2115
  390TMC3    C6 5882   4.671   3.885  11.615  0.4547  0.2353  0.9823
  390TMC3     C 5883   0.247   4.035  11.398 -0.6534  0.2693  0.4456
  390TMC3     O 5884   0.248   4.017  11.277 -0.1953 -0.9887  0.1016
  390TMC3     H 5885   0.261   3.971  11.656 -1.2328 -2.4849  2.9965
  390TMC3    H1 5886   0.057   3.902  11.310  0.5554 -1.4343 -0.8397
  390TMC3    H2 5887   4.579   3.867  11.668 -0.4330 -0.6725 -0.8630
  390TMC3    C7 5888   4.564   3.814  11.397 -0.0634 -0.1865  0.0729
  390TMC3    C8 5889   0.061   3.870  11.822 -0.3484  0.1291  0.2597
  390TMC3    O1 5890   4.602   3.740  11.307 -0.3903 -0.4900  0.9327
  390TMC3    O2 5891   0.140   3.917  11.899  0.2288  0.1936  0.1810
  391MPD2     C 5892   4.217   1.652  11.763 -0.1914  0.6736 -0.6724
  391MPD2    C1 5893   4.347   1.627  11.738 -0.1661  0.3831 -0.6705
  391MPD2    C2 5894   4.382   1.637  11.607  1.1343  0.6397  0.3365
  391MPD2    C3 5895   4.295   1.658  11.505 -0.3114 -0.4734  0.3415
  391MPD2    C4 5896   4.157   1.672  11.534  0.3513 -0.2408 -0.6294
  391MPD2    C5 5897   4.121   1.665  11.664  0.3189 -0.0849 -0.5301
  391MPD2     H 5898   4.478   1.606  11.568  1.2241  2.4499 -0.8581
  391MPD2    H1 5899   4.079   1.672  11.459 -1.0000  1.7637  0.7938
  391MPD2    H2 5900   4.176   1.668  11.862 -1.5868  2.8883 -1.6068
  391MPD2    H3 5901   4.020   1.685  11.699 -0.1583 -2.9431 -0.2914
  391MPD2     N 5902   4.347   1.669  11.377 -0.1485 -0.0499  0.7925
  391MPD2    H5 5903   4.445   1.647  11.367 -0.3341 -0.2976 -0.5138
  391MPD2    N1 5904   4.439   1.611  11.840 -0.6679 -0.4213  0.3910
  391MPD2    H7 5905   4.413   1.619  11.938 -1.7772 -0.5233  0.1009
  392TMC3    C1 5906   4.372   1.706  11.144 -0.7786 -0.4715 -0.1274
  392TMC3    C2 5907   4.323   1.687  11.018  0.1231  0.7829  0.1321
  392TMC3    C3 5908   4.406   1.706  10.911 -0.6683 -0.3615  0.6681
  392TMC3    C4 5909   4.493   1.767  11.168  0.1655  0.5922  0.0387
  392TMC3    C5 5910   4.573   1.793  11.062  0.4683  0.3553 -0.0089
  392TMC3    C6 5911   4.532   1.751  10.942 -0.4297  0.0840  0.4173
  392TMC3     C 5912   4.278   1.696  11.260 -0.2077 -0.1913  0.5452
  392TMC3     O 5913   4.157   1.690  11.243  0.2173  0.0131 -0.2962
  392TMC3     H 5914   4.224   1.643  11.012  0.7019 -0.3124 -1.4025
  392TMC3    H1 5915   4.514   1.809  11.265  0.5630  2.5631 -0.9037
  392TMC3    H2 5916   4.608   1.758  10.865 -0.4299  0.6387  0.4698
  392TMC3    C7 5917   4.699   1.871  11.086 -0.3823 -0.4208  0.0051
  392TMC3    C8 5918   4.362   1.657  10.782  0.8445  0.4541  0.7122
  392TMC3    O1 5919   4.714   1.901  11.202  0.3431 -0.4507 -0.1116
  392TMC3    O2 5920   4.243   1.616  10.780 -0.3158  0.3952  0.4879
  393TMC3    C1 5921   2.905   3.939  10.677 -0.0326  0.3215 -0.7195
  393TMC3    C2 5922   2.781   3.885  10.648  0.2654 -0.4806 -0.2310
  393TMC3    C3 5923   2.759   3.748  10.656 -0.2602  0.4865  0.2157
  393TMC3    C4 5924   3.008   3.858  10.708  0.0730  0.1349  0.7573
  393TMC3    C5 5925   2.977   3.720  10.728 -0.8546 -0.4372  0.5556
  393TMC3    C6 5926   2.858   3.668  10.690 -0.7790  0.1170 -0.3332
  393TMC3     C 5927   2.926   4.079  10.637  0.2693  0.1210 -0.4032
  393TMC3     O 5928   2.848   4.128  10.560  0.4527  0.0990 -0.3525
  393TMC3     H 5929   2.699   3.951  10.624  0.9813  0.4417 -0.1612
  393TMC3    H1 5930   3.109   3.897  10.702 -0.0627 -0.1268 -3.1770
  393TMC3    H2 5931   2.832   3.563  10.705  0.6214  0.0723  1.8894
  393TMC3    C7 5932   3.084   3.628  10.755  0.1470 -0.4439 -0.2005
  393TMC3    C8 5933   2.625   3.692  10.667  0.4524  0.3093  0.5796
  393TMC3    O1 5934   3.073   3.507  10.724 -0.3461  0.6751 -0.3626
  393TMC3    O2 5935   2.625   3.572  10.683 -0.0329  0.2484  0.5110
  394TMC3    C1 5936   0.440   4.493  10.914  0.1443  0.0755  0.3111
  394TMC3    C2 5937   0.459   4.414  10.806 -0.0097  0.0425 -0.2530
  394TMC3    C3 5938   0.544   4.456  10.710  0.5433  0.7443  0.0656
  394TMC3    C4 5939   0.484   4.621  10.919 -0.5674  0.0476  0.6775
  394TMC3    C5 5940   0.567   4.662  10.819  0.2531 -0.6567  0.2498
  394TMC3    C6 5941   0.603   4.580  10.714 -0.1517  0.2113  0.3333
  394TMC3     C 5942   0.406   4.423  11.039  0.1540  0.2756 -0.4911
  394TMC3     O 5943   0.323   4.333  11.028 -0.1662  0.0714  0.2250
  394TMC3     H 5944   0.417   4.314  10.803  1.4084 -0.6441  2.0770
  394TMC3    H1 5945   0.466   4.680  11.008 -1.4828 -1.0149  1.1942
  394TMC3    H2 5946   0.688   4.598  10.648 -0.7359 -0.9381 -0.7305
  394TMC3    C7 5947   0.635   0.051  10.847  0.7051 -0.0051  0.2758
  394TMC3    C8 5948   0.577   4.368  10.602 -0.8095 -0.6710  0.4168
  394TMC3    O1 5949   0.564   0.139  10.897  0.0165  0.1979 -0.1674
  394TMC3    O2 5950   0.574   4.244  10.619 -0.5600  0.3088 -0.3474
  395TMC3    C1 5951   0.035   1.103  14.914  0.0493 -0.0633 -0.1339
  395TMC3    C2 5952   4.654   1.151  14.872 -0.6544 -0.2189  0.0443
  395TMC3    C3 5953   4.633   1.288  14.862 -0.2144 -0.7473 -0.3208
  395TMC3    C4 5954   0.136   1.190  14.906 -0.1518  0.1267 -0.4667
  395TMC3    C5 5955   0.123   1.318  14.869  0.3475  0.2625 -0.0478
  395TMC3    C6 5956   0.002   1.379  14.863 -0.6476  0.2615 -0.2954
  395TMC3     C 5957   0.008   1.030  15.033 -0.5072 -0.1418  0.2326
  395TMC3     O 5958   4.641   1.055  15.098  0.4752 -0.4449 -0.0818
  395TMC3     H 5959   4.564   1.092  14.887 -0.0173 -0.5016  2.7765
  395TMC3    H1 5960   0.233   1.154  14.938  0.2047  0.6100 -1.0120
  395TMC3    H2 5961   0.004   1.487  14.862 -1.8950  0.3079  1.1904
  395TMC3    C7 5962   0.238   1.408  14.880  0.2777  0.7113 -0.0964
  395TMC3    C8 5963   4.493   1.332  14.836 -0.4408 -0.1105  0.0016
  395TMC3    O1 5964   0.218   1.530  14.887  0.0633  0.0983  0.0181
  395TMC3    O2 5965   4.418   1.242  14.793  0.0522  0.1023 -0.1977
  396MPD2     C 5966   4.294   2.105  17.321  0.1480 -0.2844 -0.2497
  396MPD2    C1 5967   4.414   2.169  17.295  0.1732  0.1723 -0.3982
  396MPD2    C2 5968   4.420   2.250  17.184 -0.1357 -0.1758 -0.1973
  396MPD2    C3 5969   4.309   2.279  17.108  0.1966  0.5573 -0.2966
  396MPD2    C4 5970   4.193   2.213  17.131 -0.1473 -0.2358  0.4216
  396MPD2    C5 5971   4.186   2.118  17.234 -0.7371  0.2832 -0.0664
  396MPD2     H 5972   4.510   2.303  17.157  0.5355 -0.8855  0.6371
  396MPD2    H1 5973   4.103   2.221  17.073 -0.7013 -2.6399  0.9185
  396MPD2    H2 5974   4.281   2.044  17.410 -1.3458 -0.4183 -0.5663
  396MPD2    H3 5975   4.091   2.073  17.263 -0.3349  0.9748  2.3482
  396MPD2     N 5976   4.319   2.382  17.008 -0.1561  0.6906 -0.2119
  396MPD2    H5 5977   4.413   2.400  16.975  0.2409 -0.6963  0.1979
  396MPD2    N1 5978   4.519   2.153  17.395  0.3352  0.0988 -0.5235
  396MPD2    H7 5979   4.496   2.079  17.461  0.6202  1.2623  0.8968
  397TMC3    C1 5980   4.719   2.177  17.503  0.2404  0.1607 -0.7624
  397TMC3    C2 5981   0.093   2.133  17.434  0.0271  0.0383 -0.1536
  397TMC3    C3 5982   0.098   2.004  17.410  0.1060  0.0810 -0.3358
  397TMC3    C4 5983   4.645   2.088  17.586 -0.3927  0.4936  0.7239
  397TMC3    C5 5984   4.667   1.957  17.575 -0.1568 -0.1878  0.1326
  397TMC3    C6 5985   0.022   1.916  17.485 -0.2501 -0.2774  0.2345
  397TMC3     C 5986   4.635   2.231  17.403  0.5921 -0.2561 -0.3365
  397TMC3     O 5987   4.672   2.330  17.338  0.5697  0.1461 -0.5522
  397TMC3     H 5988   0.132   2.201  17.359  0.6075 -0.0807  0.0378
  397TMC3    H1 5989   4.573   2.124  17.658  0.6719  0.0198  2.0073
  397TMC3    H2 5990   0.026   1.815  17.447 -2.5003 -0.0951 -0.5138
  397TMC3    C7 5991   4.552   1.872  17.607  1.0918 -0.9243 -0.0956
  397TMC3    C8 5992   0.119   1.962  17.271 -0.0043  0.4362 -0.3134
  397TMC3    O1 5993   4.449   1.937  17.618  0.4649  0.5045 -1.0370
  397TMC3    O2 5994   0.052   1.867  17.230 -0.6100 -0.0313  0.0543
  398MPD2     C 5995   2.648   3.927   0.160  0.1329 -0.3133  0.4812
  398MPD2    C1 5996   2.780   3.898   0.183 -0.1419  0.1944  0.6841
  398MPD2    C2 5997   2.868   4.000   0.197 -1.3422  0.0388  0.2245
  398MPD2    C3 5998   2.830   4.133   0.180 -0.9139 -0.1679  0.2194
  398MPD2    C4 5999   2.699   4.162   0.157  0.5675 -0.2046  0.6778
  398MPD2    C5 6000   2.608   4.057   0.146 -0.0061 -0.8812 -0.7150
  398MPD2     H 6001   2.975   3.985   0.211 -1.1511 -1.0215 -2.3643
  398MPD2    H1 6002   2.663   4.262   0.137  0.6164 -1.1073 -3.9297
  398MPD2    H2 6003   2.569   3.857   0.138  0.5766 -1.5495  2.7628
  398MPD2    H3 6004   2.501   4.073   0.145  0.3148  1.3024  0.8802
  398MPD2     N 6005   2.933   4.232   0.186  0.2767 -0.2379  0.6004
  398MPD2    H5 6006   3.025   4.200   0.216  0.9482  0.7566 -0.4002
  398MPD2    N1 6007   2.836   3.767   0.178  0.0143 -0.6961  0.1890
  398MPD2    H7 6008   2.932   3.760   0.210  0.4665 -2.0812 -1.4330
  399TMC3    C1 6009   2.833   3.526   0.165  0.3577 -0.3677 -0.5073
  399TMC3    C2 6010   2.964   3.518   0.203 -0.3408 -0.3494  0.3009
  399TMC3    C3 6011   3.014   3.393   0.243 -0.5193 -0.2800  0.0615
  399TMC3    C4 6012   2.756   3.415   0.150 -0.0387  0.7795  0.1452
  399TMC3    C5 6013   2.796   3.303   0.216  0.2807  0.6022  0.6755
  399TMC3    C6 6014   2.931   3.286   0.258 -0.6794  0.5768 -0.6584
  399TMC3     C 6015   2.764   3.656   0.144 -0.1653 -0.6087  0.7890
  399TMC3     O 6016   2.648   3.649   0.109 -0.3173  0.5815 -0.1232
  399TMC3     H 6017   3.026   3.605   0.183  0.5594 -0.7682  1.2595
  399TMC3    H1 6018   2.661   3.433   0.101 -0.7975 -0.4070  1.1815
  399TMC3    H2 6019   2.972   3.200   0.309 -2.2635  0.0101 -0.3233
  399TMC3    C7 6020   2.712   3.188   0.211 -0.0909  0.0458  0.0644
  399TMC3    C8 6021   3.145   3.396   0.300 -0.4810 -0.3572 -0.1328
  399TMC3    O1 6022   2.751   3.079   0.249  0.5659  0.0728 -0.1154
  399TMC3    O2 6023   3.195   3.503   0.339 -0.1570  0.0354  0.2155
  400TMC3    C1 6024   1.476   1.850  17.035 -0.0063  0.3966  0.1093
  400TMC3    C2 6025   1.357   1.832  16.970 -0.0526 -0.0967 -0.6334
  400TMC3    C3 6026   1.267   1.933  16.970  0.0109 -0.0713 -0.4625
  400TMC3    C4 6027   1.508   1.967  17.101 -0.5804 -0.4821 -0.1081
  400TMC3    C5 6028   1.413   2.064  17.094 -0.4923  0.3884 -0.1820
  400TMC3    C6 6029   1.302   2.051  17.021  0.4506 -0.1366 -0.3141
  400TMC3     C 6030   1.559   1.737  17.035  0.5302  0.3928 -0.0701
  400TMC3     O 6031   1.517   1.634  16.989  0.1622 -0.3470 -0.2402
  400TMC3     H 6032   1.320   1.737  16.933 -0.5689 -0.6469  1.3385
  400TMC3    H1 6033   1.600   1.990  17.153 -0.5459  1.3953 -1.0018
  400TMC3    H2 6034   1.228   2.130  17.013 -0.6594 -0.8958  2.3655
  400TMC3    C7 6035   1.429   2.178  17.187  1.2565  0.2547  0.7799
  400TMC3    C8 6036   1.156   1.947  16.875  0.8101  0.4136  0.0116
  400TMC3    O1 6037   1.541   2.182  17.241 -0.0930  0.1857  0.6955
  400TMC3    O2 6038   1.091   2.050  16.867 -0.9679 -0.2049  0.1100
  401MPD2     C 6039   3.979   0.236   0.842  0.0235  0.4642 -0.2316
  401MPD2    C1 6040   4.066   0.198   0.941  0.4604  0.1467 -0.3212
  401MPD2    C2 6041   4.089   0.061   0.961 -0.2531  0.0365  0.6795
  401MPD2    C3 6042   4.031   4.703   0.884 -0.2261 -0.0769  0.2266
  401MPD2    C4 6043   3.959   0.006   0.774  0.5288 -0.0819  0.5036
  401MPD2    C5 6044   3.933   0.140   0.748 -0.6054  0.5007  0.0958
  401MPD2     H 6045   4.161   0.025   1.033  1.5078  1.0334 -0.5509
  401MPD2    H1 6046   3.928   4.672   0.697 -0.6448  0.4054  0.5366
  401MPD2    H2 6047   3.956   0.340   0.825  0.8819  0.5636 -0.7844
  401MPD2    H3 6048   3.880   0.177   0.661 -0.8162 -0.4357 -0.1646
  401MPD2     N 6049   4.060   4.570   0.916  0.6889  0.1042  0.5505
  401MPD2    H5 6050   4.092   4.552   1.011  2.6354 -3.1504 -0.7154
  401MPD2    N1 6051   4.112   0.286   1.039  0.2529 -0.2922 -0.0868
  401MPD2    H7 6052   4.172   0.254   1.114 -0.4703 -2.0829 -0.2734
  402TMC3    C1 6053   4.044   4.332   0.891 -0.1952 -0.1253 -0.5320
  402TMC3    C2 6054   4.128   4.318   0.996 -0.2970  0.7547  0.4588
  402TMC3    C3 6055   4.199   4.199   1.001 -0.0946  0.4761 -0.3387
  402TMC3    C4 6056   4.020   4.235   0.802  0.4479 -0.7640  0.5663
  402TMC3    C5 6057   4.100   4.127   0.808 -0.5518  0.2879  0.8067
  402TMC3    C6 6058   4.196   4.107   0.898  0.5949 -0.0953 -0.3535
  402TMC3     C 6059   4.025   4.464   0.831  0.5363 -0.9113 -0.3716
  402TMC3     O 6060   3.985   4.460   0.714 -0.2952  0.2447 -0.2472
  402TMC3     H 6061   4.155   4.391   1.071 -0.0360 -1.2724  2.3546
  402TMC3    H1 6062   3.945   4.247   0.724 -3.1144  0.3830  4.1767
  402TMC3    H2 6063   4.263   4.022   0.905  0.1287 -0.2480  2.2115
  402TMC3    C7 6064   4.093   4.028   0.696  0.2370 -0.1609 -0.4783
  402TMC3    C8 6065   4.307   4.181   1.095  0.6514  0.4269  0.0439
  402TMC3    O1 6066   3.985   3.983   0.651  0.3557  0.3943  0.0897
  402TMC3    O2 6067   4.389   4.092   1.073 -0.3253 -0.2552  0.0707
  403MPD2     C 6068   2.797   3.088  13.811  0.3529 -0.7985 -0.0557
  403MPD2    C1 6069   2.846   3.203  13.763  0.1746  1.0296 -0.1789
  403MPD2    C2 6070   2.958   3.252  13.828 -0.0609  0.0134  0.4965
  403MPD2    C3 6071   3.019   3.181  13.936  0.0231 -0.3844  0.3638
  403MPD2    C4 6072   2.961   3.068  13.985 -0.1998 -0.2058  0.3999
  403MPD2    C5 6073   2.854   3.019  13.917 -0.3951 -0.6731  0.1171
  403MPD2     H 6074   3.017   3.338  13.801 -1.7776  0.5238 -1.5948
  403MPD2    H1 6075   3.002   3.019  14.073  0.2042  0.9974  0.8826
  403MPD2    H2 6076   2.716   3.036  13.761 -1.7291 -0.0072  2.5519
  403MPD2    H3 6077   2.821   2.922  13.955  0.8776 -0.0804  2.7325
  403MPD2     N 6078   3.143   3.237  13.987 -0.4177 -0.2278 -0.4500
  403MPD2    H5 6079   3.175   3.325  13.950  0.8903 -0.8067 -0.7099
  403MPD2    N1 6080   2.786   3.262  13.649 -0.1378  0.2199  0.0858
  403MPD2    H7 6081   2.705   3.218  13.607 -0.8869 -0.2381  1.9973
  404TMC3    C1 6082   2.741   3.388  13.454 -0.5564  1.2498  0.2421
  404TMC3    C2 6083   2.612   3.338  13.447  0.2930 -0.0833  0.6760
  404TMC3    C3 6084   2.537   3.364  13.331 -0.1105 -0.4886  1.0610
  404TMC3    C4 6085   2.798   3.466  13.355  0.0748 -0.0828 -0.0270
  404TMC3    C5 6086   2.719   3.493  13.248  0.2995  0.1659 -0.6401
  404TMC3    C6 6087   2.597   3.434  13.228  0.3640  0.5333 -0.2990
  404TMC3     C 6088   2.824   3.372  13.574  0.3285  0.1692  0.1063
  404TMC3     O 6089   2.920   3.445  13.597  0.3545 -0.3441  0.2157
  404TMC3     H 6090   2.565   3.282  13.527 -1.8034  1.4100  0.5169
  404TMC3    H1 6091   2.905   3.487  13.355  0.4286 -1.8434  1.2042
  404TMC3    H2 6092   2.540   3.451  13.137  1.3581 -0.4715 -1.1114
  404TMC3    C7 6093   2.781   3.567  13.142  0.8109  0.5173 -0.2535
  404TMC3    C8 6094   2.414   3.293  13.303  0.0279 -0.2279 -0.1470
  404TMC3    O1 6095   2.869   3.647  13.176 -0.4353  0.3756  0.3977
  404TMC3    O2 6096   2.376   3.300  13.185 -0.8216 -0.7426  0.1267
  405MPD2     C 6097   3.789   4.632  14.908 -0.9208  0.0288 -0.1460
  405MPD2    C1 6098   3.839   4.632  14.774 -0.6852  1.0212  0.0763
  405MPD2    C2 6099   3.747   4.600  14.676  0.4253  0.6610  0.8002
  405MPD2    C3 6100   3.627   4.546  14.711  0.0156 -0.2389  0.7056
  405MPD2    C4 6101   3.580   4.541  14.837  0.3591 -0.9210 -0.3792
  405MPD2    C5 6102   3.657   4.586  14.934 -0.3057 -1.2886  0.4656
  405MPD2     H 6103   3.773   4.585  14.572 -4.1806  1.0693 -0.4013
  405MPD2    H1 6104   3.482   4.500  14.861 -0.2953 -0.2433 -1.8698
  405MPD2    H2 6105   3.854   4.653  14.993 -0.3779  0.4982 -0.6728
  405MPD2    H3 6106   3.616   4.572  15.034 -2.1506 -0.5829 -0.1772
  405MPD2     N 6107   3.566   4.492  14.599  0.0950  0.5950 -0.0874
  405MPD2    H5 6108   3.616   4.506  14.512 -0.7963 -0.5352 -0.7789
  405MPD2    N1 6109   3.976   4.646  14.753  0.7251  0.1943 -0.5654
  405MPD2    H7 6110   4.025   4.659  14.841 -1.1151 -1.2394  0.6748
  406TMC3    C1 6111   3.279   4.218  14.368  0.3095 -0.3900  0.4836
  406TMC3    C2 6112   3.383   4.136  14.329  0.3068  0.2426 -0.0768
  406TMC3    C3 6113   3.507   4.179  14.360  0.3506  0.1890 -0.0339
  406TMC3    C4 6114   3.300   4.337  14.427  0.2291  0.0604 -1.2538
  406TMC3    C5 6115   3.423   4.369  14.469  0.2938  0.8013 -0.2281
  406TMC3    C6 6116   3.529   4.292  14.436 -0.9162 -0.2202  0.1073
  406TMC3     C 6117   3.138   4.176  14.354 -0.5098  0.1377  0.0366
  406TMC3     O 6118   3.052   4.261  14.351 -0.1100 -0.4234 -0.0398
  406TMC3     H 6119   3.379   4.033  14.296 -1.2518  0.8037 -1.6689
  406TMC3    H1 6120   3.216   4.395  14.463  0.8690 -1.4907  2.7586
  406TMC3    H2 6121   3.614   4.293  14.503 -0.9981 -1.6320  0.2298
  406TMC3    C7 6122   3.439   4.447  14.589 -0.6096 -0.1626  0.4450
  406TMC3    C8 6123   3.631   4.099  14.332 -0.1565 -0.8077  0.1598
  406TMC3    O1 6124   3.342   4.451  14.663 -0.1887  0.2417  0.0127
  406TMC3    O2 6125   3.617   3.978  14.335  0.2236  0.4417 -0.2286
  407MPD2     C 6126   0.493   0.988  10.137 -0.3088 -0.5331  0.1562
  407MPD2    C1 6127   0.513   1.116  10.096 -0.4086 -0.8132 -0.1727
  407MPD2    C2 6128   0.446   1.214  10.176 -0.7238  0.4083  0.0391
  407MPD2    C3 6129   0.371   1.188  10.285 -0.6296 -0.4156  0.1000
  407MPD2    C4 6130   0.350   1.061  10.317  0.2472  0.3172  0.9021
  407MPD2    C5 6131   0.404   0.964  10.237  0.2748 -0.4052 -0.5871
  407MPD2     H 6132   0.448   1.316  10.139  0.2056 -1.3128 -4.7145
  407MPD2    H1 6133   0.301   1.028  10.408 -2.1403 -0.0098 -0.5039
  407MPD2    H2 6134   0.543   0.907  10.084  2.1233  2.7975 -2.6746
  407MPD2    H3 6135   0.381   0.862  10.265  0.3350  0.0180  1.0367
  407MPD2     N 6136   0.337   1.296  10.372 -0.5727 -0.6850 -0.8744
  407MPD2    H5 6137   0.372   1.389  10.352 -1.0437 -0.1160  0.9346
  407MPD2    N1 6138   0.606   1.150   9.995  0.2665 -0.6706 -0.6768
  407MPD2    H7 6139   0.612   1.248   9.969  1.1232 -0.5578 -0.0568
  408TMC3    C1 6140   0.794   1.146   9.844 -0.6257 -0.3688 -0.1002
  408TMC3    C2 6141   0.890   1.063   9.790 -0.2025  0.2887  0.3261
  408TMC3    C3 6142   1.019   1.110   9.771 -0.7907  0.6473 -0.0977
  408TMC3    C4 6143   0.827   1.278   9.879 -0.3858  0.8044 -0.0507
  408TMC3    C5 6144   0.945   1.327   9.829 -0.0914 -0.2683 -0.3312
  408TMC3    C6 6145   1.048   1.246   9.792 -0.1805 -0.0833  1.0377
  408TMC3     C 6146   0.698   1.072   9.929  0.2867 -0.3757  0.8965
  408TMC3     O 6147   0.718   0.950   9.934 -0.5595 -0.6956 -0.2860
  408TMC3     H 6148   0.872   0.957   9.771 -1.3353  0.4910  0.2668
  408TMC3    H1 6149   0.760   1.356   9.914 -1.9871  0.3112 -2.0359
  408TMC3    H2 6150   1.149   1.285   9.787  0.4472 -1.8631 -0.1534
  408TMC3    C7 6151   0.962   1.476   9.818 -0.1261 -0.5603  0.1533
  408TMC3    C8 6152   1.123   1.016   9.758 -0.0698 -0.3112 -0.2532
  408TMC3    O1 6153   0.869   1.549   9.855 -0.5459  0.7052  0.1652
  408TMC3    O2 6154   1.090   0.898   9.778  0.3915  0.5667 -0.2756
  409MPD2     C 6155   4.689   1.290  17.182 -0.1746  0.5787 -0.3002
  409MPD2    C1 6156   0.081   1.244  17.209 -0.2527  0.3290  0.0812
  409MPD2    C2 6157   0.178   1.343  17.204 -0.1858  0.4484  0.5941
  409MPD2    C3 6158   0.155   1.470  17.168 -0.0773 -0.0259  0.5029
  409MPD2    C4 6159   0.027   1.510  17.147 -0.4097 -0.1460  0.0563
  409MPD2    C5 6160   4.665   1.418  17.146  0.2686 -0.5193  0.1925
  409MPD2     H 6161   0.280   1.309  17.217  0.4338  1.8977 -0.3363
  409MPD2    H1 6162   0.007   1.613  17.120  0.8562  0.4580  1.4087
  409MPD2    H2 6163   4.601   1.226  17.190 -0.9816  1.4876 -1.8121
  409MPD2    H3 6164   4.562   1.452  17.136 -0.1739 -2.3504 -1.6092
  409MPD2     N 6165   0.246   1.574  17.148 -0.3103 -0.4243 -0.6823
  409MPD2    H5 6166   0.209   1.664  17.118 -0.4643  0.1319  1.2001
  409MPD2    N1 6167   0.112   1.109  17.224  0.1390  0.1340  0.8798
  409MPD2    H7 6168   0.212   1.095  17.239 -0.1791 -2.0491  0.9174
  410TMC3    C1 6169   0.459   1.675  17.107 -0.7434  0.0535  0.3798
  410TMC3    C2 6170   0.597   1.681  17.132 -0.2635 -0.1042 -0.5829
  410TMC3    C3 6171   0.671   1.759  17.050 -0.7656 -0.0638  0.2207
  410TMC3    C4 6172   0.398   1.758  17.013  0.6243 -0.3157 -0.0839
  410TMC3    C5 6173   0.476   1.851  16.950 -0.9949  0.2804  0.4293
  410TMC3    C6 6174   0.612   1.851  16.967  0.3191  0.3440 -0.3153
  410TMC3     C 6175   0.378   1.562  17.167 -0.2836  0.2075  0.0051
  410TMC3     O 6176   0.449   1.475  17.221  0.7288  0.6913 -0.5440
  410TMC3     H 6177   0.636   1.635  17.222 -1.5103 -1.5980 -0.8102
  410TMC3    H1 6178   0.292   1.753  16.989  0.9726 -0.7287 -1.4992
  410TMC3    H2 6179   0.677   1.915  16.908 -0.4911  1.1982 -0.2652
  410TMC3    C7 6180   0.419   1.907  16.825  0.1962  0.7832 -0.2823
  410TMC3    C8 6181   0.808   1.776  17.086 -0.9409 -0.5130  0.5670
  410TMC3    O1 6182   0.310   1.862  16.788 -0.0541 -0.1055 -0.0315
  410TMC3    O2 6183   0.843   1.877  17.147  0.0737  0.4288 -0.1395
  411MPD2     C 6184   0.725   2.077  14.693 -0.6669 -0.1390  0.3909
  411MPD2    C1 6185   0.592   2.116  14.680  0.1707 -0.5463 -0.1358
  411MPD2    C2 6186   0.492   2.023  14.651  0.9618  0.5204  0.1893
  411MPD2    C3 6187   0.527   1.894  14.619 -0.3403  0.2082  0.3081
  411MPD2    C4 6188   0.659   1.856  14.616  0.4697  0.2059 -0.6896
  411MPD2    C5 6189   0.757   1.954  14.645  0.4777  0.2181  0.4306
  411MPD2     H 6190   0.391   2.063  14.652  1.2355  1.2293 -0.4389
  411MPD2    H1 6191   0.697   1.762  14.576  0.4133 -0.2169  0.2504
  411MPD2    H2 6192   0.803   2.149  14.716 -1.2985 -0.4956  3.6450
  411MPD2    H3 6193   0.863   1.935  14.643  0.7477  1.8216 -1.0567
  411MPD2     N 6194   0.429   1.798  14.602  0.0677  0.1203  0.8633
  411MPD2    H5 6195   0.450   1.709  14.557 -1.3030  0.6561 -0.8410
  411MPD2    N1 6196   0.559   2.253  14.692 -0.2029 -0.0067  0.0191
  411MPD2    H7 6197   0.630   2.316  14.728  0.9409 -1.2936  0.0069
  412TMC3    C1 6198   0.221   1.691  14.606 -0.7279 -0.2480  0.0772
  412TMC3    C2 6199   0.108   1.681  14.671 -0.5640  0.6115  0.1592
  412TMC3    C3 6200   4.725   1.651  14.602 -0.5392  0.6628  0.9658
  412TMC3    C4 6201   0.220   1.667  14.469  0.4596 -0.1920 -0.0081
  412TMC3    C5 6202   0.112   1.630  14.403  0.3231 -0.1754 -0.0782
  412TMC3    C6 6203   4.728   1.616  14.470 -0.2139  0.3359 -0.0992
  412TMC3     C 6204   0.304   1.802  14.657 -0.2495 -0.0441 -0.4753
  412TMC3     O 6205   0.265   1.878  14.746  0.1048 -0.3492  0.7270
  412TMC3     H 6206   0.108   1.711  14.776 -1.7778  0.1608  0.2912
  412TMC3    H1 6207   0.306   1.683  14.404 -0.1431 -0.5171 -0.8789
  412TMC3    H2 6208   4.636   1.599  14.415 -1.3685  2.0444  1.3255
  412TMC3    C7 6209   0.099   1.716  14.281  0.1359 -0.6977 -0.0266
  412TMC3    C8 6210   4.623   1.753  14.628  0.3442  0.2523  1.1970
  412TMC3    O1 6211   4.734   1.778  14.270 -0.2972  0.0294  0.4002
  412TMC3    O2 6212   4.571   1.758  14.738 -0.4969  0.4859 -0.7684
  413MPD2     C 6213   2.185   0.845  15.690 -0.4273 -0.0518  1.2322
  413MPD2    C1 6214   2.165   0.769  15.577 -0.3570  0.2357  0.1236
  413MPD2    C2 6215   2.282   0.734  15.503  0.2508 -0.1221 -0.3107
  413MPD2    C3 6216   2.404   0.772  15.546  0.1963 -0.1726 -0.0534
  413MPD2    C4 6217   2.425   0.837  15.661  0.0353  0.6325  0.3631
  413MPD2    C5 6218   2.311   0.884  15.724 -0.0437 -0.5461  0.4339
  413MPD2     H 6219   2.274   0.680  15.409 -2.4144  0.2911 -0.3365
  413MPD2    H1 6220   2.515   0.862  15.716 -0.6240  0.6837  1.4093
  413MPD2    H2 6221   2.102   0.886  15.748  0.5653  0.6226  2.1694
  413MPD2    H3 6222   2.329   0.955  15.804 -1.6716  1.1223 -0.6729
  413MPD2     N 6223   2.513   0.722  15.477  0.0989 -0.2084 -0.4085
  413MPD2    H5 6224   2.494   0.653  15.404  2.8381 -0.4405 -0.8923
  413MPD2    N1 6225   2.039   0.722  15.543 -0.7163  0.2589  0.7152
  413MPD2    H7 6226   1.975   0.737  15.620 -1.6934  0.3792 -0.1192
  414TMC3    C1 6227   2.720   0.665  15.396  0.2290 -0.3142  0.2211
  414TMC3    C2 6228   2.814   0.562  15.417 -0.0958 -0.1064 -0.3265
  414TMC3    C3 6229   2.870   0.502  15.309  0.3892  0.0056 -0.0598
  414TMC3    C4 6230   2.676   0.686  15.272 -0.7105 -0.4383  0.0878
  414TMC3    C5 6231   2.738   0.625  15.166 -0.2317  0.1667 -0.8071
  414TMC3    C6 6232   2.834   0.530  15.180 -0.2771 -0.3032  0.3817
  414TMC3     C 6233   2.646   0.730  15.504 -0.0200 -1.2776  0.5028
  414TMC3     O 6234   2.696   0.807  15.587  0.1933 -0.4368  0.0585
  414TMC3     H 6235   2.830   0.535  15.521 -0.7560  2.2310  0.3894
  414TMC3    H1 6236   2.584   0.741  15.257  0.1425  0.3964 -2.0438
  414TMC3    H2 6237   2.886   0.484  15.097  0.6013  1.8891 -0.2879
  414TMC3    C7 6238   2.679   0.654  15.035  0.2719  0.1198 -0.3068
  414TMC3    C8 6239   2.963   0.391  15.330  0.1588  1.0386 -0.0624
  414TMC3    O1 6240   2.559   0.654  15.045 -0.0169  0.0019 -0.4333
  414TMC3    O2 6241   3.014   0.344  15.227  0.5142 -0.6158 -0.2691
  415TMC3    C1 6242   2.389   3.249  10.392  0.2935  0.0447 -0.0521
  415TMC3    C2 6243   2.393   3.388  10.379 -0.0121 -0.2745  0.0378
  415TMC3    C3 6244   2.283   3.446  10.315  0.0037  0.5035 -0.1834
  415TMC3    C4 6245   2.284   3.175  10.345 -0.1437  0.4052  0.4484
  415TMC3    C5 6246   2.174   3.234  10.277  0.2133 -0.0599  0.0658
  415TMC3    C6 6247   2.168   3.374  10.271  0.4726  0.0018  0.2845
  415TMC3     C 6248   2.481   3.172  10.482  0.4849 -0.4135 -0.8238
  415TMC3     O 6249   2.424   3.089  10.555 -0.8193 -0.3004  0.2951
  415TMC3     H 6250   2.474   3.445  10.422  1.1635 -0.1681 -2.3272
  415TMC3    H1 6251   2.301   3.068  10.344  0.4454  0.4808  1.9774
  415TMC3    H2 6252   2.081   3.424  10.229  0.2615 -0.3553  0.2934
  415TMC3    C7 6253   2.100   3.158  10.183 -0.1859 -0.7398 -1.1211
  415TMC3    C8 6254   2.281   3.577  10.246 -0.0851  0.2146 -0.3455
  415TMC3    O1 6255   2.060   3.225  10.090 -0.2988  0.1693 -0.2733
  415TMC3    O2 6256   2.180   3.613  10.188 -0.4659  0.2109  0.1249
  416MPD2     C 6257   4.660   2.763  11.604 -0.4119 -0.6411 -0.2009
  416MPD2    C1 6258   4.580   2.689  11.688  0.3587  0.5469  0.3021
  416MPD2    C2 6259   4.594   2.550  11.690  0.0432  0.0288  0.2466
  416MPD2    C3 6260   4.685   2.486  11.606  0.2004  0.0031  0.0299
  416MPD2    C4 6261   0.033   2.567  11.529  0.5062 -0.1743  0.1722
  416MPD2    C5 6262   0.019   2.702  11.526  0.0912 -0.5031  0.3363
  416MPD2     H 6263   4.521   2.491  11.744 -0.0077  0.8152  1.0483
  416MPD2    H1 6264   0.094   2.522  11.452  1.7821 -0.8015  1.5291
  416MPD2    H2 6265   4.642   2.868  11.581  0.9406 -0.2906  0.3531
  416MPD2    H3 6266   0.084   2.752  11.456 -1.2266  1.5266  0.5655
  416MPD2     N 6267   4.688   2.342  11.604 -0.4039 -0.1208 -0.9726
  416MPD2    H5 6268   4.636   2.294  11.676 -0.6015 -0.7834 -1.5598
  416MPD2    N1 6269   4.489   2.754  11.769 -0.7248  0.2065  0.2287
  416MPD2    H7 6270   4.467   2.849  11.740 -2.6120 -1.3259 -3.2788
  417TMC3    C1 6271   4.316   2.776  11.939  0.1952 -0.8359  0.2759
  417TMC3    C2 6272   4.249   2.711  12.038 -0.2649  0.0572  0.0955
  417TMC3    C3 6273   4.113   2.717  12.042 -0.5271 -0.5018  0.0541
  417TMC3    C4 6274   4.252   2.846  11.846 -0.7321 -0.8039 -0.6727
  417TMC3    C5 6275   4.113   2.862  11.856  0.3141  0.0281  0.0699
  417TMC3    C6 6276   4.045   2.794  11.951  0.1648  0.1282  0.8583
  417TMC3     C 6277   4.431   2.699  11.882  0.1893  0.0981  0.1827
  417TMC3     O 6278   4.459   2.597  11.943 -0.0924 -0.1924  0.2640
  417TMC3     H 6279   4.303   2.656  12.115  1.2135 -0.1048 -1.0595
  417TMC3    H1 6280   4.298   2.915  11.776  0.3118 -1.0238 -0.2068
  417TMC3    H2 6281   3.937   2.807  11.955  0.0981 -0.5197  1.2027
  417TMC3    C7 6282   4.045   2.894  11.731  0.3302 -0.2819  0.3679
  417TMC3    C8 6283   4.051   2.703  12.170 -0.2160 -0.7630 -0.3318
  417TMC3    O1 6284   4.073   3.004  11.683 -0.3669  0.1593  1.1499
  417TMC3    O2 6285   3.951   2.774  12.189  0.1970  0.2563  0.4329
  418TMC3    C1 6286   3.205   4.562   0.105  0.4503  0.5663  0.2309
  418TMC3    C2 6287   3.072   4.526   0.099  0.3948 -0.8941 -0.1669
  418TMC3    C3 6288   3.034   4.438   0.198  0.0960 -0.2602 -0.3031
  418TMC3    C4 6289   3.286   4.521   0.210 -0.2026 -0.2407  0.0397
  418TMC3    C5 6290   3.237   4.442   0.313 -0.1011 -0.1668  0.4025
  418TMC3    C6 6291   3.113   4.390   0.298  0.0849 -0.4840  0.1650
  418TMC3     C 6292   3.259   4.607  17.724 -0.4972  0.0158  0.4716
  418TMC3     O 6293   3.176   4.637  17.642 -0.6153 -0.5426  0.4309
  418TMC3     H 6294   3.004   4.546   0.017 -0.5683 -0.8382  0.6401
  418TMC3    H1 6295   3.390   4.552   0.214 -0.6401  1.2225 -0.2115
  418TMC3    H2 6296   3.082   4.323   0.378 -0.3801 -1.0342 -0.4740
  418TMC3    C7 6297   3.324   4.350   0.386  0.3044 -0.4471 -0.2776
  418TMC3    C8 6298   2.913   4.369   0.184  0.8921  0.5732  0.4036
  418TMC3    O1 6299   3.293   4.232   0.390 -0.0777 -0.4108 -0.4828
  418TMC3    O2 6300   2.816   4.432   0.150  0.0416  0.1916 -0.5227
  419MPD2     C 6301   2.020   2.242  13.056  0.5156 -0.7813 -0.2229
  419MPD2    C1 6302   1.932   2.304  12.971  0.0146  0.1707  0.2007
  419MPD2    C2 6303   1.805   2.331  13.017 -0.4706  0.3686 -0.2529
  419MPD2    C3 6304   1.772   2.295  13.146  0.1132 -0.0112  0.1757
  419MPD2    C4 6305   1.868   2.242  13.234  0.6522  0.2018 -0.0555
  419MPD2    C5 6306   1.989   2.217  13.184 -0.0797  0.4682  0.2640
  419MPD2     H 6307   1.723   2.361  12.953  0.4065 -2.5647 -2.7686
  419MPD2    H1 6308   1.838   2.219  13.336 -0.9622  2.3324 -0.0702
  419MPD2    H2 6309   2.122   2.215  13.031  0.6112 -0.1310 -0.5303
  419MPD2    H3 6310   2.060   2.177  13.256  1.2255  2.1822 -0.0643
  419MPD2     N 6311   1.638   2.322  13.185 -0.2243 -0.1781 -0.0403
  419MPD2    H5 6312   1.574   2.367  13.120 -1.9643 -1.1522  1.0073
  419MPD2    N1 6313   1.967   2.343  12.838 -0.6077 -0.3524 -0.3520
  419MPD2    H7 6314   1.898   2.395  12.785  0.9130  0.4930 -1.4885
  420TMC3    C1 6315   1.432   2.249  13.282  0.0945  0.0089 -0.2386
  420TMC3    C2 6316   1.358   2.348  13.234  0.4094 -0.1602  0.1202
  420TMC3    C3 6317   1.231   2.371  13.283  0.3598 -0.1490 -0.3635
  420TMC3    C4 6318   1.373   2.160  13.366  0.3727  0.5735  0.4267
  420TMC3    C5 6319   1.242   2.174  13.405 -0.0944  0.1687  0.3196
  420TMC3    C6 6320   1.165   2.276  13.365  0.2258 -0.0038  0.0376
  420TMC3     C 6321   1.575   2.275  13.300  0.0234 -0.0768 -1.0232
  420TMC3     O 6322   1.621   2.225  13.400 -0.4962  0.5416  0.8043
  420TMC3     H 6323   1.398   2.436  13.184  0.0382  0.3340  0.6941
  420TMC3    H1 6324   1.436   2.083  13.408  0.2866 -0.4555 -1.3577
  420TMC3    H2 6325   1.070   2.294  13.413 -0.3120  0.0658 -1.0477
  420TMC3    C7 6326   1.195   2.065  13.493 -0.0835 -0.6109 -0.4932
  420TMC3    C8 6327   1.153   2.478  13.221 -0.3006 -0.6391 -0.3834
  420TMC3    O1 6328   1.267   1.961  13.501  0.3860  0.3197 -0.1852
  420TMC3    O2 6329   1.199   2.540  13.122 -0.4461  0.2513  0.0914
  421TMC3    C1 6330   3.324   3.283  14.129  0.2236 -0.1559 -0.7826
  421TMC3    C2 6331   3.340   3.411  14.079  0.2819 -0.1465  0.3481
  421TMC3    C3 6332   3.449   3.478  14.094  0.3802  0.1208 -0.5928
  421TMC3    C4 6333   3.417   3.234  14.219  0.6612 -0.6178 -0.1068
  421TMC3    C5 6334   3.529   3.313  14.235 -0.0931 -0.2052  0.2376
  421TMC3    C6 6335   3.549   3.426  14.167  0.5917  0.1744 -0.6569
  421TMC3     C 6336   3.219   3.184  14.087 -0.2087  0.4647 -0.7133
  421TMC3     O 6337   3.201   3.079  14.144  0.2020 -0.2937 -0.0258
  421TMC3     H 6338   3.264   3.452  14.014 -0.7947  1.1918  2.4693
  421TMC3    H1 6339   3.407   3.142  14.276 -1.9746 -0.4825 -0.3719
  421TMC3    H2 6340   3.644   3.479  14.174  0.9978 -0.7428  0.9535
  421TMC3    C7 6341   3.649   3.252  14.285  0.3118  0.2691  0.1031
  421TMC3    C8 6342   3.467   3.609  14.041  0.8160  0.4111 -0.2492
  421TMC3    O1 6343   3.746   3.311  14.244 -0.2279 -0.2227  0.8051
  421TMC3    O2 6344   3.584   3.636  14.014 -0.1309 -0.4096  0.1088
  422TMC3    C1 6345   0.814   0.499  12.784  0.7270 -0.2827  0.6046
  422TMC3    C2 6346   0.783   0.615  12.851  0.2668 -0.1326  0.2260
  422TMC3    C3 6347   0.672   0.616  12.929  0.4057 -0.5439  0.4715
  422TMC3    C4 6348   0.734   0.388  12.789  0.3834 -0.1801  0.0657
  422TMC3    C5 6349   0.613   0.395  12.866  0.2208  0.0256 -0.4259
  422TMC3    C6 6350   0.579   0.513  12.928  0.8305  0.0386  0.0647
  422TMC3     C 6351   0.926   0.508  12.695  0.2585  0.3702  0.1523
  422TMC3     O 6352   0.960   0.619  12.655  0.0852 -0.9809  0.0053
  422TMC3     H 6353   0.858   0.692  12.860 -0.1406  0.3057 -0.1192
  422TMC3    H1 6354   0.759   0.293  12.744 -0.3834  0.3396 -1.4605
  422TMC3    H2 6355   0.492   0.521  12.992  1.5297  0.4757  0.9633
  422TMC3    C7 6356   0.521   0.278  12.866  0.1069 -0.0663  0.7089
  422TMC3    C8 6357   0.661   0.723  13.025  0.1759  0.0665 -0.2180
  422TMC3    O1 6358   0.554   0.185  12.792 -0.0746 -0.5335 -0.1526
  422TMC3    O2 6359   0.761   0.794  13.040 -0.2825  0.5328  0.0856
  423MPD2     C 6360   1.668   0.481   0.877 -0.1844 -0.4167 -0.3960
  423MPD2    C1 6361   1.783   0.541   0.840  0.7356 -1.0451  0.2217
  423MPD2    C2 6362   1.817   0.532   0.702  0.5602  0.0296  0.8436
  423MPD2    C3 6363   1.735   0.461   0.615  0.3157  0.0142 -0.5619
  423MPD2    C4 6364   1.626   0.390   0.666 -0.5826  0.5957 -0.4187
  423MPD2    C5 6365   1.591   0.410   0.794 -0.6639 -0.4358  0.2987
  423MPD2     H 6366   1.907   0.578   0.663 -0.1964  0.4392 -0.4539
  423MPD2    H1 6367   1.560   0.333   0.602 -0.2764  0.6095 -0.7466
  423MPD2    H2 6368   1.631   0.494   0.978 -0.3585  1.6726 -0.7232
  423MPD2    H3 6369   1.501   0.363   0.831 -0.9329 -0.0180  0.1740
  423MPD2     N 6370   1.756   0.447   0.474 -0.1566 -0.5064  0.2805
  423MPD2    H5 6371   1.696   0.385   0.421  0.7473 -1.5940  0.5463
  423MPD2    N1 6372   1.869   0.610   0.932 -0.4674 -0.6805  0.2026
  423MPD2    H7 6373   1.964   0.635   0.904 -0.5510 -0.2720  0.2877
  424TMC3    C1 6374   1.947   0.712   1.131  0.4357  0.2652 -0.3001
  424TMC3    C2 6375   2.080   0.691   1.090 -0.3952 -0.2453  0.4290
  424TMC3    C3 6376   2.171   0.763   1.158  0.1386 -0.7088  0.3352
  424TMC3    C4 6377   1.911   0.803   1.225  0.2378 -0.1243  0.2200
  424TMC3    C5 6378   2.004   0.870   1.296  0.2731  0.1831  0.8127
  424TMC3    C6 6379   2.138   0.852   1.260  0.5235  0.0458  0.3314
  424TMC3     C 6380   1.838   0.637   1.065  0.0431 -0.2162  0.1980
  424TMC3     O 6381   1.729   0.634   1.126  0.1331  0.0752  0.0399
  424TMC3     H 6382   2.095   0.608   1.022  0.7122  0.6039 -0.3646
  424TMC3    H1 6383   1.805   0.822   1.241  0.8149  1.1780  2.4938
  424TMC3    H2 6384   2.213   0.906   1.317  0.7944  0.2112 -0.1847
  424TMC3    C7 6385   1.968   0.953   1.409 -0.0641 -0.2183 -0.5417
  424TMC3    C8 6386   2.306   0.738   1.102 -0.3219  0.3180 -0.0768
  424TMC3    O1 6387   2.044   0.974   1.499  0.0726  0.0837 -0.1177
  424TMC3    O2 6388   2.315   0.642   1.024 -0.5549 -0.6381 -0.0109
  425MPD2     C 6389   0.564   0.430  16.924 -0.1246  0.3185  0.1277
  425MPD2    C1 6390   0.526   0.332  17.012  0.1015 -0.3380  0.4622
  425MPD2    C2 6391   0.410   0.348  17.084  0.4353  0.3635  0.5706
  425MPD2    C3 6392   0.324   0.455  17.065  0.0213  0.6937 -0.0947
  425MPD2    C4 6393   0.352   0.548  16.962 -0.2089  0.0713  0.1536
  425MPD2    C5 6394   0.476   0.533  16.895 -0.1363  0.4541  0.3714
  425MPD2     H 6395   0.380   0.271  17.154 -0.0193 -0.0616 -0.0958
  425MPD2    H1 6396   0.283   0.628  16.939 -1.0065 -0.3828  1.0100
  425MPD2    H2 6397   0.659   0.420  16.871 -1.1824  1.9626 -2.0694
  425MPD2    H3 6398   0.511   0.600  16.818 -1.1954  1.6838  0.9674
  425MPD2     N 6399   0.203   0.452  17.144 -0.3470  0.6062  0.5616
  425MPD2    H5 6400   0.127   0.517  17.124 -0.5415  0.1212 -0.2499
  425MPD2    N1 6401   0.615   0.223  17.041 -0.0258 -0.7441  0.7124
  425MPD2    H7 6402   0.701   0.227  16.987 -1.7438 -0.3845 -1.9938
  426TMC3    C1 6403   0.689   0.020  17.135  0.2327 -0.1445  0.1411
  426TMC3    C2 6404   0.757   4.703  17.025  0.5791 -0.3630  0.8816
  426TMC3    C3 6405   0.804   4.575  17.039  1.0182  0.0511 -0.1511
  426TMC3    C4 6406   0.669   4.679  17.253 -0.0337 -0.2293  0.2137
  426TMC3    C5 6407   0.728   4.557  17.264  0.0323  0.2409 -0.0329
  426TMC3    C6 6408   0.790   4.497  17.156  0.2146  0.4683  0.1206
  426TMC3     C 6409   0.591   0.115  17.123 -0.7092 -0.3258 -0.6289
  426TMC3     O 6410   0.498   0.085  17.195  0.1588 -0.1936  0.4720
  426TMC3     H 6411   0.776   0.025  16.935 -1.6562  0.5164  0.9685
  426TMC3    H1 6412   0.629   4.715  17.347 -1.1276  1.4191 -0.8693
  426TMC3    H2 6413   0.820   4.392  17.158 -1.4434 -0.0083 -0.2648
  426TMC3    C7 6414   0.684   4.464  17.373 -0.9937  0.2876  0.2573
  426TMC3    C8 6415   0.836   4.511  16.916  1.1093 -0.2252  0.3167
  426TMC3    O1 6416   0.745   4.362  17.398 -0.2814  0.5045 -0.2288
  426TMC3    O2 6417   0.917   4.568  16.837 -0.1120 -0.3766 -0.1383
  427MPD2     C 6418   4.383   2.261  14.923 -0.3326 -0.5878 -0.2439
  427MPD2    C1 6419   4.365   2.268  15.060  0.0051  0.2850 -0.0088
  427MPD2    C2 6420   4.238   2.299  15.108  0.2445 -0.6814 -0.9643
  427MPD2    C3 6421   4.130   2.303  15.028  0.3634  0.3339 -0.1723
  427MPD2    C4 6422   4.149   2.291  14.893  0.0176 -0.6851 -0.5607
  427MPD2    C5 6423   4.273   2.273  14.842 -0.3426 -0.0935  0.1688
  427MPD2     H 6424   4.239   2.331  15.212 -1.2145  0.3942 -1.2959
  427MPD2    H1 6425   4.061   2.302  14.830 -1.2449 -2.3596  0.9074
  427MPD2    H2 6426   4.478   2.243  14.874 -0.5511 -0.5227 -0.6898
  427MPD2    H3 6427   4.292   2.264  14.735 -2.8456  0.9672 -0.3766
  427MPD2     N 6428   3.992   2.330  15.060 -0.7196  0.2307 -0.4560
  427MPD2    H5 6429   3.932   2.326  14.978 -0.5982 -3.8694 -0.3794
  427MPD2    N1 6430   4.479   2.252  15.147  0.3922 -0.4304 -0.4272
  427MPD2    H7 6431   4.450   2.244  15.244  1.7339 -0.2396 -0.0131
  428TMC3    C1 6432   4.673   2.151  15.224  0.1369  0.1580 -0.0925
  428TMC3    C2 6433   4.609   2.046  15.287  0.0414  0.8752 -0.2573
  428TMC3    C3 6434   4.677   1.962  15.366  0.7721 -0.6944 -0.5418
  428TMC3    C4 6435   0.072   2.172  15.235  0.4198 -1.0453 -1.0832
  428TMC3    C5 6436   0.132   2.100  15.335 -0.3600 -0.2572 -0.4742
  428TMC3    C6 6437   0.065   2.005  15.401  0.3382 -0.5472 -0.4775
  428TMC3     C 6438   4.612   2.227  15.119  0.5177 -0.8764  0.3045
  428TMC3     O 6439   4.677   2.261  15.018  0.1545 -0.3829  0.0935
  428TMC3     H 6440   4.505   2.028  15.263 -0.0513  0.7341  0.2536
  428TMC3    H1 6441   0.111   2.262  15.190 -1.4762 -0.2632 -1.1601
  428TMC3    H2 6442   0.130   1.962  15.476  0.6778 -0.2368 -0.5979
  428TMC3    C7 6443   0.258   2.154  15.393 -0.9405 -0.4418  0.1875
  428TMC3    C8 6444   4.622   1.836  15.430  0.0459 -0.3446 -0.3997
  428TMC3    O1 6445   0.268   2.161  15.517 -0.1642  0.5983  0.0423
  428TMC3    O2 6446   4.675   1.808  15.539 -0.1308 -0.7138 -0.5240
  429MPD2     C 6447   0.223   1.942   0.068  0.4226  0.6567 -0.4784
  429MPD2    C1 6448   0.316   1.908  17.716 -0.2852  0.3297  0.4169
  429MPD2    C2 6449   0.401   2.008  17.675 -0.5735  0.4382 -0.4751
  429MPD2    C3 6450   0.389   2.140  17.724  0.0201 -0.4195 -0.6152
  429MPD2    C4 6451   0.284   2.171   0.060 -0.1128 -0.8918  0.0152
  429MPD2    C5 6452   0.206   2.071   0.110 -0.2667 -0.1075  0.1108
  429MPD2     H 6453   0.484   1.980  17.611  0.5877  1.8947  0.4049
  429MPD2    H1 6454   0.257   2.271   0.090 -1.1199 -1.0095 -0.4900
  429MPD2    H2 6455   0.159   1.865   0.109 -0.9157  1.4724 -1.0174
  429MPD2    H3 6456   0.137   2.089   0.192  0.3079  1.5291  0.2343
  429MPD2     N 6457   0.477   2.244  17.682  0.5298  0.1151  0.1406
  429MPD2    H5 6458   0.553   2.214  17.621 -0.1546  2.8032 -2.0218
  429MPD2    N1 6459   0.334   1.776  17.678 -0.5815  0.1038  0.2785
  429MPD2    H7 6460   0.421   1.758  17.630 -0.1396  0.3837  0.9655
  430TMC3    C1 6461   0.574   2.449  17.640  0.7293  0.0998 -0.0536
  430TMC3    C2 6462   0.539   2.562  17.566  0.1728  0.1740 -0.4996
  430TMC3    C3 6463   0.635   2.621  17.490 -0.2427 -0.9638 -0.0229
  430TMC3    C4 6464   0.700   2.406  17.640  0.6535  0.0014  0.2242
  430TMC3    C5 6465   0.798   2.475  17.572 -0.3246  0.5830  0.6235
  430TMC3    C6 6466   0.765   2.582  17.494 -0.5165  0.5712  0.1045
  430TMC3     C 6467   0.473   2.380  17.715  0.6422  0.0779 -0.0681
  430TMC3     O 6468   0.404   2.450   0.046  0.2950 -0.6661  0.9024
  430TMC3     H 6469   0.436   2.594  17.563 -0.3954 -1.6429 -0.7036
  430TMC3    H1 6470   0.725   2.313  17.691  1.5634  0.6019  0.8589
  430TMC3    H2 6471   0.830   2.630  17.421 -0.1580  0.4213  0.3294
  430TMC3    C7 6472   0.929   2.414  17.551 -0.0300 -0.3722 -0.1977
  430TMC3    C8 6473   0.598   2.674  17.362 -0.3779 -0.1330 -0.0474
  430TMC3    O1 6474   0.944   2.293  17.566 -0.1963  0.4411 -0.4638
  430TMC3    O2 6475   0.525   2.600  17.297  0.4740  0.0804 -0.2804
  431MPD2     C 6476   2.041   3.110  12.273 -0.4022  0.6000  0.1021
  431MPD2    C1 6477   2.163   3.066  12.320  0.1851  0.4778 -1.0043
  431MPD2    C2 6478   2.171   2.953  12.395  0.1098  0.3437 -0.3627
  431MPD2    C3 6479   2.067   2.861  12.404 -0.5317 -0.5160 -0.9011
  431MPD2    C4 6480   1.951   2.905  12.355 -0.0028 -0.5015  0.4439
  431MPD2    C5 6481   1.934   3.022  12.287  0.2586  0.1993 -0.0118
  431MPD2     H 6482   2.270   2.943  12.438  0.4974  0.7420 -1.1650
  431MPD2    H1 6483   1.861   2.853  12.385 -2.8092  3.2813 -1.5129
  431MPD2    H2 6484   2.034   3.203  12.218 -1.4183  0.1090 -0.6041
  431MPD2    H3 6485   1.839   3.043  12.239  0.9092  1.4149 -0.7827
  431MPD2     N 6486   2.071   2.735  12.461 -0.4413  0.2948  0.6759
  431MPD2    H5 6487   1.977   2.698  12.475 -1.1855  1.0757 -2.4089
  431MPD2    N1 6488   2.275   3.150  12.315  0.1502 -0.0789  0.3600
  431MPD2    H7 6489   2.338   3.151  12.394  0.1964 -1.0193  0.3434
  432TMC3    C1 6490   2.161   2.519  12.487  0.1388 -0.1368 -0.5652
  432TMC3    C2 6491   2.231   2.430  12.413  0.6414  0.0457 -0.1707
  432TMC3    C3 6492   2.210   2.297  12.442 -0.2225  0.0846  0.2158
  432TMC3    C4 6493   2.099   2.494  12.604 -0.0763 -0.4005  0.3900
  432TMC3    C5 6494   2.072   2.363  12.633  0.0895 -0.6823  1.5128
  432TMC3    C6 6495   2.134   2.268  12.556  0.6889 -0.3947  0.5260
  432TMC3     C 6496   2.184   2.664  12.466  0.2378  0.2168 -0.9573
  432TMC3     O 6497   2.290   2.692  12.412  0.3740  0.1716 -0.1877
  432TMC3     H 6498   2.275   2.456  12.317 -0.7874  0.8729 -0.6090
  432TMC3    H1 6499   2.054   2.578  12.656  0.5526  1.0915 -1.4703
  432TMC3    H2 6500   2.104   2.165  12.571 -2.4426  0.6150  1.1811
  432TMC3    C7 6501   2.082   2.316  12.771 -0.6757  0.2215  0.5324
  432TMC3    C8 6502   2.214   2.188  12.335 -0.6642 -0.0609  0.6267
  432TMC3    O1 6503   2.187   2.256  12.807  0.1930 -0.6773  0.6208
  432TMC3    O2 6504   2.141   2.090  12.354 -0.6530 -0.0986 -0.1594
  433MPD2     C 6505   0.232   1.710  11.319  0.0482 -0.2383  0.1106
  433MPD2    C1 6506   0.295   1.596  11.365 -0.2812  0.5154  0.4597
  433MPD2    C2 6507   0.383   1.608  11.468 -0.0527 -0.0471 -0.3562
  433MPD2    C3 6508   0.409   1.727  11.526 -0.6690 -0.2742  0.1139
  433MPD2    C4 6509   0.337   1.836  11.489  0.0413  0.1508  0.5103
  433MPD2    C5 6510   0.246   1.828  11.385  0.1586 -0.1317  0.0996
  433MPD2     H 6511   0.435   1.522  11.507  0.1742  0.6334  0.8309
  433MPD2    H1 6512   0.361   1.934  11.529  0.3354 -1.5070  4.3508
  433MPD2    H2 6513   0.163   1.703  11.236  1.5098 -0.5932 -1.0668
  433MPD2    H3 6514   0.194   1.915  11.346 -0.4926 -0.2720  0.6724
  433MPD2     N 6515   0.501   1.728  11.633  0.2145 -0.0820  0.2447
  433MPD2    H5 6516   0.558   1.647  11.653  0.7305  0.2538  0.1538
  433MPD2    N1 6517   0.266   1.464  11.327  0.3888 -0.3269  0.3604
  433MPD2    H7 6518   0.329   1.390  11.359 -2.3097 -2.1996  1.3661
  434TMC3    C1 6519   0.183   1.288  11.205 -0.2962  0.3827  0.6576
  434TMC3    C2 6520   0.294   1.216  11.244 -0.5534 -0.5660  0.2233
  434TMC3    C3 6521   0.301   1.087  11.215  0.5893 -0.2399 -0.0601
  434TMC3    C4 6522   0.089   1.230  11.121 -0.3299  0.1333  0.4775
  434TMC3    C5 6523   0.105   1.099  11.081 -0.7165  0.5125 -0.4013
  434TMC3    C6 6524   0.209   1.025  11.134 -0.0407 -0.0653  0.1253
  434TMC3     C 6525   0.163   1.425  11.243  0.0402 -0.1558  0.6114
  434TMC3     O 6526   0.071   1.487  11.193 -0.8592 -0.2082  0.1244
  434TMC3     H 6527   0.354   1.241  11.330 -1.6077 -1.3876  1.1982
  434TMC3    H1 6528   4.725   1.269  11.104 -1.5864 -2.1000  2.7437
  434TMC3    H2 6529   0.228   0.924  11.100 -1.5341 -0.4531  0.4238
  434TMC3    C7 6530   4.730   1.037  11.012  1.1872 -0.6206  0.2952
  434TMC3    C8 6531   0.416   1.010  11.241 -0.3856 -0.4828  0.1649
  434TMC3    O1 6532   4.668   1.106  10.931  0.7067  0.2583  0.2581
  434TMC3    O2 6533   0.402   0.896  11.276 -0.4868  0.3523 -0.0677
  435MPD2     C 6534   2.799   1.166  15.808  0.3218 -0.2137  0.3492
  435MPD2    C1 6535   2.746   1.162  15.937 -0.2873 -0.2991 -0.1473
  435MPD2    C2 6536   2.829   1.129  16.047 -0.2785  0.0209  0.6026
  435MPD2    C3 6537   2.958   1.088  16.027 -0.3640  0.4128  0.3420
  435MPD2    C4 6538   3.006   1.082  15.903  0.0532  0.1727  0.6455
  435MPD2    C5 6539   2.926   1.122  15.799  0.2532  0.4948  0.4734
  435MPD2     H 6540   2.791   1.154  16.145  2.7173  0.2588  1.6881
  435MPD2    H1 6541   3.097   1.028  15.878 -0.0958 -0.0730  0.6342
  435MPD2    H2 6542   2.743   1.198  15.721  1.2618  1.6176  0.4268
  435MPD2    H3 6543   2.980   1.108  15.705 -1.4229  2.5248 -0.8019
  435MPD2     N 6544   3.035   1.033  16.137 -0.7102 -0.0997 -0.2907
  435MPD2    H5 6545   3.000   1.061  16.228 -2.6916  0.7992 -1.3208
  435MPD2    N1 6546   2.616   1.184  15.972  0.2060 -0.3210  0.1135
  435MPD2    H7 6547   2.596   1.160  16.069 -1.5473 -1.1922 -0.4638
  436TMC3    C1 6548   2.325   1.320  16.168 -0.4670 -0.2879 -0.1470
  436TMC3    C2 6549   2.429   1.313  16.079  0.1572  0.1200 -0.0575
  436TMC3    C3 6550   2.402   1.265  15.956 -0.9188 -0.1704  0.0410
  436TMC3    C4 6551   2.201   1.284  16.130 -0.3139  0.0248  0.3759
  436TMC3    C5 6552   2.182   1.230  16.001 -0.4502 -1.0142 -0.1844
  436TMC3    C6 6553   2.278   1.223  15.903 -0.5345 -0.0342  0.0361
  436TMC3     C 6554   2.343   1.401  16.288 -0.4675  0.2683 -0.0014
  436TMC3     O 6555   2.455   1.402  16.335  0.1842 -0.4831  0.0293
  436TMC3     H 6556   2.522   1.356  16.115  1.0066 -1.2537 -0.6237
  436TMC3    H1 6557   2.111   1.284  16.190 -0.2075  2.4558  0.5186
  436TMC3    H2 6558   2.270   1.187  15.802 -3.4439 -0.3541  0.3858
  436TMC3    C7 6559   2.050   1.179  15.971  0.1332  0.1953 -0.1840
  436TMC3    C8 6560   2.520   1.224  15.885  0.6038  0.4070  0.5077
  436TMC3    O1 6561   1.997   1.125  16.066  0.8876  0.3121 -0.4520
  436TMC3    O2 6562   2.508   1.181  15.773  0.6501  0.0951 -0.2603
  437TMC3    C1 6563   1.394   4.135  12.199  0.9842  0.2322  0.3620
  437TMC3    C2 6564   1.330   4.223  12.114 -0.1826 -0.4054  0.5883
  437TMC3    C3 6565   1.402   4.311  12.037  0.7125 -0.8062 -0.8216
  437TMC3    C4 6566   1.527   4.143  12.217  0.2498  0.6353  0.3127
  437TMC3    C5 6567   1.596   4.229  12.134  0.5371 -0.8505  0.0338
  437TMC3    C6 6568   1.534   4.315  12.043 -0.0974  0.3838  0.9922
  437TMC3     C 6569   1.310   4.035  12.265  0.6349 -0.2614 -0.2841
  437TMC3     O 6570   1.191   4.035  12.238 -0.6620  0.3382  0.5127
  437TMC3     H 6571   1.222   4.227  12.110 -0.1286  1.1364  0.4073
  437TMC3    H1 6572   1.578   4.096  12.301 -1.1644 -0.0266  0.7890
  437TMC3    H2 6573   1.599   4.381  11.987 -2.1950  1.3954 -0.2584
  437TMC3    C7 6574   1.705   4.300  12.193  0.4391 -0.0846  0.7349
  437TMC3    C8 6575   1.335   4.424  11.974  0.9316  0.1966  0.1660
  437TMC3    O1 6576   1.687   4.419  12.208  0.2342  0.0852  0.1561
  437TMC3    O2 6577   1.226   4.459  12.016 -0.5718 -0.1723  0.0870
  438MPD2     C 6578   3.627   4.416  16.744  0.3136 -0.5300 -1.1607
  438MPD2    C1 6579   3.695   4.314  16.810 -0.2437  0.3671  0.2216
  438MPD2    C2 6580   3.648   4.260  16.930  0.5444 -0.8297  0.1064
  438MPD2    C3 6581   3.532   4.306  16.981  0.0423 -0.9855  0.4308
  438MPD2    C4 6582   3.460   4.403  16.909  0.1760 -0.7325 -0.4292
  438MPD2    C5 6583   3.504   4.452  16.793 -0.0648  0.0489 -0.1007
  438MPD2     H 6584   3.708   4.184  16.980 -0.3136 -0.5473  1.5661
  438MPD2    H1 6585   3.366   4.436  16.951  0.6561 -1.1928  1.0077
  438MPD2    H2 6586   3.671   4.470  16.661  1.9059  1.3269  0.8818
  438MPD2    H3 6587   3.443   4.527  16.743  0.1482  0.0254 -0.3991
  438MPD2     N 6588   3.483   4.265  17.111  0.5955  0.4900  0.3039
  438MPD2    H5 6589   3.403   4.314  17.150 -1.0288 -1.5258 -0.4806
  438MPD2    N1 6590   3.821   4.261  16.775  0.6602 -0.0024  0.2593
  438MPD2    H7 6591   3.847   4.180  16.831 -1.5222 -1.1480 -0.3814
  439TMC3    C1 6592   3.990   4.175  16.637  0.1586  0.1511  0.1375
  439TMC3    C2 6593   4.041   4.176  16.512  0.3185  0.0273 -0.0042
  439TMC3    C3 6594   4.116   4.069  16.474 -0.2434  0.4356  0.1095
  439TMC3    C4 6595   4.010   4.067  16.720 -0.1614 -0.1321  0.5849
  439TMC3    C5 6596   4.085   3.964  16.669 -0.4046 -0.3516  0.0523
  439TMC3    C6 6597   4.142   3.960  16.549 -0.3115 -0.3080 -0.2684
  439TMC3     C 6598   3.891   4.281  16.658  0.6049 -0.3362  0.3644
  439TMC3     O 6599   3.863   4.354  16.562  0.0355 -0.3543 -0.4335
  439TMC3     H 6600   4.020   4.251  16.436  1.2609  0.2141 -0.0875
  439TMC3    H1 6601   3.981   4.051  16.823 -2.0474  2.5375  0.4781
  439TMC3    H2 6602   4.209   3.885  16.509 -2.7512 -1.5553 -1.9917
  439TMC3    C7 6603   4.118   3.855  16.753  1.0906  0.1016  0.0035
  439TMC3    C8 6604   4.137   4.058  16.332 -0.0658 -0.5017 -0.0008
  439TMC3    O1 6605   4.134   3.871  16.876  0.0813  0.2864 -0.2695
  439TMC3    O2 6606   4.167   4.157  16.269 -0.5363  0.1717 -0.0113
  440MPD2     C 6607   2.488   4.523  14.851  0.7447  0.0840 -0.0024
  440MPD2    C1 6608   2.548   4.596  14.950  0.0233 -0.2808  0.6017
  440MPD2    C2 6609   2.669   4.561  15.006  0.1385 -0.4905  1.1219
  440MPD2    C3 6610   2.734   4.455  14.959  0.7060  0.2788  0.0144
  440MPD2    C4 6611   2.679   4.390  14.857 -0.1939 -0.8546  0.8378
  440MPD2    C5 6612   2.556   4.416  14.804 -0.3038 -0.2878  0.2232
  440MPD2     H 6613   2.702   4.620  15.090  0.3927  1.2205 -0.1820
  440MPD2    H1 6614   2.731   4.298  14.830  0.4126 -0.3404  0.2532
  440MPD2    H2 6615   2.396   4.548  14.798  1.7990  3.8077 -0.1311
  440MPD2    H3 6616   2.524   4.379  14.707  1.6076  0.8992 -0.8603
  440MPD2     N 6617   2.855   4.403  15.012  0.3312 -0.5516  0.4974
  440MPD2    H5 6618   2.890   4.314  14.980  0.2347  0.0792 -1.3857
  440MPD2    N1 6619   2.479   4.707  15.007 -0.1463 -0.0195 -0.2020
  440MPD2    H7 6620   2.509   4.735  15.100 -0.0704 -0.4183 -0.1074
  441TMC3    C1 6621   3.058   4.409  15.138 -0.4663  0.4669 -0.4772
  441TMC3    C2 6622   3.159   4.496  15.168 -0.4756 -0.6951  0.3664
  441TMC3    C3 6623   3.234   4.469  15.282  0.0423 -0.8130  0.0379
  441TMC3    C4 6624   3.027   4.302  15.214  0.8206 -0.6711 -0.2682
  441TMC3    C5 6625   3.104   4.273  15.324 -0.3073  0.8611 -0.1325
  441TMC3    C6 6626   3.211   4.358  15.358  0.4119  0.6231 -0.5037
  441TMC3     C 6627   2.946   4.482  15.085 -0.8309  0.0806  0.5805
  441TMC3     O 6628   2.933   4.592  15.131  0.2199 -0.1477  0.2821
  441TMC3     H 6629   3.162   4.586  15.109 -1.5078  0.6128  2.3080
  441TMC3    H1 6630   2.934   4.251  15.196  0.9584 -1.1872  0.4803
  441TMC3    H2 6631   3.261   4.348  15.453 -2.3580 -1.3187  0.7424
  441TMC3    C7 6632   3.046   4.205  15.433 -0.3401 -0.1493 -0.1301
  441TMC3    C8 6633   3.283   4.578  15.365  0.2285  0.4417 -0.6087
  441TMC3    O1 6634   2.925   4.190  15.432 -0.5567 -0.1527 -0.3568
  441TMC3    O2 6635   3.372   4.549  15.444  0.0021  0.3774  0.1704
  442MPD2     C 6636   0.677   0.233  16.614 -0.3454 -0.1830 -0.0546
  442MPD2    C1 6637   0.558   0.162  16.603 -0.5100  0.1481 -0.2796
  442MPD2    C2 6638   0.572   0.024  16.587 -0.5201  0.2165 -0.1906
  442MPD2    C3 6639   0.696   4.699  16.579  0.5730  0.0316 -0.6541
  442MPD2    C4 6640   0.806   0.044  16.569 -0.1212 -1.0571  0.1654
  442MPD2    C5 6641   0.800   0.181  16.587  0.3838 -0.2315  0.4697
  442MPD2     H 6642   0.485   4.696  16.597 -0.8343  0.4478 -1.3599
  442MPD2    H1 6643   0.908   0.008  16.559  0.1854  0.4779 -2.4179
  442MPD2    H2 6644   0.672   0.335  16.651  1.1215  0.2352 -1.0321
  442MPD2    H3 6645   0.896   0.232  16.592 -1.2778  2.9442  0.0568
  442MPD2     N 6646   0.712   4.557  16.562  0.6197 -0.6388  0.0360
  442MPD2    H5 6647   0.811   4.537  16.550  0.6595 -0.6442  0.3513
  442MPD2    N1 6648   0.431   0.221  16.628  0.0541 -0.3091  0.5168
  442MPD2    H7 6649   0.354   0.156  16.642  1.0241 -1.2827  1.4214
  443TMC3    C1 6650   0.273   0.398  16.661  0.7228 -0.0765  0.4099
  443TMC3    C2 6651   0.219   0.512  16.618  0.5689  0.3837 -0.5764
  443TMC3    C3 6652   0.083   0.538  16.630 -0.5275  0.2041  0.0789
  443TMC3    C4 6653   0.193   0.307  16.730 -0.3764 -0.1603 -0.3753
  443TMC3    C5 6654   0.060   0.338  16.757  0.6052  0.4257  0.5586
  443TMC3    C6 6655   0.005   0.454  16.712  0.6167 -0.3215 -0.1066
  443TMC3     C 6656   0.401   0.359  16.611  0.4953  0.3502 -0.5808
  443TMC3     O 6657   0.470   0.440  16.562 -0.1624 -0.2197 -0.3703
  443TMC3     H 6658   0.282   0.584  16.567  1.3832 -0.0609 -0.1997
  443TMC3    H1 6659   0.238   0.212  16.758  1.4016  0.8564  0.2112
  443TMC3    H2 6660   4.634   0.470  16.712  0.8326  1.1889  0.0240
  443TMC3    C7 6661   0.009   0.265  16.877  0.2198  0.4281 -0.5612
  443TMC3    C8 6662   0.019   0.655  16.574 -0.1926  0.0821 -0.0538
  443TMC3    O1 6663   0.077   0.170  16.911 -0.0052 -0.1085 -0.0031
  443TMC3    O2 6664   4.685   0.716  16.651  0.4450  0.7838  0.8324
  444MPD2     C 6665   1.101   3.908  17.440  0.3827  0.2682 -0.0458
  444MPD2    C1 6666   1.022   3.900  17.329  0.8628 -0.1871  0.0365
  444MPD2    C2 6667   1.076   3.854  17.212  0.5713 -0.2705  0.2714
  444MPD2    C3 6668   1.196   3.787  17.216 -0.6047 -0.3218  0.9865
  444MPD2    C4 6669   1.271   3.780  17.333 -0.1687  0.2826 -0.0443
  444MPD2    C5 6670   1.224   3.846  17.441  0.4479  0.1025 -0.7236
  444MPD2     H 6671   1.025   3.870  17.117  0.2436 -0.4549  0.4144
  444MPD2    H1 6672   1.349   3.706  17.349  0.4251  0.7419 -0.8509
  444MPD2    H2 6673   1.056   3.931  17.536 -0.9280  2.3685 -1.1587
  444MPD2    H3 6674   1.282   3.843  17.533 -0.0990 -1.0296 -0.4126
  444MPD2     N 6675   1.240   3.727  17.089 -0.2635 -0.8404 -0.3909
  444MPD2    H5 6676   1.180   3.724  17.007  0.5730  3.6287 -1.1682
  444MPD2    N1 6677   0.894   3.956  17.319 -0.3157 -0.5247 -0.0217
  444MPD2    H7 6678   0.838   3.953  17.234 -1.5033  1.9521  0.6591
  445TMC3    C1 6679   1.403   3.625  16.944  0.6823 -0.1690  0.0001
  445TMC3    C2 6680   1.313   3.603  16.850 -0.3373  0.6456 -0.3409
  445TMC3    C3 6681   1.356   3.565  16.725  1.3178  0.9085 -0.4644
  445TMC3    C4 6682   1.533   3.614  16.910  0.7198  0.2402  0.4874
  445TMC3    C5 6683   1.575   3.573  16.787  0.0290 -0.7488  0.2450
  445TMC3    C6 6684   1.486   3.547  16.688  0.5208 -0.1690 -0.8981
  445TMC3     C 6685   1.365   3.659  17.079  0.0856  0.6649 -0.5376
  445TMC3     O 6686   1.450   3.634  17.163 -0.3328 -0.2019 -0.3209
  445TMC3     H 6687   1.210   3.598  16.885 -1.8044  1.2952 -4.4926
  445TMC3    H1 6688   1.611   3.629  16.983 -1.2328 -1.2837  2.8818
  445TMC3    H2 6689   1.508   3.537  16.582  0.3628  0.9099 -1.0292
  445TMC3    C7 6690   1.717   3.552  16.749  0.4565 -0.5808  0.1899
  445TMC3    C8 6691   1.246   3.534  16.636  0.9312  0.1016 -0.0041
  445TMC3    O1 6692   1.726   3.527  16.631  0.3070 -0.4327  0.5103
  445TMC3    O2 6693   1.137   3.583  16.662 -1.3061  0.0088 -0.3609
  446MPD2     C 6694   0.290   0.764  11.725  0.2634 -1.0197  0.6800
  446MPD2    C1 6695   0.247   0.862  11.633 -0.9063  0.1526  1.0631
  446MPD2    C2 6696   0.333   0.958  11.595  0.1220  0.7670  0.1606
  446MPD2    C3 6697   0.450   0.984  11.658  0.7841 -0.3643 -0.6924
  446MPD2    C4 6698   0.493   0.893  11.750  0.4991  0.5290  0.5410
  446MPD2    C5 6699   0.411   0.782  11.784 -0.9056  0.0194  0.4572
  446MPD2     H 6700   0.295   1.019  11.514  1.0315  0.4957 -0.4688
  446MPD2    H1 6701   0.581   0.895  11.813  1.2172  1.4111 -0.4862
  446MPD2    H2 6702   0.236   0.672  11.744  0.4302 -0.8599  1.9458
  446MPD2    H3 6703   0.452   0.709  11.852  0.2567 -1.9167 -2.3225
  446MPD2     N 6704   0.531   1.094  11.618 -0.0847 -0.0294  0.3016
  446MPD2    H5 6705   0.488   1.169  11.565  1.5085  1.1046  0.6145
  446MPD2    N1 6706   0.131   0.846  11.546 -0.1237  0.2666 -0.1102
  446MPD2    H7 6707   0.111   0.918  11.478  1.1923  0.3990 -0.3559
  447TMC3    C1 6708   0.739   1.211  11.569 -0.1891 -0.2492  0.1062
  447TMC3    C2 6709   0.657   1.287  11.495  0.7216  0.0837  0.0788
  447TMC3    C3 6710   0.723   1.369  11.405  0.5357 -0.6463 -0.6658
  447TMC3    C4 6711   0.876   1.212  11.555 -0.3176  0.3431  0.5707
  447TMC3    C5 6712   0.935   1.300  11.466  0.9860  0.4186  0.7460
  447TMC3    C6 6713   0.862   1.379  11.390  0.5651  0.2722  0.6646
  447TMC3     C 6714   0.669   1.106  11.646  0.1706  0.4163 -0.0593
  447TMC3     O 6715   0.742   1.035  11.713  0.3470  0.2946 -0.0348
  447TMC3     H 6716   0.550   1.301  11.509  0.2643 -2.8264 -0.4875
  447TMC3    H1 6717   0.934   1.148  11.620 -0.5786  1.0571  1.5152
  447TMC3    H2 6718   0.908   1.441  11.314  0.2724 -1.0047 -0.5339
  447TMC3    C7 6719   1.067   1.277  11.407 -0.1941  0.4321  0.3418
  447TMC3    C8 6720   0.643   1.426  11.298  0.6570  0.6548 -0.8430
  447TMC3    O1 6721   1.091   1.279  11.290 -0.4679 -0.4299 -0.2796
  447TMC3    O2 6722   0.541   1.367  11.280 -0.1731 -0.2486  0.2614
  448TMC3    C1 6723   3.364   0.765  17.614 -0.0154 -0.1795  0.3450
  448TMC3    C2 6724   3.388   0.656  17.538  0.4775  0.2974  0.6751
  448TMC3    C3 6725   3.459   0.546  17.595 -0.5345 -0.3070 -0.3629
  448TMC3    C4 6726   3.410   0.786  17.736  0.2933 -0.2101  0.3425
  448TMC3    C5 6727   3.464   0.673   0.051 -0.1442 -0.2782  0.5120
  448TMC3    C6 6728   3.492   0.562  17.727 -0.3909  0.1669  0.3433
  448TMC3     C 6729   3.313   0.885  17.553  0.1249  0.4703 -0.2232
  448TMC3     O 6730   3.196   0.892  17.513  0.0073 -0.2264  0.8086
  448TMC3     H 6731   3.361   0.656  17.433 -0.8622  1.3422  1.0249
  448TMC3    H1 6732   3.383   0.873   0.052 -1.2199 -0.5268  0.1247
  448TMC3    H2 6733   3.564   0.492   0.024 -0.8389  0.0203  0.8829
  448TMC3    C7 6734   3.523   0.686   0.184 -0.0900 -1.0158  0.3605
  448TMC3    C8 6735   3.518   0.445  17.513  0.9488 -0.3106 -0.6306
  448TMC3    O1 6736   3.533   0.797   0.233 -0.3103  0.4459 -0.3163
  448TMC3    O2 6737   3.615   0.384  17.552 -0.3717 -0.1153 -0.0856
  449MPD2     C 6738   0.784   3.465  13.768  0.6553  0.1194  0.7589
  449MPD2    C1 6739   0.655   3.488  13.800  0.0118  0.8656  0.1285
  449MPD2    C2 6740   0.572   3.383  13.842 -1.0869  0.5645 -0.8623
  449MPD2    C3 6741   0.623   3.257  13.830  0.7680  0.2569 -0.2385
  449MPD2    C4 6742   0.762   3.230  13.806 -0.2634 -0.3533 -0.0231
  449MPD2    C5 6743   0.842   3.339  13.778  0.0483  0.2162  0.2417
  449MPD2     H 6744   0.465   3.392  13.852 -0.6310  3.8690  1.1098
  449MPD2    H1 6745   0.800   3.129  13.795  0.2673 -0.2885  1.2308
  449MPD2    H2 6746   0.843   3.550  13.735 -0.3227  1.1191  1.6284
  449MPD2    H3 6747   0.943   3.312  13.748 -0.7969 -0.5852 -1.8452
  449MPD2     N 6748   0.539   3.150  13.861  0.1108 -0.4142 -0.4864
  449MPD2    H5 6749   0.454   3.178  13.908 -0.6052 -3.6077  0.1219
  449MPD2    N1 6750   0.592   3.612  13.779  0.3435 -0.1825  0.6237
  449MPD2    H7 6751   0.491   3.621  13.793  0.4305  0.0241  1.1157
  450TMC3    C1 6752   0.540   3.837  13.722  0.3918 -0.4557 -0.0055
  450TMC3    C2 6753   0.529   3.851  13.583  0.0775 -0.0294  0.1787
  450TMC3    C3 6754   0.408   3.822  13.525  0.5922 -0.3632 -0.4078
  450TMC3    C4 6755   0.434   3.815  13.798 -0.3033  0.6799  0.6514
  450TMC3    C5 6756   0.317   3.783  13.739  0.1212  0.4277 -0.6318
  450TMC3    C6 6757   0.302   3.788  13.604  0.3369 -0.2801 -0.2356
  450TMC3     C 6758   0.647   3.736  13.745 -0.7070  0.4616 -0.4107
  450TMC3     O 6759   0.758   3.767  13.708  0.1335  0.3811 -0.7505
  450TMC3     H 6760   0.618   3.857  13.520  0.2437 -1.4718  0.2783
  450TMC3    H1 6761   0.446   3.803  13.905 -0.0401 -0.4925  0.4907
  450TMC3    H2 6762   0.211   3.753  13.555 -0.3928  0.8091  0.3537
  450TMC3    C7 6763   0.253   3.672  13.806 -0.3402 -0.0402  0.5577
  450TMC3    C8 6764   0.386   3.841  13.376 -0.9006  0.6736  0.3472
  450TMC3    O1 6765   0.325   3.625  13.894  0.1234 -0.1083  0.0685
  450TMC3    O2 6766   0.271   3.817  13.334 -0.0589  0.1187 -0.4611
  451MPD2     C 6767   2.189   1.948   1.187 -0.5616 -0.3188 -0.2239
  451MPD2    C1 6768   2.151   1.822   1.160  0.0701  0.3828  0.1116
  451MPD2    C2 6769   2.225   1.756   1.061 -0.1089  0.2188  0.6802
  451MPD2    C3 6770   2.346   1.807   1.011  0.7192  0.0670 -0.4085
  451MPD2    C4 6771   2.385   1.933   1.051  0.5305 -0.2227  0.3694
  451MPD2    C5 6772   2.303   2.010   1.133  0.3827  0.0950 -0.5702
  451MPD2     H 6773   2.187   1.662   1.024 -0.2083  0.2037  0.8219
  451MPD2    H1 6774   2.479   1.973   1.015  0.7763 -0.1475  1.0912
  451MPD2    H2 6775   2.131   2.007   1.257 -2.3018 -1.0397 -1.0587
  451MPD2    H3 6776   2.333   2.112   1.155 -0.7596 -0.0338  1.6087
  451MPD2     N 6777   2.422   1.735   0.915 -0.4101 -0.2677 -0.1211
  451MPD2    H5 6778   2.500   1.791   0.883  1.5301 -2.3136  1.0060
  451MPD2    N1 6779   2.026   1.771   1.214 -0.7019 -0.5326 -0.5798
  451MPD2    H7 6780   1.968   1.833   1.269  0.1964  1.6631 -2.1468
  452TMC3    C1 6781   2.436   1.595   0.728  0.2502  0.4434  0.2084
  452TMC3    C2 6782   2.364   1.499   0.657 -0.2710 -0.4323  0.6753
  452TMC3    C3 6783   2.289   1.522   0.543 -0.3145 -0.1161  0.5189
  452TMC3    C4 6784   2.467   1.709   0.661 -0.0899  0.5083  0.0450
  452TMC3    C5 6785   2.408   1.727   0.531 -0.9937 -0.1546 -0.4035
  452TMC3    C6 6786   2.313   1.639   0.481  0.6139  0.4652 -0.3871
  452TMC3     C 6787   2.396   1.609   0.863  0.0666  0.1161 -0.3771
  452TMC3     O 6788   2.325   1.520   0.912 -0.1259 -0.9326  0.4050
  452TMC3     H 6789   2.348   1.401   0.701  1.4003 -0.5815  0.9338
  452TMC3    H1 6790   2.534   1.776   0.713 -2.6084  0.9887  2.6906
  452TMC3    H2 6791   2.253   1.667   0.395  0.2760 -0.5785 -0.4932
  452TMC3    C7 6792   2.448   1.839   0.446  0.7816  0.5658 -0.8586
  452TMC3    C8 6793   2.153   1.468   0.542 -0.0347 -1.0504  0.0254
  452TMC3    O1 6794   2.410   1.831   0.329  0.3128  0.1812  0.0761
  452TMC3    O2 6795   2.095   1.486   0.434 -0.1523  0.7911  0.3032
  453TMC3    C1 6796   3.070   0.442  11.991  0.8762 -0.7398 -0.6318
  453TMC3    C2 6797   3.038   0.324  12.042 -0.3202  0.4153  0.2618
  453TMC3    C3 6798   2.934   0.250  11.988 -0.0930 -0.1816 -0.6332
  453TMC3    C4 6799   3.002   0.493  11.884  0.3595 -0.1652 -0.7391
  453TMC3    C5 6800   2.894   0.422  11.841  0.1439  0.0469  0.1649
  453TMC3    C6 6801   2.863   0.294  11.883 -0.0805 -1.2825  0.0593
  453TMC3     C 6802   3.200   0.494  12.024 -0.3021 -0.3179  0.3173
  453TMC3     O 6803   3.259   0.461  12.126 -0.0082  0.3271 -0.4160
  453TMC3     H 6804   3.101   0.291  12.123 -1.8466 -0.8375  0.9462
  453TMC3    H1 6805   3.032   0.592  11.850  2.8336 -0.5102  0.4935
  453TMC3    H2 6806   2.776   0.240  11.848 -1.7597  0.9604  0.8288
  453TMC3    C7 6807   2.876   0.466  11.710  0.1214 -1.0375  0.2510
  453TMC3    C8 6808   2.893   0.130  12.052 -0.3404  1.0144  0.5842
  453TMC3    O1 6809   2.869   0.586  11.697  0.1820  0.0400  0.0540
  453TMC3    O2 6810   2.909   0.127  12.170  0.7138  0.2379  0.5732
  454MPD2     C 6811   1.929   3.855  16.389 -0.0541 -0.5039 -0.4744
  454MPD2    C1 6812   1.833   3.955  16.350  0.3575  0.5040 -0.2199
  454MPD2    C2 6813   1.784   4.038  16.446  0.7715  0.6730  0.2399
  454MPD2    C3 6814   1.824   4.034  16.574 -0.3906 -1.1987  0.0210
  454MPD2    C4 6815   1.923   3.942  16.606  0.3766  0.0350 -0.1243
  454MPD2    C5 6816   1.977   3.855  16.510 -0.7264  0.3125 -0.3654
  454MPD2     H 6817   1.723   4.119  16.406 -0.0784 -1.1079 -2.0899
  454MPD2    H1 6818   1.969   3.945  16.704 -0.3541  0.9627  0.1870
  454MPD2    H2 6819   1.970   3.782  16.321 -1.3251  1.2307 -3.0806
  454MPD2    H3 6820   2.062   3.797  16.546 -1.1347  0.3995  0.7363
  454MPD2     N 6821   1.763   4.105  16.678 -0.3171 -0.0107 -0.0632
  454MPD2    H5 6822   1.817   4.107  16.764  0.0416  1.7885 -0.3240
  454MPD2    N1 6823   1.793   3.973  16.220 -0.2314 -0.3194  0.7113
  454MPD2    H7 6824   1.744   4.060  16.202  0.1936 -0.6820 -2.1764
  455TMC3    C1 6825   1.535   4.164  16.587 -0.4500  0.0815  0.5336
  455TMC3    C2 6826   1.436   4.263  16.582 -0.1151 -0.2888 -0.6199
  455TMC3    C3 6827   1.321   4.240  16.513  0.0877 -0.2482  0.0534
  455TMC3    C4 6828   1.503   4.035  16.553  0.5456 -0.2292  1.0987
  455TMC3    C5 6829   1.388   4.019  16.482  0.4365 -0.4155  0.1040
  455TMC3    C6 6830   1.306   4.119  16.444 -1.0311  0.3794 -0.1000
  455TMC3     C 6831   1.651   4.188  16.683  0.2871 -0.0583  0.3764
  455TMC3     O 6832   1.628   4.269  16.771 -0.0979  0.1285  0.0847
  455TMC3     H 6833   1.459   4.365  16.610  1.4955 -0.1482 -2.4239
  455TMC3    H1 6834   1.565   3.950  16.580  0.4350 -0.8522 -0.6052
  455TMC3    H2 6835   1.227   4.108  16.370 -0.1985 -2.0980 -0.6426
  455TMC3    C7 6836   1.370   3.892  16.407 -0.8228 -0.1740 -0.1805
  455TMC3    C8 6837   1.200   4.288  16.576 -0.7433  0.3981  0.0515
  455TMC3    O1 6838   1.265   3.882  16.345 -0.4481 -0.0262  0.1714
  455TMC3    O2 6839   1.211   4.386  16.649  0.0743 -0.2265 -0.1802
  456MPD2     C 6840   4.376   4.228  16.677  0.3955  0.1143 -0.4521
  456MPD2    C1 6841   4.372   4.170  16.801 -0.4081  0.0765  0.2511
  456MPD2    C2 6842   4.299   4.241  16.899 -0.4440 -0.3634 -0.4401
  456MPD2    C3 6843   4.241   4.361  16.867 -0.0806 -0.1851  0.1662
  456MPD2    C4 6844   4.247   4.413  16.734 -0.4407 -0.3249 -0.5607
  456MPD2    C5 6845   4.309   4.336  16.639  0.1268 -0.4996 -0.4636
  456MPD2     H 6846   4.294   4.203  17.000 -0.1634  1.6534  0.3374
  456MPD2    H1 6847   4.199   4.507  16.711  1.5481  0.4698 -1.4915
  456MPD2    H2 6848   4.442   4.186  16.602  0.2946  1.1252 -1.1050
  456MPD2    H3 6849   4.304   4.359  16.533  0.1293  0.5546 -0.2355
  456MPD2     N 6850   4.200   4.446  16.973 -0.6668  0.0328 -0.0888
  456MPD2    H5 6851   4.208   4.402  17.064 -0.1821  0.6979  0.1911
  456MPD2    N1 6852   4.442   4.052  16.817  0.9457 -0.1614 -0.0310
  456MPD2    H7 6853   4.469   4.007  16.730 -0.2678 -1.2581  0.1620
  457TMC3    C1 6854   4.106   4.627  17.104 -0.4303  0.1196  0.1635
  457TMC3    C2 6855   4.007   4.721  17.125  0.6447  0.2086  0.7128
  457TMC3    C3 6856   3.941   4.727  17.244  0.9393 -0.5645 -0.0601
  457TMC3    C4 6857   4.135   4.543  17.210 -0.1042 -0.1467 -0.2024
  457TMC3    C5 6858   4.080   4.560  17.335 -0.3775 -0.4396  0.3325
  457TMC3    C6 6859   3.978   4.652  17.355 -0.6174  0.5737 -0.0283
  457TMC3     C 6860   4.142   4.573  16.969 -0.4244 -0.1411  0.0579
  457TMC3     O 6861   4.099   4.638  16.875 -0.3471  0.5337  0.5180
  457TMC3     H 6862   3.980   0.049  17.042 -1.3203  0.8142  1.7980
  457TMC3    H1 6863   4.227   4.485  17.208  0.5288  0.9003 -1.4824
  457TMC3    H2 6864   3.906   4.652  17.436  0.8950  1.1050  1.3108
  457TMC3    C7 6865   4.097   4.459  17.436  0.4529  1.1380  0.3011
  457TMC3    C8 6866   3.840   0.087  17.267  0.1260 -0.0184 -0.5453
  457TMC3    O1 6867   4.149   4.357  17.392 -0.2682  0.4900  0.6148
  457TMC3    O2 6868   3.827   0.126  17.383 -0.1749 -0.0970  0.0651
  458MPD2     C 6869   2.135   4.316  12.468 -0.4955 -0.0273 -0.7319
  458MPD2    C1 6870   2.104   4.187  12.460 -0.1934  0.3049 -0.5084
  458MPD2    C2 6871   1.992   4.145  12.380  0.0972  0.5015  0.1008
  458MPD2    C3 6872   1.916   4.247  12.324 -0.2426 -0.4249  0.4538
  458MPD2    C4 6873   1.947   4.383  12.356  0.2770 -0.5982  0.2775
  458MPD2    C5 6874   2.058   4.414  12.428  0.1640  0.4781  0.0199
  458MPD2     H 6875   1.954   4.047  12.357  0.8398  0.0967  0.5919
  458MPD2    H1 6876   1.900   4.467  12.307 -0.0452 -0.0406  1.5470
  458MPD2    H2 6877   2.218   4.354  12.527 -0.0390 -0.8744 -0.8227
  458MPD2    H3 6878   2.089   4.517  12.445 -3.2829  1.3829  0.9036
  458MPD2     N 6879   1.799   4.209  12.245  0.1071  0.4395  0.8581
  458MPD2    H5 6880   1.785   4.111  12.225 -1.9659  0.4959  1.9784
  458MPD2    N1 6881   2.198   4.097  12.528  0.5186 -0.2206 -0.1313
  458MPD2    H7 6882   2.285   4.131  12.568 -0.2002 -0.0540  1.2926
  459TMC3    C1 6883   2.295   3.903  12.604  0.2652 -0.1933  0.3927
  459TMC3    C2 6884   2.417   3.970  12.603 -0.4309 -0.0867 -0.3927
  459TMC3    C3 6885   2.513   3.937  12.689 -0.4522 -0.2261  0.8059
  459TMC3    C4 6886   2.271   3.792  12.687  0.4427  0.8379 -0.3316
  459TMC3    C5 6887   2.376   3.759  12.766  0.0690  0.0454  0.6718
  459TMC3    C6 6888   2.494   3.832  12.778  0.0857  0.0519  0.0587
  459TMC3     C 6889   2.181   3.963  12.539  0.0816  0.4641  1.2542
  459TMC3     O 6890   2.097   3.884  12.513  0.3755 -0.3238 -0.5064
  459TMC3     H 6891   2.434   4.057  12.542 -0.6084 -1.1188 -1.9132
  459TMC3    H1 6892   2.175   3.741  12.686 -0.1940  2.1074 -2.1721
  459TMC3    H2 6893   2.577   3.807  12.844  2.2200  2.7637 -1.6013
  459TMC3    C7 6894   2.384   3.618  12.804  0.8173 -0.3747  0.5193
  459TMC3    C8 6895   2.637   4.014  12.675  0.3813  0.1645 -0.3151
  459TMC3    O1 6896   2.445   3.590  12.905 -0.0710  0.1407  0.4366
  459TMC3    O2 6897   2.669   4.075  12.573 -0.2826 -0.0568 -0.3837
  460MPD2     C 6898   0.628   1.773  11.199 -0.0387  0.3626  0.4407
  460MPD2    C1 6899   0.594   1.641  11.193 -0.0914  0.0697  0.1124
  460MPD2    C2 6900   0.498   1.598  11.104  0.2832  0.6378 -0.3600
  460MPD2    C3 6901   0.445   1.691  11.015 -0.2178  0.0702  0.4816
  460MPD2    C4 6902   0.484   1.822  11.022 -0.5218  0.0694  0.2065
  460MPD2    C5 6903   0.575   1.861  11.112 -0.2731 -0.1468  0.0990
  460MPD2     H 6904   0.479   1.491  11.093 -1.2878  0.4583  4.3267
  460MPD2    H1 6905   0.456   1.903  10.956  1.4580  0.0068 -0.7137
  460MPD2    H2 6906   0.700   1.807  11.272  2.2314 -0.4646 -1.4509
  460MPD2    H3 6907   0.605   1.965  11.120  1.1692 -0.2753 -3.9360
  460MPD2     N 6908   0.368   1.655  10.904  1.0180 -0.1485 -0.1030
  460MPD2    H5 6909   0.364   1.731  10.836  0.6891 -1.3320 -1.3904
  460MPD2    N1 6910   0.671   1.557  11.271  0.4758 -1.0190 -0.6257
  460MPD2    H7 6911   0.739   1.600  11.333 -0.4571 -0.3312 -0.0959
  461TMC3    C1 6912   0.246   1.521  10.745  0.4033  0.4584  0.0905
  461TMC3    C2 6913   0.254   1.401  10.685 -0.2353  0.3763  0.3856
  461TMC3    C3 6914   0.249   1.405  10.550 -0.4988 -0.0977  0.3332
  461TMC3    C4 6915   0.209   1.638  10.686  0.3270 -0.0565 -0.4801
  461TMC3    C5 6916   0.200   1.636  10.548  0.1589 -0.5516 -0.3372
  461TMC3    C6 6917   0.229   1.520  10.474  0.1594 -0.2950  0.3644
  461TMC3     C 6918   0.303   1.534  10.878  0.3321 -1.2219 -0.0542
  461TMC3     O 6919   0.302   1.433  10.945 -1.0468 -0.1152  0.0349
  461TMC3     H 6920   0.271   1.309  10.740 -0.0449  0.6224  0.7395
  461TMC3    H1 6921   0.168   1.723  10.740  1.6168 -0.1342  0.6120
  461TMC3    H2 6922   0.219   1.522  10.366  2.1067 -2.7493  0.1137
  461TMC3    C7 6923   0.140   1.756  10.486 -0.2362 -0.4393  0.9336
  461TMC3    C8 6924   0.253   1.284  10.483  0.6977  0.3059 -0.5645
  461TMC3    O1 6925   0.128   1.856  10.557  0.3633  0.6009  0.2975
  461TMC3    O2 6926   0.218   1.183  10.548  0.4031  0.9877 -0.5589
  462TMC3    C1 6927   1.164   1.276  17.468 -0.1974  0.6520  0.0398
  462TMC3    C2 6928   1.249   1.181  17.406 -0.4454  0.1853 -0.5841
  462TMC3    C3 6929   1.218   1.047  17.405 -0.1318  0.1713  0.2580
  462TMC3    C4 6930   1.049   1.233  17.538  0.1930  0.1440 -0.0551
  462TMC3    C5 6931   1.036   1.096  17.548  0.0121  0.0022 -0.2284
  462TMC3    C6 6932   1.120   1.000  17.491  0.0214 -0.1841  0.1764
  462TMC3     C 6933   1.237   1.394  17.506  0.1549 -0.5857  0.3968
  462TMC3     O 6934   1.358   1.407  17.491 -0.1345 -0.3244  0.1692
  462TMC3     H 6935   1.323   1.225  17.341  1.8261 -0.8726  1.2860
  462TMC3    H1 6936   0.978   1.300  17.584  0.0706 -0.1149  0.1337
  462TMC3    H2 6937   1.082   0.900  17.478  0.9390 -0.6723  1.2007
  462TMC3    C7 6938   0.943   1.062  17.658  0.0619  0.0509  1.1671
  462TMC3    C8 6939   1.277   0.944  17.330 -0.6214  0.7796  0.1205
  462TMC3    O1 6940   0.842   1.128  17.682  0.0632  0.5346  0.5400
  462TMC3    O2 6941   1.270   0.829  17.366  0.8309 -0.0564  0.1078
  463MPD2     C 6942   2.659   4.654   1.117  0.6303 -0.3008 -0.3997
  463MPD2    C1 6943   2.602   0.044   1.104 -0.2053  0.6709 -0.0403
  463MPD2    C2 6944   2.685   0.152   1.137 -0.1543 -0.2077 -0.6358
  463MPD2    C3 6945   2.820   0.136   1.177 -0.3586 -0.1155 -0.3097
  463MPD2    C4 6946   2.870   0.011   1.195  0.2039 -0.9123  0.1294
  463MPD2    C5 6947   2.788   4.644   1.161 -0.2595  0.3707 -0.2599
  463MPD2     H 6948   2.650   0.254   1.133  0.2812 -0.0173  0.3466
  463MPD2    H1 6949   2.969   4.736   1.237  0.6088 -2.4619 -1.2497
  463MPD2    H2 6950   2.598   4.565   1.107 -1.2062  0.8919  0.1253
  463MPD2    H3 6951   2.825   4.546   1.190  2.2870  0.9823 -1.4020
  463MPD2     N 6952   2.915   0.244   1.200  0.0103  0.0506 -0.3741
  463MPD2    H5 6953   3.014   0.224   1.211 -0.4261 -3.0457 -1.9119
  463MPD2    N1 6954   2.464   0.060   1.074  0.3811  0.0804 -0.1440
  463MPD2    H7 6955   2.434   0.156   1.083 -1.0698 -0.4539  0.6572
  464TMC3    C1 6956   2.236   0.004   1.039  0.5593  0.0336 -0.1853
  464TMC3    C2 6957   2.201   0.133   1.077  0.3284 -0.0444  0.3178
  464TMC3    C3 6958   2.069   0.160   1.101  0.8295 -0.1538 -0.6310
  464TMC3    C4 6959   2.146   4.643   1.033  0.1951  0.4081 -0.2508
  464TMC3    C5 6960   2.012   4.674   1.046  0.0393  0.1705  0.3520
  464TMC3    C6 6961   1.975   0.061   1.079 -0.4547 -0.1453  0.6718
  464TMC3     C 6962   2.377   4.699   1.028 -0.0999 -0.3135  0.5444
  464TMC3     O 6963   2.399   4.586   0.989 -0.3191 -0.0954 -0.1035
  464TMC3     H 6964   2.269   0.215   1.092 -0.3460  0.5107  0.3356
  464TMC3    H1 6965   2.175   4.542   1.004  0.4100  1.0483 -2.2669
  464TMC3    H2 6966   1.871   0.076   1.105 -0.5599  2.9841 -1.6291
  464TMC3    C7 6967   1.916   4.562   1.047 -0.0999 -0.1972 -0.4824
  464TMC3    C8 6968   2.023   0.280   1.171 -0.7289  0.3549 -0.2139
  464TMC3    O1 6969   1.963   4.446   1.065 -0.1261  0.0425  0.0616
  464TMC3    O2 6970   1.900   0.280   1.173 -0.0592  0.0666  0.6853
  465MPD2     C 6971   3.290   4.105  16.848  0.0005 -0.9254 -0.6987
  465MPD2    C1 6972   3.163   4.066  16.884 -0.0731  0.1881  0.2324
  465MPD2    C2 6973   3.057   4.097  16.802  0.3833 -0.0408  0.0972
  465MPD2    C3 6974   3.067   4.164  16.684  0.2204  0.1163 -0.7537
  465MPD2    C4 6975   3.199   4.195  16.643  0.4151  0.5850  0.1202
  465MPD2    C5 6976   3.304   4.167  16.726  0.0740  0.9521  0.0460
  465MPD2     H 6977   2.957   4.067  16.833  0.0681 -1.8671 -2.7385
  465MPD2    H1 6978   3.205   4.251  16.551  2.0075 -0.7249 -0.5634
  465MPD2    H2 6979   3.379   4.087  16.908 -0.7162 -2.2094 -0.0200
  465MPD2    H3 6980   3.406   4.199  16.707  1.0764 -2.2860 -0.0573
  465MPD2     N 6981   2.948   4.197  16.617  0.6629 -0.5040  0.4443
  465MPD2    H5 6982   2.862   4.161  16.658 -0.0333  0.9755  0.2577
  465MPD2    N1 6983   3.132   4.006  17.006 -0.0709  0.0455 -0.5140
  465MPD2    H7 6984   3.032   4.009  17.025 -0.2752 -0.3017 -1.5146
  466TMC3    C1 6985   2.583   4.299  16.556 -0.9418  1.2709 -0.3187
  466TMC3    C2 6986   2.561   4.434  16.533 -0.3314 -0.2064 -0.7010
  466TMC3    C3 6987   2.660   4.504  16.462  0.7045  0.4240 -0.0569
  466TMC3    C4 6988   2.701   4.233  16.534 -0.6683 -0.2990 -0.2092
  466TMC3    C5 6989   2.801   4.303  16.477  0.3071 -0.3373 -0.4881
  466TMC3    C6 6990   2.777   4.437  16.440 -0.4022 -0.4852  0.1255
  466TMC3     C 6991   2.470   4.237  16.627 -0.2795  0.4561 -0.7207
  466TMC3     O 6992   2.384   4.310  16.672  0.2277  0.8153 -0.8570
  466TMC3     H 6993   2.464   4.479  16.551 -0.0709  0.1297 -0.1296
  466TMC3    H1 6994   2.720   4.126  16.537  2.1273  0.2831  2.2799
  466TMC3    H2 6995   2.863   4.497  16.415 -0.8403 -0.0575 -0.3458
  466TMC3    C7 6996   2.940   4.266  16.500  0.8902 -0.5383 -0.4607
  466TMC3    C8 6997   2.667   4.650  16.456 -1.0596 -0.2171 -0.4447
  466TMC3    O1 6998   3.023   4.332  16.437  0.5150  0.2676  0.1608
  466TMC3    O2 6999   2.722   4.702  16.361  0.5235 -0.4973  0.6990
  467TMC3    C1 7000   3.708   3.065  14.010  0.1784 -0.0064 -0.7330
  467TMC3    C2 7001   3.630   3.137  13.919 -0.3197  0.2922  0.4307
  467TMC3    C3 7002   3.500   3.097  13.896 -0.0566  0.0985  0.3269
  467TMC3    C4 7003   3.653   2.976  14.095  1.0077 -0.4078  0.5020
  467TMC3    C5 7004   3.522   2.949  14.072  0.1468 -0.1733  0.5163
  467TMC3    C6 7005   3.446   2.995  13.970 -0.7739  0.6756 -0.3230
  467TMC3     C 7006   3.851   3.060  13.986 -0.4646  0.2835  0.0589
  467TMC3     O 7007   3.888   3.149  13.909 -0.4579  0.0187 -0.1936
  467TMC3     H 7008   3.677   3.201  13.845 -1.4238  1.6693  0.9192
  467TMC3    H1 7009   3.704   2.925  14.177  0.1110  0.3195  1.5165
  467TMC3    H2 7010   3.350   2.954  13.941 -0.1917  0.1244 -1.4591
  467TMC3    C7 7011   3.475   2.837  14.142 -0.6246 -0.2318 -0.1535
  467TMC3    C8 7012   3.442   3.112  13.755 -0.1146 -0.0771  0.3384
  467TMC3    O1 7013   3.564   2.769  14.190  0.0345  0.4854  0.1804
  467TMC3    O2 7014   3.346   3.043  13.719 -0.6830  0.7454 -0.0442
  468MPD2     C 7015   3.463   1.539  10.388 -0.8228  0.7831 -0.2083
  468MPD2    C1 7016   3.390   1.513  10.500  0.1341  0.6707 -0.0430
  468MPD2    C2 7017   3.272   1.446  10.488 -0.5085 -0.2322  1.0166
  468MPD2    C3 7018   3.218   1.405  10.364  0.4355 -0.3502 -0.7669
  468MPD2    C4 7019   3.291   1.429  10.249  0.2620  0.1908 -0.1358
  468MPD2    C5 7020   3.417   1.493  10.268 -0.4082 -0.0016 -0.1808
  468MPD2     H 7021   3.226   1.412  10.580 -0.4480  0.2759  1.2395
  468MPD2    H1 7022   3.252   1.407  10.150 -0.1589 -0.6828  0.2203
  468MPD2    H2 7023   3.555   1.596  10.390 -2.7066  3.8198 -1.1700
  468MPD2    H3 7024   3.474   1.517  10.179 -0.2492 -0.9246 -0.3332
  468MPD2     N 7025   3.099   1.334  10.351 -0.4103 -0.5176 -0.7339
  468MPD2    H5 7026   3.075   1.303  10.257  2.5371 -0.9354 -1.3477
  468MPD2    N1 7027   3.429   1.552  10.632  0.1036  0.0303 -0.7355
  468MPD2    H7 7028   3.372   1.520  10.710  2.0907  1.3143  1.2212
  469TMC3    C1 7029   3.541   1.641  10.806 -0.8431 -0.5668  0.6802
  469TMC3    C2 7030   3.653   1.589  10.865 -0.9392  0.2279  0.7111
  469TMC3    C3 7031   3.643   1.549  10.995  0.8175  0.1663  0.3393
  469TMC3    C4 7032   3.426   1.650  10.877 -0.5770 -0.7610 -1.6499
  469TMC3    C5 7033   3.421   1.616  11.003  0.0072  0.4497 -0.2049
  469TMC3    C6 7034   3.532   1.570  11.069  0.6650  0.7433 -0.5939
  469TMC3     C 7035   3.538   1.621  10.667  1.4386  0.1089 -0.2798
  469TMC3     O 7036   3.633   1.659  10.599  0.0619  0.5546  0.1746
  469TMC3     H 7037   3.740   1.570  10.803 -1.9560  1.4984 -1.1317
  469TMC3    H1 7038   3.349   1.706  10.825 -1.0070 -1.7987 -2.1390
  469TMC3    H2 7039   3.527   1.545  11.174 -1.7603  0.9484 -0.6571
  469TMC3    C7 7040   3.296   1.572  11.057  0.0942  0.2015 -0.4543
  469TMC3    C8 7041   3.772   1.519  11.054 -0.4983  0.1938  0.2004
  469TMC3    O1 7042   3.216   1.548  10.971  0.0048 -0.2796 -0.3407
  469TMC3    O2 7043   3.873   1.536  10.988 -0.2111 -0.0624 -0.0947
  470TMC3    C1 7044   0.440   1.162   0.708  0.7312 -0.4603 -0.0856
  470TMC3    C2 7045   0.515   1.270   0.670 -0.8729 -0.4094  0.0415
  470TMC3    C3 7046   0.612   1.310   0.764  0.1646  0.7932  0.0983
  470TMC3    C4 7047   0.482   1.073   0.806 -0.0272  0.3118  0.0250
  470TMC3    C5 7048   0.595   1.108   0.878  0.1889  0.0188  0.1765
  470TMC3    C6 7049   0.656   1.229   0.858  0.4976 -0.0129  0.2985
  470TMC3     C 7050   0.312   1.140   0.645  0.8501  0.0960  0.3031
  470TMC3     O 7051   0.305   1.191   0.537 -0.1598  0.0712 -0.0253
  470TMC3     H 7052   0.487   1.329   0.584  0.8629  0.1401 -0.1413
  470TMC3    H1 7053   0.426   0.985   0.836 -0.3138 -0.6471 -3.3536
  470TMC3    H2 7054   0.736   1.267   0.920  0.5837  0.9777 -0.4148
  470TMC3    C7 7055   0.618   1.055   1.008  0.0192  0.6054 -0.2791
  470TMC3    C8 7056   0.664   1.443   0.768  0.2694  0.2614 -0.3310
  470TMC3    O1 7057   0.685   1.117   1.087 -0.6688 -0.3694  0.6306
  470TMC3    O2 7058   0.716   1.491   0.876  0.6633  0.2925  0.1581
  471MPD2     C 7059   0.617   3.039  16.987  0.8467  0.7528  0.2662
  471MPD2    C1 7060   0.580   2.907  16.980 -0.4535  0.1844  0.1734
  471MPD2    C2 7061   0.575   2.828  17.096  0.2638 -0.0828  0.0730
  471MPD2    C3 7062   0.624   2.880  17.214 -0.9445  0.3150 -0.8327
  471MPD2    C4 7063   0.670   3.008  17.217  0.7406  0.4321 -0.0689
  471MPD2    C5 7064   0.666   3.086  17.103 -0.1601 -0.6475  0.3284
  471MPD2     H 7065   0.559   2.721  17.091  1.0105 -0.2563  1.4810
  471MPD2    H1 7066   0.720   3.040  17.308  2.0312 -2.0104  0.0555
  471MPD2    H2 7067   0.614   3.106  16.902  0.2604 -0.9919 -1.0919
  471MPD2    H3 7068   0.712   3.184  17.105 -0.7013 -0.3489 -1.7388
  471MPD2     N 7069   0.639   2.805  17.334 -0.2091  0.1188 -0.2415
  471MPD2    H5 7070   0.694   2.853  17.405  0.1123  0.2598 -0.5830
  471MPD2    N1 7071   0.533   2.847  16.853  0.2002  0.0651 -0.0752
  471MPD2    H7 7072   0.506   2.750  16.848 -0.8674  0.2723  1.6420
  472TMC3    C1 7073   0.485   2.829  16.621  0.1716 -0.2783  0.2379
  472TMC3    C2 7074   0.387   2.856  16.527 -0.4568 -0.1633  0.5152
  472TMC3    C3 7075   0.350   2.756  16.443  0.3187  0.3600 -0.4675
  472TMC3    C4 7076   0.544   2.711  16.619 -0.3317 -1.1097  0.1830
  472TMC3    C5 7077   0.502   2.607  16.545  0.0415  0.1148 -0.1048
  472TMC3    C6 7078   0.391   2.622  16.460  0.8876 -0.4760  0.3346
  472TMC3     C 7079   0.502   2.916  16.736  0.0403 -0.2398  0.5237
  472TMC3     O 7080   0.481   3.035  16.711 -0.0721  0.2963 -0.0698
  472TMC3     H 7081   0.343   2.954  16.537 -0.4841  0.0756 -1.9649
  472TMC3    H1 7082   0.643   2.695  16.659  0.0777 -1.4951 -1.0088
  472TMC3    H2 7083   0.356   2.540  16.398 -1.4822  0.1977  0.7940
  472TMC3    C7 7084   0.561   2.477  16.572 -0.1209  0.3230  0.1773
  472TMC3    C8 7085   0.227   2.780  16.374 -0.1000  0.3255 -0.3104
  472TMC3    O1 7086   0.628   2.452  16.675  0.4547  0.2957  0.3497
  472TMC3    O2 7087   0.197   2.892  16.338  0.6256 -0.1717  0.7818
  473MPD2     C 7088   0.625   0.076  14.430 -0.1218 -0.1928  0.1737
  473MPD2    C1 7089   0.620   0.203  14.372  0.8621 -1.3895  0.5185
  473MPD2    C2 7090   0.667   0.308  14.452  0.4227  0.3492  0.0485
  473MPD2    C3 7091   0.728   0.282  14.572 -0.3863 -0.5427  0.3302
  473MPD2    C4 7092   0.729   0.155  14.625 -0.0202  0.3636 -0.4744
  473MPD2    C5 7093   0.672   0.052  14.554 -0.5373  0.2705  1.4657
  473MPD2     H 7094   0.659   0.412  14.422  0.3668  0.2466 -0.2929
  473MPD2    H1 7095   0.753   0.124  14.726  2.6467  2.1773 -0.5220
  473MPD2    H2 7096   0.579   4.728  14.380 -1.1555  1.1970 -1.2129
  473MPD2    H3 7097   0.667   4.685  14.587  0.8936 -0.7824 -1.5979
  473MPD2     N 7098   0.779   0.391  14.645 -0.0912 -0.2899  0.3380
  473MPD2    H5 7099   0.849   0.387  14.718  2.4325  2.4405 -1.9429
  473MPD2    N1 7100   0.568   0.230  14.244 -0.0625 -0.6024  0.2701
  473MPD2    H7 7101   0.569   0.322  14.202 -0.2841 -0.0913  1.3904
  474TMC3    C1 7102   0.754   0.606  14.741 -0.1833  0.2917  0.2886
  474TMC3    C2 7103   0.667   0.710  14.737 -0.6972  0.0384  0.8350
  474TMC3    C3 7104   0.721   0.837  14.739  0.0354 -0.4236 -1.1839
  474TMC3    C4 7105   0.889   0.634  14.752 -0.2812  0.3176  0.8127
  474TMC3    C5 7106   0.935   0.760  14.764  0.1421  0.4381  0.3866
  474TMC3    C6 7107   0.852   0.867  14.742 -0.0526 -0.3805  0.7096
  474TMC3     C 7108   0.716   0.515  14.638 -0.9619  0.3587 -0.7766
  474TMC3     O 7109   0.613   0.550  14.581 -0.4536 -0.0183  0.0690
  474TMC3     H 7110   0.560   0.698  14.728 -0.5319 -0.8363 -0.0561
  474TMC3    H1 7111   0.966   0.559  14.736  1.2192  1.5720  2.1870
  474TMC3    H2 7112   0.892   0.967  14.737 -0.8472 -0.1742 -1.2705
  474TMC3    C7 7113   1.074   0.781  14.753  0.8187  0.4104  0.3625
  474TMC3    C8 7114   0.631   0.922  14.665  0.2908  0.5289 -0.3859
  474TMC3    O1 7115   1.145   0.687  14.710  0.6552  0.1846 -0.1862
  474TMC3    O2 7116   0.511   0.918  14.687  0.3398  0.0566 -0.2195
  475MPD2     C 7117   3.584   3.559  10.843 -0.1062 -0.4871 -0.7010
  475MPD2    C1 7118   3.545   3.673  10.908 -0.2761  0.7679 -0.2315
  475MPD2    C2 7119   3.413   3.715  10.910  0.0972 -0.4650  0.4158
  475MPD2    C3 7120   3.317   3.635  10.848 -0.5256  0.0469  0.1901
  475MPD2    C4 7121   3.360   3.517  10.797  0.3090 -0.3321  0.3568
  475MPD2    C5 7122   3.488   3.467  10.801 -0.0860 -0.0837 -0.1643
  475MPD2     H 7123   3.385   3.816  10.941  3.2757  1.0891 -1.7259
  475MPD2    H1 7124   3.283   3.454  10.754 -0.8138  1.7450 -0.7004
  475MPD2    H2 7125   3.690   3.545  10.828  0.4005 -0.8055  3.1126
  475MPD2    H3 7126   3.519   3.370  10.764  0.4020 -0.3476  0.9328
  475MPD2     N 7127   3.192   3.691  10.819  0.0829 -0.4055 -0.1709
  475MPD2    H5 7128   3.170   3.785  10.850  0.3131 -1.2427  2.5639
  475MPD2    N1 7129   3.650   3.759  10.948  0.2771  0.3230  0.6361
  475MPD2    H7 7130   3.746   3.734  10.923 -0.5970 -1.1386 -1.2482
  476TMC3    C1 7131   3.764   3.962  11.016 -1.0733 -0.4271  0.4723
  476TMC3    C2 7132   3.789   4.000  10.892 -0.1534 -0.0036 -0.6166
  476TMC3    C3 7133   3.790   4.133  10.871 -0.1435 -0.0198 -0.0537
  476TMC3    C4 7134   3.744   4.052  11.115  0.2064 -0.4865  0.3446
  476TMC3    C5 7135   3.757   4.186  11.097  0.1697 -0.8672 -0.1948
  476TMC3    C6 7136   3.792   4.230  10.975  0.3192 -0.1096 -0.1796
  476TMC3     C 7137   3.645   3.875  11.019 -0.0734  0.0766  0.1274
  476TMC3     O 7138   3.545   3.929  11.067 -0.2579 -0.0932  0.4761
  476TMC3     H 7139   3.787   3.918  10.822  0.0157 -0.4964 -0.0438
  476TMC3    H1 7140   3.729   4.007  11.213  2.1018 -0.7520  0.5089
  476TMC3    H2 7141   3.804   4.335  10.955  0.4910 -0.1578 -0.3305
  476TMC3    C7 7142   3.722   4.279  11.203 -0.0686  0.6729 -0.3297
  476TMC3    C8 7143   3.719   4.164  10.744 -0.1306  0.8110  0.1201
  476TMC3    O1 7144   3.746   4.394  11.180  0.5878 -0.5581  0.1712
  476TMC3    O2 7145   3.677   4.279  10.752  0.0289 -0.8650 -0.0684
  477MPD2     C 7146   1.536   0.787  11.852  0.1554 -0.7404  0.9252
  477MPD2    C1 7147   1.471   0.670  11.858  0.1708 -0.8311 -0.6304
  477MPD2    C2 7148   1.545   0.563  11.919  0.1870 -0.9486  0.0387
  477MPD2    C3 7149   1.678   0.574  11.960  0.0041 -0.0381 -0.1052
  477MPD2    C4 7150   1.739   0.696  11.953  0.1198 -0.2408 -0.2137
  477MPD2    C5 7151   1.667   0.797  11.896 -0.3586 -0.4690 -0.4595
  477MPD2     H 7152   1.498   0.466  11.931  0.6337 -0.7545  3.4418
  477MPD2    H1 7153   1.843   0.721  11.970  0.5482 -0.9462 -1.7275
  477MPD2    H2 7154   1.498   0.868  11.791 -0.1866 -3.2826 -2.2879
  477MPD2    H3 7155   1.722   0.889  11.877 -2.3593  1.3255  2.4002
  477MPD2     N 7156   1.751   0.458  11.999 -0.3610  0.4228  0.2312
  477MPD2    H5 7157   1.711   0.365  11.994  1.7293 -0.6237  3.0738
  477MPD2    N1 7158   1.329   0.658  11.819 -0.3607  0.1938  0.7457
  477MPD2    H7 7159   1.295   0.742  11.774  0.3089  0.4729  0.7625
  478TMC3    C1 7160   1.107   0.599  11.816 -0.3644 -0.0445 -0.0212
  478TMC3    C2 7161   1.032   0.650  11.916 -0.4432 -0.5403  0.1034
  478TMC3    C3 7162   0.924   0.733  11.885  0.3674  0.0276 -0.1958
  478TMC3    C4 7163   1.077   0.620  11.680 -0.2828 -0.6839 -0.1249
  478TMC3    C5 7164   0.982   0.709  11.650 -0.2811  0.2847  0.2975
  478TMC3    C6 7165   0.896   0.762  11.750 -0.4461  0.0457  0.1150
  478TMC3     C 7166   1.241   0.550  11.846  0.3222 -0.2546  0.0664
  478TMC3     O 7167   1.261   0.441  11.903  0.2248 -0.0406 -0.2918
  478TMC3     H 7168   1.060   0.634  12.020  0.2037  1.9227  0.3170
  478TMC3    H1 7169   1.149   0.589  11.606  0.7410  0.8932  0.2240
  478TMC3    H2 7170   0.817   0.832  11.726 -1.6541 -1.0298  0.9528
  478TMC3    C7 7171   0.972   0.770  11.515 -0.1063 -0.1433 -0.8638
  478TMC3    C8 7172   0.892   0.823  11.998 -0.1786 -0.7766 -0.4007
  478TMC3    O1 7173   1.060   0.744  11.436 -0.2808  0.5327  0.5363
  478TMC3    O2 7174   0.903   0.778  12.108 -0.3041  0.1606  0.1592
  479MPD2     C 7175   0.520   2.289  15.182  0.1801 -0.3062 -0.5231
  479MPD2    C1 7176   0.469   2.239  15.298  0.4757 -0.0177  0.1064
  479MPD2    C2 7177   0.531   2.238  15.420  0.1318 -0.5849  0.3523
  479MPD2    C3 7178   0.647   2.318  15.423 -0.1585  0.1955 -0.1341
  479MPD2    C4 7179   0.698   2.372  15.311  0.3224 -1.0507 -0.0267
  479MPD2    C5 7180   0.636   2.360  15.190 -0.8384 -1.2067 -0.4467
  479MPD2     H 7181   0.506   2.172  15.502 -0.5895 -1.4385 -0.5582
  479MPD2    H1 7182   0.795   2.421  15.309  1.8286 -4.0186 -0.4242
  479MPD2    H2 7183   0.461   2.284  15.091  0.7597 -0.1557 -0.9001
  479MPD2    H3 7184   0.672   2.416  15.104 -4.8464 -0.3479 -1.5765
  479MPD2     N 7185   0.715   2.340  15.547 -0.4560 -0.5914  0.3356
  479MPD2    H5 7186   0.802   2.393  15.546 -0.0565 -1.1996  2.7255
  479MPD2    N1 7187   0.344   2.172  15.288 -0.0406  0.0874 -0.3158
  479MPD2    H7 7188   0.304   2.159  15.196  0.7235 -0.2693 -0.5957
  480TMC3    C1 7189   0.392   2.295  15.876 -0.8605 -1.3838  0.2543
  480TMC3    C2 7190   0.320   2.405  15.829  0.2949 -0.7194  0.2345
  480TMC3    C3 7191   0.372   2.471  15.720 -0.1110 -0.0296 -0.4588
  480TMC3    C4 7192   0.503   2.250  15.811  0.3144  0.1200 -0.6625
  480TMC3    C5 7193   0.549   2.309  15.698 -0.2452  0.3278 -0.8702
  480TMC3    C6 7194   0.489   2.424  15.661 -0.4122 -0.0908  0.2817
  480TMC3     C 7195   0.331   2.206  15.979  0.4798 -0.3536 -0.7924
  480TMC3     O 7196   0.402   2.107  15.994  0.3615 -0.1915 -0.6940
  480TMC3     H 7197   0.234   2.441  15.884 -0.1038  0.8629 -1.4455
  480TMC3    H1 7198   0.543   2.152  15.832  0.8529  0.8471  1.6159
  480TMC3    H2 7199   0.539   2.487  15.587  1.5768  1.0355  2.5709
  480TMC3    C7 7200   0.688   2.277  15.662  0.4570 -0.3346 -0.3298
  480TMC3    C8 7201   0.267   2.516  15.622 -0.0475  0.3512 -0.0973
  480TMC3    O1 7202   0.756   2.250  15.761  0.1060 -0.4902  0.2987
  480TMC3    O2 7203   0.168   2.563  15.679 -0.1341  0.1479 -0.6248
  481MPD2     C 7204   1.596   1.672  13.740  0.0858  0.0757  0.1519
  481MPD2    C1 7205   1.578   1.584  13.841 -0.3127 -0.2189  0.2858
  481MPD2    C2 7206   1.684   1.565  13.928 -0.0531  0.6697 -0.3447
  481MPD2    C3 7207   1.800   1.635  13.911  0.9259 -0.1255  0.6305
  481MPD2    C4 7208   1.817   1.714  13.799 -0.1099  0.1670 -0.3320
  481MPD2    C5 7209   1.714   1.733  13.714  0.0731 -0.2810  0.1865
  481MPD2     H 7210   1.679   1.496  14.012 -1.6810  1.5645  0.3063
  481MPD2    H1 7211   1.909   1.768  13.784 -0.6986  0.9941 -0.9733
  481MPD2    H2 7212   1.516   1.698  13.672 -0.0269  0.5174  0.4541
  481MPD2    H3 7213   1.723   1.800  13.629  1.0501 -2.5245 -1.4772
  481MPD2     N 7214   1.913   1.620  14.002  0.0667  0.1498  0.1710
  481MPD2    H5 7215   1.988   1.685  13.978 -1.1014  1.0207 -1.1581
  481MPD2    N1 7216   1.450   1.525  13.862  0.1957 -0.0083  1.4605
  481MPD2    H7 7217   1.384   1.561  13.795 -0.8835 -0.6902  2.1607
  482TMC3    C1 7218   1.275   1.406  13.938  0.0969 -0.1775  0.0997
  482TMC3    C2 7219   1.230   1.290  13.991  0.4752  0.1674  0.1307
  482TMC3    C3 7220   1.089   1.276  14.000  0.4757  0.2935  0.3928
  482TMC3    C4 7221   1.200   1.522  13.928  0.2903  0.0687  0.3336
  482TMC3    C5 7222   1.071   1.500  13.928  0.2354 -0.3197 -0.7253
  482TMC3    C6 7223   1.005   1.379  13.956 -0.4545 -1.3071 -0.3971
  482TMC3     C 7224   1.415   1.439  13.962  0.2894 -0.5096  0.5880
  482TMC3     O 7225   1.483   1.393  14.052 -0.6569 -0.1454  0.2009
  482TMC3     H 7226   1.292   1.206  14.020 -0.9871 -0.1663  2.2729
  482TMC3    H1 7227   1.246   1.619  13.908 -0.2457  0.6985  2.1389
  482TMC3    H2 7228   0.897   1.373  13.950 -0.5943  2.3866 -1.3766
  482TMC3    C7 7229   0.983   1.614  13.908 -0.2347 -0.5941 -0.2299
  482TMC3    C8 7230   1.046   1.138  14.000 -0.1426  0.0684 -0.6703
  482TMC3    O1 7231   0.865   1.606  13.940  0.2986  0.0349 -0.1633
  482TMC3    O2 7232   1.128   1.065  14.049 -0.9669 -0.0850  0.0008
  483TMC3    C1 7233   4.169   0.485   1.145 -0.5419 -0.4073 -0.0176
  483TMC3    C2 7234   4.267   0.563   1.096 -0.3379  0.9015  0.5968
  483TMC3    C3 7235   4.388   0.564   1.154 -0.1105  0.4206  0.3667
  483TMC3    C4 7236   4.191   0.401   1.249 -0.1397 -0.2558 -0.1811
  483TMC3    C5 7237   4.317   0.399   1.307  0.2354 -1.1147  0.6386
  483TMC3    C6 7238   4.415   0.481   1.262 -0.6064  0.6450  0.2436
  483TMC3     C 7239   4.108   0.423   1.029 -0.1561 -0.4399  0.6490
  483TMC3     O 7240   4.063   0.493   0.941  0.1195 -0.2032  0.4566
  483TMC3     H 7241   4.262   0.624   1.006 -2.5811  0.4910  0.4313
  483TMC3    H1 7242   4.118   0.331   1.288  1.1284 -0.6345  1.5405
  483TMC3    H2 7243   4.519   0.467   1.289 -0.8033  2.1186  1.7745
  483TMC3    C7 7244   4.351   0.298   1.403  0.1865  0.7833 -0.1010
  483TMC3    C8 7245   4.502   0.617   1.080  0.0987  0.0025  0.5843
  483TMC3    O1 7246   4.262   0.214   1.424  0.0016 -0.4198 -0.4792
  483TMC3    O2 7247   4.489   0.626   0.958 -0.3240  0.7365 -0.6173
  484MPD2     C 7248   2.896   4.050  12.929  0.5059  0.4289  0.6464
  484MPD2    C1 7249   2.842   4.051  12.807 -0.7132 -0.2163  0.1566
  484MPD2    C2 7250   2.924   4.073  12.697  0.3406 -0.1010 -0.4772
  484MPD2    C3 7251   3.057   4.094  12.717  0.1104 -0.5518  0.0374
  484MPD2    C4 7252   3.107   4.095  12.844  0.1989 -0.7269 -0.0613
  484MPD2    C5 7253   3.028   4.078  12.952  0.4053 -0.2200  0.9826
  484MPD2     H 7254   2.889   4.051  12.597  3.9873 -0.3463 -1.6912
  484MPD2    H1 7255   3.213   4.114  12.850 -0.1288  0.5189  1.9750
  484MPD2    H2 7256   2.837   4.020  13.015 -1.4810  0.1712 -0.7972
  484MPD2    H3 7257   3.079   4.076  13.048  0.5743 -1.2917  0.8684
  484MPD2     N 7258   3.152   4.110  12.610  0.1466  0.0611 -0.1730
  484MPD2    H5 7259   3.248   4.090  12.637  0.8912  2.9991 -0.5550
  484MPD2    N1 7260   2.710   4.006  12.797  0.1327 -0.3370 -0.5355
  484MPD2    H7 7261   2.657   3.969  12.876  0.8911  1.7868  0.9775
  485TMC3    C1 7262   3.231   4.188  12.408  0.4023  0.8445 -0.1449
  485TMC3    C2 7263   3.336   4.104  12.413  0.0345 -0.7322  0.3204
  485TMC3    C3 7264   3.442   4.130  12.329 -0.0763  0.7887  0.2755
  485TMC3    C4 7265   3.218   4.295  12.331  0.2946  0.2563  0.9593
  485TMC3    C5 7266   3.327   4.328  12.253 -0.5191 -0.5879  0.1808
  485TMC3    C6 7267   3.442   4.249  12.250  0.1760  0.3782  0.1642
  485TMC3     C 7268   3.119   4.154  12.485 -0.3200  1.1196  0.1169
  485TMC3     O 7269   3.011   4.199  12.453 -0.0831 -0.0282  0.2110
  485TMC3     H 7270   3.344   4.021  12.482  2.2404 -0.1626  0.7461
  485TMC3    H1 7271   3.126   4.351  12.331  0.2721  0.2360 -0.8330
  485TMC3    H2 7272   3.529   4.277  12.192 -0.7565  0.6497 -1.1190
  485TMC3    C7 7273   3.283   4.354  12.124 -0.3941  0.0217 -0.3509
  485TMC3    C8 7274   3.459   4.017  12.235 -0.1452  0.4779 -0.0625
  485TMC3    O1 7275   3.191   4.438  12.111 -0.5636  0.1574 -0.9426
  485TMC3    O2 7276   3.471   4.053  12.120 -0.2909 -0.4656 -0.3207
  486MPD2     C 7277   0.047   3.025  13.086 -0.3149  0.7529  0.5106
  486MPD2    C1 7278   4.715   2.977  12.971 -0.1324  0.0068 -0.4164
  486MPD2    C2 7279   4.644   3.068  12.897 -0.1614  0.5949 -0.1544
  486MPD2    C3 7280   4.656   3.207  12.912 -0.5241  0.5031  0.2363
  486MPD2    C4 7281   0.008   3.255  13.011  1.2721 -0.1969  0.4748
  486MPD2    C5 7282   0.066   3.160  13.095  0.1388 -0.3614 -0.3209
  486MPD2     H 7283   4.570   3.030  12.828  0.6969  0.3600 -0.9422
  486MPD2    H1 7284   0.036   3.357  13.034 -1.3188  0.5049  0.4943
  486MPD2    H2 7285   0.080   2.956  13.162 -0.0514  0.0215 -0.2745
  486MPD2    H3 7286   0.133   3.198  13.171 -0.0622  1.8250 -1.2296
  486MPD2     N 7287   4.582   3.291  12.824 -0.5152 -0.1002  0.4482
  486MPD2    H5 7288   4.521   3.247  12.756  0.1912 -2.7566  1.5436
  486MPD2    N1 7289   4.698   2.838  12.953  0.5550  0.3833  0.1924
  486MPD2    H7 7290   0.022   2.777  13.009 -0.3877 -1.9540 -1.3379
  487TMC3    C1 7291   4.637   2.633  12.864  0.4468  0.3049  0.2561
  487TMC3    C2 7292   4.574   2.558  12.760  0.4182 -0.0723 -0.5796
  487TMC3    C3 7293   4.558   2.421  12.768 -0.5702  0.2175  0.2105
  487TMC3    C4 7294   4.687   2.568  12.974 -0.0720 -0.6732  0.5614
  487TMC3    C5 7295   4.649   2.437  12.982 -0.2154 -0.4319 -0.2742
  487TMC3    C6 7296   4.605   2.364  12.876  0.0659  0.1776 -0.2955
  487TMC3     C 7297   4.645   2.779  12.845 -0.6081 -0.5828  0.1765
  487TMC3     O 7298   4.589   2.830  12.753 -0.0332 -0.0398  0.0072
  487TMC3     H 7299   4.540   2.607  12.669 -0.4666 -0.3299 -0.3823
  487TMC3    H1 7300   4.724   2.620  13.062  0.1920 -1.7062  1.0542
  487TMC3    H2 7301   4.582   2.259  12.863  0.1870  0.3095 -1.5052
  487TMC3    C7 7302   4.630   2.385  13.115 -0.8856  0.4745  0.0683
  487TMC3    C8 7303   4.429   2.374  12.733  1.0531 -0.5078 -0.7309
  487TMC3    O1 7304   4.678   2.440  13.212 -0.5609  0.2167  0.1228
  487TMC3    O2 7305   4.421   2.300  12.634 -0.8659 -0.3205 -0.6211
  488MPD2     C 7306   0.227   4.211  16.406 -0.0335  0.3543 -0.2845
  488MPD2    C1 7307   0.222   4.336  16.463 -0.3121  0.7965 -0.1373
  488MPD2    C2 7308   0.154   4.359  16.578 -0.2049  1.1578 -0.0313
  488MPD2    C3 7309   0.093   4.252  16.646  0.3216 -0.6761  1.0898
  488MPD2    C4 7310   0.098   4.124  16.585  0.2233 -0.3569 -0.0768
  488MPD2    C5 7311   0.162   4.109  16.462  0.0695  0.3344 -0.6840
  488MPD2     H 7312   0.158   4.460  16.617  0.7687  1.5340 -1.1050
  488MPD2    H1 7313   0.050   4.041  16.634 -0.1134  0.0366  0.2613
  488MPD2    H2 7314   0.275   4.200  16.309  0.3370 -1.5218  0.1088
  488MPD2    H3 7315   0.148   4.010  16.421  0.0427  0.8725 -1.9730
  488MPD2     N 7316   0.044   4.275  16.769 -0.4256  0.2783 -0.2509
  488MPD2    H5 7317   0.043   4.370  16.803 -3.5635 -0.1436  0.7603
  488MPD2    N1 7318   0.286   4.459  16.407  0.5544 -0.0005  0.4181
  488MPD2    H7 7319   0.264   4.549  16.448  1.9934  0.6270 -0.1875
  489TMC3    C1 7320   4.704   4.229  16.982 -0.2572  0.0452 -0.0132
  489TMC3    C2 7321   4.631   4.332  16.965  0.1842  1.1242  0.6895
  489TMC3    C3 7322   4.611   4.414  17.072  0.7107 -0.3015 -0.7192
  489TMC3    C4 7323   0.015   4.191  17.102 -0.6875  0.5452  0.0680
  489TMC3    C5 7324   4.711   4.266  17.213  0.2589  0.5983  0.6436
  489TMC3    C6 7325   4.659   4.393  17.202  0.1235 -0.2562 -0.9152
  489TMC3     C 7326   0.026   4.173  16.859 -0.2324  0.1975  0.4765
  489TMC3     O 7327   0.057   4.060  16.857 -0.5607 -0.4409  0.0098
  489TMC3     H 7328   4.561   4.344  16.883  0.1568  0.7825  0.6598
  489TMC3    H1 7329   0.069   4.098  17.114 -1.1505 -0.0806 -2.8545
  489TMC3    H2 7330   4.651   4.468  17.281 -0.9573 -1.6283  0.2638
  489TMC3    C7 7331   0.010   4.237  17.347  0.0115  0.1293  0.6356
  489TMC3    C8 7332   4.566   4.543  17.042  0.3868  0.3349 -0.1556
  489TMC3    O1 7333   0.126   4.205  17.366  0.0428 -0.5164  0.1206
  489TMC3    O2 7334   4.566   4.570  16.924  0.0394 -0.3963  0.2226
  490MPD2     C 7335   0.667   3.457  17.060 -0.7192  0.1104  0.3382
  490MPD2    C1 7336   0.580   3.438  17.173  0.6684  0.2325  1.0666
  490MPD2    C2 7337   0.622   3.483  17.296  0.8320  0.4567 -0.2626
  490MPD2    C3 7338   0.755   3.534  17.310  0.5506 -0.4317  0.5078
  490MPD2    C4 7339   0.837   3.548  17.200 -0.0218  0.4106 -0.9026
  490MPD2    C5 7340   0.794   3.511  17.075 -0.2085 -0.4745  0.2612
  490MPD2     H 7341   0.559   3.474  17.384  0.7652  1.7226 -0.1773
  490MPD2    H1 7342   0.931   3.601  17.200 -0.1632  0.6869  0.6776
  490MPD2    H2 7343   0.633   3.424  16.962  3.7866 -1.5873 -0.6816
  490MPD2    H3 7344   0.846   3.536  16.983 -0.7592  0.0975  0.0983
  490MPD2     N 7345   0.796   3.588  17.432  0.6031  0.2410 -0.3348
  490MPD2    H5 7346   0.893   3.617  17.440  1.1098 -2.3796  3.2896
  490MPD2    N1 7347   0.454   3.370  17.169  0.7006  0.8409 -0.5348
  490MPD2    H7 7348   0.415   3.359  17.262 -1.9020 -1.4233 -1.9250
  491TMC3    C1 7349   0.325   3.186  17.086 -0.0697  0.5864 -1.0263
  491TMC3    C2 7350   0.317   3.127  17.207 -0.8924  0.0895 -0.5652
  491TMC3    C3 7351   0.249   3.009  17.217 -0.4842  0.0779 -0.3605
  491TMC3    C4 7352   0.282   3.123  16.976 -0.0470 -0.3402  0.7388
  491TMC3    C5 7353   0.224   3.004  16.987 -0.7956 -0.2817 -0.3430
  491TMC3    C6 7354   0.201   2.939  17.109 -0.4017 -0.0535 -0.0789
  491TMC3     C 7355   0.397   3.309  17.060  0.4472 -0.4736  0.3374
  491TMC3     O 7356   0.409   3.351  16.952  0.5651 -0.7219 -0.0813
  491TMC3     H 7357   0.352   3.180  17.295  3.1406 -2.7696 -0.3870
  491TMC3    H1 7358   0.310   3.160  16.878  1.4150 -2.9148  0.1855
  491TMC3    H2 7359   0.144   2.848  17.118 -0.7350  0.2868  1.3401
  491TMC3    C7 7360   0.179   2.937  16.867  0.3199  0.3933 -0.2326
  491TMC3    C8 7361   0.240   2.941  17.346 -0.4149 -0.1281  0.2701
  491TMC3    O1 7362   0.166   2.817  16.858  0.4648 -0.1986  0.6016
  491TMC3    O2 7363   0.266   3.013  17.440  0.0432 -0.2333  0.0427
  492MPD2     C 7364   1.325   3.865  11.498 -0.4013  0.5520 -0.4191
  492MPD2    C1 7365   1.203   3.852  11.441  0.1285 -0.2843 -0.5710
  492MPD2    C2 7366   1.091   3.822  11.519 -0.4887 -1.0934 -0.0061
  492MPD2    C3 7367   1.103   3.788  11.651 -0.0409  0.2689 -0.1937
  492MPD2    C4 7368   1.225   3.804  11.709  0.9659 -0.1584 -0.4903
  492MPD2    C5 7369   1.333   3.846  11.633  0.2478  0.8047 -0.5270
  492MPD2     H 7370   0.992   3.811  11.475 -0.2581 -2.4890 -0.1723
  492MPD2    H1 7371   1.239   3.761  11.807  0.7772 -2.1309 -1.3344
  492MPD2    H2 7372   1.405   3.907  11.439  0.4588 -0.4299  0.0488
  492MPD2    H3 7373   1.432   3.853  11.678 -0.2759 -0.0552  0.7482
  492MPD2     N 7374   0.998   3.739  11.727 -0.3078  0.2747 -0.5160
  492MPD2    H5 7375   1.021   3.713  11.823 -3.2899  0.6199  0.2746
  492MPD2    N1 7376   1.188   3.905  11.309 -0.5979 -0.0882 -0.3030
  492MPD2    H7 7377   1.271   3.939  11.262 -0.6293  2.0131  1.1199
  493TMC3    C1 7378   1.077   3.954  11.105 -0.1103  0.6580  0.1733
  493TMC3    C2 7379   1.167   4.054  11.075 -0.4644 -0.3036  0.0194
  493TMC3    C3 7380   1.161   4.084  10.942 -0.3201 -0.3794  0.5276
  493TMC3    C4 7381   0.984   3.897  11.017 -0.3343 -0.5153 -0.2407
  493TMC3    C5 7382   0.983   3.941  10.886 -0.3383  0.5828  0.4587
  493TMC3    C6 7383   1.069   4.046  10.850 -0.4599  0.0017 -0.5259
  493TMC3     C 7384   1.069   3.894  11.237 -0.4049 -0.7007 -0.1981
  493TMC3     O 7385   0.955   3.859  11.271 -0.1558 -0.5079  0.7048
  493TMC3     H 7386   1.232   4.096  11.151  1.4110 -2.0303 -0.6308
  493TMC3    H1 7387   0.917   3.822  11.058 -1.3142  0.5484  0.0859
  493TMC3    H2 7388   1.087   4.070  10.746 -0.1072  1.4849 -0.1099
  493TMC3    C7 7389   0.892   3.887  10.785 -0.2828  0.6024 -0.1724
  493TMC3    C8 7390   1.278   4.154  10.897 -0.2712  0.5809  0.2248
  493TMC3    O1 7391   0.885   3.945  10.675 -0.2284 -0.0866  0.1932
  493TMC3    O2 7392   1.380   4.109  10.943 -0.2156 -0.2369 -0.8210
  494TMC3    C1 7393   1.287   0.623   0.777 -0.5706  0.4075  0.6583
  494TMC3    C2 7394   1.218   0.505   0.754  0.7486 -0.3550 -0.0595
  494TMC3    C3 7395   1.224   0.442   0.630 -0.2058 -0.6165 -0.1226
  494TMC3    C4 7396   1.364   0.679   0.677 -0.4565  0.2611  0.1558
  494TMC3    C5 7397   1.360   0.617   0.557 -0.0942  0.7434  0.1948
  494TMC3    C6 7398   1.294   0.495   0.526 -0.0857 -0.0896  0.1188
  494TMC3     C 7399   1.291   0.663   0.917  0.9392  0.5023 -0.4111
  494TMC3     O 7400   1.403   0.696   0.955  0.5019 -0.1699  0.1727
  494TMC3     H 7401   1.164   0.458   0.836 -0.7978  0.4759 -0.6056
  494TMC3    H1 7402   1.403   0.780   0.689  1.0973 -0.5856  2.2273
  494TMC3    H2 7403   1.303   0.444   0.430 -1.5762 -0.2769  0.0709
  494TMC3    C7 7404   1.441   0.679   0.443  0.1520  0.1456  0.0251
  494TMC3    C8 7405   1.242   0.304   0.646 -0.6520  0.2838  1.1004
  494TMC3    O1 7406   1.423   0.627   0.331  0.2269  0.2007 -0.2669
  494TMC3    O2 7407   1.266   0.268   0.758 -0.3120  0.2513 -0.3716
  495TMC3    C1 7408   0.421   2.450  14.664  0.6520 -0.1128  0.2090
  495TMC3    C2 7409   0.328   2.515  14.582  0.9924 -0.0375 -0.5619
  495TMC3    C3 7410   0.262   2.624  14.631 -0.4277 -0.3265  0.3295
  495TMC3    C4 7411   0.443   2.495  14.795  0.5503  0.3685 -0.7924
  495TMC3    C5 7412   0.355   2.589  14.838  0.4098  0.0370  0.2415
  495TMC3    C6 7413   0.261   2.646  14.766 -0.1499  0.1126 -0.0723
  495TMC3     C 7414   0.450   2.311  14.625 -0.3884 -0.4728  0.0068
  495TMC3     O 7415   0.388   2.261  14.535  0.0199  0.2660  0.1257
  495TMC3     H 7416   0.327   2.484  14.479 -0.5664  1.9441 -1.1406
  495TMC3    H1 7417   0.491   2.430  14.867 -0.5785  0.7470  0.2977
  495TMC3    H2 7418   0.203   2.729  14.805  0.1295 -0.4229  1.4964
  495TMC3    C7 7419   0.337   2.575  14.981 -0.3196  0.0445  0.1740
  495TMC3    C8 7420   0.133   2.667  14.567  0.5582  0.3186 -0.8370
  495TMC3    O1 7421   0.429   2.540  15.045 -0.6972 -0.3432 -0.4421
  495TMC3    O2 7422   0.050   2.723  14.639  0.2107 -0.4144  0.0545
  496MPD2     C 7423   2.056   1.376  15.305  0.1498  0.0656  0.2133
  496MPD2    C1 7424   2.044   1.514  15.296  0.1977 -0.6122  0.7945
  496MPD2    C2 7425   1.954   1.582  15.387  0.3145 -0.2896 -0.2978
  496MPD2    C3 7426   1.874   1.516  15.482  0.2167  0.4966  0.4595
  496MPD2    C4 7427   1.892   1.377  15.483  0.2291 -0.1430 -0.2184
  496MPD2    C5 7428   1.982   1.315  15.398  0.6670 -0.4325  0.2809
  496MPD2     H 7429   1.945   1.690  15.382 -0.4978 -0.4149 -1.5367
  496MPD2    H1 7430   1.829   1.319  15.549  1.1986  0.8275  1.5495
  496MPD2    H2 7431   2.112   1.311  15.238 -1.5116  0.4451 -1.5234
  496MPD2    H3 7432   1.981   1.208  15.415  0.0594 -0.3560  0.7201
  496MPD2     N 7433   1.787   1.583  15.570 -0.2774  0.2419  0.4177
  496MPD2    H5 7434   1.740   1.521  15.635 -0.6125 -0.5875 -0.5966
  496MPD2    N1 7435   2.117   1.580  15.194  0.7309  0.0872  0.4288
  496MPD2    H7 7436   2.185   1.527  15.140  1.2182  0.9435  0.1981
  497TMC3    C1 7437   1.736   1.757  15.734 -0.6718  0.4651 -0.2788
  497TMC3    C2 7438   1.776   1.673  15.839 -0.3279 -0.4261  0.1269
  497TMC3    C3 7439   1.798   1.735  15.957  0.0662 -0.5621 -0.4577
  497TMC3    C4 7440   1.690   1.879  15.746 -0.5507 -0.3733 -0.6400
  497TMC3    C5 7441   1.696   1.928  15.870 -0.0163 -1.1887 -0.2169
  497TMC3    C6 7442   1.750   1.866  15.981 -0.4483  0.0229 -0.2791
  497TMC3     C 7443   1.779   1.716  15.598  0.0329  0.2370  0.3621
  497TMC3     O 7444   1.819   1.809  15.529 -0.0693 -0.2999  0.0358
  497TMC3     H 7445   1.832   1.583  15.816  1.3198  0.8108 -0.7023
  497TMC3    H1 7446   1.672   1.938  15.657 -1.1640  1.2284  0.5456
  497TMC3    H2 7447   1.740   1.904  16.082  1.4979 -0.7267  0.2084
  497TMC3    C7 7448   1.656   2.064  15.883  0.7441 -0.5418  0.1404
  497TMC3    C8 7449   1.822   1.646  16.077 -0.2624 -0.0505 -0.0414
  497TMC3    O1 7450   1.555   2.107  15.825  0.4798  0.2781  0.0250
  497TMC3    O2 7451   1.884   1.689  16.175  0.4015 -0.4491 -0.4589
  498MPD2     C 7452   2.539   4.021  10.140  0.4155 -0.5708  0.1132
  498MPD2    C1 7453   2.616   3.933  10.207 -0.2859  0.4412 -0.2260
  498MPD2    C2 7454   2.569   3.810  10.237 -0.0602 -0.2392 -0.1035
  498MPD2    C3 7455   2.440   3.766  10.202  0.0232  0.1496 -0.1490
  498MPD2    C4 7456   2.353   3.858  10.146  0.1054  0.4505 -0.3683
  498MPD2    C5 7457   2.411   3.982  10.114 -0.6227  0.1897  0.8071
  498MPD2     H 7458   2.636   3.739  10.285  0.0364 -0.7397 -0.9698
  498MPD2    H1 7459   2.250   3.835  10.119  0.3690 -2.9099  1.4380
  498MPD2    H2 7460   2.577   4.112  10.095 -1.6028 -0.5784 -1.5903
  498MPD2    H3 7461   2.352   4.055  10.060  0.3430  0.8573  0.6451
  498MPD2     N 7462   2.406   3.639  10.252 -0.4630 -0.3488  0.1401
  498MPD2    H5 7463   2.483   3.581  10.283  1.4532  1.7529 -0.7220
  498MPD2    N1 7464   2.751   3.959  10.239  0.5602  0.2923 -0.8119
  498MPD2    H7 7465   2.802   3.876  10.267  0.1021  0.2330 -0.1469
  499TMC3    C1 7466   2.959   4.069  10.266 -0.6650  0.0703  0.0119
  499TMC3    C2 7467   3.026   3.977  10.196  0.1717  0.0480  0.0017
  499TMC3    C3 7468   3.151   4.004  10.167 -0.0456  0.7379  0.6514
  499TMC3    C4 7469   3.005   4.193  10.285  0.2520  0.1925  0.0922
  499TMC3    C5 7470   3.118   4.231  10.215  0.1626 -0.4240  0.2518
  499TMC3    C6 7471   3.197   4.131  10.170 -0.0608  0.5884 -0.1726
  499TMC3     C 7472   2.819   4.080  10.231 -0.2968  0.3092  0.4214
  499TMC3     O 7473   2.776   4.193  10.213  0.1165 -0.2355 -0.6420
  499TMC3     H 7474   2.987   3.876  10.190  0.6477 -0.2342  1.8340
  499TMC3    H1 7475   2.957   4.271  10.343  1.9606 -1.1459  3.3116
  499TMC3    H2 7476   3.294   4.161  10.132 -0.3277  0.5067 -0.9130
  499TMC3    C7 7477   3.119   4.350  10.141 -0.6764  0.4120  0.3066
  499TMC3    C8 7478   3.235   3.889  10.123 -0.2819 -0.2257 -0.1827
  499TMC3    O1 7479   3.220   4.383  10.084 -0.3665 -0.3074  0.0576
  499TMC3    O2 7480   3.174   3.785  10.118 -0.0085 -0.7453 -0.1536
  500MPD2     C 7481   4.467   4.511  10.779  0.0652 -0.1088 -0.2110
  500MPD2    C1 7482   4.418   4.635  10.830 -0.1787 -0.2294 -0.2616
  500MPD2    C2 7483   4.295   4.683  10.780 -0.9687  0.1867 -0.0201
  500MPD2    C3 7484   4.229   4.615  10.687 -0.1753  0.1421  0.6202
  500MPD2    C4 7485   4.280   4.503  10.625  0.7480 -0.0419  0.0535
  500MPD2    C5 7486   4.396   4.449  10.677  0.2439 -0.5940 -0.2524
  500MPD2     H 7487   4.262   0.037  10.830  0.0581  0.0187  0.9754
  500MPD2    H1 7488   4.237   4.460  10.536  1.2460 -0.5506  0.0554
  500MPD2    H2 7489   4.560   4.468  10.815 -0.8993 -1.2542  0.8972
  500MPD2    H3 7490   4.427   4.353  10.637  0.2818 -1.5235  1.9795
  500MPD2     N 7491   4.109   4.663  10.630  0.5458 -0.1415  0.0647
  500MPD2    H5 7492   4.062   4.622  10.550 -1.9611  2.8698 -0.0334
  500MPD2    N1 7493   4.490   4.714  10.916  0.3474  0.1211  0.7606
  500MPD2    H7 7494   4.445   0.061  10.954  1.3323 -0.4159  3.0598
  501TMC3    C1 7495   4.675   0.052  11.049  0.0819  0.1658 -1.4160
  501TMC3    C2 7496   4.613   0.174  11.057 -0.5748  0.3587 -0.5901
  501TMC3    C3 7497   4.682   0.270  11.129  0.0934 -0.0221  0.0049
  501TMC3    C4 7498   0.062   0.030  11.097 -0.6614 -0.9229 -0.7101
  501TMC3    C5 7499   0.112   0.125  11.176 -0.2845 -0.0112  0.6909
  501TMC3    C6 7500   0.072   0.254  11.184  0.4302  0.4178  0.5008
  501TMC3     C 7501   4.625   4.690  10.956  0.0309  0.3513  0.0911
  501TMC3     O 7502   4.712   4.611  10.916  0.5139 -0.7241 -0.4081
  501TMC3     H 7503   4.517   0.200  11.013 -1.3342 -1.0685  0.2227
  501TMC3    H1 7504   0.104   4.667  11.111  0.2566 -0.2991  0.9455
  501TMC3    H2 7505   0.117   0.329  11.247 -2.3129  0.8155  1.9988
  501TMC3    C7 7506   0.252   0.107  11.198  0.3873 -0.1013 -0.3607
  501TMC3    C8 7507   4.635   0.407  11.131 -0.1989  0.1303 -0.1252
  501TMC3    O1 7508   0.305   0.017  11.134 -0.4191  0.1781 -0.2642
  501TMC3    O2 7509   4.667   0.471  11.231  0.2329  0.4394  0.0982
  502TMC3    C1 7510   4.132   3.190  15.010  0.4578  1.0312 -0.3264
  502TMC3    C2 7511   4.198   3.310  14.988  0.0896 -0.3986 -0.8013
  502TMC3    C3 7512   4.145   3.427  15.040  0.1012 -0.4699  0.7095
  502TMC3    C4 7513   4.006   3.198  15.062  0.0250 -0.0806 -0.5549
  502TMC3    C5 7514   3.959   3.315  15.115 -0.2044 -0.1521  0.8719
  502TMC3    C6 7515   4.023   3.430  15.113  0.5839 -0.4756 -0.6165
  502TMC3     C 7516   4.204   3.093  15.075  0.2276 -0.3713  0.0148
  502TMC3     O 7517   4.324   3.073  15.052  0.5628  0.5846 -0.5073
  502TMC3     H 7518   4.297   3.303  14.943  1.4246 -0.1642  2.0954
  502TMC3    H1 7519   3.949   3.105  15.058 -0.9878  0.6072 -2.1279
  502TMC3    H2 7520   3.989   3.518  15.166 -0.3787 -0.4085 -1.3405
  502TMC3    C7 7521   3.846   3.302  15.212 -0.2356  0.0329 -0.4461
  502TMC3    C8 7522   4.247   3.516  15.080  0.4398 -0.0986 -0.5924
  502TMC3    O1 7523   3.826   3.193  15.267  0.5122  0.4760 -0.4014
  502TMC3    O2 7524   4.321   3.556  14.994  0.1581 -0.2513  0.0741
  503MPD2     C 7525   1.553   3.995  17.059 -0.1689  0.0680 -0.0370
  503MPD2    C1 7526   1.572   3.975  17.194 -0.4348  0.2079 -0.2129
  503MPD2    C2 7527   1.671   3.888  17.239 -0.4293  0.3349 -0.1392
  503MPD2    C3 7528   1.755   3.834  17.150 -0.5798  0.0063 -0.2955
  503MPD2    C4 7529   1.747   3.867  17.015  0.6889  0.3811  0.7296
  503MPD2    C5 7530   1.640   3.934  16.966  0.0887  0.0540  0.2001
  503MPD2     H 7531   1.691   3.870  17.343 -0.6707  0.9736  0.0211
  503MPD2    H1 7532   1.817   3.813  16.953  0.0698  1.1827 -0.6598
  503MPD2    H2 7533   1.475   4.059  17.018  1.0697  2.4361  1.2818
  503MPD2    H3 7534   1.635   3.934  16.857 -0.9575  1.4560  0.2649
  503MPD2     N 7535   1.856   3.756  17.214  0.3500 -0.1113 -0.4352
  503MPD2    H5 7536   1.840   3.738  17.313  3.0480  1.1307  0.2042
  503MPD2    N1 7537   1.510   4.057  17.288 -0.2442  0.0495 -0.6827
  503MPD2    H7 7538   1.541   4.033  17.381  1.4567 -2.2955 -1.8480
  504TMC3    C1 7539   2.056   3.651  17.232 -0.4097  0.0243 -0.2166
  504TMC3    C2 7540   2.007   3.608  17.350  0.4618 -0.7274  0.1128
  504TMC3    C3 7541   2.101   3.571  17.441 -0.9532 -0.0461 -0.5710
  504TMC3    C4 7542   2.187   3.656  17.209  0.6672 -0.4278 -0.5385
  504TMC3    C5 7543   2.280   3.617  17.297 -0.2910  0.0617 -0.2551
  504TMC3    C6 7544   2.239   3.568  17.419 -0.0140 -0.2141  0.3712
  504TMC3     C 7545   1.965   3.715  17.145  0.2054  0.4586  0.5201
  504TMC3     O 7546   2.016   3.763  17.043 -0.7655 -0.3623  0.2977
  504TMC3     H 7547   1.907   3.566  17.358  0.3224 -0.5989 -0.8683
  504TMC3    H1 7548   2.219   3.709  17.121  0.1501  0.5053 -0.1601
  504TMC3    H2 7549   2.305   3.553  17.504  0.3524 -2.5800 -0.3217
  504TMC3    C7 7550   2.412   3.591  17.248  0.0036 -0.5386 -0.3652
  504TMC3    C8 7551   2.039   3.580  17.569 -0.3807 -0.1332 -0.0055
  504TMC3    O1 7552   2.429   3.602  17.129  1.0054  0.1995 -0.1014
  504TMC3    O2 7553   1.915   3.589  17.577 -0.0560 -0.1234  0.1958
  505MPD2     C 7554   2.006   2.547  10.770 -0.2764  0.1504 -0.0005
  505MPD2    C1 7555   2.100   2.470  10.702  0.1517  0.3518 -0.5946
  505MPD2    C2 7556   2.233   2.474  10.750  0.3650  0.0182 -0.5135
  505MPD2    C3 7557   2.263   2.545  10.863 -0.4736 -0.3076 -0.6860
  505MPD2    C4 7558   2.161   2.616  10.930  0.2054 -0.0157  0.4296
  505MPD2    C5 7559   2.034   2.616  10.887 -0.5356  0.0473 -0.1596
  505MPD2     H 7560   2.311   2.418  10.700  1.2790  1.2046 -0.3919
  505MPD2    H1 7561   2.188   2.663  11.024  2.3448  1.1041 -0.7438
  505MPD2    H2 7562   1.906   2.546  10.727  0.4565  0.5218 -1.6984
  505MPD2    H3 7563   1.963   2.682  10.936  0.8812  0.7181  0.9900
  505MPD2     N 7564   2.394   2.548  10.917  0.5619  0.2943  0.4162
  505MPD2    H5 7565   2.412   2.623  10.984  0.4507  2.3754 -1.9006
  505MPD2    N1 7566   2.065   2.397  10.586  0.8577 -0.0222  0.2899
  505MPD2    H7 7567   1.970   2.401  10.550  1.5782  1.2128 -1.5234
  506TMC3    C1 7568   2.097   2.255  10.404  0.4609 -0.0358  0.4762
  506TMC3    C2 7569   2.055   2.356  10.325 -0.2296  1.0665  0.3068
  506TMC3    C3 7570   2.074   2.336  10.191  0.4603  0.3697 -0.5893
  506TMC3    C4 7571   2.167   2.153  10.361  0.4978  0.4905  0.0326
  506TMC3    C5 7572   2.205   2.146  10.230  0.0902  0.3099 -0.3115
  506TMC3    C6 7573   2.156   2.236  10.141 -0.6055  0.0981 -0.0206
  506TMC3     C 7574   2.140   2.293  10.538  0.1537 -0.3402  0.4642
  506TMC3     O 7575   2.233   2.241  10.593 -0.7096  1.0126  0.4856
  506TMC3     H 7576   1.995   2.439  10.361  0.2431  1.2634  0.6520
  506TMC3    H1 7577   2.201   2.070  10.423  2.5454  0.4349 -1.1747
  506TMC3    H2 7578   2.179   2.234  10.035 -0.3940  1.2759 -0.0071
  506TMC3    C7 7579   2.351   2.143  10.214  0.1243 -0.2209 -0.0519
  506TMC3    C8 7580   2.047   2.438  10.093 -0.5049 -0.6262 -0.1351
  506TMC3    O1 7581   2.400   2.121  10.102  0.1605  0.1294  1.0366
  506TMC3    O2 7582   2.025   2.405   9.975  0.9142  0.1872  0.2735
  507TMC3    C1 7583   4.341   4.476  14.769 -0.1927 -0.5468 -0.0881
  507TMC3    C2 7584   4.371   4.393  14.664  0.1813  0.2524 -0.2173
  507TMC3    C3 7585   4.332   4.435  14.536  0.6667 -0.4964 -0.2064
  507TMC3    C4 7586   4.244   4.564  14.767 -0.5041 -0.0152 -0.5515
  507TMC3    C5 7587   4.191   4.591  14.645  0.0679 -1.4751 -0.8591
  507TMC3    C6 7588   4.240   4.538  14.524  0.3154 -0.0573 -0.4548
  507TMC3     C 7589   4.387   4.443  14.906  1.1878 -0.6492 -0.1068
  507TMC3     O 7590   4.412   4.539  14.977 -0.2972 -0.3163 -0.0783
  507TMC3     H 7591   4.457   4.328  14.678 -1.3589 -1.4613  1.3291
  507TMC3    H1 7592   4.218   4.611  14.861  0.9793 -0.8007  0.2528
  507TMC3    H2 7593   4.196   4.585  14.437  2.0946  1.9917 -0.2475
  507TMC3    C7 7594   4.043   4.611  14.635 -0.6134 -0.7516  0.3484
  507TMC3    C8 7595   4.297   4.331  14.444  0.6203 -0.2430 -0.0759
  507TMC3    O1 7596   3.988   4.564  14.535 -0.2291  0.3532  0.4113
  507TMC3    O2 7597   4.382   4.260  14.390 -0.1143  0.7958  0.0544
  508MPD2     C 7598   3.526   1.705  16.386  0.1291 -0.5241  0.3977
  508MPD2    C1 7599   3.635   1.623  16.360  0.3799 -0.4465 -0.8441
  508MPD2    C2 7600   3.650   1.586  16.225  0.3598  0.4057 -0.3140
  508MPD2    C3 7601   3.562   1.630  16.122 -0.2627  0.1563  0.3766
  508MPD2    C4 7602   3.452   1.709  16.160 -0.5152 -0.3340  0.0471
  508MPD2    C5 7603   3.432   1.747  16.289  0.4117  0.5519  1.1556
  508MPD2     H 7604   3.737   1.529  16.195 -0.9828 -1.9817  0.3257
  508MPD2    H1 7605   3.389   1.761  16.089  1.4366  1.5950 -0.2888
  508MPD2    H2 7606   3.505   1.729  16.490 -1.0901 -0.9305  0.2496
  508MPD2    H3 7607   3.341   1.799  16.314 -0.0360 -0.7849  2.2897
  508MPD2     N 7608   3.603   1.614  15.990 -0.1555  0.4520 -0.3847
  508MPD2    H5 7609   3.697   1.579  15.980  0.0115  1.0283 -0.8543
  508MPD2    N1 7610   3.726   1.596  16.466  0.0480 -0.4146 -0.4441
  508MPD2    H7 7611   3.726   1.656  16.547  1.8810 -1.4973  0.3598
  509TMC3    C1 7612   3.608   1.605  15.525 -0.4616 -0.0107 -0.4058
  509TMC3    C2 7613   3.747   1.610  15.519 -0.0421 -0.5103 -0.2555
  509TMC3    C3 7614   3.815   1.621  15.637 -0.1289  0.6067  0.4368
  509TMC3    C4 7615   3.542   1.618  15.644  0.0150  0.2447  0.2291
  509TMC3    C5 7616   3.611   1.630  15.758  0.1121 -0.2653 -0.6317
  509TMC3    C6 7617   3.748   1.633  15.758  0.2708 -0.5717 -0.0311
  509TMC3     C 7618   3.554   1.661  15.410 -0.1832 -0.1661  0.3684
  509TMC3     O 7619   3.581   1.601  15.305  0.1552  0.5090  0.0706
  509TMC3     H 7620   3.801   1.599  15.426 -0.5149 -0.7346 -0.5021
  509TMC3    H1 7621   3.435   1.637  15.643 -0.0113 -0.0102 -1.7309
  509TMC3    H2 7622   3.806   1.647  15.848  0.9805  0.8251 -0.7049
  509TMC3    C7 7623   3.533   1.638  15.876 -0.2928 -0.3516 -0.4959
  509TMC3    C8 7624   3.957   1.656  15.631 -0.7466 -1.4863 -0.0318
  509TMC3    O1 7625   3.412   1.648  15.864  0.0391 -0.2971  0.2890
  509TMC3    O2 7626   4.021   1.611  15.535 -0.0387 -0.1455  0.0159
  510MPD2     C 7627   1.397   2.974  14.540  0.3089  0.2732 -0.5748
  510MPD2    C1 7628   1.484   2.869  14.569 -0.0286 -0.0183  0.4549
  510MPD2    C2 7629   1.582   2.836  14.473 -0.4019  0.5982 -0.0238
  510MPD2    C3 7630   1.595   2.910  14.354  0.2073 -0.6714  0.0430
  510MPD2    C4 7631   1.510   3.012  14.332  0.9948  0.1643 -0.1175
  510MPD2    C5 7632   1.410   3.040  14.420  0.5042 -0.6157 -0.9516
  510MPD2     H 7633   1.649   2.752  14.486 -2.5909 -0.8546  2.0965
  510MPD2    H1 7634   1.514   3.073  14.242 -0.4657  1.3656  0.6502
  510MPD2    H2 7635   1.315   3.002  14.606  0.7198 -0.2294  0.1402
  510MPD2    H3 7636   1.348   3.125  14.391 -0.2816 -0.7371  0.3449
  510MPD2     N 7637   1.698   2.865  14.268 -0.1453  0.2501  0.0015
  510MPD2    H5 7638   1.771   2.807  14.308 -1.5471 -0.6571  1.2239
  510MPD2    N1 7639   1.465   2.801  14.692  0.2891 -0.0482  0.0914
  510MPD2    H7 7640   1.404   2.848  14.758  1.3164  1.7892 -0.2635
  511TMC3    C1 7641   1.451   2.607  14.834  0.8573  0.3292  0.0479
  511TMC3    C2 7642   1.400   2.678  14.941 -0.4204 -0.1004  0.4007
  511TMC3    C3 7643   1.353   2.607  15.054 -0.5553 -0.2468 -0.2332
  511TMC3    C4 7644   1.471   2.473  14.841 -0.6525 -0.5963  0.3875
  511TMC3    C5 7645   1.416   2.406  14.951 -0.0271 -0.7446  0.2058
  511TMC3    C6 7646   1.358   2.470  15.053  0.9978 -0.6886  0.8698
  511TMC3     C 7647   1.523   2.680  14.722  0.1854 -0.0773 -0.2935
  511TMC3     O 7648   1.601   2.610  14.651 -0.5316 -0.2298 -0.0711
  511TMC3     H 7649   1.389   2.786  14.938 -1.5343 -0.1770  1.4566
  511TMC3    H1 7650   1.523   2.422  14.760 -1.2766 -1.1855  0.3505
  511TMC3    H2 7651   1.311   2.419  15.136  1.0961  0.1307  1.4253
  511TMC3    C7 7652   1.395   2.266  14.936 -0.4621  0.2702 -0.3157
  511TMC3    C8 7653   1.334   2.687  15.175 -0.2118  0.6271  0.6067
  511TMC3    O1 7654   1.409   2.228  14.819 -0.1487 -0.3002 -0.3995
  511TMC3    O2 7655   1.285   2.798  15.165 -0.7698  0.1683 -0.6763
  512TMC3    C1 7656   0.366   2.388  13.633 -0.2612  1.3759  0.0668
  512TMC3    C2 7657   0.387   2.391  13.764  0.0673  0.2044  0.0598
  512TMC3    C3 7658   0.456   2.290  13.827  0.3629  0.2452 -0.6384
  512TMC3    C4 7659   0.409   2.281  13.557 -1.5911 -0.0163 -0.5377
  512TMC3    C5 7660   0.485   2.184  13.618  0.6533 -0.4877 -1.0664
  512TMC3    C6 7661   0.503   2.178  13.752  0.1624  0.0997  0.9234
  512TMC3     C 7662   0.364   2.516  13.575  0.4254 -0.2534  0.0523
  512TMC3     O 7663   0.419   2.607  13.632  0.7597 -0.2942 -0.8955
  512TMC3     H 7664   0.358   2.482  13.816  0.0917 -0.1988  0.7836
  512TMC3    H1 7665   0.398   2.277  13.449  1.3544 -1.3159 -0.7966
  512TMC3    H2 7666   0.575   2.107  13.791 -0.2145 -0.9876 -0.3655
  512TMC3    C7 7667   0.584   2.115  13.535 -0.2739 -0.4460  0.0685
  512TMC3    C8 7668   0.570   2.343  13.892  0.0078  0.3639 -0.2053
  512TMC3    O1 7669   0.624   2.180  13.439 -0.2677  0.0275  0.3195
  512TMC3    O2 7670   0.629   2.260  13.959  0.6409 -0.1951  0.0392
  513MPD2     C 7671   2.731   2.160  13.068 -0.4242  0.4251  0.2860
  513MPD2    C1 7672   2.733   2.024  13.044 -0.4165 -0.3975 -0.0221
  513MPD2    C2 7673   2.791   1.952  13.152 -0.2785  0.3826 -0.0711
  513MPD2    C3 7674   2.850   2.016  13.267 -0.5855 -0.0607  0.2524
  513MPD2    C4 7675   2.855   2.150  13.276 -0.2025 -0.1521  0.0352
  513MPD2    C5 7676   2.792   2.222  13.181 -0.3264  0.0698  0.3059
  513MPD2     H 7677   2.805   1.845  13.143  1.5810  0.7367 -1.2530
  513MPD2    H1 7678   2.884   2.203  13.366  1.2588  0.5202 -0.8340
  513MPD2    H2 7679   2.680   2.229  13.002 -0.6822 -1.1822 -1.1689
  513MPD2    H3 7680   2.761   2.325  13.189 -2.5530 -0.4165 -2.2098
  513MPD2     N 7681   2.909   1.930  13.354  0.6971 -0.7281 -0.8907
  513MPD2    H5 7682   2.901   1.834  13.325 -1.3385 -0.9714  0.4317
  513MPD2    N1 7683   2.683   1.973  12.919 -1.2505 -0.2263  0.4801
  513MPD2    H7 7684   2.646   2.041  12.853  2.1523  0.0878 -1.1198
  514TMC3    C1 7685   2.672   1.813  12.753  0.4545  0.3154 -0.1082
  514TMC3    C2 7686   2.754   1.892  12.673 -0.7553 -0.3416  0.0483
  514TMC3    C3 7687   2.816   1.821  12.573 -0.5038 -0.3881  0.1488
  514TMC3    C4 7688   2.652   1.674  12.732  0.0676  0.3146 -0.7840
  514TMC3    C5 7689   2.727   1.610  12.639 -0.1727 -0.1577 -0.9560
  514TMC3    C6 7690   2.805   1.685  12.556 -0.0268 -0.0517  0.2705
  514TMC3     C 7691   2.693   1.842  12.884 -0.3733  0.0143  0.6708
  514TMC3     O 7692   2.741   1.755  12.953  0.3130  0.3764  0.2863
  514TMC3     H 7693   2.789   1.988  12.708  1.3149 -0.9260 -0.4035
  514TMC3    H1 7694   2.589   1.614  12.795 -0.4318  1.1094 -0.5316
  514TMC3    H2 7695   2.871   1.632  12.489  1.2429  2.1752 -0.2233
  514TMC3    C7 7696   2.796   1.495  12.690 -0.3151  1.1833 -0.2392
  514TMC3    C8 7697   2.925   1.884  12.502  0.3016  0.4552  0.5215
  514TMC3    O1 7698   2.834   1.410  12.613  0.2014 -0.4285 -0.3500
  514TMC3    O2 7699   2.990   1.968  12.563 -0.3533 -0.5248 -0.5257
  515MPD2     C 7700   1.211   3.864  14.718  0.0117 -0.7467 -0.4575
  515MPD2    C1 7701   1.077   3.909  14.699 -0.2074 -0.5309  1.0904
  515MPD2    C2 7702   1.032   4.020  14.760  0.6817 -0.8389  0.4003
  515MPD2    C3 7703   1.124   4.110  14.817  0.4283 -0.3323 -0.5372
  515MPD2    C4 7704   1.252   4.066  14.828 -0.2672 -0.1298  0.0234
  515MPD2    C5 7705   1.297   3.941  14.786  1.1400  0.5345 -0.1705
  515MPD2     H 7706   0.929   4.053  14.761  2.0063  3.3166 -1.1535
  515MPD2    H1 7707   1.318   4.120  14.896  0.1407  0.8692 -1.1641
  515MPD2    H2 7708   1.256   3.776  14.673 -1.3551 -1.0294 -1.2735
  515MPD2    H3 7709   1.400   3.913  14.802  1.0443  0.0905 -0.3439
  515MPD2     N 7710   1.090   4.234  14.883  0.3971  0.4703 -0.1934
  515MPD2    H5 7711   1.170   4.287  14.915  1.0459 -1.8450  2.0432
  515MPD2    N1 7712   0.978   3.830  14.628  0.1089  0.4063  0.9063
  515MPD2    H7 7713   0.885   3.870  14.637 -0.1688 -0.6042  2.5127
  516TMC3    C1 7714   0.872   3.645  14.543 -0.8426  0.7292 -0.0750
  516TMC3    C2 7715   0.786   3.726  14.464 -0.1421 -0.5919 -0.1235
  516TMC3    C3 7716   0.661   3.679  14.431 -0.4006  0.1486 -0.0074
  516TMC3    C4 7717   0.834   3.518  14.595 -0.7654 -0.1832 -0.1986
  516TMC3    C5 7718   0.706   3.480  14.563 -0.7270 -0.2096  0.1198
  516TMC3    C6 7719   0.623   3.556  14.479 -1.0225  0.0249  0.3246
  516TMC3     C 7720   0.987   3.700  14.601  0.0197  0.0763  0.0465
  516TMC3     O 7721   1.079   3.625  14.636  0.0124  0.4186  0.3712
  516TMC3     H 7722   0.825   3.822  14.432 -0.2561  0.0799  1.7594
  516TMC3    H1 7723   0.883   3.457  14.670  1.4133  1.0203 -0.6497
  516TMC3    H2 7724   0.519   3.529  14.465 -0.6484 -1.6134  0.7205
  516TMC3    C7 7725   0.660   3.353  14.624 -0.8564 -0.8698 -0.1681
  516TMC3    C8 7726   0.574   3.757  14.338  0.0418  0.1389 -0.3249
  516TMC3    O1 7727   0.726   3.297  14.712 -0.0190 -0.4815  0.2272
  516TMC3    O2 7728   0.463   3.706  14.321  0.4536  0.3500 -0.6462
  517MPD2     C 7729   4.598   0.250   0.155 -0.7042  0.4728 -0.0475
  517MPD2    C1 7730   4.685   0.336   0.083 -0.1590  0.0549  0.4549
  517MPD2    C2 7731   0.026   0.432   0.147  0.0968 -0.4023  0.2042
  517MPD2    C3 7732   0.001   0.462   0.283 -0.5011 -0.1589  0.8437
  517MPD2    C4 7733   4.651   0.376   0.349 -0.0247  0.4564  0.0829
  517MPD2    C5 7734   4.587   0.274   0.285 -0.0831  0.1114 -0.7587
  517MPD2     H 7735   0.095   0.491   0.089 -2.8943  3.6968  0.8272
  517MPD2    H1 7736   4.630   0.383   0.456  1.5329 -0.3250  0.4397
  517MPD2    H2 7737   4.549   0.162   0.113 -0.5188 -0.6319  2.0404
  517MPD2    H3 7738   4.524   0.208   0.344  0.2239 -0.2415 -0.8251
  517MPD2     N 7739   0.090   0.542   0.356  0.3098  0.4501  0.9277
  517MPD2    H5 7740   0.103   0.522   0.455  3.4024  0.2585  0.4976
  517MPD2    N1 7741   4.693   0.333  17.692 -0.1574 -0.5643  0.3899
  517MPD2    H7 7742   0.021   0.401  17.652  0.3670 -2.3437 -1.7918
  518TMC3    C1 7743   4.686   0.240  17.470 -0.6501 -0.3747 -0.7130
  518TMC3    C2 7744   4.689   0.120  17.406 -0.2184  0.7429 -0.4938
  518TMC3    C3 7745   0.017   0.112  17.285 -0.1041 -0.7935 -0.4704
  518TMC3    C4 7746   4.730   0.354  17.411 -0.2091 -0.0100 -0.6091
  518TMC3    C5 7747   0.058   0.346  17.288  0.1732  0.1402 -0.5976
  518TMC3    C6 7748   0.067   0.223  17.226  0.1665 -0.6994 -0.3691
  518TMC3     C 7749   4.639   0.241  17.611  0.0650 -0.1933  0.5453
  518TMC3     O 7750   4.556   0.156  17.634 -0.0199  0.4225  0.1239
  518TMC3     H 7751   4.648   0.037  17.463  1.4342  0.2582  0.0055
  518TMC3    H1 7752   4.716   0.447  17.464  1.9767 -0.7387  1.2146
  518TMC3    H2 7753   0.148   0.210  17.155 -0.1875  1.6053 -1.1657
  518TMC3    C7 7754   0.188   0.409  17.270  0.1681 -0.2486 -0.2211
  518TMC3    C8 7755   0.085   4.718  17.257 -0.5903 -0.0773  0.0546
  518TMC3    O1 7756   0.277   0.377  17.347  0.4958 -0.0462 -0.1364
  518TMC3    O2 7757   0.107   4.646  17.353 -0.6515  0.2877 -0.6090
  519MPD2     C 7758   1.904   4.085  14.358 -0.1886  0.1527  0.1845
  519MPD2    C1 7759   1.833   4.014  14.265 -0.7246 -0.3465 -0.0902
  519MPD2    C2 7760   1.840   3.874  14.268 -0.1346 -0.0611 -0.1867
  519MPD2    C3 7761   1.918   3.812  14.357 -0.4863 -0.2288  0.3163
  519MPD2    C4 7762   1.978   3.889  14.450 -0.6185  0.3904 -0.1017
  519MPD2    C5 7763   1.961   4.022  14.464 -0.1043  0.9207  0.6464
  519MPD2     H 7764   1.803   3.822  14.181  0.1266  0.0805 -0.3819
  519MPD2    H1 7765   2.041   3.844  14.526  1.7079  0.2580 -2.1146
  519MPD2    H2 7766   1.905   4.193  14.362 -1.3764  0.1365  0.9312
  519MPD2    H3 7767   1.999   4.075  14.550  1.1016 -1.8041  1.7924
  519MPD2     N 7768   1.953   3.677  14.345  0.4965 -0.0461  0.3536
  519MPD2    H5 7769   2.010   3.647  14.424 -1.5278  1.6273  2.4814
  519MPD2    N1 7770   1.775   4.070  14.148  0.3694  0.3236 -0.1245
  519MPD2    H7 7771   1.726   4.004  14.089 -2.7657  2.8464 -0.3788
  520TMC3    C1 7772   1.971   3.469  14.239  0.4399  0.5214  0.4371
  520TMC3    C2 7773   1.936   3.401  14.120  0.1415  0.5712  0.2573
  520TMC3    C3 7774   2.040   3.363  14.038  1.2378  0.0745  0.3502
  520TMC3    C4 7775   2.094   3.470  14.286 -0.7248 -0.0834  0.0216
  520TMC3    C5 7776   2.193   3.415  14.213  0.4245  0.8025 -0.0749
  520TMC3    C6 7777   2.172   3.355  14.088 -0.4945 -0.4888  0.1510
  520TMC3     C 7778   1.903   3.590  14.254  0.1793  0.3714 -0.0266
  520TMC3     O 7779   1.816   3.604  14.170 -0.1011  0.2608  0.0948
  520TMC3     H 7780   1.834   3.413  14.086  0.4621 -0.1897 -0.9959
  520TMC3    H1 7781   2.129   3.505  14.383  1.5840  0.1227 -0.8977
  520TMC3    H2 7782   2.256   3.326  14.025  1.0924  0.7608  1.6784
  520TMC3    C7 7783   2.330   3.442  14.250  0.8302 -0.0451  0.2314
  520TMC3    C8 7784   2.030   3.368  13.894 -0.4417 -0.4863  0.1175
  520TMC3    O1 7785   2.351   3.459  14.367  0.1810  0.4633 -0.0671
  520TMC3    O2 7786   2.126   3.332  13.828 -0.1830 -0.3539 -0.2318
  521MPD2     C 7787   2.946   1.652   0.409  0.1494 -0.9730 -0.2197
  521MPD2    C1 7788   2.874   1.689   0.303  0.3254  0.1026  0.0287
  521MPD2    C2 7789   2.936   1.743   0.191  0.0464  0.2663 -0.0873
  521MPD2    C3 7790   3.073   1.750   0.180 -0.4319  0.0929 -0.4328
  521MPD2    C4 7791   3.153   1.713   0.292 -0.1840  0.1335  0.5875
  521MPD2    C5 7792   3.085   1.679   0.407  0.1346  0.4228 -0.2600
  521MPD2     H 7793   2.875   1.783   0.111 -1.1770 -2.5849 -0.5798
  521MPD2    H1 7794   3.261   1.718   0.296 -0.1868  1.0038 -0.3970
  521MPD2    H2 7795   2.897   1.606   0.494 -0.5056  0.1898  0.0177
  521MPD2    H3 7796   3.142   1.652   0.495 -1.5263  0.6229  0.8739
  521MPD2     N 7797   3.127   1.798   0.056  0.1040  0.2295 -0.1264
  521MPD2    H5 7798   3.051   1.823  17.737  0.2871 -2.6290 -1.4959
  521MPD2    N1 7799   2.738   1.652   0.308 -0.0570  0.2986  0.0124
  521MPD2    H7 7800   2.708   1.592   0.384  1.3277  1.4939  1.4873
  522TMC3    C1 7801   3.295   1.822  17.624  0.1664  0.4658  0.6586
  522TMC3    C2 7802   3.430   1.800  17.606  0.1302 -0.1653  0.4137
  522TMC3    C3 7803   3.470   1.768  17.480 -0.5757 -0.3872 -0.4915
  522TMC3    C4 7804   3.198   1.792  17.535  0.3433  0.2929 -0.1029
  522TMC3    C5 7805   3.245   1.760  17.412 -0.4076 -0.5846 -0.2571
  522TMC3    C6 7806   3.380   1.754  17.375  0.7649  0.1088  0.3767
  522TMC3     C 7807   3.257   1.807   0.019  0.7457  0.0442  0.0592
  522TMC3     O 7808   3.350   1.795   0.095  0.1343  0.6143  0.0527
  522TMC3     H 7809   3.506   1.818  17.681  1.3391 -1.7112 -0.4405
  522TMC3    H1 7810   3.091   1.789  17.552  0.4401 -0.4802  0.3845
  522TMC3    H2 7811   3.410   1.734  17.273 -0.7673  1.0083 -0.2612
  522TMC3    C7 7812   3.152   1.719  17.303 -0.3566  0.6336  0.1331
  522TMC3    C8 7813   3.593   1.685  17.480  0.6169  0.0855 -0.5437
  522TMC3    O1 7814   3.188   1.626  17.236 -0.0052  0.8208 -0.0033
  522TMC3    O2 7815   3.627   1.624  17.582 -0.0549 -0.1908  0.1262
  523MPD2     C 7816   0.058   1.799  10.127 -0.2921  0.9260 -0.0245
  523MPD2    C1 7817   0.076   1.839  10.258  0.5186 -0.2697  0.2748
  523MPD2    C2 7818   0.082   1.977  10.282  0.2556 -0.3480 -0.0347
  523MPD2    C3 7819   0.072   2.069  10.177 -0.0314 -0.5714 -0.3729
  523MPD2    C4 7820   0.068   2.031  10.049 -0.6446 -0.2838  0.0645
  523MPD2    C5 7821   0.064   1.897  10.025  0.4988 -0.1955  0.0679
  523MPD2     H 7822   0.088   2.011  10.385 -0.1063 -0.0009 -0.1264
  523MPD2    H1 7823   0.065   2.105   9.970  0.9157  0.2808  0.5388
  523MPD2    H2 7824   0.066   1.698  10.089 -0.5892  0.5158  1.0204
  523MPD2    H3 7825   0.057   1.853   9.926  0.1052 -2.2205  1.0050
  523MPD2     N 7826   0.074   2.209  10.199 -0.3988 -0.4665  0.0220
  523MPD2    H5 7827   0.070   2.261  10.112 -0.4519 -1.4745 -0.5788
  523MPD2    N1 7828   0.109   1.737  10.354  0.2213 -0.3653  0.2318
  523MPD2    H7 7829   0.119   1.642  10.320 -2.1726 -0.2489 -0.7850
  524TMC3    C1 7830   0.067   2.415  10.311  0.4497  0.1080  0.6485
  524TMC3    C2 7831   0.152   2.454  10.210  0.4984  0.3747  0.0500
  524TMC3    C3 7832   0.143   2.586  10.161  0.7642  0.1128  0.4066
  524TMC3    C4 7833   4.699   2.500  10.343  0.7057  0.0921  0.0762
  524TMC3    C5 7834   4.681   2.620  10.278 -0.4385 -0.0834  0.3711
  524TMC3    C6 7835   0.037   2.667  10.187 -0.6939  0.2023  0.9304
  524TMC3     C 7836   0.068   2.274  10.328 -0.3005  0.1220  0.1069
  524TMC3     O 7837   0.053   2.230  10.441  0.5204  0.0817 -0.2434
  524TMC3     H 7838   0.250   2.409  10.206 -0.7154 -2.2961  0.6569
  524TMC3    H1 7839   4.623   2.464  10.412 -0.9329  1.6742 -0.9050
  524TMC3    H2 7840   0.020   2.754  10.124  3.2567 -0.1334 -0.5836
  524TMC3    C7 7841   4.554   2.684  10.305  0.1114  0.0968  0.3980
  524TMC3    C8 7842   0.255   2.647  10.096 -0.4224  0.2485 -0.3913
  524TMC3    O1 7843   4.492   2.656  10.404 -0.3676  0.0940  0.6171
  524TMC3    O2 7844   0.285   2.763  10.122 -0.4793 -0.5985  0.1006
  525MPD2     C 7845   3.397   3.460  14.527 -0.0365  0.3171  0.5072
  525MPD2    C1 7846   3.500   3.459  14.613 -0.2544  0.3669  0.0604
  525MPD2    C2 7847   3.604   3.547  14.603  0.1041 -0.8611  0.1519
  525MPD2    C3 7848   3.595   3.653  14.514  0.1883  0.1539  0.2787
  525MPD2    C4 7849   3.481   3.663  14.436 -0.1851 -0.3832  0.3444
  525MPD2    C5 7850   3.391   3.563  14.435  0.1175 -0.1743 -0.0599
  525MPD2     H 7851   3.690   3.545  14.669  0.3429 -4.2305 -0.2767
  525MPD2    H1 7852   3.470   3.748  14.369  2.0678 -0.2711  0.1061
  525MPD2    H2 7853   3.326   3.379  14.520 -0.4075  0.8507 -1.8653
  525MPD2    H3 7854   3.302   3.579  14.374 -0.0318 -0.3947  0.0983
  525MPD2     N 7855   3.680   3.765  14.515 -0.8345 -0.0580  0.2863
  525MPD2    H5 7856   3.662   3.841  14.451 -0.1476 -0.2819 -0.1701
  525MPD2    N1 7857   3.506   3.360  14.718  0.4027  0.2815  0.0826
  525MPD2    H7 7858   3.592   3.347  14.772 -0.0958  1.5531  1.1783
  526TMC3    C1 7859   3.429   3.219  14.883 -0.8958  0.0464 -0.0239
  526TMC3    C2 7860   3.334   3.193  14.980  0.2327  0.6311 -0.5068
  526TMC3    C3 7861   3.363   3.101  15.084  0.0978 -0.3842  0.5524
  526TMC3    C4 7862   3.541   3.141  14.873  0.0030  0.2259  0.1179
  526TMC3    C5 7863   3.567   3.052  14.969  0.7579 -0.7828  0.1838
  526TMC3    C6 7864   3.481   3.032  15.076  0.1679  0.4232  0.4662
  526TMC3     C 7865   3.392   3.307  14.776  0.6936  0.7115 -0.6682
  526TMC3     O 7866   3.276   3.355  14.777 -0.3176 -0.5059  0.0397
  526TMC3     H 7867   3.240   3.244  14.964 -1.9632 -3.2855  0.0490
  526TMC3    H1 7868   3.613   3.162  14.794 -0.1601 -0.9984 -0.3584
  526TMC3    H2 7869   3.500   2.959  15.154 -0.9811 -0.4397 -0.0725
  526TMC3    C7 7870   3.690   2.973  14.951 -0.6445  0.6360  0.5630
  526TMC3    C8 7871   3.287   3.095  15.205 -0.5523 -0.0313 -0.7768
  526TMC3    O1 7872   3.753   2.996  14.849  0.4096  0.4332 -0.0657
  526TMC3    O2 7873   3.337   3.026  15.294  0.6540  0.4543  0.4646
  527MPD2     C 7874   1.554   1.112   1.678 -0.0738  0.7921  0.1506
  527MPD2    C1 7875   1.527   1.076   1.543  0.3820  0.6038 -0.0464
  527MPD2    C2 7876   1.632   1.054   1.457 -0.3829  0.1725  0.0800
  527MPD2    C3 7877   1.763   1.046   1.502  0.0629 -0.0825  0.0682
  527MPD2    C4 7878   1.791   1.089   1.629 -1.2156 -0.5064  0.1060
  527MPD2    C5 7879   1.686   1.130   1.717  0.1029 -0.3203  0.4539
  527MPD2     H 7880   1.616   1.026   1.353 -0.8798 -0.9425  0.4522
  527MPD2    H1 7881   1.888   1.071   1.672 -1.5977  0.0466  1.2227
  527MPD2    H2 7882   1.478   1.153   1.744  0.3281 -0.4128  1.3513
  527MPD2    H3 7883   1.710   1.170   1.815  0.3421 -1.1212  0.7175
  527MPD2     N 7884   1.844   0.992   1.405  0.3775  0.2653 -0.1760
  527MPD2    H5 7885   1.806   0.974   1.312 -0.0319  1.7960 -0.3103
  527MPD2    N1 7886   1.394   1.047   1.484  0.1615 -0.3913 -0.1262
  527MPD2    H7 7887   1.385   1.014   1.388 -3.4688 -2.5021  0.9245
  528TMC3    C1 7888   1.157   1.060   1.450 -0.6543 -0.9436  0.2062
  528TMC3    C2 7889   1.184   1.024   1.321 -0.5274 -0.4994 -0.9865
  528TMC3    C3 7890   1.084   1.054   1.235 -0.3675  0.0964  0.5369
  528TMC3    C4 7891   1.036   1.113   1.491  0.9130 -0.1746  0.0165
  528TMC3    C5 7892   0.945   1.149   1.405 -0.3356 -0.3891  0.3573
  528TMC3    C6 7893   0.965   1.120   1.272 -0.0784  0.2309  0.2063
  528TMC3     C 7894   1.270   1.070   1.549 -0.2206  0.0087 -0.4999
  528TMC3     O 7895   1.252   1.118   1.659  0.1748 -0.5039  0.2314
  528TMC3     H 7896   1.274   0.976   1.284 -1.9695 -4.0024  0.0760
  528TMC3    H1 7897   1.023   1.143   1.594  3.3545 -0.7857  0.4961
  528TMC3    H2 7898   0.892   1.142   1.195 -0.3532  0.1828  0.4479
  528TMC3    C7 7899   0.851   1.257   1.440  0.2231 -0.2672  0.4177
  528TMC3    C8 7900   1.127   1.047   1.094 -0.2040  0.2160  0.9792
  528TMC3    O1 7901   0.862   1.306   1.554 -0.2733 -0.1127 -0.2709
  528TMC3    O2 7902   1.238   1.011   1.067 -0.2937 -0.2662  0.1768
  529MPD2     C 7903   3.915   4.454   1.380  0.4122 -0.3601 -0.2045
  529MPD2    C1 7904   3.882   4.361   1.283  0.4195 -0.2967  0.0273
  529MPD2    C2 7905   3.815   4.400   1.173  0.1275  0.2767  0.3345
  529MPD2    C3 7906   3.782   4.535   1.151  0.0308 -0.2246  0.2855
  529MPD2    C4 7907   3.822   4.626   1.244  1.2777  0.3698  0.0838
  529MPD2    C5 7908   3.888   4.587   1.357  1.0792  0.4531  1.2228
  529MPD2     H 7909   3.789   4.326   1.098  0.6996 -0.5134  0.9204
  529MPD2    H1 7910   3.804   4.732   1.234  0.5558  0.2590  0.2185
  529MPD2    H2 7911   3.962   4.435   1.476 -0.0127 -1.0062 -0.1201
  529MPD2    H3 7912   3.910   4.655   1.439  0.7274  0.5598  1.2278
  529MPD2     N 7913   3.708   4.588   1.038 -0.5656  0.0107 -0.4092
  529MPD2    H5 7914   3.698   4.689   1.038  0.4102  0.1041 -0.0107
  529MPD2    N1 7915   3.917   4.226   1.292 -0.5694 -0.1607 -0.3990
  529MPD2    H7 7916   3.886   4.169   1.214 -1.6185 -0.0271 -0.0863
  530TMC3    C1 7917   4.008   4.026   1.382  0.4138  0.2695  0.1206
  530TMC3    C2 7918   4.084   3.985   1.489  0.3490  0.6394 -0.0904
  530TMC3    C3 7919   4.195   3.902   1.463  0.1259  0.6472  0.5156
  530TMC3    C4 7920   4.038   3.981   1.257 -0.4777  0.1105 -0.0430
  530TMC3    C5 7921   4.160   3.914   1.235 -0.2313  0.0713 -0.6252
  530TMC3    C6 7922   4.239   3.876   1.337  0.3532 -0.0053 -0.5067
  530TMC3     C 7923   3.976   4.166   1.404  0.0277  0.2998 -0.1747
  530TMC3     O 7924   4.016   4.222   1.507  1.1098  0.6550 -1.0388
  530TMC3     H 7925   4.065   4.016   1.591 -1.7356  1.1664 -0.6413
  530TMC3    H1 7926   3.963   3.988   1.179  1.2772 -1.0888 -1.8121
  530TMC3    H2 7927   4.323   3.819   1.299 -0.9845 -1.3732 -1.3770
  530TMC3    C7 7928   4.177   3.822   1.124 -0.1101 -0.1959  0.4379
  530TMC3    C8 7929   4.274   3.860   1.575 -0.1576  0.5014 -0.3055
  530TMC3    O1 7930   4.291   3.811   1.082 -0.3781 -0.2082  0.0105
  530TMC3    O2 7931   4.228   3.889   1.688 -0.1598  0.3516  0.2458
  531MPD2     C 7932   3.104   1.319  13.057 -0.1847  0.6314  0.5269
  531MPD2    C1 7933   3.043   1.436  13.092 -0.8638  0.4413 -0.1885
  531MPD2    C2 7934   2.936   1.485  13.017  0.2417 -0.2944 -0.5544
  531MPD2    C3 7935   2.908   1.430  12.898  0.4186  0.5787  0.0072
  531MPD2    C4 7936   2.957   1.309  12.860 -0.2492 -0.2389 -0.1754
  531MPD2    C5 7937   3.058   1.255  12.941  0.1496  0.1159  0.2391
  531MPD2     H 7938   2.890   1.579  13.045 -0.1545 -0.6486 -0.0133
  531MPD2    H1 7939   2.925   1.259  12.770  0.2755  0.0170 -0.5071
  531MPD2    H2 7940   3.195   1.281  13.103  0.3694  0.9579 -0.2781
  531MPD2    H3 7941   3.116   1.172  12.903 -0.6254  0.3021 -1.3364
  531MPD2     N 7942   2.829   1.510  12.821  0.2235  0.7035 -0.4008
  531MPD2    H5 7943   2.791   1.591  12.868 -1.2970 -0.7208  0.8679
  531MPD2    N1 7944   3.083   1.488  13.221 -0.7453  0.0424 -0.1756
  531MPD2    H7 7945   3.168   1.451  13.263 -2.7331 -3.0317  1.1179
  532TMC3    C1 7946   3.088   1.650  13.397  0.3855  0.1732  0.1126
  532TMC3    C2 7947   3.007   1.736  13.470 -0.4867 -0.4424  0.0416
  532TMC3    C3 7948   3.065   1.857  13.505 -0.3311  0.3911 -0.1374
  532TMC3    C4 7949   3.227   1.664  13.381  0.4130  0.0198  0.4105
  532TMC3    C5 7950   3.281   1.782  13.429  0.5657  0.5756 -0.2927
  532TMC3    C6 7951   3.198   1.883  13.477 -0.0056  0.4088  0.4073
  532TMC3     C 7952   3.017   1.592  13.285 -0.3689  0.1734  0.1859
  532TMC3     O 7953   2.908   1.636  13.262  0.5268  0.8231  0.6886
  532TMC3     H 7954   2.902   1.720  13.491 -0.0867 -2.1559  0.7408
  532TMC3    H1 7955   3.283   1.595  13.319 -0.1102  0.8281 -0.9729
  532TMC3    H2 7956   3.229   1.982  13.507 -0.3785  0.5591  0.2931
  532TMC3    C7 7957   3.395   1.771  13.509  0.3794 -0.2601 -0.0033
  532TMC3    C8 7958   2.983   1.972  13.461  0.5328  0.2618  0.1154
  532TMC3    O1 7959   3.457   1.869  13.550 -0.0678  0.8129 -0.1915
  532TMC3    O2 7960   3.011   2.083  13.508 -0.5125  0.5931 -0.0600
  533TMC3    C1 7961   3.861   3.904  14.581  0.0210 -0.2494 -0.4397
  533TMC3    C2 7962   3.992   3.918  14.606  0.2714  0.2546 -0.2632
  533TMC3    C3 7963   4.044   4.037  14.650  0.1493 -0.1999  0.0866
  533TMC3    C4 7964   3.774   4.008  14.604  0.0395  0.2574 -0.2140
  533TMC3    C5 7965   3.824   4.126  14.648 -0.4258  0.8579  0.3359
  533TMC3    C6 7966   3.959   4.143  14.674 -0.3897  0.2424 -0.2091
  533TMC3     C 7967   3.800   3.775  14.584 -0.1236  0.1144 -0.2048
  533TMC3     O 7968   3.863   3.687  14.642 -0.1833  0.6125 -0.3287
  533TMC3     H 7969   4.059   3.833  14.608  0.5826  0.5193  0.5223
  533TMC3    H1 7970   3.667   3.993  14.590 -0.4635  0.6000  3.0714
  533TMC3    H2 7971   4.007   4.238  14.695  2.4463 -1.1057 -0.6652
  533TMC3    C7 7972   3.731   4.202  14.735 -0.1800  0.2069  0.0315
  533TMC3    C8 7973   4.186   4.044  14.676  0.5455  0.6026  0.4103
  533TMC3    O1 7974   3.613   4.179  14.718 -0.2014  0.1849 -0.4557
  533TMC3    O2 7975   4.218   4.129  14.753  0.2479 -0.7027 -0.3758
  534MPD2     C 7976   1.683   4.391   1.079 -0.0811 -0.9859 -0.0345
  534MPD2    C1 7977   1.678   4.518   1.028  0.1208 -0.3599 -0.7030
  534MPD2    C2 7978   1.550   4.561   0.988  0.2740  0.2910 -0.0242
  534MPD2    C3 7979   1.440   4.474   0.995  0.0777 -0.0604  0.0374
  534MPD2    C4 7980   1.457   4.339   1.030 -0.1538  0.4416  0.9947
  534MPD2    C5 7981   1.576   4.308   1.075  0.1422  0.3804  0.3120
  534MPD2     H 7982   1.538   4.665   0.960  3.1399  0.9197  1.1387
  534MPD2    H1 7983   1.383   4.260   1.037  1.9164 -1.7115 -1.4702
  534MPD2    H2 7984   1.777   4.344   1.108  1.2620  0.0049 -2.7748
  534MPD2    H3 7985   1.593   4.204   1.100  1.4011  0.3474 -0.6560
  534MPD2     N 7986   1.310   4.519   0.977  0.0534 -0.3200  0.6041
  534MPD2    H5 7987   1.240   4.445   0.974  0.7260 -1.0736  3.6762
  534MPD2    N1 7988   1.785   4.597   1.023 -0.9588  1.2149  0.2123
  534MPD2    H7 7989   1.767   4.690   0.988  0.5703  2.5768  3.0443
  535TMC3    C1 7990   1.119   4.641   0.962  0.0030  0.1913 -0.3647
  535TMC3    C2 7991   1.054   4.571   1.061  0.2804 -0.1824 -0.0417
  535TMC3    C3 7992   0.921   4.541   1.039 -0.8605 -0.3135 -0.8035
  535TMC3    C4 7993   1.044   4.704   0.862  0.1692 -0.7065  0.5464
  535TMC3    C5 7994   0.919   4.669   0.842  0.2116 -0.2043 -0.6809
  535TMC3    C6 7995   0.853   4.582   0.927 -0.1339 -0.5063  0.0650
  535TMC3     C 7996   1.263   4.646   0.965 -0.0071  0.1186 -0.5332
  535TMC3     O 7997   1.320   0.014   0.932 -0.4498 -0.0113 -0.0037
  535TMC3     H 7998   1.104   4.552   1.155 -0.0891  2.4986  0.6891
  535TMC3    H1 7999   1.102   0.024   0.790  0.7296 -1.1105  0.6797
  535TMC3    H2 8000   0.748   4.567   0.904  0.4252 -2.5652 -1.2187
  535TMC3    C7 8001   0.827   4.728   0.743  0.5923 -0.1621 -0.3042
  535TMC3    C8 8002   0.829   4.483   1.136  0.3431  0.1859 -0.4146
  535TMC3    O1 8003   0.737   4.663   0.694  0.3745  0.3696 -0.2272
  535TMC3    O2 8004   0.725   4.446   1.083 -0.0441  0.1868  0.6372
  536MPD2     C 8005   3.862   2.919  16.645  0.2912  0.5655 -0.6292
  536MPD2    C1 8006   3.938   2.847  16.557  0.0872 -0.8274  0.5721
  536MPD2    C2 8007   3.936   2.889  16.424 -0.0742  0.6817  0.2722
  536MPD2    C3 8008   3.870   3.005  16.389  0.4910  0.1402 -0.0619
  536MPD2    C4 8009   3.813   3.086  16.484 -0.0779 -0.3543 -1.4216
  536MPD2    C5 8010   3.813   3.037  16.609 -0.2700  0.5442 -0.2866
  536MPD2     H 8011   3.988   2.831  16.349  1.9178  2.2438  0.4546
  536MPD2    H1 8012   3.758   3.178  16.465  1.6028  0.6931 -1.1902
  536MPD2    H2 8013   3.845   2.880  16.745  0.0664  0.4516 -0.7127
  536MPD2    H3 8014   3.775   3.097  16.692 -0.8841 -0.1719 -0.0486
  536MPD2     N 8015   3.879   3.055  16.261  0.3017 -0.3723 -0.0913
  536MPD2    H5 8016   3.828   3.138  16.230  0.3491  0.1371  1.1912
  536MPD2    N1 8017   4.010   2.731  16.607 -0.7202 -0.3909 -0.2699
  536MPD2    H7 8018   4.002   2.705  16.705  0.0567  0.9186  0.1421
  537TMC3    C1 8019   4.192   2.582  16.612 -0.4950 -0.0061 -0.4363
  537TMC3    C2 8020   4.326   2.581  16.566  0.2710 -0.6772 -0.2437
  537TMC3    C3 8021   4.416   2.576  16.668 -0.6172  0.8684  0.6805
  537TMC3    C4 8022   4.161   2.558  16.743 -0.2213 -0.5694  0.2583
  537TMC3    C5 8023   4.257   2.541  16.841  0.0438 -0.3384 -0.4331
  537TMC3    C6 8024   4.386   2.561  16.801  0.3063  0.4272  0.0479
  537TMC3     C 8025   4.104   2.661  16.532 -0.3901  0.1807 -0.5219
  537TMC3     O 8026   4.142   2.684  16.414 -0.2602  0.1573 -0.1939
  537TMC3     H 8027   4.344   2.601  16.461 -1.5026  1.9301 -0.0759
  537TMC3    H1 8028   4.059   2.540  16.775 -0.6572  0.5976 -0.4828
  537TMC3    H2 8029   4.468   2.574  16.871  0.1747 -1.1762  0.4910
  537TMC3    C7 8030   4.216   2.446  16.948  0.2549  0.6027  0.8723
  537TMC3    C8 8031   4.539   2.647  16.647  0.6763  0.3711  0.6960
  537TMC3    O1 8032   4.096   2.448  16.975  0.1711  0.1416  0.0942
  537TMC3    O2 8033   4.637   2.595  16.698  0.1824 -0.3395 -0.4814
  538TMC3    C1 8034   1.509   1.530  11.456 -0.0596 -0.4888 -0.1526
  538TMC3    C2 8035   1.501   1.482  11.334 -0.5551 -0.3590 -0.1206
  538TMC3    C3 8036   1.383   1.491  11.268 -0.3782 -0.2086 -0.3736
  538TMC3    C4 8037   1.403   1.600  11.511 -0.4143  0.1630 -0.3537
  538TMC3    C5 8038   1.280   1.605  11.439 -0.3476  0.6738 -0.0773
  538TMC3    C6 8039   1.270   1.546  11.318 -0.0052  0.5334 -0.1179
  538TMC3     C 8040   1.651   1.560  11.494  0.1700  0.3998 -0.3345
  538TMC3     O 8041   1.744   1.497  11.441  0.1900  0.2625  0.1250
  538TMC3     H 8042   1.581   1.425  11.288  0.0225  1.1126 -0.9526
  538TMC3    H1 8043   1.409   1.651  11.607 -2.5635  3.1724 -1.8123
  538TMC3    H2 8044   1.176   1.532  11.265 -0.1348  0.5957  0.0947
  538TMC3    C7 8045   1.161   1.674  11.487  0.1681  0.5105  0.4766
  538TMC3    C8 8046   1.377   1.478  11.121 -0.6242 -0.5737 -0.0458
  538TMC3    O1 8047   1.080   1.715  11.407 -0.1834  0.7653  0.6806
  538TMC3    O2 8048   1.268   1.463  11.071  0.6307  0.4443 -0.3065
  539MPD2     C 8049   0.919   1.052  12.176 -0.3794  0.6539 -0.5179
  539MPD2    C1 8050   0.857   1.066  12.052  0.3594  0.6706  0.2407
  539MPD2    C2 8051   0.815   1.194  12.017 -0.6494 -0.1600  0.6823
  539MPD2    C3 8052   0.840   1.302  12.095 -0.0233 -0.6406 -0.1055
  539MPD2    C4 8053   0.918   1.289  12.203  0.4552  0.1181  0.8812
  539MPD2    C5 8054   0.955   1.165  12.245  0.0034 -0.4630 -0.2988
  539MPD2     H 8055   0.781   1.206  11.915 -1.1221  2.4225  1.1573
  539MPD2    H1 8056   0.947   1.373  12.265  1.9210  1.6732 -1.9254
  539MPD2    H2 8057   0.952   0.959  12.221 -0.7973  0.4115 -0.7081
  539MPD2    H3 8058   1.014   1.152  12.335 -0.8628 -1.5492  0.1092
  539MPD2     N 8059   0.808   1.435  12.061 -0.2990  0.3057 -0.3396
  539MPD2    H5 8060   0.824   1.502  12.136  2.1185 -1.3314  0.5822
  539MPD2    N1 8061   0.854   0.954  11.964  0.1484  0.2823 -0.6107
  539MPD2    H7 8062   0.817   0.967  11.871 -2.4777 -1.8897  0.1234
  540TMC3    C1 8063   0.720   1.617  11.933 -0.6697  0.6064  0.4295
  540TMC3    C2 8064   0.691   1.680  11.817 -0.2954  0.0709 -0.6596
  540TMC3    C3 8065   0.626   1.798  11.814  0.0316 -0.2934  0.2052
  540TMC3    C4 8066   0.673   1.673  12.051 -0.0430  0.7907  0.1723
  540TMC3    C5 8067   0.620   1.799  12.048  0.2332 -0.3472 -0.7311
  540TMC3    C6 8068   0.601   1.861  11.927  0.0942 -0.0374  0.3100
  540TMC3     C 8069   0.774   1.479  11.938  0.2159 -0.2560 -0.3813
  540TMC3     O 8070   0.784   1.419  11.830 -0.2228  0.6193 -0.3152
  540TMC3     H 8071   0.721   1.630  11.725  3.9208 -0.5245  1.0053
  540TMC3    H1 8072   0.677   1.625  12.148  1.4108 -0.4865 -0.5254
  540TMC3    H2 8073   0.557   1.960  11.929 -1.0625 -0.5175 -1.6807
  540TMC3    C7 8074   0.560   1.868  12.164  0.7793 -0.9485  0.2452
  540TMC3    C8 8075   0.526   1.835  11.715 -0.0411 -0.1930  0.1385
  540TMC3    O1 8076   0.519   1.794  12.255  0.5531  0.2923  0.4968
  540TMC3    O2 8077   0.485   1.946  11.716 -0.4498  0.1542 -0.1135
  541MPD2     C 8078   4.072   2.848  13.436 -0.1185  0.2095 -0.7751
  541MPD2    C1 8079   3.966   2.782  13.380 -0.5549  0.6034 -0.1504
  541MPD2    C2 8080   3.878   2.838  13.288  0.5295  0.0106  0.2776
  541MPD2    C3 8081   3.920   2.961  13.235  0.2734 -0.5599 -0.0657
  541MPD2    C4 8082   4.035   3.019  13.274  0.8755 -0.0766 -0.1321
  541MPD2    C5 8083   4.111   2.969  13.377  0.4252  0.8762 -0.0565
  541MPD2     H 8084   3.793   2.785  13.246  1.5046  0.0085 -1.6784
  541MPD2    H1 8085   4.065   3.120  13.248 -0.4994  0.1507 -0.8240
  541MPD2    H2 8086   4.134   2.801  13.512 -1.1456 -1.4793 -0.9942
  541MPD2    H3 8087   4.201   3.016  13.414  1.4675 -0.6035 -0.6887
  541MPD2     N 8088   3.856   3.017  13.123  0.1502  0.1346 -0.6199
  541MPD2    H5 8089   3.921   3.068  13.066  1.2911 -2.0141 -1.2453
  541MPD2    N1 8090   3.925   2.658  13.419  0.6576 -0.1930  0.2013
  541MPD2    H7 8091   3.851   2.615  13.365  1.3881 -1.4607  0.2128
  542TMC3    C1 8092   3.714   3.018  12.931  0.4609 -0.0827  0.6580
  542TMC3    C2 8093   3.795   2.952  12.839 -0.0420  0.1514 -0.0619
  542TMC3    C3 8094   3.747   2.928  12.719 -0.2433 -0.1123 -0.2496
  542TMC3    C4 8095   3.583   3.050  12.895 -0.0051 -0.4608 -0.2649
  542TMC3    C5 8096   3.535   3.016  12.768 -0.0443 -0.0619 -0.1396
  542TMC3    C6 8097   3.621   2.961  12.676 -0.6467  0.1443  0.2529
  542TMC3     C 8098   3.734   2.974  13.068 -0.4155 -0.6703  0.7751
  542TMC3     O 8099   3.642   2.899  13.104  0.0056 -0.3631 -0.0512
  542TMC3     H 8100   3.891   2.910  12.865 -0.9243 -0.9820  1.3973
  542TMC3    H1 8101   3.519   3.109  12.958  1.5012 -1.3326  2.0583
  542TMC3    H2 8102   3.610   2.950  12.569 -2.2227  0.3711  0.4016
  542TMC3    C7 8103   3.428   3.094  12.704 -0.0846 -0.4329  0.2150
  542TMC3    C8 8104   3.834   2.858  12.624  0.2780 -0.3599 -0.4495
  542TMC3    O1 8105   3.409   3.213  12.734 -0.4140  0.2283 -0.1144
  542TMC3    O2 8106   3.827   2.908  12.514  0.0286 -0.7471  0.2815
  543TMC3    C1 8107   3.477   4.151  17.319  0.5550  0.1092 -0.0519
  543TMC3    C2 8108   3.533   4.046  17.392  0.2215  0.4117 -0.7509
  543TMC3    C3 8109   3.507   4.037  17.525  0.4910  0.8361  0.1926
  543TMC3    C4 8110   3.380   4.233  17.371  0.3907  0.2391  0.1113
  543TMC3    C5 8111   3.341   4.206  17.507 -0.1608  0.0933  0.2034
  543TMC3    C6 8112   3.402   4.110  17.578 -0.0182  1.0602  0.4785
  543TMC3     C 8113   3.552   4.185  17.197  0.8377  0.5028 -0.7139
  543TMC3     O 8114   3.638   4.105  17.171  0.0922  0.2168 -0.1795
  543TMC3     H 8115   3.609   3.982  17.349  0.1603  0.2823 -0.6652
  543TMC3    H1 8116   3.350   4.328  17.328 -1.2759 -0.5493 -0.4639
  543TMC3    H2 8117   3.377   4.101  17.683 -0.2291  2.4492  0.5539
  543TMC3    C7 8118   3.210   4.250  17.554 -0.2215 -0.7088 -0.7903
  543TMC3    C8 8119   3.546   3.918  17.595 -0.1451 -0.2654  0.3015
  543TMC3    O1 8120   3.189   4.233  17.676  0.6990  0.5467  0.0375
  543TMC3    O2 8121   3.628   3.847  17.542  0.1310 -0.3161 -0.5972
  544MPD2     C 8122   3.546   3.587   0.249  0.1251  0.2428  0.3224
  544MPD2    C1 8123   3.589   3.571   0.122  0.1035 -0.6799  0.7013
  544MPD2    C2 8124   3.585   3.679   0.034  0.3528 -0.3296  0.5123
  544MPD2    C3 8125   3.531   3.800   0.073  0.5164 -0.1262 -0.3892
  544MPD2    C4 8126   3.481   3.814   0.199 -0.4445 -0.3432  0.4316
  544MPD2    C5 8127   3.493   3.709   0.287  0.7595 -0.5632 -0.7374
  544MPD2     H 8128   3.633   3.661  17.682  1.2635 -0.0390  0.9116
  544MPD2    H1 8129   3.427   3.902   0.231 -2.0132 -1.0196 -0.3630
  544MPD2    H2 8130   3.539   3.512   0.327  1.2268  1.0295  1.1783
  544MPD2    H3 8131   3.439   3.717   0.380  1.7227 -1.5726 -0.1065
  544MPD2     N 8132   3.503   3.904  17.728  0.3266  0.1899 -0.4479
  544MPD2    H5 8133   3.470   3.990   0.028 -0.2288 -0.6947  0.8939
  544MPD2    N1 8134   3.644   3.444   0.086  0.4684 -0.7251  0.3067
  544MPD2    H7 8135   3.647   3.375   0.160 -1.1316 -0.1441  0.9132
  545TMC3    C1 8136   3.752   3.283  17.691  0.4136 -0.2513 -0.0255
  545TMC3    C2 8137   3.758   3.239  17.564 -0.3030  0.9812 -0.5435
  545TMC3    C3 8138   3.830   3.126  17.548  0.4504 -0.0104  0.4552
  545TMC3    C4 8139   3.803   3.224   0.059 -0.6056 -0.0558  0.7016
  545TMC3    C5 8140   3.881   3.116   0.036 -0.2703 -0.0391  0.3673
  545TMC3    C6 8141   3.905   3.072  17.647  0.6810 -0.0490 -0.0320
  545TMC3     C 8142   3.684   3.414  17.702  0.1097  0.1803  0.4704
  545TMC3     O 8143   3.677   3.473  17.597 -0.0471  0.9091 -0.0589
  545TMC3     H 8144   3.701   3.282  17.483 -0.2942  1.4144 -0.3243
  545TMC3    H1 8145   3.786   3.259   0.160 -1.0945 -1.9954  1.3046
  545TMC3    H2 8146   3.974   2.994  17.619 -0.0747 -1.1304  1.1199
  545TMC3    C7 8147   3.965   3.073   0.139 -0.1030 -0.1677  0.4111
  545TMC3    C8 8148   3.872   3.085  17.411  0.6237 -0.1219  0.8117
  545TMC3    O1 8149   3.978   3.152   0.234 -0.1014 -0.3405 -0.0068
  545TMC3    O2 8150   3.916   2.969  17.407  0.8152 -0.0135  0.0204
  546MPD2     C 8151   0.184   3.532   0.001 -0.4344  0.3063  0.3671
  546MPD2    C1 8152   0.125   3.592  17.633 -0.3516 -0.4833  0.0579
  546MPD2    C2 8153   0.182   3.708  17.586  0.5612  0.6082 -0.3204
  546MPD2    C3 8154   0.299   3.769  17.643 -0.2284  0.3320  0.0409
  546MPD2    C4 8155   0.347   3.708   0.014  0.0402  0.0941  0.3302
  546MPD2    C5 8156   0.290   3.593   0.056 -0.0292  0.3485 -0.2190
  546MPD2     H 8157   0.141   3.759  17.499  0.8873  1.4254  0.0047
  546MPD2    H1 8158   0.433   3.737   0.073 -1.2402  1.1768  1.6710
  546MPD2    H2 8159   0.147   3.435   0.033 -0.6678 -0.0741 -1.0216
  546MPD2    H3 8160   0.323   3.552   0.151  1.7271  2.4781  0.0947
  546MPD2     N 8161   0.371   3.878  17.595  0.3899  0.0241  0.6682
  546MPD2    H5 8162   0.449   3.918  17.646  0.2520  1.1623 -0.0049
  546MPD2    N1 8163   0.011   3.528  17.570 -0.3305 -0.7456 -0.2281
  546MPD2    H7 8164   4.713   3.442  17.611  2.6950 -0.9686  1.9125
  547TMC3    C1 8165   4.590   3.477  17.386  0.4686 -0.1476 -0.3918
  547TMC3    C2 8166   4.523   3.530  17.283  0.0335  0.8492 -0.1877
  547TMC3    C3 8167   4.479   3.452  17.180  0.4203  0.0950  0.3099
  547TMC3    C4 8168   4.598   3.344  17.411 -0.0040  0.1349 -0.0921
  547TMC3    C5 8169   4.545   3.266  17.316 -1.0009  0.0253  0.3254
  547TMC3    C6 8170   4.484   3.314  17.204 -0.0129 -0.1105 -0.0849
  547TMC3     C 8171   4.694   3.569  17.450  0.4987 -0.7154  0.2495
  547TMC3     O 8172   4.720   3.671  17.387 -0.2293  0.5453  0.8778
  547TMC3     H 8173   4.510   3.637  17.276 -3.5864  0.3014 -1.8184
  547TMC3    H1 8174   4.662   3.300  17.486 -0.1850 -0.6499 -0.4029
  547TMC3    H2 8175   4.427   3.246  17.142 -1.8107 -2.0306  3.7018
  547TMC3    C7 8176   4.565   3.119  17.338  0.5133 -0.7068  0.5931
  547TMC3    C8 8177   4.393   3.520  17.082 -0.1445 -0.1259 -0.7996
  547TMC3    O1 8178   4.589   3.085  17.450  0.2719  0.2099 -0.6045
  547TMC3    O2 8179   4.387   3.639  17.080 -0.1908  0.3391 -0.1894
  548MPD2     C 8180   0.318   0.110  12.280 -0.4475  0.1819 -0.7600
  548MPD2    C1 8181   0.250   4.723  12.284 -0.1718  0.0862 -0.0170
  548MPD2    C2 8182   0.337   4.612  12.273 -0.1171 -0.0875  0.3474
  548MPD2    C3 8183   0.470   4.617  12.247 -0.6533 -1.1457 -0.0529
  548MPD2    C4 8184   0.527   0.005  12.236 -0.5783  0.1124  0.2028
  548MPD2    C5 8185   0.452   0.121  12.240  0.6781  0.2578  0.2139
  548MPD2     H 8186   0.291   4.514  12.274  0.3992 -0.3622 -1.8320
  548MPD2    H1 8187   0.633   0.021  12.221 -0.2460 -3.2067 -1.1060
  548MPD2    H2 8188   0.264   0.204  12.287  0.9991  0.8847  0.9615
  548MPD2    H3 8189   0.500   0.218  12.231  0.0317  0.4637 -0.9564
  548MPD2     N 8190   0.555   4.507  12.247 -0.2039 -0.1276 -0.1774
  548MPD2    H5 8191   0.651   4.534  12.265 -0.6818  2.2283 -1.0933
  548MPD2    N1 8192   0.112   4.711  12.306 -0.3804 -0.9510  0.1510
  548MPD2    H7 8193   0.053   0.053  12.332  2.7814  1.6359 -0.3874
  549TMC3    C1 8194   4.637   4.596  12.324  0.6313 -0.1439  0.0447
  549TMC3    C2 8195   4.575   4.717  12.342 -0.5247 -0.3754 -0.5371
  549TMC3    C3 8196   4.436   4.724  12.354 -0.5700 -0.3820  0.5961
  549TMC3    C4 8197   4.560   4.487  12.294 -0.1629 -0.8582  0.1165
  549TMC3    C5 8198   4.425   4.498  12.308 -0.9912  0.2355  0.0257
  549TMC3    C6 8199   4.357   4.614  12.339 -0.8707  0.2467 -0.4494
  549TMC3     C 8200   0.044   4.590  12.288  0.0368 -0.0330 -0.7003
  549TMC3     O 8201   0.070   4.479  12.258  0.2686  0.2754 -0.4003
  549TMC3     H 8202   4.638   0.064  12.371 -0.8870 -0.8333  1.5745
  549TMC3    H1 8203   4.603   4.397  12.250  1.3319  0.9171 -2.0377
  549TMC3    H2 8204   4.251   4.617  12.362 -0.8361  0.0967 -0.2641
  549TMC3    C7 8205   4.336   4.382  12.275  0.4879  0.5403 -0.3070
  549TMC3    C8 8206   4.372   0.113  12.409 -0.4169  0.5752  0.4014
  549TMC3    O1 8207   4.226   4.416  12.234 -0.4043 -0.8041  0.1412
  549TMC3    O2 8208   4.252   0.120  12.384  0.5928  0.4555 -0.7264
  550TMC3    C1 8209   3.336   2.337  12.577 -0.3868  0.2192 -0.1747
  550TMC3    C2 8210   3.274   2.439  12.647 -0.0706  0.5193 -0.0583
  550TMC3    C3 8211   3.223   2.548  12.575 -0.5748 -0.0225 -0.0033
  550TMC3    C4 8212   3.358   2.355  12.438 -0.0924  0.3431  0.0664
  550TMC3    C5 8213   3.309   2.462  12.373  0.6882 -0.5981  0.1252
  550TMC3    C6 8214   3.233   2.552  12.440 -0.2656  0.2965  0.0783
  550TMC3     C 8215   3.345   2.206  12.648 -0.1179  0.7519 -1.0927
  550TMC3     O 8216   3.270   2.183  12.741 -0.5206  0.4148 -0.1845
  550TMC3     H 8217   3.263   2.428  12.754  0.0716  0.9772  0.0033
  550TMC3    H1 8218   3.409   2.279  12.380  3.5390  2.9798 -0.1875
  550TMC3    H2 8219   3.192   2.638  12.388  1.8606  0.0286 -2.0483
  550TMC3    C7 8220   3.251   2.426  12.246  0.3344 -0.1607  0.3634
  550TMC3    C8 8221   3.173   2.662  12.644  0.4936  0.0953 -1.0042
  550TMC3    O1 8222   3.233   2.308  12.224  0.3410 -0.2168 -0.4001
  550TMC3    O2 8223   3.095   2.733  12.585  0.4845  0.6412  0.2143
  551TMC3    C1 8224   1.075   0.020  13.346  0.0862 -0.3322 -0.0203
  551TMC3    C2 8225   1.197   0.047  13.288  0.2687 -0.0786 -0.7398
  551TMC3    C3 8226   1.276   0.126  13.360  0.7725 -0.6123 -0.1019
  551TMC3    C4 8227   1.037   0.053  13.471  0.0180  0.2439 -0.5627
  551TMC3    C5 8228   1.120   0.146  13.533  0.3316  0.6389  0.0893
  551TMC3    C6 8229   1.244   0.189  13.477  0.9241  0.1311 -0.3433
  551TMC3     C 8230   0.987   4.687  13.254  0.8347 -0.6446  0.0026
  551TMC3     O 8231   0.995   4.719  13.136  0.0329  0.0199 -0.5283
  551TMC3     H 8232   1.232   0.022  13.189 -2.6053 -1.4423 -1.4145
  551TMC3    H1 8233   0.947   0.018  13.521  0.3765  1.9210  1.2796
  551TMC3    H2 8234   1.313   0.251  13.533  0.9778  1.2310 -1.6158
  551TMC3    C7 8235   1.123   0.137  13.677  0.9805 -0.4759 -0.0307
  551TMC3    C8 8236   1.396   0.171  13.291 -0.1128 -0.0488  0.2666
  551TMC3    O1 8237   1.235   0.149  13.725  0.6824  1.4901  0.1252
  551TMC3    O2 8238   1.465   0.077  13.263  0.9544  0.2704 -0.1111
  552MPD2     C 8239   2.839   1.710  13.812 -0.2030  0.7871  0.5335
  552MPD2    C1 8240   2.852   1.633  13.928 -0.1009  0.0799 -0.3851
  552MPD2    C2 8241   2.904   1.688  14.039  0.9995 -0.0222 -0.3398
  552MPD2    C3 8242   2.970   1.810  14.031  0.7085 -0.9846 -0.5816
  552MPD2    C4 8243   2.955   1.888  13.917  0.6474  0.8945  0.0659
  552MPD2    C5 8244   2.889   1.840  13.813  0.4316 -0.2402 -1.0590
  552MPD2     H 8245   2.923   1.617  14.119 -0.5554 -0.1699 -0.0984
  552MPD2    H1 8246   2.997   1.988  13.911  1.7843  0.4153  0.1489
  552MPD2    H2 8247   2.782   1.682  13.724 -0.6596  2.5310  0.2594
  552MPD2    H3 8248   2.869   1.910  13.733 -0.1074  0.8448  0.0135
  552MPD2     N 8249   3.038   1.870  14.139  0.1585 -0.2220  0.1067
  552MPD2    H5 8250   3.059   1.968  14.124  0.5306 -0.2997  0.1144
  552MPD2    N1 8251   2.780   1.509  13.953 -0.7193 -0.0259 -0.2632
  552MPD2    H7 8252   2.771   1.474  14.048  0.4534  0.0400 -0.1334
  553TMC3    C1 8253   2.637   1.324  13.919  0.4934  0.2704  0.0392
  553TMC3    C2 8254   2.645   1.208  13.839 -0.0273  0.5871  0.2184
  553TMC3    C3 8255   2.610   1.089  13.896  0.4548  0.2600  0.4764
  553TMC3    C4 8256   2.627   1.313  14.050  0.5616  0.6736 -0.2307
  553TMC3    C5 8257   2.603   1.193  14.107  0.4593 -0.2289 -1.0095
  553TMC3    C6 8258   2.591   1.076  14.034 -0.5245 -0.4400  0.0305
  553TMC3     C 8259   2.709   1.441  13.862 -0.1820  0.1830  0.2035
  553TMC3     O 8260   2.707   1.451  13.734  0.0635 -0.1492 -0.5443
  553TMC3     H 8261   2.664   1.216  13.732 -0.1971 -0.2248  0.1272
  553TMC3    H1 8262   2.610   1.406  14.104 -0.6397 -1.3804  2.9229
  553TMC3    H2 8263   2.562   0.980  14.074 -0.9198 -0.5577 -0.5215
  553TMC3    C7 8264   2.715   1.154  14.201  0.7717 -0.3975  0.1941
  553TMC3    C8 8265   2.679   0.984  13.822  0.4341  1.0843  0.5980
  553TMC3    O1 8266   2.735   1.037  14.207 -1.0227 -0.0850 -0.1977
  553TMC3    O2 8267   2.749   1.010  13.721  0.9316 -0.0679  0.2444
  554TMC3    C1 8268   4.665   1.609  12.179  0.8528  0.2041  0.1590
  554TMC3    C2 8269   4.594   1.587  12.061  0.0701  0.4882 -0.5945
  554TMC3    C3 8270   4.649   1.613  11.938  0.6255  0.4897 -0.1095
  554TMC3    C4 8271   0.051   1.675  12.168 -0.1566 -0.2435 -0.0530
  554TMC3    C5 8272   0.097   1.711  12.044  1.0448 -0.7681 -0.2454
  554TMC3    C6 8273   0.025   1.683  11.927  0.3527 -0.3655 -0.2532
  554TMC3     C 8274   4.653   1.503  12.282  0.1043  0.1999 -0.3275
  554TMC3     O 8275   4.546   1.446  12.289  0.3413  0.4458 -0.4267
  554TMC3     H 8276   4.503   1.528  12.061  0.4910 -0.1441  1.6603
  554TMC3    H1 8277   0.095   1.723  12.255 -0.7580  1.3532 -0.6252
  554TMC3    H2 8278   0.051   1.727  11.832 -3.0577  0.5547 -0.7251
  554TMC3    C7 8279   0.193   1.817  12.035  0.3467  0.3398  0.0172
  554TMC3    C8 8280   4.573   1.601  11.820  1.4364 -0.0949  0.3667
  554TMC3    O1 8281   0.290   1.792  11.969 -0.3936 -0.1533  0.5936
  554TMC3    O2 8282   4.638   1.593  11.714 -0.0023 -0.1354  0.2746
  555TMC3    C1 8283   4.124   0.583  15.079  0.0919  0.1735 -0.1855
  555TMC3    C2 8284   4.039   0.678  15.126 -0.3493  0.1826  0.4924
  555TMC3    C3 8285   4.000   0.661  15.258 -0.1556  0.7410  0.2007
  555TMC3    C4 8286   4.178   0.485  15.157  0.3923  0.2761  0.1552
  555TMC3    C5 8287   4.140   0.474  15.287 -0.2710  0.4557  0.1513
  555TMC3    C6 8288   4.044   0.559  15.337 -0.2290  0.1751 -0.4342
  555TMC3     C 8289   4.142   0.579  14.933  0.2240 -0.3136  0.1258
  555TMC3     O 8290   4.248   0.524  14.893 -0.0899  0.2769 -0.1290
  555TMC3     H 8291   4.000   0.757  15.063  0.1976  0.1416  0.1054
  555TMC3    H1 8292   4.233   0.413  15.098 -0.7635 -0.3600 -0.1597
  555TMC3    H2 8293   3.994   0.547  15.432  0.3147  0.9116 -0.0579
  555TMC3    C7 8294   4.144   0.347  15.357 -0.4311  0.2542 -0.3856
  555TMC3    C8 8295   3.904   0.758  15.314 -0.3528  0.0676 -0.0340
  555TMC3    O1 8296   4.057   0.315  15.439 -0.4371  0.2705  0.0643
  555TMC3    O2 8297   3.838   0.826  15.238 -0.0196 -0.1208 -0.1829
  556MPD2     C 8298   1.783   2.417  11.015  0.3442  0.1224 -0.4663
  556MPD2    C1 8299   1.888   2.328  11.029 -0.9456  0.3957  0.0386
  556MPD2    C2 8300   1.915   2.240  10.929  0.2111  0.0060 -0.0410
  556MPD2    C3 8301   1.829   2.237  10.819  0.1854  0.3674  0.2922
  556MPD2    C4 8302   1.723   2.320  10.808  0.1557 -0.3975 -0.2571
  556MPD2    C5 8303   1.700   2.412  10.909  0.2942 -0.6123 -0.3268
  556MPD2     H 8304   1.995   2.167  10.941  0.3429  0.1987  0.2667
  556MPD2    H1 8305   1.656   2.307  10.723 -0.7990 -3.3041  0.9301
  556MPD2    H2 8306   1.767   2.499  11.084  0.2998  1.2889 -1.8522
  556MPD2    H3 8307   1.615   2.479  10.903  1.6062  1.2227  1.6077
  556MPD2     N 8308   1.852   2.136  10.721  0.0328  0.0272 -0.9503
  556MPD2    H5 8309   1.911   2.058  10.748  0.1072  1.3626  2.7261
  556MPD2    N1 8310   1.988   2.348  11.136  0.5454  0.2599 -0.1732
  556MPD2    H7 8311   2.070   2.289  11.136  0.6266  0.3825 -2.5723
  557TMC3    C1 8312   1.850   2.014  10.516 -0.2833  0.1452  0.1891
  557TMC3    C2 8313   1.853   2.024  10.380  0.2610  0.3840 -0.1624
  557TMC3    C3 8314   1.865   1.908  10.303 -0.3868 -0.4627  0.8382
  557TMC3    C4 8315   1.833   1.894  10.579  0.2497 -0.5692 -0.6285
  557TMC3    C5 8316   1.844   1.778  10.497  0.1853  0.6070  1.1496
  557TMC3    C6 8317   1.866   1.793  10.361  0.1982 -0.5399 -0.7277
  557TMC3     C 8318   1.811   2.134  10.589  0.1401 -0.0284 -0.6573
  557TMC3     O 8319   1.762   2.222  10.521 -0.0002  0.2961  0.3972
  557TMC3     H 8320   1.854   2.118  10.325 -1.3650  0.2788 -0.3567
  557TMC3    H1 8321   1.820   1.891  10.687  2.1463  3.8888 -0.2950
  557TMC3    H2 8322   1.858   1.707  10.295 -1.0277 -1.1797  0.2619
  557TMC3    C7 8323   1.784   1.649  10.541 -0.1736  0.7885  0.3413
  557TMC3    C8 8324   1.927   1.932  10.175 -0.2300 -1.1375  0.1766
  557TMC3    O1 8325   1.756   1.575  10.449 -0.1879  0.1761  0.0271
  557TMC3    O2 8326   1.928   2.044  10.128  0.2814 -0.4073  1.0019
  558TMC3    C1 8327   3.907   0.056  10.627 -0.6851 -0.2173 -0.2099
  558TMC3    C2 8328   3.811   0.134  10.698 -0.6095 -0.4394  0.4764
  558TMC3    C3 8329   3.709   0.173  10.616  0.3607  0.6143 -0.2002
  558TMC3    C4 8330   3.901   0.031  10.496  0.1291  0.4745  0.2490
  558TMC3    C5 8331   3.797   0.072  10.419  0.5668 -0.0726  0.2801
  558TMC3    C6 8332   3.696   0.142  10.481 -0.0198 -0.3767 -0.9178
  558TMC3     C 8333   4.030   0.016  10.692  0.0571  0.6335  0.5261
  558TMC3     O 8334   4.033   0.038  10.814 -0.4738  0.0374 -0.6066
  558TMC3     H 8335   3.820   0.135  10.806  1.4799 -0.3925  0.3050
  558TMC3    H1 8336   3.990   4.729  10.446 -0.1978 -0.2772  0.2479
  558TMC3    H2 8337   3.612   0.186  10.428  0.2723  0.1199 -0.9744
  558TMC3    C7 8338   3.827   0.095  10.272 -0.3941  0.1189 -0.5733
  558TMC3    C8 8339   3.613   0.269  10.677  0.1836  0.3162  0.2894
  558TMC3    O1 8340   3.944   0.093  10.238  0.6236 -0.6678  0.2470
  558TMC3    O2 8341   3.509   0.281  10.619  0.2691 -0.3076  0.3737
  559MPD2     C 8342   4.244   1.350  10.978  0.0737 -0.9332  0.8662
  559MPD2    C1 8343   4.165   1.237  10.996  0.7445 -0.7163 -0.4380
  559MPD2    C2 8344   4.212   1.128  11.073  0.5826 -0.3035 -0.0566
  559MPD2    C3 8345   4.328   1.145  11.144  0.3976  0.3435 -0.1590
  559MPD2    C4 8346   4.407   1.255  11.119 -0.0380  0.6255 -0.5035
  559MPD2    C5 8347   4.364   1.355  11.040 -0.3350  0.3507 -0.1842
  559MPD2     H 8348   4.151   1.039  11.082  0.2536  0.0098  0.8750
  559MPD2    H1 8349   4.495   1.277  11.177  0.4767 -1.1089 -0.6311
  559MPD2    H2 8350   4.204   1.432  10.921  0.5233 -0.9210  0.5696
  559MPD2    H3 8351   4.429   1.441  11.027  0.7479 -0.7740 -2.2339
  559MPD2     N 8352   4.377   1.035  11.224  0.4115 -0.2680 -0.2492
  559MPD2    H5 8353   4.307   0.965  11.244  1.1703 -1.1044 -0.5126
  559MPD2    N1 8354   4.043   1.238  10.928  0.3925  0.7728 -0.2064
  559MPD2    H7 8355   4.020   1.324  10.880 -0.7333  2.3489  3.1925
  560TMC3    C1 8356   4.507   0.908  11.365 -0.1486 -0.4110  0.7934
  560TMC3    C2 8357   4.417   0.812  11.348  0.4967  0.7012 -0.1380
  560TMC3    C3 8358   4.446   0.694  11.400  0.5451  0.0104 -0.2087
  560TMC3    C4 8359   4.628   0.881  11.415  0.1737 -0.1706 -0.1533
  560TMC3    C5 8360   4.657   0.760  11.466 -0.7189  0.9410  0.1757
  560TMC3    C6 8361   4.564   0.662  11.452  0.3895 -0.1094  0.2236
  560TMC3     C 8362   4.499   1.029  11.289 -0.3174  0.0023  0.3533
  560TMC3     O 8363   4.586   1.115  11.301  0.0312  0.1154  0.0751
  560TMC3     H 8364   4.317   0.831  11.310  0.3425 -1.1284 -0.6503
  560TMC3    H1 8365   4.699   0.964  11.422  0.7519 -0.6127 -0.7345
  560TMC3    H2 8366   4.590   0.564  11.490 -0.6417 -0.3811  0.2118
  560TMC3    C7 8367   0.047   0.737  11.538 -0.4035 -0.2772 -0.6277
  560TMC3    C8 8368   4.349   0.589  11.407 -0.3151 -0.1851  0.6360
  560TMC3    O1 8369   0.073   0.620  11.565 -0.1519 -0.0770  0.1438
  560TMC3    O2 8370   4.232   0.620  11.387 -0.8277 -0.2101 -0.6345
  561TMC3    C1 8371   2.581   0.399  10.992 -0.5950 -0.4112 -0.2759
  561TMC3    C2 8372   2.541   0.319  11.091  0.3880 -0.1402  0.1789
  561TMC3    C3 8373   2.535   0.374  11.218 -0.3388 -0.8872 -0.1472
  561TMC3    C4 8374   2.619   0.533  11.014 -0.3993 -0.4403  0.1893
  561TMC3    C5 8375   2.622   0.582  11.143 -0.0668 -0.1949  0.3381
  561TMC3    C6 8376   2.589   0.497  11.245 -0.5470  0.1961  0.6443
  561TMC3     C 8377   2.549   0.352  10.860 -0.4852  0.0646 -0.4050
  561TMC3     O 8378   2.456   0.277  10.855  0.7382 -0.2823 -0.6051
  561TMC3     H 8379   2.525   0.213  11.081  1.2148 -0.2372 -0.1066
  561TMC3    H1 8380   2.649   0.589  10.926  1.4447 -1.0860  0.4187
  561TMC3    H2 8381   2.605   0.523  11.349 -0.5198  0.4740  0.5696
  561TMC3    C7 8382   2.649   0.724  11.169  0.6067 -0.3801 -0.1405
  561TMC3    C8 8383   2.562   0.281  11.328 -0.0356  0.5438  0.4997
  561TMC3    O1 8384   2.656   0.764  11.282  0.2244  0.0613  0.1872
  561TMC3    O2 8385   2.618   0.176  11.297  0.7712  0.1873  0.6489
  562TMC3    C1 8386   3.441   1.320  16.378  0.3505  0.7741  0.2890
  562TMC3    C2 8387   3.339   1.399  16.325  0.3980 -0.1776  0.7539
  562TMC3    C3 8388   3.275   1.361  16.209 -0.3694  0.5250  0.1846
  562TMC3    C4 8389   3.489   1.214  16.310  0.3413 -0.8268 -0.1287
  562TMC3    C5 8390   3.432   1.189  16.186  0.0004  0.5388 -0.6700
  562TMC3    C6 8391   3.328   1.260  16.130  0.8864 -0.5362 -0.3281
  562TMC3     C 8392   3.469   1.347  16.522 -0.2480 -0.0122  0.5778
  562TMC3     O 8393   3.411   1.438  16.582 -0.1204  0.3875  0.2297
  562TMC3     H 8394   3.296   1.479  16.384 -1.1634  0.7553 -1.6689
  562TMC3    H1 8395   3.567   1.153  16.353  2.0329  1.3576 -0.1386
  562TMC3    H2 8396   3.280   1.232  16.037 -1.9698  0.7342  0.7689
  562TMC3    C7 8397   3.481   1.081  16.103  0.1299  1.1763 -0.2496
  562TMC3    C8 8398   3.151   1.432  16.184 -0.1478 -0.6466  0.6808
  562TMC3    O1 8399   3.449   1.082  15.985  0.4469 -0.1292 -0.1958
  562TMC3    O2 8400   3.102   1.493  16.274 -0.2955 -0.2196  0.0020
  563MPD2     C 8401   1.052   2.121  15.875  1.2294 -0.0921  0.8292
  563MPD2    C1 8402   1.051   2.225  15.961  0.1135  0.2533 -0.1065
  563MPD2    C2 8403   1.142   2.241  16.063  0.1009  0.3490 -0.2061
  563MPD2    C3 8404   1.237   2.139  16.078 -0.5911  0.2561  1.0245
  563MPD2    C4 8405   1.246   2.036  15.991 -0.1148 -0.0558  0.2361
  563MPD2    C5 8406   1.151   2.024  15.892  0.0392 -0.5212  0.2093
  563MPD2     H 8407   1.145   2.329  16.126  2.4515  1.5030 -1.9127
  563MPD2    H1 8408   1.310   1.950  16.005 -0.5838 -0.3566  0.5500
  563MPD2    H2 8409   0.975   2.109  15.800 -0.1812 -0.6750  2.3574
  563MPD2    H3 8410   1.151   1.934  15.832 -1.3927 -1.1377  1.1228
  563MPD2     N 8411   1.313   2.142  16.196 -0.2695  0.4897 -0.2884
  563MPD2    H5 8412   1.282   2.211  16.264 -1.8498 -0.1973 -0.3316
  563MPD2    N1 8413   0.949   2.322  15.948 -0.3835 -0.2706 -0.2917
  563MPD2    H7 8414   0.878   2.301  15.879  1.6617 -0.3775 -2.3599
  564TMC3    C1 8415   0.828   2.363  16.138 -0.5990 -0.2910 -0.5491
  564TMC3    C2 8416   0.737   2.269  16.089  0.0615 -0.0905  0.0671
  564TMC3    C3 8417   0.699   2.164  16.162 -0.4284  0.4618 -0.0193
  564TMC3    C4 8418   0.882   2.340  16.265 -0.3854 -0.7765 -0.2574
  564TMC3    C5 8419   0.847   2.222  16.336 -0.4328  0.3013 -0.1226
  564TMC3    C6 8420   0.748   2.145  16.289  0.2947  0.2478  0.0481
  564TMC3     C 8421   0.926   2.418  16.043  0.2668  0.9169 -0.1827
  564TMC3     O 8422   1.005   2.499  16.082 -0.0950 -0.2149  0.0978
  564TMC3     H 8423   0.694   2.277  15.989 -0.5718 -0.6461  0.2946
  564TMC3    H1 8424   0.962   2.404  16.302  1.4951 -3.9606  1.2020
  564TMC3    H2 8425   0.709   2.064  16.350 -0.9145  0.2808 -0.6738
  564TMC3    C7 8426   0.960   2.152  16.383  0.5270 -0.1196  0.4140
  564TMC3    C8 8427   0.658   2.045  16.102  0.3520 -0.3783 -0.1963
  564TMC3    O1 8428   1.056   2.226  16.419 -0.3680 -0.1100 -0.2536
  564TMC3    O2 8429   0.612   1.960  16.175  0.0680  0.4213 -0.2625
  565TMC3    C1 8430   1.389   3.354  10.791 -0.5100  0.5250 -0.0066
  565TMC3    C2 8431   1.451   3.458  10.852 -0.1376  0.1715  0.3206
  565TMC3    C3 8432   1.456   3.451  10.984  0.6584 -0.0279 -0.8170
  565TMC3    C4 8433   1.328   3.254  10.853  0.3858 -0.2831  0.2624
  565TMC3    C5 8434   1.334   3.255  10.987 -0.2483 -0.6589 -0.0415
  565TMC3    C6 8435   1.386   3.360  11.054 -0.1305  0.4205  0.1864
  565TMC3     C 8436   1.396   3.347  10.646 -0.4179 -0.1666  0.1335
  565TMC3     O 8437   1.361   3.245  10.586 -0.0449 -0.0383  0.1035
  565TMC3     H 8438   1.514   3.532  10.804 -0.2666 -0.2977 -0.5910
  565TMC3    H1 8439   1.272   3.180  10.798  0.0471  1.3546 -1.5973
  565TMC3    H2 8440   1.399   3.343  11.160  0.8883 -1.1329 -0.1958
  565TMC3    C7 8441   1.220   3.182  11.044 -0.6154 -0.2351  0.4796
  565TMC3    C8 8442   1.568   3.529  11.047  0.5514 -0.3413  0.1878
  565TMC3    O1 8443   1.128   3.141  10.976 -0.8977  0.1932 -0.4510
  565TMC3    O2 8444   1.673   3.525  10.989 -0.1641 -0.1210 -0.1503
  566MPD2     C 8445   3.500   0.159  14.505 -0.2018  0.4126 -0.7426
  566MPD2    C1 8446   3.599   0.207  14.421  0.4557  0.2777  0.2854
  566MPD2    C2 8447   3.562   0.206  14.287  0.2743  0.1337 -0.7770
  566MPD2    C3 8448   3.438   0.154  14.237 -0.0539  0.2523 -0.0612
  566MPD2    C4 8449   3.354   0.099  14.325  0.0922 -0.2284 -0.3738
  566MPD2    C5 8450   3.384   0.100  14.457  0.2660 -0.0235 -0.1487
  566MPD2     H 8451   3.626   0.254  14.213  0.8218 -0.0198 -0.3989
  566MPD2    H1 8452   3.267   0.045  14.289  0.3498 -0.3716 -0.7816
  566MPD2    H2 8453   3.517   0.166  14.612 -0.6359  0.0236 -0.6452
  566MPD2    H3 8454   3.299   0.071  14.518  1.3459 -1.4459  0.6838
  566MPD2     N 8455   3.411   0.160  14.099 -0.2374  0.2284  0.0700
  566MPD2    H5 8456   3.493   0.182  14.043 -2.1475  3.7741 -1.2993
  566MPD2    N1 8457   3.725   0.241  14.475 -0.0910 -0.5966  0.3300
  566MPD2    H7 8458   3.731   0.251  14.576 -0.9795  1.2032  0.2189
  567TMC3    C1 8459   3.954   0.303  14.486  0.4933 -0.2510  0.0026
  567TMC3    C2 8460   4.060   0.359  14.423 -0.4558 -0.4385  0.8021
  567TMC3    C3 8461   4.178   0.364  14.490  0.1752 -0.0466  0.9028
  567TMC3    C4 8462   3.963   0.237  14.609 -1.1593  0.2844 -0.3044
  567TMC3    C5 8463   4.085   0.240  14.676  0.1958  0.4803  0.7067
  567TMC3    C6 8464   4.187   0.309  14.619 -0.0437  0.3393  0.3397
  567TMC3     C 8465   3.835   0.276  14.403 -0.4389 -0.0859 -0.1551
  567TMC3     O 8466   3.837   0.299  14.280 -0.0749 -0.1738  0.3177
  567TMC3     H 8467   4.035   0.424  14.339  1.2513 -0.0370  0.6027
  567TMC3    H1 8468   3.894   0.156  14.628  0.7339 -1.2061  0.2436
  567TMC3    H2 8469   4.285   0.310  14.665  1.0963 -3.5801 -2.0083
  567TMC3    C7 8470   4.077   0.215  14.815 -0.6033 -0.3891 -0.5459
  567TMC3    C8 8471   4.284   0.443  14.433  0.7677  0.2918 -1.3306
  567TMC3    O1 8472   4.172   0.154  14.862 -0.2099  0.3901 -0.2150
  567TMC3    O2 8473   4.378   0.473  14.503 -0.2844 -0.3385  0.3993
  568MPD2     C 8474   1.423   0.863  16.584 -0.4679  0.6850 -0.0380
  568MPD2    C1 8475   1.298   0.873  16.651  0.5193  0.7479 -0.0670
  568MPD2    C2 8476   1.197   0.961  16.597 -0.3103  0.0003 -0.1091
  568MPD2    C3 8477   1.236   1.031  16.484  1.0575  0.5652 -0.5360
  568MPD2    C4 8478   1.360   1.018  16.425 -0.3331 -0.1369  0.5805
  568MPD2    C5 8479   1.459   0.939  16.478  0.1918 -0.0202  0.0714
  568MPD2     H 8480   1.101   0.970  16.648 -0.5817 -0.5867 -0.5108
  568MPD2    H1 8481   1.390   1.070  16.335  0.5598 -1.8417 -0.1162
  568MPD2    H2 8482   1.502   0.794  16.613 -1.0753  0.1306  0.2938
  568MPD2    H3 8483   1.554   0.928  16.428  0.1518 -1.6846  0.3474
  568MPD2     N 8484   1.130   1.124  16.429 -0.4166 -0.1473  0.6509
  568MPD2    H5 8485   1.038   1.127  16.473 -0.2865 -0.9403  0.9709
  568MPD2    N1 8486   1.271   0.781  16.753  0.7906  0.6459  0.0861
  568MPD2    H7 8487   1.339   0.706  16.754  0.8640  0.7095 -0.2123
  569TMC3    C1 8488   1.036   1.288  16.283 -0.5584  1.0274  0.1498
  569TMC3    C2 8489   0.954   1.330  16.387 -0.4168 -0.9849  0.2798
  569TMC3    C3 8490   0.838   1.399  16.351  0.1689  0.3619  1.0533
  569TMC3    C4 8491   1.004   1.314  16.156 -0.2407 -0.8473 -0.5131
  569TMC3    C5 8492   0.889   1.382  16.127 -0.3266 -0.0245 -0.1042
  569TMC3    C6 8493   0.802   1.427  16.218  0.1220 -0.6118 -0.1160
  569TMC3     C 8494   1.141   1.190  16.308 -0.2831 -0.0472  1.1586
  569TMC3     O 8495   1.220   1.176  16.213 -0.6789 -0.0404 -0.5425
  569TMC3     H 8496   0.996   1.321  16.486 -0.9785  2.3755  0.8103
  569TMC3    H1 8497   1.056   1.268  16.073 -0.6281  1.1662 -1.8593
  569TMC3    H2 8498   0.701   1.454  16.189  0.3057 -1.5169 -1.6208
  569TMC3    C7 8499   0.912   1.463  16.011  1.0564  0.1354  0.1752
  569TMC3    C8 8500   0.783   1.496  16.444  0.3365  0.1640  0.0337
  569TMC3    O1 8501   0.986   1.437  15.916 -0.7416  0.3199 -0.1997
  569TMC3    O2 8502   0.684   1.553  16.405 -0.2327  0.1907 -0.1019
  570TMC3    C1 8503   0.405   4.604  16.274  0.1768 -0.0325  0.4420
  570TMC3    C2 8504   0.530   4.631  16.237  0.0708 -0.3769 -0.0072
  570TMC3    C3 8505   0.567   0.025  16.207  0.6675 -0.1539 -0.1820
  570TMC3    C4 8506   0.314   4.707  16.284  0.2877 -0.2443  0.1813
  570TMC3    C5 8507   0.353   0.099  16.277  0.0457 -0.1468 -0.1597
  570TMC3    C6 8508   0.480   0.130  16.222 -0.3023  0.0573 -0.0366
  570TMC3     C 8509   0.367   4.469  16.297 -0.1584 -0.9062 -0.4518
  570TMC3     O 8510   0.420   4.377  16.239  0.4632 -0.5709  0.3187
  570TMC3     H 8511   0.604   4.552  16.247  2.2000  1.5435 -0.5492
  570TMC3    H1 8512   0.214   4.694  16.324  1.2929  0.7884  3.0313
  570TMC3    H2 8513   0.517   0.231  16.213 -1.8401  0.6288  0.1479
  570TMC3    C7 8514   0.266   0.200  16.317 -0.1388 -0.7601  0.3640
  570TMC3    C8 8515   0.700   0.055  16.160  0.2644  0.4285  0.4565
  570TMC3    O1 8516   0.177   0.183  16.399  0.0892  0.4032  0.1686
  570TMC3    O2 8517   0.742   0.167  16.171  0.0316 -0.1867  0.6169
  571MPD2     C 8518   3.307   1.250   0.104  0.2539 -0.6464 -0.5814
  571MPD2    C1 8519   3.361   1.245   0.230  0.1959  0.3480  0.1749
  571MPD2    C2 8520   3.425   1.364   0.270  0.2389 -0.1814  0.1810
  571MPD2    C3 8521   3.439   1.469   0.182  0.0404 -0.4312  0.8036
  571MPD2    C4 8522   3.382   1.472   0.060  0.0780 -0.2690 -0.5307
  571MPD2    C5 8523   3.316   1.356   0.024  0.0004 -0.8425 -0.4331
  571MPD2     H 8524   3.475   1.371   0.367  0.0497 -0.2058  0.2797
  571MPD2    H1 8525   3.400   1.547  17.728  4.3838  1.3372  2.1118
  571MPD2    H2 8526   3.251   1.164   0.069 -1.8521  0.1172  0.9877
  571MPD2    H3 8527   3.280   1.357  17.665 -0.4885 -0.4913 -0.2594
  571MPD2     N 8528   3.504   1.588   0.225 -0.5170  0.0815 -0.5892
  571MPD2    H5 8529   3.487   1.665   0.162 -2.1899  0.7757  0.6952
  571MPD2    N1 8530   3.352   1.122   0.301 -0.2424  0.8126 -0.0146
  571MPD2    H7 8531   3.286   1.054   0.267  0.1745  0.3877  0.0212
  572TMC3    C1 8532   3.649   1.735   0.340 -0.2604  0.9001 -0.5526
  572TMC3    C2 8533   3.778   1.741   0.370  0.1543  0.5989  0.4569
  572TMC3    C3 8534   3.841   1.863   0.358 -0.3786 -0.7153 -0.0072
  572TMC3    C4 8535   3.572   1.844   0.314 -0.5354  0.0373  1.3218
  572TMC3    C5 8536   3.636   1.967   0.313 -0.2818  0.2333  0.6274
  572TMC3    C6 8537   3.777   1.981   0.339 -0.1785 -0.5900 -0.1363
  572TMC3     C 8538   3.588   1.601   0.335 -0.2046 -0.5175 -0.1442
  572TMC3     O 8539   3.653   1.518   0.395  0.1889  0.3891  0.4319
  572TMC3     H 8540   3.840   1.656   0.347 -0.3892 -0.0801  1.4939
  572TMC3    H1 8541   3.464   1.839   0.306 -0.6113  0.1985  2.2809
  572TMC3    H2 8542   3.826   2.078   0.336 -0.6076 -0.3108  1.5472
  572TMC3    C7 8543   3.548   2.076   0.336  0.8243  0.0652  0.1727
  572TMC3    C8 8544   3.963   1.882   0.438  0.3636  0.6196  0.3942
  572TMC3    O1 8545   3.442   2.081   0.277  0.5177 -0.0800 -0.1263
  572TMC3    O2 8546   4.019   1.993   0.442 -0.0248 -0.4189  0.3536
  573MPD2     C 8547   4.389   1.555   0.545  0.2849 -0.6359  0.2848
  573MPD2    C1 8548   4.486   1.656   0.531  0.3777 -1.0282  0.0722
  573MPD2    C2 8549   4.487   1.753   0.430 -0.4184  0.3963 -0.8132
  573MPD2    C3 8550   4.377   1.743   0.344  0.5574 -0.1788 -0.3398
  573MPD2    C4 8551   4.289   1.643   0.356  0.1164 -0.3217  0.0580
  573MPD2    C5 8552   4.291   1.553   0.455 -0.5432  0.3136  0.7704
  573MPD2     H 8553   4.559   1.832   0.411  1.2274 -0.4897  1.7819
  573MPD2    H1 8554   4.212   1.632   0.281  1.3771 -0.3325 -1.2402
  573MPD2    H2 8555   4.385   1.484   0.627 -1.3488  1.8257  2.3315
  573MPD2    H3 8556   4.219   1.472   0.453  0.5588 -0.5953 -1.1888
  573MPD2     N 8557   4.337   1.846   0.256  0.2043  0.0407 -0.8981
  573MPD2    H5 8558   4.252   1.839   0.202  0.1744 -0.1478 -0.8269
  573MPD2    N1 8559   4.575   1.658   0.638 -0.4603  0.6546 -0.0017
  573MPD2    H7 8560   4.567   1.577   0.698 -2.1390  0.4381 -0.5104
  574TMC3    C1 8561   4.305   2.070   0.200  0.2368  0.0879 -0.1207
  574TMC3    C2 8562   4.284   2.189   0.264  0.3836  0.3935 -0.4327
  574TMC3    C3 8563   4.187   2.272   0.219  0.0388  0.0035 -0.4902
  574TMC3    C4 8564   4.210   2.027   0.117 -0.0265  0.6208 -0.2709
  574TMC3    C5 8565   4.120   2.112   0.068 -0.2632  0.2252 -0.4199
  574TMC3    C6 8566   4.110   2.240   0.114 -0.0548 -0.3338 -0.5978
  574TMC3     C 8567   4.385   1.975   0.273  0.3744 -0.3695  0.1700
  574TMC3     O 8568   4.468   2.025   0.346 -0.3401 -0.3114  0.0018
  574TMC3     H 8569   4.354   2.211   0.344 -1.4102 -0.4272  1.3553
  574TMC3    H1 8570   4.238   1.942   0.057 -3.5879 -1.4809  1.0774
  574TMC3    H2 8571   4.031   2.302   0.073 -1.8687 -1.6036  0.9873
  574TMC3    C7 8572   4.035   2.074  17.705 -0.1113 -0.2506 -0.1058
  574TMC3    C8 8573   4.161   2.389   0.295 -0.1069 -0.5843  0.0612
  574TMC3    O1 8574   4.034   1.956  17.672  0.2460 -0.6777 -0.4239
  574TMC3    O2 8575   4.209   2.386   0.406  0.1658  0.0167  0.2428
  575TMC3    C1 8576   2.355   3.898  11.278 -0.4082 -0.1068  0.1798
  575TMC3    C2 8577   2.445   3.822  11.204 -0.8027 -1.1031 -0.5157
  575TMC3    C3 8578   2.409   3.714  11.127  0.3468  0.2135  0.3649
  575TMC3    C4 8579   2.221   3.869  11.254  0.0830  0.3174 -0.5312
  575TMC3    C5 8580   2.183   3.763  11.171  0.0363  0.6420 -0.0063
  575TMC3    C6 8581   2.279   3.682  11.115 -0.1397  0.9995  0.2055
  575TMC3     C 8582   2.400   4.015  11.349  0.4119 -0.7391  0.4456
  575TMC3     O 8583   2.511   4.056  11.321  0.4308 -0.2561  0.3037
  575TMC3     H 8584   2.547   3.850  11.224 -2.0000  1.3436  2.2740
  575TMC3    H1 8585   2.143   3.937  11.286 -0.1341 -0.5133  0.7227
  575TMC3    H2 8586   2.248   3.594  11.060 -0.0021  1.3097 -0.3738
  575TMC3    C7 8587   2.045   3.712  11.178 -0.0186 -0.1747 -1.1141
  575TMC3    C8 8588   2.513   3.623  11.092  0.7094  0.0741 -0.1089
  575TMC3    O1 8589   2.013   3.622  11.101  0.0135 -0.5163 -0.6823
  575TMC3    O2 8590   2.619   3.665  11.054  0.5707 -0.1052 -0.3894
  576MPD2     C 8591   1.792   4.691  12.565 -0.5050  0.1772  0.3066
  576MPD2    C1 8592   1.755   0.085  12.519 -0.8296  0.0508  0.7009
  576MPD2    C2 8593   1.634   0.145  12.571  0.2589  0.1288  0.3374
  576MPD2    C3 8594   1.571   0.084  12.685 -0.5790  0.7471 -0.4699
  576MPD2    C4 8595   1.616   4.697  12.720  0.1631  0.1322  0.0792
  576MPD2    C5 8596   1.718   4.631  12.660  0.0687  0.4677  0.2839
  576MPD2     H 8597   1.595   0.240  12.535  1.7281  0.7967  0.5209
  576MPD2    H1 8598   1.561   4.632  12.787  0.3796 -0.3476 -0.2025
  576MPD2    H2 8599   1.873   4.635  12.520  0.6820  2.8170 -0.8348
  576MPD2    H3 8600   1.739   4.530  12.695 -1.0547  0.2022  0.2070
  576MPD2     N 8601   1.469   0.157  12.750  0.8176 -0.1322  0.3202
  576MPD2    H5 8602   1.454   0.247  12.707 -1.3065  0.0981  1.5353
  576MPD2    N1 8603   1.823   0.140  12.411  0.9921  0.7571  0.2491
  576MPD2    H7 8604   1.790   0.231  12.381  2.5609  1.1667 -0.2171
  577TMC3    C1 8605   1.963   0.160  12.219 -1.1200 -0.2211  0.3453
  577TMC3    C2 8606   2.076   0.117  12.153  0.0557  0.0165  0.1948
  577TMC3    C3 8607   2.121   0.191  12.041 -0.2427 -0.2151  0.4754
  577TMC3    C4 8608   1.886   0.263  12.172  0.0446 -0.4070 -0.2704
  577TMC3    C5 8609   1.940   0.337  12.064 -0.2153  0.7161  0.4813
  577TMC3    C6 8610   2.056   0.307  12.000  0.3036  1.0083 -0.0580
  577TMC3     C 8611   1.915   0.077  12.328  0.1274  0.1137 -0.8697
  577TMC3     O 8612   1.988   4.721  12.349 -0.2016 -0.3214  0.6933
  577TMC3     H 8613   2.110   0.018  12.182 -1.3787 -0.3702  0.5520
  577TMC3    H1 8614   1.793   0.295  12.218  0.6129  0.2113  0.4464
  577TMC3    H2 8615   2.084   0.369  11.916  2.8037 -0.8219 -0.5722
  577TMC3    C7 8616   1.889   0.462  12.028  0.0657 -0.0821 -0.7584
  577TMC3    C8 8617   2.239   0.144  11.972  0.0101  0.4730 -0.6819
  577TMC3    O1 8618   1.975   0.546  12.023  0.0215  0.3724 -0.0662
  577TMC3    O2 8619   2.289   0.038  12.016 -0.0734  0.2918  0.4190
  578MPD2     C 8620   4.308   4.287   1.451 -0.4298  0.1922  0.1321
  578MPD2    C1 8621   4.356   4.224   1.341 -0.0226  0.0757  0.5784
  578MPD2    C2 8622   4.460   4.127   1.352 -0.5482 -0.0618 -0.3558
  578MPD2    C3 8623   4.522   4.110   1.479 -0.0554  0.0206 -0.3572
  578MPD2    C4 8624   4.467   4.180   1.584 -0.5173 -0.0505  0.1403
  578MPD2    C5 8625   4.357   4.264   1.573  0.3934  0.3245 -0.4845
  578MPD2     H 8626   4.515   4.084   1.270  0.1259  1.2680 -0.5905
  578MPD2    H1 8627   4.504   4.181   1.686  1.2131 -0.7166 -0.4875
  578MPD2    H2 8628   4.228   4.357   1.430 -1.6005 -1.7214 -1.8271
  578MPD2    H3 8629   4.315   4.318   1.657  1.3083  0.5551 -0.1758
  578MPD2     N 8630   4.647   4.044   1.489  0.3154 -0.5049  0.2403
  578MPD2    H5 8631   4.670   3.991   1.406  0.9272 -0.5750  0.4578
  578MPD2    N1 8632   4.297   4.259   1.219  0.1269  0.1116 -0.3669
  578MPD2    H7 8633   4.229   4.334   1.219  1.8118  1.6361  2.9012
  579TMC3    C1 8634   0.133   3.993   1.558 -0.6533  0.0338 -0.4481
  579TMC3    C2 8635   0.234   4.057   1.616 -0.4825 -0.5598  0.5810
  579TMC3    C3 8636   0.359   4.061   1.548 -0.5072 -0.0307  0.0512
  579TMC3    C4 8637   0.144   3.919   1.449  1.0539 -0.3851  0.2107
  579TMC3    C5 8638   0.272   3.911   1.394  0.2172 -0.2624  0.4864
  579TMC3    C6 8639   0.374   3.983   1.440  0.5050  0.6862  0.1804
  579TMC3     C 8640   0.009   4.054   1.590  0.2425 -0.7886 -0.0172
  579TMC3     O 8641   0.007   4.120   1.696 -0.2756 -0.4811  0.5472
  579TMC3     H 8642   0.224   4.116   1.706 -0.7647 -0.6680  0.6195
  579TMC3    H1 8643   0.059   3.862   1.415  0.2218  0.6002  0.6504
  579TMC3    H2 8644   0.463   3.988   1.378 -1.9288  2.5183 -3.2365
  579TMC3    C7 8645   0.316   3.792   1.327 -0.6457 -0.6539 -0.5468
  579TMC3    C8 8646   0.453   4.163   1.590  0.7712  0.2173 -0.0589
  579TMC3    O1 8647   0.435   3.769   1.338 -0.0139  0.5009  0.2458
  579TMC3    O2 8648   0.427   4.221   1.693  0.0764  0.1232  0.4554
  580TMC3    C1 8649   3.776   3.926  11.859  0.0938 -0.3965  0.5305
  580TMC3    C2 8650   3.814   3.855  11.747  0.0438 -0.4311  0.2043
  580TMC3    C3 8651   3.837   3.718  11.768 -0.6033 -0.7541  0.4016
  580TMC3    C4 8652   3.777   3.871  11.986  0.0138  0.1920  0.1409
  580TMC3    C5 8653   3.789   3.737  11.996  0.2373  0.1699  0.6970
  580TMC3    C6 8654   3.825   3.655  11.887 -0.3889 -0.2580 -0.1912
  580TMC3     C 8655   3.816   4.066  11.850 -0.5227  0.4832  1.2904
  580TMC3     O 8656   3.888   4.090  11.759 -0.2922  0.3636 -0.4845
  580TMC3     H 8657   3.811   3.903  11.650 -1.7363  0.7428  0.8473
  580TMC3    H1 8658   3.771   3.932  12.075 -0.8912 -1.7952  1.4316
  580TMC3    H2 8659   3.866   3.555  11.900 -0.0601 -0.1385 -0.3231
  580TMC3    C7 8660   3.830   3.689  12.123 -0.0676 -0.4364 -0.0118
  580TMC3    C8 8661   3.920   3.654  11.671  0.3356 -0.1039  0.1242
  580TMC3    O1 8662   3.864   3.772  12.206  0.4834  0.4029  0.0956
  580TMC3    O2 8663   3.899   3.539  11.637  0.3651 -0.4347  0.2477
  581MPD2     C 8664   1.798   3.101  14.887 -0.2997  0.5617 -0.2160
  581MPD2    C1 8665   1.759   3.222  14.947  0.3288 -0.1983  0.5149
  581MPD2    C2 8666   1.680   3.317  14.884 -0.6598 -0.1061 -0.0230
  581MPD2    C3 8667   1.642   3.296  14.751 -0.6484  0.1473 -0.9109
  581MPD2    C4 8668   1.676   3.171  14.692 -0.5103  0.8015 -0.0152
  581MPD2    C5 8669   1.755   3.074  14.757 -0.4366 -0.2467  0.4436
  581MPD2     H 8670   1.648   3.405  14.938 -1.9092 -1.5625  1.6210
  581MPD2    H1 8671   1.639   3.144  14.593 -3.3946 -1.9975  1.8404
  581MPD2    H2 8672   1.846   3.024  14.946 -0.6699 -0.0011 -0.6522
  581MPD2    H3 8673   1.789   2.986  14.705 -0.2463  0.5797 -0.8121
  581MPD2     N 8674   1.580   3.394  14.675  0.6221 -0.8264 -1.1107
  581MPD2    H5 8675   1.533   3.466  14.729  1.8940 -0.6458 -0.2539
  581MPD2    N1 8676   1.787   3.250  15.085  0.1263  0.1767 -0.5267
  581MPD2    H7 8677   1.755   3.340  15.121 -1.9062 -0.4390 -0.8088
  582TMC3    C1 8678   1.804   3.227  15.309  0.1738  0.5853  0.1740
  582TMC3    C2 8679   1.911   3.249  15.400 -0.2437 -0.4447 -0.6222
  582TMC3    C3 8680   1.905   3.364  15.477  0.7305  0.4796  0.8149
  582TMC3    C4 8681   1.703   3.322  15.297 -0.5487  0.1571  0.2097
  582TMC3    C5 8682   1.699   3.427  15.379  0.1637 -0.2255  0.3972
  582TMC3    C6 8683   1.803   3.454  15.466  0.1674  0.8704  0.2456
  582TMC3     C 8684   1.838   3.172  15.184  0.4861  0.8181 -0.3931
  582TMC3     O 8685   1.927   3.086  15.189  0.2819 -0.1550 -0.1344
  582TMC3     H 8686   1.984   3.170  15.412 -0.4708 -0.4955  0.3938
  582TMC3    H1 8687   1.611   3.297  15.245 -0.0264  0.9867 -1.0855
  582TMC3    H2 8688   1.787   3.531  15.541  2.8215 -0.6666  2.4299
  582TMC3    C7 8689   1.579   3.507  15.385  0.4755 -1.0157  0.3931
  582TMC3    C8 8690   2.003   3.395  15.581 -0.2857 -0.4652  0.0939
  582TMC3    O1 8691   1.472   3.459  15.345  0.1399 -0.3104  0.4957
  582TMC3    O2 8692   2.015   3.509  15.624  0.0157  0.3978  0.1561
  583MPD2     C 8693   1.906   0.264  16.989 -0.3815  0.9373 -0.4756
  583MPD2    C1 8694   1.965   0.387  16.974  0.4338  0.0254 -0.5408
  583MPD2    C2 8695   1.916   0.496  17.042  0.0913  0.0310  0.5804
  583MPD2    C3 8696   1.810   0.479  17.134  0.1564 -0.0844  0.2421
  583MPD2    C4 8697   1.756   0.351  17.146 -0.1534  0.4914  0.8448
  583MPD2    C5 8698   1.795   0.251  17.063 -0.5449 -0.0625 -0.1941
  583MPD2     H 8699   1.944   0.600  17.024 -2.5124  0.4756 -0.9471
  583MPD2    H1 8700   1.665   0.339  17.204 -1.7271  1.4184 -1.4060
  583MPD2    H2 8701   1.927   0.172  16.935  0.6830  0.5588  0.5916
  583MPD2    H3 8702   1.734   0.161  17.067 -0.8321  0.0146 -2.6686
  583MPD2     N 8703   1.771   0.592  17.199  0.7002  0.4128 -0.0589
  583MPD2    H5 8704   1.818   0.678  17.175  0.7370  0.5837  0.6303
  583MPD2    N1 8705   2.089   0.413  16.904  0.2062 -0.2443  0.2601
  583MPD2    H7 8706   2.116   0.510  16.893  0.3795 -0.0457  2.4900
  584TMC3    C1 8707   1.656   0.723  17.358  0.4224  0.8269 -0.4074
  584TMC3    C2 8708   1.723   0.830  17.309  0.3723 -0.5149  0.3810
  584TMC3    C3 8709   1.741   0.937  17.391  0.0530 -0.3006  0.1927
  584TMC3    C4 8710   1.605   0.727  17.482  0.1292  1.2407 -0.5052
  584TMC3    C5 8711   1.624   0.836  17.567  0.3449  0.0152  0.0088
  584TMC3    C6 8712   1.695   0.946  17.520 -0.1986  0.0474  0.2435
  584TMC3     C 8713   1.656   0.597  17.286 -0.1548 -0.3142 -0.4404
  584TMC3     O 8714   1.576   0.519  17.323 -0.4941  0.6480 -0.2763
  584TMC3     H 8715   1.741   0.853  17.204 -3.0675  1.0838  0.1166
  584TMC3    H1 8716   1.552   0.636  17.512  2.5226  0.1152  0.3164
  584TMC3    H2 8717   1.701   1.038  17.577 -2.1452  0.0978  0.3798
  584TMC3    C7 8718   1.626   0.804  17.706 -0.8134 -0.0507 -0.2181
  584TMC3    C8 8719   1.833   1.041  17.340  0.0649 -0.1205 -0.4282
  584TMC3    O1 8720   1.535   0.731  17.743  0.0893 -0.1654  0.1547
  584TMC3    O2 8721   1.843   1.062  17.220 -0.7102  0.6689 -0.4433
  585MPD2     C 8722   0.805   4.410   0.351 -0.4672 -0.0703 -0.2080
  585MPD2    C1 8723   0.727   4.373   0.241 -0.1293 -0.3963 -0.6663
  585MPD2    C2 8724   0.745   4.243   0.190 -0.6431  0.5575 -0.2053
  585MPD2    C3 8725   0.836   4.153   0.250 -0.8132  0.6230 -0.6208
  585MPD2    C4 8726   0.903   4.191   0.364  0.1083  0.4223  0.1830
  585MPD2    C5 8727   0.884   4.320   0.408 -0.0109 -0.0510  0.2548
  585MPD2     H 8728   0.686   4.198   0.111  1.2143  0.9864 -1.8241
  585MPD2    H1 8729   0.972   4.131   0.422 -1.7182 -0.7980  1.1045
  585MPD2    H2 8730   0.808   4.511   0.390 -0.7996 -0.3150  0.4519
  585MPD2    H3 8731   0.939   4.354   0.495 -3.1899  2.6380  1.1873
  585MPD2     N 8732   0.868   4.021   0.201 -0.0690 -0.2808 -0.1681
  585MPD2    H5 8733   0.935   3.960   0.248  1.3640  2.5402  1.4364
  585MPD2    N1 8734   0.632   4.455   0.174 -0.2302 -0.1583  0.3804
  585MPD2    H7 8735   0.592   4.421   0.087  0.2391  0.4316 -0.0750
  586TMC3    C1 8736   0.846   3.827   0.048 -0.1677  0.6681  0.7912
  586TMC3    C2 8737   0.973   3.787   0.069 -0.1707 -0.5022 -0.6117
  586TMC3    C3 8738   1.009   3.669   0.006 -0.8150  0.0223  0.2900
  586TMC3    C4 8739   0.755   3.758  17.713  0.7710  0.6472  0.1050
  586TMC3    C5 8740   0.795   3.646  17.657  0.3249 -0.1125  0.5340
  586TMC3    C6 8741   0.919   3.594  17.677  0.5074 -0.1955 -0.5450
  586TMC3     C 8742   0.785   3.956   0.108  0.1484 -0.4838  0.3880
  586TMC3     O 8743   0.667   3.979   0.094 -0.4673 -0.1440  0.6107
  586TMC3     H 8744   1.039   3.845   0.133 -0.7523  0.9984 -1.3771
  586TMC3    H1 8745   0.661   3.795  17.673  1.4478  2.0755 -0.1802
  586TMC3    H2 8746   0.949   3.501  17.631 -1.7572 -0.5306 -1.3476
  586TMC3    C7 8747   0.722   3.598  17.547  0.1486  0.3515 -0.0948
  586TMC3    C8 8748   1.123   3.600   0.059 -0.1613 -0.3365  0.6408
  586TMC3    O1 8749   0.600   3.597  17.558  0.3615 -0.6597 -0.2915
  586TMC3    O2 8750   1.128   3.484   0.026  0.6604  0.3468  0.3400
  587TMC3    C1 8751   3.185   2.750  16.397  0.1096 -0.4429 -0.4980
  587TMC3    C2 8752   3.264   2.813  16.488 -0.0479  0.2915 -0.7913
  587TMC3    C3 8753   3.381   2.753  16.521  0.1300  0.5065  0.3297
  587TMC3    C4 8754   3.216   2.628  16.336 -0.2927  0.1223 -0.5339
  587TMC3    C5 8755   3.332   2.565  16.371 -0.3821  0.7212  0.4316
  587TMC3    C6 8756   3.419   2.631  16.458 -0.5001 -0.4857 -0.5213
  587TMC3     C 8757   3.093   2.824  16.320 -0.2060 -0.2035 -0.2879
  587TMC3     O 8758   3.128   2.933  16.283 -0.1210  0.2785 -0.8141
  587TMC3     H 8759   3.240   2.911  16.528 -1.1351 -0.8961  1.4718
  587TMC3    H1 8760   3.161   2.581  16.256  1.3494 -1.9227 -0.4904
  587TMC3    H2 8761   3.508   2.586  16.501  0.8033  0.0968 -2.5997
  587TMC3    C7 8762   3.377   2.451  16.295  0.2723  0.0812  0.3676
  587TMC3    C8 8763   3.469   2.809  16.621 -0.2793  0.2553  0.3042
  587TMC3    O1 8764   3.298   2.390  16.222 -0.1998 -0.2520 -0.3249
  587TMC3    O2 8765   3.543   2.735  16.684  0.2466  0.2368 -0.0146
  588TMC3    C1 8766   0.656   1.213  10.479 -0.1159  0.0056 -0.5246
  588TMC3    C2 8767   0.606   1.090  10.509  0.2461  0.3537  0.4686
  588TMC3    C3 8768   0.650   0.987  10.427 -0.6822  0.0543  0.5412
  588TMC3    C4 8769   0.757   1.233  10.382 -0.2892  0.0102 -1.0931
  588TMC3    C5 8770   0.802   1.125  10.314 -0.3420 -0.5961 -0.3261
  588TMC3    C6 8771   0.749   1.000  10.338 -0.6707 -0.4234  0.0055
  588TMC3     C 8772   0.624   1.320  10.565  0.2007  0.3730 -0.2161
  588TMC3     O 8773   0.585   1.296  10.681 -0.2848 -0.1262  0.7712
  588TMC3     H 8774   0.535   1.079  10.590 -2.3426  1.4019 -1.6534
  588TMC3    H1 8775   0.803   1.329  10.366 -0.0948  0.1044  0.0195
  588TMC3    H2 8776   0.791   0.923  10.275 -1.5905 -0.3163 -0.7192
  588TMC3    C7 8777   0.919   1.135  10.229 -0.7881 -0.1470  0.4320
  588TMC3    C8 8778   0.603   0.849  10.464  0.8338 -0.3770 -0.6309
  588TMC3    O1 8779   0.971   1.030  10.191 -0.3031 -0.0696  0.2140
  588TMC3    O2 8780   0.508   0.838  10.542  0.3272  0.4881 -0.7891
  589TMC3    C1 8781   0.592   2.247   1.113  0.2208 -0.0410 -0.2514
  589TMC3    C2 8782   0.697   2.269   1.198  0.0915  0.0400  0.6139
  589TMC3    C3 8783   0.808   2.186   1.188  0.6221 -0.0267 -0.2566
  589TMC3    C4 8784   0.594   2.148   1.020 -0.2591  0.0238  0.2141
  589TMC3    C5 8785   0.710   2.071   1.001  0.4203  0.3888  0.1128
  589TMC3    C6 8786   0.812   2.088   1.091  0.5440 -0.6188 -0.6109
  589TMC3     C 8787   0.467   2.324   1.128  0.5074 -0.0582  0.3360
  589TMC3     O 8788   0.378   2.289   1.049  0.2383  0.0471 -0.4006
  589TMC3     H 8789   0.708   2.353   1.266 -1.7067 -0.2658  1.2876
  589TMC3    H1 8790   0.502   2.117   0.971 -0.0165 -0.1126 -0.1577
  589TMC3    H2 8791   0.893   2.018   1.078  0.8337 -0.6953  1.7156
  589TMC3    C7 8792   0.712   1.963   0.904  0.1931  0.0126 -0.2313
  589TMC3    C8 8793   0.917   2.189   1.286 -0.2543  0.3868 -0.0451
  589TMC3    O1 8794   0.788   1.873   0.928 -0.2082 -0.5868 -0.0843
  589TMC3    O2 8795   0.907   2.265   1.381  0.1517 -0.4626  0.6870
  590MPD2     C 8796   4.481   1.162  16.877  0.3458 -0.9572  0.1661
  590MPD2    C1 8797   4.420   1.228  16.771 -0.5877  0.6334  0.1183
  590MPD2    C2 8798   4.501   1.279  16.671  0.5073  0.4262  0.3008
  590MPD2    C3 8799   4.632   1.257  16.668  0.6432 -0.0103 -0.1053
  590MPD2    C4 8800   4.691   1.183  16.773 -0.4680  0.7000  0.2413
  590MPD2    C5 8801   4.614   1.141  16.878 -0.5594  0.0978  0.3616
  590MPD2     H 8802   4.458   1.353  16.604 -0.4463 -2.4872 -2.2916
  590MPD2    H1 8803   0.060   1.159  16.783 -0.7169  0.2229  1.7975
  590MPD2    H2 8804   4.417   1.121  16.955 -1.4919 -0.6298 -1.1916
  590MPD2    H3 8805   4.657   1.091  16.964  1.1050 -0.7949 -0.9770
  590MPD2     N 8806   4.706   1.311  16.560 -0.3968  0.0294 -0.0318
  590MPD2    H5 8807   4.652   1.363  16.491 -1.4331  1.2058  1.6621
  590MPD2    N1 8808   4.277   1.255  16.771 -0.2783  0.1508  0.5836
  590MPD2    H7 8809   4.233   1.240  16.861 -2.8099 -0.5667 -0.7839
  591TMC3    C1 8810   0.132   1.386  16.420  0.9023  0.1343 -0.6475
  591TMC3    C2 8811   0.226   1.351  16.326 -0.5423  0.3361  0.7391
  591TMC3    C3 8812   0.264   1.440  16.233  0.6242 -0.4748 -0.5271
  591TMC3    C4 8813   0.072   1.505  16.424 -0.1609 -0.3201 -0.2746
  591TMC3    C5 8814   0.108   1.596  16.326  0.2955 -0.3504  0.6249
  591TMC3    C6 8815   0.199   1.563  16.224  0.6626  0.4881  0.3011
  591TMC3     C 8816   0.099   1.297  16.526  0.3105  0.3256 -0.1235
  591TMC3     O 8817   0.186   1.248  16.591 -0.3020  0.1670 -0.4469
  591TMC3     H 8818   0.261   1.249  16.334  2.2483  1.2642  0.7724
  591TMC3    H1 8819   0.006   1.534  16.505 -1.1778 -0.9528 -0.8843
  591TMC3    H2 8820   0.209   1.635  16.144 -0.3398 -0.7478 -0.9470
  591TMC3    C7 8821   0.056   1.730  16.340  0.1463  0.5112  0.4149
  591TMC3    C8 8822   0.365   1.403  16.130  0.6887 -0.5380 -0.3083
  591TMC3    O1 8823   4.692   1.743  16.410 -0.6584  0.3975  0.2216
  591TMC3    O2 8824   0.386   1.285  16.104 -0.4891 -0.2831  0.6378
  592MPD2     C 8825   0.379   3.706  11.445 -0.2217 -0.9021  0.1608
  592MPD2    C1 8826   0.420   3.735  11.571 -0.9719  0.2250 -0.2340
  592MPD2    C2 8827   0.353   3.668  11.676 -0.3992  0.0460  0.4195
  592MPD2    C3 8828   0.248   3.583  11.653 -0.0020  0.1271 -0.4811
  592MPD2    C4 8829   0.209   3.554  11.520 -0.1712  0.4058 -0.3900
  592MPD2    C5 8830   0.273   3.626  11.423  0.2928 -0.5788  0.1530
  592MPD2     H 8831   0.396   3.669  11.776  1.3816 -0.6995 -0.3339
  592MPD2    H1 8832   0.130   3.484  11.496 -0.8808  0.7734  0.8459
  592MPD2    H2 8833   0.430   3.750  11.360  1.1683  0.5942  1.7623
  592MPD2    H3 8834   0.236   3.617  11.321  0.6878 -2.5601  0.1897
  592MPD2     N 8835   0.194   3.509  11.762 -0.1852 -0.1813  0.0116
  592MPD2    H5 8836   0.231   3.530  11.855 -0.6948  1.4136 -0.1534
  592MPD2    N1 8837   0.517   3.838  11.588 -0.0744 -0.1938  0.6637
  592MPD2    H7 8838   0.562   3.878  11.507  0.0625  2.0252  1.8464
  593TMC3    C1 8839   0.624   4.016  11.706  0.4409 -0.2867 -0.2440
  593TMC3    C2 8840   0.614   4.108  11.803 -0.6200 -0.7151  0.0029
  593TMC3    C3 8841   0.714   4.195  11.828 -0.3335 -0.6564  0.0528
  593TMC3    C4 8842   0.732   4.020  11.621 -0.0011  0.1888  0.8057
  593TMC3    C5 8843   0.836   4.106  11.658  0.2349  0.2926  0.0680
  593TMC3    C6 8844   0.831   4.195  11.756  0.9079  0.0818  0.0150
  593TMC3     C 8845   0.531   3.912  11.703  0.2380  0.0928  0.4173
  593TMC3     O 8846   0.457   3.897  11.799  0.4193 -0.3263 -1.0224
  593TMC3     H 8847   0.526   4.108  11.866  0.2845 -0.7077  1.2722
  593TMC3    H1 8848   0.748   3.955  11.536  2.7826  2.8332 -0.6840
  593TMC3    H2 8849   0.908   4.270  11.770  1.1525 -0.3133  0.7869
  593TMC3    C7 8850   0.933   4.141  11.548  0.5492 -0.2789 -0.2224
  593TMC3    C8 8851   0.680   4.319  11.885  0.0844  0.8690  0.4059
  593TMC3    O1 8852   0.878   4.166  11.438 -0.5586 -0.4948 -0.4717
  593TMC3    O2 8853   0.560   4.351  11.890  0.2248  0.0316 -0.9276
  594MPD2     C 8854   3.490   2.271  14.123  0.0646 -0.4889 -0.1633
  594MPD2    C1 8855   3.494   2.232  14.256 -0.0075  0.2932  0.5508
  594MPD2    C2 8856   3.614   2.239  14.325 -0.5635 -0.7129  0.2284
  594MPD2    C3 8857   3.717   2.309  14.269  0.3192  0.3193 -0.1181
  594MPD2    C4 8858   3.713   2.355  14.139 -0.0521  0.2866  0.3140
  594MPD2    C5 8859   3.601   2.328  14.065  0.4232  0.0335 -0.5616
  594MPD2     H 8860   3.630   2.203  14.426  2.8680 -0.4860 -0.2176
  594MPD2    H1 8861   3.797   2.391  14.081 -0.2842  0.5421  0.1396
  594MPD2    H2 8862   3.397   2.267  14.067 -0.5969 -0.9635  0.9629
  594MPD2    H3 8863   3.598   2.367  13.964  0.1741 -0.0413 -0.5828
  594MPD2     N 8864   3.830   2.325  14.350  0.6822  0.4809  0.0741
  594MPD2    H5 8865   3.833   2.286  14.443 -4.3765 -1.5283 -0.5863
  594MPD2    N1 8866   3.377   2.178  14.313  0.0343  0.1574 -0.1805
  594MPD2    H7 8867   3.298   2.170  14.249 -0.1308 -0.4068  0.0881
  595TMC3    C1 8868   4.215   2.559  14.497  0.6334 -0.1016  0.3762
  595TMC3    C2 8869   4.144   2.501  14.393 -0.3735  0.2643  0.4325
  595TMC3    C3 8870   4.022   2.444  14.427 -0.1488 -0.2689  0.5615
  595TMC3    C4 8871   4.170   2.555  14.626  1.2234 -0.2675 -0.2470
  595TMC3    C5 8872   4.046   2.513  14.647 -0.0212 -0.2954 -0.7379
  595TMC3    C6 8873   3.964   2.464  14.551  0.8407 -0.4253  0.3044
  595TMC3     C 8874   4.362   2.583  14.490  0.6012  0.1404  0.0865
  595TMC3     O 8875   4.415   2.625  14.595 -0.2198  0.2583 -0.2514
  595TMC3     H 8876   4.176   2.489  14.290  1.4316 -1.3838  1.1756
  595TMC3    H1 8877   4.227   2.614  14.698  1.7001 -0.2823 -0.6098
  595TMC3    H2 8878   3.868   2.418  14.573  0.2780  1.5835  1.9724
  595TMC3    C7 8879   3.976   2.567  14.758  0.3867 -0.5795 -0.3199
  595TMC3    C8 8880   3.932   2.407  14.315  0.3977 -0.0030  0.3842
  595TMC3    O1 8881   3.854   2.563  14.748  0.1985  0.5214 -0.0792
  595TMC3    O2 8882   3.960   2.461  14.208  0.3407  0.3383 -0.2154
  596MPD2     C 8883   2.973   4.601  16.903 -0.0032  0.1900  0.2456
  596MPD2    C1 8884   2.952   0.003  16.882  0.1467 -0.4408  0.3311
  596MPD2    C2 8885   2.992   0.066  16.769 -0.7068 -0.2131 -1.1450
  596MPD2    C3 8886   3.037   4.733  16.657 -0.9812  0.0527 -0.5877
  596MPD2    C4 8887   3.034   4.596  16.671 -0.0059 -0.0984  0.0005
  596MPD2    C5 8888   3.005   4.533  16.789  0.5317  0.0945 -0.3964
  596MPD2     H 8889   2.966   0.169  16.750  0.6857  0.2145 -0.7091
  596MPD2    H1 8890   3.054   4.526  16.591  0.3139  1.6203 -1.4394
  596MPD2    H2 8891   2.958   4.544  16.994  0.1215 -1.6739 -0.8999
  596MPD2    H3 8892   3.005   4.425  16.795  1.4407 -0.0241 -2.4372
  596MPD2     N 8893   3.068   0.048  16.526 -0.4721 -0.4022 -0.5825
  596MPD2    H5 8894   3.095   4.713  16.459  0.7006 -0.1615 -0.3635
  596MPD2    N1 8895   2.902   0.089  16.984 -0.4585  0.0745  0.1963
  596MPD2    H7 8896   2.896   0.186  16.954 -2.3088  0.3551  1.5177
  597TMC3    C1 8897   2.868   0.173  17.197 -0.0936 -0.2038 -0.0634
  597TMC3    C2 8898   2.975   0.263  17.187  0.4177 -0.3828 -0.3725
  597TMC3    C3 8899   2.984   0.351  17.289 -0.4429 -0.2088  0.9983
  597TMC3    C4 8900   2.775   0.180  17.303 -0.0446  0.4167 -0.0066
  597TMC3    C5 8901   2.780   0.291  17.387 -0.1958 -0.3610 -0.1778
  597TMC3    C6 8902   2.893   0.368  17.387 -0.4041 -0.3190 -0.0242
  597TMC3     C 8903   2.873   0.060  17.111 -0.4757  0.0075 -0.5557
  597TMC3     O 8904   2.856   4.688  17.164 -0.2832 -0.0590 -0.2114
  597TMC3     H 8905   3.051   0.251  17.111 -0.8299  2.8438 -2.0983
  597TMC3    H1 8906   2.688   0.115  17.301 -0.0612  0.3705  2.0878
  597TMC3    H2 8907   2.915   0.449  17.456 -0.6483  0.8871 -1.3581
  597TMC3    C7 8908   2.658   0.341  17.443 -0.2565  0.2121  0.0593
  597TMC3    C8 8909   3.074   0.461  17.284  0.3443 -0.3929  0.1814
  597TMC3    O1 8910   2.581   0.256  17.480 -0.0606  0.1820 -0.4462
  597TMC3    O2 8911   3.143   0.500  17.379 -0.0533 -0.2177  1.0609
  598TMC3    C1 8912   1.181   1.603  15.633 -0.1605  0.4168  0.0314
  598TMC3    C2 8913   1.135   1.469  15.627  0.3735 -0.4145 -0.3596
  598TMC3    C3 8914   1.053   1.434  15.527  0.1611 -0.5038 -0.6737
  598TMC3    C4 8915   1.161   1.687  15.522 -0.1793 -0.1031 -0.2409
  598TMC3    C5 8916   1.082   1.640  15.419  0.2168 -0.4048  0.0570
  598TMC3    C6 8917   1.032   1.514  15.420  0.4235 -0.1394 -0.1365
  598TMC3     C 8918   1.268   1.647  15.742  0.9087  0.4175  0.1877
  598TMC3     O 8919   1.324   1.754  15.735 -0.1429 -0.8226  0.6743
  598TMC3     H 8920   1.158   1.399  15.707 -0.3630 -0.4848 -0.2075
  598TMC3    H1 8921   1.196   1.789  15.536  0.9235 -0.5756  0.4474
  598TMC3    H2 8922   0.954   1.485  15.351 -0.7912  2.4490  0.1570
  598TMC3    C7 8923   1.131   1.675  15.292 -0.6108  0.0028  0.3181
  598TMC3    C8 8924   1.013   1.295  15.533  0.0517  0.1019  0.1815
  598TMC3    O1 8925   1.120   1.588  15.205  0.4094  0.3813  0.1398
  598TMC3    O2 8926   1.028   1.244  15.647 -0.4721  0.3443  0.4705
  599MPD2     C 8927   1.346   4.375  16.084 -0.4157 -0.3423 -0.5520
  599MPD2    C1 8928   1.295   4.254  16.079 -0.3591 -0.1958 -0.0856
  599MPD2    C2 8929   1.171   4.224  16.131 -0.6256 -0.3607 -0.3975
  599MPD2    C3 8930   1.095   4.324  16.188  1.0229  0.5693  0.5875
  599MPD2    C4 8931   1.137   4.453  16.177  0.3876  0.0035  0.3457
  599MPD2    C5 8932   1.261   4.471  16.133 -0.0591  0.3227 -0.2916
  599MPD2     H 8933   1.135   4.123  16.145 -2.1415  0.6807  3.1134
  599MPD2    H1 8934   1.077   4.533  16.219  0.4164 -0.2108  0.7975
  599MPD2    H2 8935   1.448   4.401  16.061 -0.6567  0.8165 -0.3107
  599MPD2    H3 8936   1.298   4.570  16.158  0.4825 -0.5225  2.2935
  599MPD2     N 8937   0.980   4.306  16.263  0.1199  0.6054  0.0235
  599MPD2    H5 8938   0.942   4.392  16.303  0.2765  0.3587  0.7080
  599MPD2    N1 8939   1.399   4.155  16.055  0.8982  0.5212  0.5474
  599MPD2    H7 8940   1.495   4.187  16.045  2.1381 -3.1201  0.6837
  600TMC3    C1 8941   0.787   4.208  16.347 -0.9011 -0.4715 -0.5726
  600TMC3    C2 8942   0.714   4.096  16.379 -0.1198  0.3852  0.0303
  600TMC3    C3 8943   0.596   4.108  16.458 -0.4552  0.3611  0.2165
  600TMC3    C4 8944   0.755   4.329  16.412 -0.1317  0.5523  0.6893
  600TMC3    C5 8945   0.656   4.332  16.507 -0.1063 -1.0411 -0.0926
  600TMC3    C6 8946   0.569   4.226  16.522 -0.4229 -0.1190  0.0499
  600TMC3     C 8947   0.911   4.188  16.267  0.1029 -0.2691 -0.0070
  600TMC3     O 8948   0.928   4.072  16.229 -0.4884  0.1966 -0.4900
  600TMC3     H 8949   0.747   4.000  16.341  1.6926  1.1308 -0.2948
  600TMC3    H1 8950   0.800   4.425  16.389  0.2770  0.6802  2.0644
  600TMC3    H2 8951   0.478   4.236  16.580  0.4208 -0.5774  1.4579
  600TMC3    C7 8952   0.610   4.462  16.566 -0.1416  0.0240 -0.2880
  600TMC3    C8 8953   0.563   3.985  16.524  0.5252  0.3024 -0.5040
  600TMC3    O1 8954   0.496   4.469  16.613 -0.4651 -0.0494 -0.1498
  600TMC3    O2 8955   0.625   3.884  16.493 -0.1712 -0.3166 -0.6325
  601MPD2     C 8956   3.453   2.526   0.550  0.8140  0.1927  0.0802
  601MPD2    C1 8957   3.386   2.465   0.446 -0.3187  0.3523 -0.3281
  601MPD2    C2 8958   3.435   2.338   0.408  0.0035 -0.3268 -0.9667
  601MPD2    C3 8959   3.550   2.286   0.462 -0.0091  0.5917  0.4275
  601MPD2    C4 8960   3.614   2.355   0.560 -0.0036  0.1314 -0.4432
  601MPD2    C5 8961   3.567   2.474   0.602 -0.0459 -0.0222 -0.1252
  601MPD2     H 8962   3.385   2.299   0.320  0.1205 -0.9015 -0.7802
  601MPD2    H1 8963   3.709   2.320   0.601  0.5151  3.6559  1.3203
  601MPD2    H2 8964   3.413   2.620   0.587  0.9805  0.5481 -0.6434
  601MPD2    H3 8965   3.621   2.511   0.689  3.2146 -0.6444 -1.8999
  601MPD2     N 8966   3.604   2.161   0.425  0.0144 -0.6194  0.4991
  601MPD2    H5 8967   3.692   2.127   0.463 -1.7848 -2.7415  2.7808
  601MPD2    N1 8968   3.279   2.524   0.366  0.7877 -0.0950 -0.3495
  601MPD2    H7 8969   3.235   2.465   0.296  2.2330  0.1986 -1.4817
  602TMC3    C1 8970   3.108   2.669   0.311 -0.1114 -0.2697  0.0838
  602TMC3    C2 8971   3.092   2.800   0.268 -0.9139  0.7391 -0.1318
  602TMC3    C3 8972   3.016   2.819   0.157  0.4647  0.1201  0.2706
  602TMC3    C4 8973   3.058   2.565   0.232  0.6212 -0.3143 -0.5007
  602TMC3    C5 8974   2.997   2.587   0.114  0.2979  0.2245  0.2032
  602TMC3    C6 8975   2.962   2.714   0.083  0.2550 -0.3153 -0.3892
  602TMC3     C 8976   3.218   2.649   0.399 -0.6248 -0.0851  0.0609
  602TMC3     O 8977   3.256   2.749   0.456 -0.0118 -0.5425  0.5749
  602TMC3     H 8978   3.123   2.882   0.332 -0.6230 -0.6352  1.4789
  602TMC3    H1 8979   3.074   2.464   0.268 -3.1629 -0.7938 -0.1931
  602TMC3    H2 8980   2.881   2.725   0.012 -0.1442 -0.6618  0.0196
  602TMC3    C7 8981   2.944   2.479   0.043  0.5307 -0.2593 -0.2329
  602TMC3    C8 8982   3.003   2.955   0.109 -0.6805  0.8227  0.6314
  602TMC3    O1 8983   2.903   2.382   0.105 -0.2187 -0.1772 -0.4381
  602TMC3    O2 8984   3.075   3.039   0.157  0.1972 -0.8389  0.0174
  603TMC3    C1 8985   0.883   3.395  11.382  0.0457 -0.0658  0.3845
  603TMC3    C2 8986   0.941   3.392  11.500 -0.0536  0.2610 -0.2931
  603TMC3    C3 8987   1.070   3.433  11.507 -0.8825  0.0440 -0.2543
  603TMC3    C4 8988   0.934   3.445  11.268 -0.3046 -0.4551 -0.7001
  603TMC3    C5 8989   1.063   3.494  11.284  0.0558  0.2722  0.5057
  603TMC3    C6 8990   1.135   3.488  11.402  0.1854 -0.0829  0.1108
  603TMC3     C 8991   0.746   3.345  11.384 -0.0996  0.9164 -0.2546
  603TMC3     O 8992   0.710   3.287  11.488 -0.1206 -0.5243  0.1260
  603TMC3     H 8993   0.896   3.334  11.579 -0.7325  1.2220  0.0302
  603TMC3    H1 8994   0.878   3.470  11.178  0.5179  2.5952 -0.3785
  603TMC3    H2 8995   1.240   3.512  11.396  0.4723 -1.4331 -0.2383
  603TMC3    C7 8996   1.145   3.546  11.169 -0.2163  0.0977 -0.6847
  603TMC3    C8 8997   1.139   3.388  11.621  0.2632  0.4157 -0.3467
  603TMC3    O1 8998   1.255   3.592  11.189  0.0341  0.3311 -0.0771
  603TMC3    O2 8999   1.082   3.312  11.697  0.1658 -0.3030  0.3032
  604MPD2     C 9000   2.206   1.690  16.700  0.2104 -0.3862  0.5724
  604MPD2    C1 9001   2.093   1.655  16.627 -0.7497 -0.3220  0.4138
  604MPD2    C2 9002   2.101   1.574  16.515  0.0368  0.0528 -0.2404
  604MPD2    C3 9003   2.225   1.534  16.461 -1.0532 -0.3087 -1.1369
  604MPD2    C4 9004   2.334   1.568  16.539 -0.5345 -0.2952  0.2056
  604MPD2    C5 9005   2.321   1.639  16.652 -0.1530  0.4482  0.0033
  604MPD2     H 9006   2.011   1.548  16.461 -0.6694  2.4091 -0.2141
  604MPD2    H1 9007   2.433   1.529  16.519 -0.1227  2.6285 -3.5374
  604MPD2    H2 9008   2.210   1.739  16.797  0.6454  1.4261 -0.3814
  604MPD2    H3 9009   2.412   1.648  16.710 -2.0495  2.4146  2.6021
  604MPD2     N 9010   2.227   1.446  16.346  0.1985 -0.1610  0.2050
  604MPD2    H5 9011   2.142   1.429  16.294  0.3691  0.1329 -0.1683
  604MPD2    N1 9012   1.981   1.726  16.669 -0.2189 -0.4340 -0.3195
  604MPD2    H7 9013   2.003   1.794  16.741  0.7125 -2.6362  1.4981
  605TMC3    C1 9014   1.756   1.803  16.677 -0.3286 -0.2476 -0.0206
  605TMC3    C2 9015   1.803   1.891  16.771 -0.1126  0.0306 -0.0769
  605TMC3    C3 9016   1.721   1.988  16.822 -0.6027  0.1311 -0.4053
  605TMC3    C4 9017   1.625   1.808  16.640  0.2539  0.1108  0.8854
  605TMC3    C5 9018   1.543   1.905  16.687  0.3494 -0.3572 -0.3555
  605TMC3    C6 9019   1.593   1.999  16.777  0.5359  0.0774  0.5740
  605TMC3     C 9020   1.855   1.717  16.613 -0.1260 -0.5346  0.9229
  605TMC3     O 9021   1.812   1.644  16.524 -0.6073 -0.1417 -0.2327
  605TMC3     H 9022   1.903   1.881  16.811 -1.1252 -2.9466  1.7439
  605TMC3    H1 9023   1.597   1.724  16.578 -2.3375  1.3543  0.3768
  605TMC3    H2 9024   1.532   2.083  16.810 -2.0540 -0.3770 -3.0389
  605TMC3    C7 9025   1.414   1.939  16.634  0.4141  0.0186 -0.4402
  605TMC3    C8 9026   1.788   2.070  16.922  0.1051 -0.0343  0.1842
  605TMC3    O1 9027   1.358   2.046  16.664  0.0028 -0.0220 -0.3298
  605TMC3    O2 9028   1.881   2.028  16.987  0.2590 -0.5466  0.0507
  606TMC3    C1 9029   2.439   4.621   0.342  0.3324  0.6886 -0.1620
  606TMC3    C2 9030   2.555   4.609   0.415  1.0860 -0.0162  0.5655
  606TMC3    C3 9031   2.607   4.484   0.439 -0.2366  0.1844 -0.4259
  606TMC3    C4 9032   2.373   4.516   0.284  0.1461  0.6299  0.6707
  606TMC3    C5 9033   2.438   4.394   0.298 -0.8172 -0.0499  0.2177
  606TMC3    C6 9034   2.544   4.376   0.377  0.7306  0.3209  0.4063
  606TMC3     C 9035   2.365   0.016   0.344  0.1886 -0.4285  0.4609
  606TMC3     O 9036   2.252   0.013   0.300  0.1224 -0.2051 -0.6014
  606TMC3     H 9037   2.610   4.687   0.467 -0.3647 -0.1879  2.3714
  606TMC3    H1 9038   2.274   4.529   0.243 -0.9235 -1.6883  2.4897
  606TMC3    H2 9039   2.585   4.277   0.395  1.3131  0.5812  0.5069
  606TMC3    C7 9040   2.365   4.279   0.264  0.2596 -0.4881 -0.4762
  606TMC3    C8 9041   2.745   4.466   0.486 -0.6234  0.0922  0.5629
  606TMC3    O1 9042   2.383   4.178   0.334  0.3614  0.1120  0.0479
  606TMC3    O2 9043   2.816   4.566   0.486  0.5818  0.4532  0.2103
  607MPD2     C 9044   0.430   3.212  12.056  0.1540 -0.4486 -0.4794
  607MPD2    C1 9045   0.489   3.313  12.128 -0.0916 -0.8453 -0.1235
  607MPD2    C2 9046   0.491   3.298  12.263  0.5437 -0.2538 -0.2796
  607MPD2    C3 9047   0.443   3.188  12.330  0.3944  0.2109  0.6980
  607MPD2    C4 9048   0.378   3.093  12.257  0.6431  0.2721 -0.2939
  607MPD2    C5 9049   0.372   3.105  12.120 -0.0396 -0.0982  0.2345
  607MPD2     H 9050   0.535   3.379  12.321  2.3086 -0.9618 -0.6400
  607MPD2    H1 9051   0.325   3.008  12.298  0.7155 -0.7180 -2.2210
  607MPD2    H2 9052   0.414   3.224  11.949 -1.7048  0.0946 -0.1361
  607MPD2    H3 9053   0.332   3.025  12.059 -1.8606  1.1073 -0.1560
  607MPD2     N 9054   0.447   3.196  12.472 -0.8910 -0.0187 -0.0372
  607MPD2    H5 9055   0.494   3.277  12.511 -0.5832 -0.0321 -0.3851
  607MPD2    N1 9056   0.541   3.434  12.079  0.0417 -0.0076  0.1761
  607MPD2    H7 9057   0.573   3.500  12.149  0.8045 -1.3935  1.1281
  608TMC3    C1 9058   0.620   3.586  11.915  0.2082 -0.5243  0.3159
  608TMC3    C2 9059   0.641   3.668  12.030 -0.6704  0.2484 -0.5759
  608TMC3    C3 9060   0.742   3.760  12.019  1.3388 -0.9527  0.7121
  608TMC3    C4 9061   0.698   3.596  11.805 -0.2403  0.0120  0.5526
  608TMC3    C5 9062   0.789   3.696  11.803  0.7003 -1.1719 -0.2708
  608TMC3    C6 9063   0.818   3.770  11.911  0.8751 -0.5669  1.0167
  608TMC3     C 9064   0.563   3.457  11.941 -0.6606  0.2899  0.0760
  608TMC3     O 9065   0.533   3.380  11.850 -0.1947  0.4860 -0.1618
  608TMC3     H 9066   0.571   3.670  12.114 -2.0199 -0.0642 -1.6916
  608TMC3    H1 9067   0.678   3.521  11.730  0.2699 -1.1776  1.6074
  608TMC3    H2 9068   0.892   3.849  11.907  0.0200  0.1054 -1.8341
  608TMC3    C7 9069   0.867   3.713  11.689  0.4181 -0.6387  0.3166
  608TMC3    C8 9070   0.798   3.821  12.141  1.1744 -0.6692 -0.0956
  608TMC3    O1 9071   0.810   3.699  11.585 -0.1390  0.5330 -0.4228
  608TMC3    O2 9072   0.859   3.925  12.133 -0.1961 -0.8438 -0.2153
  609TMC3    C1 9073   4.035   2.291   8.982 -0.3498 -0.0820  0.0106
  609TMC3    C2 9074   4.028   2.373   8.870  0.2814  0.2292  0.3476
  609TMC3    C3 9075   4.144   2.398   8.804 -0.3874 -0.5992  0.6577
  609TMC3    C4 9076   4.152   2.230   9.019  0.0672  0.4309  0.2705
  609TMC3    C5 9077   4.269   2.268   8.959  0.4745  0.0806  0.3221
  609TMC3    C6 9078   4.268   2.349   8.848 -0.0354  0.4916 -0.1399
  609TMC3     C 9079   3.912   2.281   9.065 -0.1821  0.5185  0.2817
  609TMC3     O 9080   3.831   2.372   9.052  0.1933 -0.7701  0.1975
  609TMC3     H 9081   3.932   2.416   8.847 -0.5807 -1.1745  1.3173
  609TMC3    H1 9082   4.163   2.182   9.116  2.6595  1.4449  0.4935
  609TMC3    H2 9083   4.358   2.401   8.815 -0.3371  0.8015 -0.4744
  609TMC3    C7 9084   4.402   2.263   9.018 -0.3742 -0.3765 -0.0187
  609TMC3    C8 9085   4.144   2.483   8.694  0.4302  0.0517 -0.3413
  609TMC3    O1 9086   4.402   2.248   9.137  0.2062 -0.3128 -0.0402
  609TMC3    O2 9087   4.237   2.481   8.616 -0.5623  0.7215  0.4046
  610TMC3    C1 9088   1.013   3.333  12.974 -0.5803 -0.5532 -0.4631
  610TMC3    C2 9089   1.126   3.360  12.903 -0.4666  0.5356 -0.2753
  610TMC3    C3 9090   1.203   3.243  12.887 -0.3091 -0.5411 -0.2073
  610TMC3    C4 9091   0.969   3.212  13.022  0.3928 -0.0479  0.0534
  610TMC3    C5 9092   1.052   3.109  13.000  0.1809 -0.0872 -0.7523
  610TMC3    C6 9093   1.178   3.123  12.936 -0.2205 -0.2843 -0.1096
  610TMC3     C 9094   0.926   3.453  12.992  0.3989  0.5986 -0.6235
  610TMC3     O 9095   0.940   3.547  12.914  0.2938 -0.1290 -0.2301
  610TMC3     H 9096   1.151   3.456  12.859  0.4202  0.6476  0.4805
  610TMC3    H1 9097   0.875   3.193  13.072  0.6278  1.8801  1.2053
  610TMC3    H2 9098   1.251   3.043  12.929 -0.8212 -0.8848  0.4712
  610TMC3    C7 9099   1.052   2.989  13.086 -0.6339  0.0863  0.1213
  610TMC3    C8 9100   1.324   3.261  12.810  0.0367  0.4081 -0.1549
  610TMC3    O1 9101   1.162   2.928  13.095 -0.5578  0.4383 -0.3134
  610TMC3    O2 9102   1.354   3.375  12.777 -0.2623 -0.2334 -0.1881
  611MPD2     C 9103   0.187   3.437  10.055  0.1109  1.1506 -0.3048
  611MPD2    C1 9104   0.214   3.333  10.143 -0.7012  0.0947  0.2306
  611MPD2    C2 9105   0.346   3.332  10.187  0.2793 -0.5299  0.1514
  611MPD2    C3 9106   0.446   3.425  10.141 -0.7666  0.2966 -0.2953
  611MPD2    C4 9107   0.408   3.523  10.051 -0.2500 -0.5883 -0.4290
  611MPD2    C5 9108   0.281   3.522  10.007 -0.2329 -0.3619  0.0772
  611MPD2     H 9109   0.381   3.278  10.274  1.2246 -2.0575 -1.2100
  611MPD2    H1 9110   0.470   3.593   9.997 -0.3252  0.5452  0.9637
  611MPD2    H2 9111   0.087   3.435  10.013 -0.4883  2.4803  1.0523
  611MPD2    H3 9112   0.245   3.592   9.931  1.7137  0.8712  0.2923
  611MPD2     N 9113   0.582   3.433  10.178 -0.8203 -0.1481 -0.3159
  611MPD2    H5 9114   0.642   3.501  10.133  0.9599  0.5520  3.0865
  611MPD2    N1 9115   0.112   3.258  10.196  0.1988 -0.0666 -0.3867
  611MPD2    H7 9116   0.023   3.290  10.160 -0.5729 -1.3316  0.3879
  612TMC3    C1 9117   0.790   3.390  10.275 -0.1785 -0.0686 -0.1990
  612TMC3    C2 9118   0.861   3.422  10.389  0.7891  0.4195  0.1090
  612TMC3    C3 9119   0.991   3.469  10.363  0.2266  0.6101 -0.3044
  612TMC3    C4 9120   0.846   3.379  10.149 -0.2698  0.3693 -0.6228
  612TMC3    C5 9121   0.972   3.422  10.126 -0.1085 -1.1113  0.3167
  612TMC3    C6 9122   1.042   3.476  10.229 -0.4877  0.1861 -0.4927
  612TMC3     C 9123   0.644   3.370  10.287 -0.1352 -0.3996 -0.0705
  612TMC3     O 9124   0.606   3.290  10.369 -0.0440 -0.6369  0.5556
  612TMC3     H 9125   0.804   3.436  10.480  1.9383 -1.7519  1.1544
  612TMC3    H1 9126   0.792   3.333  10.067  2.3767 -1.6445 -1.2306
  612TMC3    H2 9127   1.142   3.520  10.225 -0.9672  1.4050  0.8117
  612TMC3    C7 9128   1.027   3.432   9.992 -0.0739  0.0825  0.6602
  612TMC3    C8 9129   1.055   3.559  10.456 -0.0175 -0.6121  0.9836
  612TMC3    O1 9130   1.100   3.526   9.964  0.2009  0.0064 -0.8364
  612TMC3    O2 9131   1.091   3.666  10.405  0.6606 -0.3420 -0.1772
  613MPD2     C 9132   4.028   0.946  16.800 -0.1931 -0.4672  0.1203
  613MPD2    C1 9133   3.950   0.933  16.688  0.3420 -0.3230 -0.3816
  613MPD2    C2 9134   3.873   0.822  16.671 -0.2501 -0.5518  0.5814
  613MPD2    C3 9135   3.869   0.715  16.761 -0.0976  0.9035  0.0049
  613MPD2    C4 9136   3.940   0.728  16.871  0.2278 -0.2829  0.7021
  613MPD2    C5 9137   4.009   0.847  16.901  0.9528  0.5149 -0.9907
  613MPD2     H 9138   3.812   0.815  16.582 -0.3082 -1.2165  0.6715
  613MPD2    H1 9139   3.954   0.652  16.947  1.8999 -1.1206 -0.4544
  613MPD2    H2 9140   4.088   1.034  16.816 -1.5433  0.4738 -0.0188
  613MPD2    H3 9141   4.074   0.864  16.986 -1.2706 -1.6442  1.1200
  613MPD2     N 9142   3.812   0.589  16.735  0.6413 -0.3205 -0.1430
  613MPD2    H5 9143   3.838   0.513  16.797 -0.9061 -1.8839 -1.3792
  613MPD2    N1 9144   3.977   1.016  16.574  0.2655  0.2194 -0.2322
  613MPD2    H7 9145   4.075   1.032  16.553  1.0401 -1.8060  1.7906
  614TMC3    C1 9146   3.969   1.017  16.329 -0.2567 -0.6430  0.9323
  614TMC3    C2 9147   4.050   0.910  16.333 -0.0593  0.1301  0.2868
  614TMC3    C3 9148   4.039   0.823  16.222 -0.4428  0.3553 -0.3211
  614TMC3    C4 9149   3.895   1.060  16.219 -0.8175  0.1177  0.2432
  614TMC3    C5 9150   3.901   0.984  16.113 -0.6875 -0.4792 -0.1492
  614TMC3    C6 9151   3.963   0.858  16.115 -0.4528 -0.1574 -0.2475
  614TMC3     C 9152   3.897   1.026  16.461  0.5728 -0.3577  0.1671
  614TMC3     O 9153   3.776   1.013  16.451 -0.6259 -1.0419 -0.2808
  614TMC3     H 9154   4.106   0.869  16.416  1.3809  0.2318 -0.6129
  614TMC3    H1 9155   3.832   1.148  16.226 -1.5242 -0.4453  1.0327
  614TMC3    H2 9156   3.942   0.787  16.036  0.0652  0.4550 -0.9299
  614TMC3    C7 9157   3.844   1.036  15.993 -0.4188  0.3813  0.7762
  614TMC3    C8 9158   4.057   0.682  16.258  0.4351 -0.3695 -0.1868
  614TMC3    O1 9159   3.761   1.124  15.995  0.2044  0.2220 -0.0128
  614TMC3    O2 9160   4.037   0.666  16.377 -0.6435  0.4784  0.2303
  615MPD2     C 9161   3.008   2.002  16.283 -0.2231 -0.0890  0.2152
  615MPD2    C1 9162   3.139   2.041  16.259 -0.1561 -0.2358  0.1823
  615MPD2    C2 9163   3.202   1.994  16.143  0.1628 -0.0121  0.0186
  615MPD2    C3 9164   3.139   1.936  16.037  0.3290 -0.7766 -0.8575
  615MPD2    C4 9165   3.010   1.898  16.069  0.2864  0.1198  0.2558
  615MPD2    C5 9166   2.944   1.934  16.182 -0.5442  0.5178  0.4257
  615MPD2     H 9167   3.306   2.020  16.128  0.2869 -0.0962  0.7456
  615MPD2    H1 9168   2.952   1.840  15.997  0.9268 -0.4193  0.1698
  615MPD2    H2 9169   2.962   2.020  16.379 -1.8415 -0.1628 -0.5425
  615MPD2    H3 9170   2.840   1.907  16.193 -0.5316  0.1241 -0.4381
  615MPD2     N 9171   3.196   1.904  15.915 -0.6219 -0.2867 -0.0141
  615MPD2    H5 9172   3.140   1.854  15.847 -2.3857  1.8281 -0.1059
  615MPD2    N1 9173   3.211   2.115  16.362 -0.0621  0.4663 -0.0470
  615MPD2    H7 9174   3.312   2.117  16.347 -0.1861 -1.5544 -1.2157
  616TMC3    C1 9175   3.225   2.253  16.563  0.0515  0.0241  0.2342
  616TMC3    C2 9176   3.348   2.196  16.598  0.4972 -0.2716 -0.4553
  616TMC3    C3 9177   3.420   2.268  16.681 -0.4966  0.2981  0.7605
  616TMC3    C4 9178   3.177   2.367  16.618 -0.3063  0.1720 -0.7060
  616TMC3    C5 9179   3.253   2.431  16.710  0.5527  0.4069  0.0884
  616TMC3    C6 9180   3.378   2.389  16.736  0.2378 -0.3790  0.6419
  616TMC3     C 9181   3.142   2.191  16.460  0.1267  0.7591 -0.1132
  616TMC3     O 9182   3.025   2.221  16.468 -0.7647 -0.4381 -0.0604
  616TMC3     H 9183   3.370   2.100  16.551  0.4484 -0.6331  0.2587
  616TMC3    H1 9184   3.081   2.408  16.591 -0.7653  0.3178  1.1372
  616TMC3    H2 9185   3.428   2.435  16.820  1.4468  1.3653 -1.0188
  616TMC3    C7 9186   3.204   2.555  16.757 -0.8832  0.7792  0.0365
  616TMC3    C8 9187   3.499   2.189  16.768 -0.2651 -0.2450 -1.3114
  616TMC3    O1 9188   3.109   2.604  16.701  0.5088 -0.7630 -0.2233
  616TMC3    O2 9189   3.446   2.085  16.797 -0.0758  0.0710  0.2061
  617MPD2     C 9190   2.235   4.536  13.601  0.0920 -0.2851 -0.6005
  617MPD2    C1 9191   2.210   4.524  13.738  0.0601  0.0631  0.2924
  617MPD2    C2 9192   2.086   4.557  13.796  0.5337 -0.2515 -0.0174
  617MPD2    C3 9193   1.985   4.600  13.711  0.3610  0.1335  0.3688
  617MPD2    C4 9194   2.004   4.614  13.575 -0.1025 -0.0481  0.3568
  617MPD2    C5 9195   2.133   4.591  13.519  0.2074  0.2799 -0.1203
  617MPD2     H 9196   2.063   4.532  13.899  1.1266 -3.0196 -0.5407
  617MPD2    H1 9197   1.924   4.652  13.513  1.1511 -1.7349 -2.2650
  617MPD2    H2 9198   2.326   4.505  13.552  1.7992  2.0628  1.1000
  617MPD2    H3 9199   2.144   4.595  13.411 -1.5095  4.1656 -0.1481
  617MPD2     N 9200   1.850   4.595  13.755 -0.0783  0.9360  0.2787
  617MPD2    H5 9201   1.784   4.588  13.678 -0.4979 -0.2631  0.7435
  617MPD2    N1 9202   2.309   4.477  13.823  0.3868 -0.2011  0.5875
  617MPD2    H7 9203   2.384   4.423  13.781 -0.9417 -0.3475 -1.5909
  618TMC3    C1 9204   2.442   4.467  14.019 -0.3147  0.6051 -0.4078
  618TMC3    C2 9205   2.478   4.339  13.982 -0.1429 -0.2101 -0.3636
  618TMC3    C3 9206   2.588   4.288  14.038  0.4536  0.7906  0.6669
  618TMC3    C4 9207   2.515   4.549  14.096  0.2910 -0.5390 -0.0283
  618TMC3    C5 9208   2.641   4.507  14.126 -0.3877  0.3756 -0.3393
  618TMC3    C6 9209   2.664   4.369  14.112 -0.3427 -0.6579  0.6915
  618TMC3     C 9210   2.330   4.523  13.947  0.9047  0.0490  0.5713
  618TMC3     O 9211   2.281   4.622  14.000  0.1740  0.4693 -0.7053
  618TMC3     H 9212   2.407   4.267  13.941  2.5889 -2.0876 -1.8141
  618TMC3    H1 9213   2.490   4.654  14.107  2.0024  0.0685 -1.9258
  618TMC3    H2 9214   2.758   4.331  14.151 -0.5329 -0.8405  0.9752
  618TMC3    C7 9215   2.717   4.593  14.208 -0.5072  0.7339 -0.4687
  618TMC3    C8 9216   2.626   4.154  14.014 -0.6188 -0.1676 -0.6907
  618TMC3    O1 9217   2.651   4.667  14.275 -0.1829 -0.3756 -0.0748
  618TMC3    O2 9218   2.530   4.076  14.006 -0.0869  0.4473  0.2419
  619MPD2     C 9219   3.243   1.030  14.380 -0.1933 -0.5765 -0.4372
  619MPD2    C1 9220   3.200   0.937  14.290 -0.1896  0.2217  0.5135
  619MPD2    C2 9221   3.073   0.884  14.315 -0.5565 -0.5451  0.4712
  619MPD2    C3 9222   2.990   0.927  14.415 -0.5216 -0.3814  0.3265
  619MPD2    C4 9223   3.032   1.033  14.494  0.0823 -0.3632 -0.6902
  619MPD2    C5 9224   3.159   1.075  14.478 -0.9111  0.0297 -0.6433
  619MPD2     H 9225   3.040   0.805  14.248 -0.7486 -1.2285  1.3702
  619MPD2    H1 9226   2.962   1.077  14.564  2.5622 -0.7936  2.0194
  619MPD2    H2 9227   3.338   1.082  14.385  0.4154 -1.8961  1.6173
  619MPD2    H3 9228   3.196   1.157  14.539 -1.8546  0.0391 -0.0889
  619MPD2     N 9229   2.864   0.877  14.447  0.3846 -0.2254  0.6772
  619MPD2    H5 9230   2.802   0.927  14.509 -1.7652 -0.7947 -1.0252
  619MPD2    N1 9231   3.275   0.893  14.180 -0.2900 -0.2791 -0.1848
  619MPD2    H7 9232   3.225   0.835  14.113 -0.2430  0.6075 -0.9755
  620TMC3    C1 9233   3.440   0.918  14.008  1.1346  0.4030  1.4736
  620TMC3    C2 9234   3.370   0.820  13.938 -0.3689  0.3551  0.3077
  620TMC3    C3 9235   3.335   0.847  13.809  0.7468  0.2285 -0.3840
  620TMC3    C4 9236   3.485   1.034  13.948 -0.2960 -0.2176  1.1834
  620TMC3    C5 9237   3.462   1.052  13.815 -1.1458  0.1788  0.0884
  620TMC3    C6 9238   3.376   0.965  13.747 -0.6853  0.4751  0.3784
  620TMC3     C 9239   3.402   0.938  14.146 -0.4071 -0.4134 -0.2676
  620TMC3     O 9240   3.473   1.013  14.211  0.6228 -0.0996 -0.3137
  620TMC3     H 9241   3.336   0.733  13.993 -0.8019  0.7934  0.7334
  620TMC3    H1 9242   3.539   1.100  14.015  0.8790 -0.8614  0.8721
  620TMC3    H2 9243   3.342   0.979  13.645  2.0728  1.3556 -0.3957
  620TMC3    C7 9244   3.487   1.177  13.744  0.1364  0.6758  1.3333
  620TMC3    C8 9245   3.195   0.817  13.776  0.2845  0.7395  0.3482
  620TMC3    O1 9246   3.463   1.173  13.623  0.0469 -0.7445 -0.2358
  620TMC3    O2 9247   3.144   0.903  13.713  0.7810  0.2836  0.1721
  621MPD2     C 9248   3.823   1.535   9.777 -0.3784  0.5294  0.5790
  621MPD2    C1 9249   3.726   1.605   9.720  0.6858 -0.3196 -0.6140
  621MPD2    C2 9250   3.751   1.734   9.674 -1.0370 -0.4989  0.0766
  621MPD2    C3 9251   3.875   1.787   9.684  0.8403  0.6166 -0.1158
  621MPD2    C4 9252   3.980   1.712   9.738  0.3745 -0.0454 -0.4648
  621MPD2    C5 9253   3.951   1.587   9.778 -0.1163  0.2272  0.0972
  621MPD2     H 9254   3.673   1.800   9.641 -0.3716 -0.5812 -1.6537
  621MPD2    H1 9255   4.079   1.751   9.759  0.0687  0.0547  0.7870
  621MPD2    H2 9256   3.797   1.436   9.815 -0.5157  0.7641  1.1071
  621MPD2    H3 9257   4.030   1.526   9.821 -1.3663 -1.6134 -0.2244
  621MPD2     N 9258   3.889   1.917   9.642 -0.0013  0.4385 -0.8882
  621MPD2    H5 9259   3.809   1.978   9.632  0.8516  1.7760  0.4970
  621MPD2    N1 9260   3.598   1.547   9.694 -0.1567 -0.3340  1.1237
  621MPD2    H7 9261   3.548   1.595   9.620 -0.2553 -0.3812  1.1584
  622TMC3    C1 9262   3.430   1.381   9.688 -0.1199 -0.1829 -0.1424
  622TMC3    C2 9263   3.318   1.384   9.767 -0.1997  0.0136 -0.0958
  622TMC3    C3 9264   3.199   1.405   9.708 -0.2099  0.0255  0.4429
  622TMC3    C4 9265   3.421   1.393   9.553  0.2362 -0.3851  0.7183
  622TMC3    C5 9266   3.297   1.401   9.499  0.4352 -0.5774  0.3043
  622TMC3    C6 9267   3.181   1.406   9.574 -0.0717  0.4027  0.5584
  622TMC3     C 9268   3.549   1.428   9.752 -0.1132 -0.4983  0.1134
  622TMC3     O 9269   3.577   1.386   9.859  0.0292  0.1370 -0.2779
  622TMC3     H 9270   3.329   1.387   9.875  1.8615  4.2932 -0.4476
  622TMC3    H1 9271   3.506   1.403   9.486 -0.7314  1.4155 -0.2364
  622TMC3    H2 9272   3.086   1.426   9.525 -0.7282  1.5580  2.2904
  622TMC3    C7 9273   3.289   1.422   9.351  0.5327 -0.6714 -0.5614
  622TMC3    C8 9274   3.081   1.423   9.790  0.5201 -0.8878  0.3820
  622TMC3    O1 9275   3.375   1.366   9.283 -0.3174 -0.3387  0.4843
  622TMC3    O2 9276   2.971   1.383   9.757  0.8615  0.2834  0.4033
  623MPD2     C 9277   2.073   1.971  16.380 -0.4396  0.2308 -0.7796
  623MPD2    C1 9278   2.015   2.079  16.450 -0.1983  0.4442 -0.3526
  623MPD2    C2 9279   2.086   2.144  16.554  0.8728  0.1552  0.1140
  623MPD2    C3 9280   2.221   2.120  16.571  0.1334  0.1575  0.0514
  623MPD2    C4 9281   2.275   2.013  16.502  0.5766  0.2858  0.0398
  623MPD2    C5 9282   2.204   1.941  16.407  0.1918 -0.1064  0.2102
  623MPD2     H 9283   2.040   2.219  16.618  1.9022  1.9575 -1.2521
  623MPD2    H1 9284   2.374   1.974  16.523  0.4984 -0.7022 -1.4129
  623MPD2    H2 9285   2.008   1.920  16.310  0.1079 -0.2208 -0.9578
  623MPD2    H3 9286   2.249   1.856  16.357  0.9920  0.2264  0.3700
  623MPD2     N 9287   2.286   2.190  16.671 -0.5212  0.1331  0.1643
  623MPD2    H5 9288   2.257   2.275  16.719 -1.7686 -0.1269 -0.1313
  623MPD2    N1 9289   1.878   2.103  16.426 -0.1028 -0.2126  0.5279
  623MPD2    H7 9290   1.831   2.032  16.370 -1.7164  0.5615  0.9024
  624TMC3    C1 9291   2.533   2.136  17.056  0.6348  0.4488  0.2354
  624TMC3    C2 9292   2.437   2.208  17.123 -0.5703 -0.0971  0.6698
  624TMC3    C3 9293   2.354   2.287  17.049  0.0213 -0.5470 -0.6000
  624TMC3    C4 9294   2.536   2.143  16.918  0.3170  0.5099  0.1325
  624TMC3    C5 9295   2.446   2.220  16.851  0.4933 -0.6436  0.0826
  624TMC3    C6 9296   2.345   2.294  16.913 -0.3080  0.0659 -0.8502
  624TMC3     C 9297   2.612   2.045  17.127 -0.4322 -0.6217  1.0444
  624TMC3     O 9298   2.630   2.065  17.246  0.0613  0.4879  0.0237
  624TMC3     H 9299   2.441   2.203  17.231 -0.1633 -1.6145  0.5856
  624TMC3    H1 9300   2.616   2.097  16.860 -1.0796 -2.9061  0.9228
  624TMC3    H2 9301   2.273   2.356  16.861 -3.1919 -1.3046  1.5195
  624TMC3    C7 9302   2.402   2.140  16.733  0.0367  0.1849 -0.1073
  624TMC3    C8 9303   2.213   2.307  17.103  0.6762  0.3479  0.0223
  624TMC3    O1 9304   2.476   2.046  16.700 -0.4111  0.1188  0.1299
  624TMC3    O2 9305   2.167   2.211  17.166  0.1033 -0.5714  0.2554
  625MPD2     C 9306   3.050   3.302   0.657  0.0593  0.4697 -0.3641
  625MPD2    C1 9307   3.041   3.437   0.650 -0.2075  0.2207  0.3223
  625MPD2    C2 9308   3.152   3.514   0.664  0.6505 -0.3476  0.2623
  625MPD2    C3 9309   3.279   3.456   0.680  0.1472 -0.3760  0.5547
  625MPD2    C4 9310   3.283   3.321   0.691 -0.1487 -0.6757 -0.1163
  625MPD2    C5 9311   3.174   3.248   0.674 -0.6327 -0.0961  0.2988
  625MPD2     H 9312   3.145   3.622   0.673  0.7026 -0.3152 -0.0733
  625MPD2    H1 9313   3.373   3.267   0.718  0.3194 -0.4450 -1.2060
  625MPD2    H2 9314   2.967   3.233   0.642 -0.5601  1.3018 -0.7821
  625MPD2    H3 9315   3.175   3.141   0.690  0.8075  0.3040  2.9716
  625MPD2     N 9316   3.393   3.541   0.686 -0.3490 -0.6756  0.5711
  625MPD2    H5 9317   3.377   3.636   0.653  1.3031 -0.2776  0.9520
  625MPD2    N1 9318   2.921   3.499   0.614  0.0409  0.2425  0.2105
  625MPD2    H7 9319   2.915   3.596   0.643  1.2951  0.6155 -0.7648
  626TMC3    C1 9320   2.694   3.520   0.574 -0.3451 -0.3640 -0.0200
  626TMC3    C2 9321   2.603   3.502   0.477  0.4758 -0.3274  0.2338
  626TMC3    C3 9322   2.477   3.549   0.493  0.3474  0.1913  0.0508
  626TMC3    C4 9323   2.659   3.587   0.691 -0.6427 -0.3162  0.2405
  626TMC3    C5 9324   2.528   3.617   0.714  0.0895 -0.2861  0.6828
  626TMC3    C6 9325   2.441   3.610   0.611  0.0598 -0.2278 -0.5915
  626TMC3     C 9326   2.809   3.439   0.577  0.1668  0.6841 -0.7048
  626TMC3     O 9327   2.788   3.331   0.526 -0.4095 -0.3828  0.4043
  626TMC3     H 9328   2.631   3.438   0.394  0.3951  0.2690 -0.2574
  626TMC3    H1 9329   2.729   3.585   0.774  0.1662 -0.0074 -0.4332
  626TMC3    H2 9330   2.344   3.656   0.624  0.3190 -0.1206  0.9405
  626TMC3    C7 9331   2.486   3.617   0.850  0.1382 -0.3677  0.4365
  626TMC3    C8 9332   2.387   3.543   0.371 -0.0576 -0.0453 -0.1420
  626TMC3    O1 9333   2.569   3.612   0.938 -0.1153  0.5962  0.6801
  626TMC3    O2 9334   2.425   3.478   0.278 -0.4267  0.2627 -0.3286
  627MPD2     C 9335   0.955   3.539  14.193 -0.5461  0.5832 -0.2507
  627MPD2    C1 9336   1.035   3.454  14.269 -0.2536 -0.1973 -1.0418
  627MPD2    C2 9337   0.986   3.336  14.311 -0.3203 -0.5018 -0.3095
  627MPD2    C3 9338   0.865   3.289  14.265 -0.5399 -0.3267  0.3418
  627MPD2    C4 9339   0.794   3.368  14.172 -0.0658  0.1581 -0.2372
  627MPD2    C5 9340   0.838   3.491  14.141  0.4087 -0.2523  0.4259
  627MPD2     H 9341   1.048   3.278  14.378 -0.7021  1.1991  1.5173
  627MPD2    H1 9342   0.696   3.364  14.126  0.5771  0.3445 -1.6176
  627MPD2    H2 9343   0.999   3.626  14.147 -2.2929  1.2399 -0.6589
  627MPD2    H3 9344   0.780   3.542  14.065 -0.4307 -0.2595  1.0585
  627MPD2     N 9345   0.814   3.170  14.311 -0.2607  0.2169  0.3697
  627MPD2    H5 9346   0.873   3.112  14.370 -1.5318 -3.3585 -1.8255
  627MPD2    N1 9347   1.169   3.496  14.305 -0.1879  0.0319  0.2503
  627MPD2    H7 9348   1.225   3.437  14.365  1.2881  1.9780  0.7884
  628TMC3    C1 9349   1.353   3.625  14.343 -0.0813 -0.2732  0.5317
  628TMC3    C2 9350   1.417   3.507  14.391  0.1479 -0.0724 -0.5258
  628TMC3    C3 9351   1.505   3.516  14.496  0.4143 -0.0117 -0.0688
  628TMC3    C4 9352   1.393   3.748  14.392  0.5730 -0.0284 -0.1369
  628TMC3    C5 9353   1.484   3.751  14.488 -0.0797 -0.0947 -0.1198
  628TMC3    C6 9354   1.534   3.637  14.548 -0.1315 -0.1066  0.8105
  628TMC3     C 9355   1.219   3.622  14.289 -0.6580 -0.9415 -0.6738
  628TMC3     O 9356   1.174   3.724  14.240  0.6681 -0.3663 -0.1115
  628TMC3     H 9357   1.391   3.405  14.365  1.6183 -0.7307  0.6077
  628TMC3    H1 9358   1.342   3.836  14.353  1.8460  0.2216 -1.2399
  628TMC3    H2 9359   1.618   3.646  14.617  0.3083 -0.3858  0.3094
  628TMC3    C7 9360   1.535   3.876  14.539  0.1269 -0.6777  0.2416
  628TMC3    C8 9361   1.568   3.397  14.537  0.1727 -0.1770  0.3742
  628TMC3    O1 9362   1.605   3.881  14.638 -0.5281 -0.0963 -0.1234
  628TMC3    O2 9363   1.622   3.329  14.448 -0.5139  0.2219 -0.1910
  629MPD2     C 9364   3.941   1.996  16.925  0.7255  0.5393 -0.3191
  629MPD2    C1 9365   3.973   2.104  16.845 -0.4751  0.5653 -0.1452
  629MPD2    C2 9366   3.870   2.175  16.794  0.0103 -0.7160 -0.7072
  629MPD2    C3 9367   3.737   2.154  16.831 -0.0663 -0.2406 -0.2413
  629MPD2    C4 9368   3.711   2.059  16.926 -0.6813  0.5103 -0.6052
  629MPD2    C5 9369   3.808   1.978  16.968  0.0796 -0.0103  0.3930
  629MPD2     H 9370   3.892   2.252  16.722 -1.1541  0.8745  0.6189
  629MPD2    H1 9371   3.611   2.035  16.959 -0.6406 -0.4317 -1.1838
  629MPD2    H2 9372   4.017   1.932  16.968  1.5464  1.7336  0.0094
  629MPD2    H3 9373   3.783   1.889  17.024  0.6553 -0.6523 -0.3559
  629MPD2     N 9374   3.632   2.230  16.783  0.2770 -1.1296 -0.2081
  629MPD2    H5 9375   3.655   2.315  16.733  2.2722 -0.6388  1.5632
  629MPD2    N1 9376   4.104   2.121  16.808  0.4950  0.5116  0.1703
  629MPD2    H7 9377   4.173   2.057  16.847 -0.4623  1.2849  3.1781
  630TMC3    C1 9378   4.294   2.175  16.676 -0.7447 -0.4957 -0.1308
  630TMC3    C2 9379   4.336   2.228  16.551  0.0489  0.6001  0.6199
  630TMC3    C3 9380   4.455   2.181  16.497 -0.7715  0.2069 -0.1774
  630TMC3    C4 9381   4.359   2.067  16.737  0.0176  0.2250  0.0877
  630TMC3    C5 9382   4.479   2.030  16.679  0.4969 -0.8582 -0.3652
  630TMC3    C6 9383   4.522   2.086  16.564  0.5759 -0.4689  0.3688
  630TMC3     C 9384   4.156   2.199  16.708  0.7613  0.1000  0.1154
  630TMC3     O 9385   4.102   2.268  16.622  0.4866 -0.9173 -0.3613
  630TMC3     H 9386   4.279   2.303  16.498 -0.4661 -1.0703 -1.2000
  630TMC3    H1 9387   4.337   2.034  16.837 -0.7460 -0.7373 -0.3991
  630TMC3    H2 9388   4.617   2.060  16.520  1.6962  0.1188  2.4265
  630TMC3    C7 9389   4.580   1.994  16.774 -0.3133  0.8054  0.0960
  630TMC3    C8 9390   4.550   2.279  16.457  0.6800 -0.3486  0.4318
  630TMC3    O1 9391   4.555   1.920  16.862  0.0924 -0.2214  0.1503
  630TMC3    O2 9392   4.637   2.286  16.544 -0.2970  0.6215 -0.7977
  631MPD2     C 9393   2.528   1.801  15.487 -0.0455 -0.3154 -0.3371
  631MPD2    C1 9394   2.594   1.800  15.370 -0.4400  0.1983 -0.3371
  631MPD2    C2 9395   2.735   1.806  15.369  0.2628  0.2648 -0.8345
  631MPD2    C3 9396   2.801   1.809  15.496 -0.2610  0.2326  0.0295
  631MPD2    C4 9397   2.731   1.813  15.611  0.1504 -0.1956 -0.6125
  631MPD2    C5 9398   2.594   1.800  15.606  0.5922  0.4077  0.8703
  631MPD2     H 9399   2.794   1.811  15.278  0.5572  0.2127 -0.6493
  631MPD2    H1 9400   2.782   1.830  15.705  1.9015  0.2384 -1.6550
  631MPD2    H2 9401   2.420   1.793  15.491  0.0265 -1.6962 -1.0154
  631MPD2    H3 9402   2.534   1.819  15.694  1.3764  2.4637  0.9543
  631MPD2     N 9403   2.942   1.809  15.486 -0.1005 -0.3185  0.4821
  631MPD2    H5 9404   2.981   1.806  15.392 -1.5714  2.3390 -0.2106
  631MPD2    N1 9405   2.515   1.787  15.255  0.0472  0.2250  0.1429
  631MPD2    H7 9406   2.415   1.780  15.271  0.2025  1.4717  1.6805
  632TMC3    C1 9407   2.433   1.806  15.045 -0.0465 -0.1567 -0.4566
  632TMC3    C2 9408   2.334   1.727  15.092  0.2925  0.5554 -0.0534
  632TMC3    C3 9409   2.203   1.761  15.067  0.1502  0.0125  0.8724
  632TMC3    C4 9410   2.404   1.928  14.996  0.7936 -0.0080  0.0391
  632TMC3    C5 9411   2.272   1.959  14.973 -0.5195 -0.2185  0.0420
  632TMC3    C6 9412   2.169   1.881  15.007 -0.1281  0.1003 -0.1964
  632TMC3     C 9413   2.553   1.803  15.127  0.3914  0.0279 -0.6673
  632TMC3     O 9414   2.657   1.850  15.079  0.0657 -0.1384 -0.5225
  632TMC3     H 9415   2.359   1.635  15.143  0.5177  0.5468 -0.1829
  632TMC3    H1 9416   2.471   2.012  15.001 -3.0517  2.9437  2.0403
  632TMC3    H2 9417   2.069   1.920  14.990 -0.6138 -1.1390 -0.1830
  632TMC3    C7 9418   2.232   2.101  14.966 -0.0570 -0.5657  0.1221
  632TMC3    C8 9419   2.100   1.712  15.158  1.2033 -0.6195 -0.1033
  632TMC3    O1 9420   2.137   2.133  15.037 -0.6573 -0.3714 -0.7002
  632TMC3    O2 9421   2.006   1.787  15.190 -0.0079  0.3487  0.2210
  633MPD2     C 9422   1.899   0.107  17.386 -0.1128  0.8870  1.0217
  633MPD2    C1 9423   1.992   0.062  17.291 -0.0936 -0.3130 -0.0835
  633MPD2    C2 9424   1.977   4.672  17.243 -0.0011  0.6348  0.2433
  633MPD2    C3 9425   1.872   4.594  17.270  0.6982 -0.0903  0.2922
  633MPD2    C4 9426   1.776   4.642  17.355 -0.1503  1.1252 -0.1642
  633MPD2    C5 9427   1.793   0.031  17.410 -0.3109  0.2802 -0.4994
  633MPD2     H 9428   2.052   4.640  17.172 -0.1214 -3.4232  1.9674
  633MPD2    H1 9429   1.688   4.584  17.380  1.1747 -0.4732  0.7308
  633MPD2    H2 9430   1.901   0.211  17.419  0.5765  0.6361  1.7777
  633MPD2    H3 9431   1.721   0.064  17.484 -0.5047  0.9059 -0.9650
  633MPD2     N 9432   1.867   4.464  17.208 -0.2356 -0.3829 -0.2792
  633MPD2    H5 9433   1.957   4.435  17.170 -1.3814 -2.3228 -1.4956
  633MPD2    N1 9434   2.118   0.130  17.269 -0.0674  0.3532 -0.1460
  633MPD2    H7 9435   2.166   0.101  17.185 -0.1964 -1.2437  0.3344
  634TMC3    C1 9436   2.283   0.307  17.280 -0.2009  0.2664  0.3989
  634TMC3    C2 9437   2.376   0.223  17.212 -0.0658 -0.0051 -0.2034
  634TMC3    C3 9438   2.473   0.286  17.139 -0.7595  1.0565  0.4920
  634TMC3    C4 9439   2.277   0.445  17.264 -0.2230  0.3393  0.1204
  634TMC3    C5 9440   2.374   0.502  17.194  0.4929  0.4570 -0.1402
  634TMC3    C6 9441   2.471   0.426  17.139 -0.0136  0.1207  0.5135
  634TMC3     C 9442   2.159   0.248  17.333 -0.1384 -0.0608  0.2763
  634TMC3     O 9443   2.104   0.300  17.433 -0.0621 -0.0527 -0.2526
  634TMC3     H 9444   2.380   0.115  17.219 -0.8675 -0.1964 -2.4055
  634TMC3    H1 9445   2.195   0.504  17.302 -2.4565 -1.5829 -1.6885
  634TMC3    H2 9446   2.552   0.478  17.087 -0.9201  2.6262  1.6514
  634TMC3    C7 9447   2.366   0.634  17.136  0.9684  0.4292  0.3596
  634TMC3    C8 9448   2.541   0.207  17.027 -0.1614  0.3776  0.7122
  634TMC3    O1 9449   2.407   0.633  17.021  0.0190 -0.4669 -0.0379
  634TMC3    O2 9450   2.531   0.083  17.026  0.0390  0.3862 -0.2029
  635TMC3    C1 9451   3.358   0.977   0.489  0.7674  0.6894 -0.3577
  635TMC3    C2 9452   3.297   0.884   0.410 -0.7718 -0.4810  0.3701
  635TMC3    C3 9453   3.253   0.773   0.472 -0.1152  0.4466 -0.3526
  635TMC3    C4 9454   3.375   0.967   0.621 -0.1388  0.1110  0.5797
  635TMC3    C5 9455   3.332   0.854   0.683 -0.6901  0.3218  0.5062
  635TMC3    C6 9456   3.268   0.756   0.610 -0.1656 -0.0131  0.9289
  635TMC3     C 9457   3.411   1.100   0.426  0.0605  0.5359  0.1634
  635TMC3     O 9458   3.488   1.170   0.492 -0.2030  0.0886  0.5634
  635TMC3     H 9459   3.288   0.896   0.303  2.8441 -1.2069 -0.0091
  635TMC3    H1 9460   3.416   1.049   0.678  0.4692 -1.1133  1.9047
  635TMC3    H2 9461   3.228   0.665   0.652 -1.3731  0.0641 -0.0223
  635TMC3    C7 9462   3.289   0.871   0.819 -0.0228 -0.7254  1.0368
  635TMC3    C8 9463   3.204   0.654   0.402 -0.5311  0.4086  0.7332
  635TMC3    O1 9464   3.192   0.813   0.854 -0.0525  0.0080 -0.1551
  635TMC3    O2 9465   3.187   0.548   0.464 -0.1584 -0.6936 -1.2108
  636MPD2     C 9466   3.596   0.828  15.982 -0.2158 -0.1033  0.6347
  636MPD2    C1 9467   3.585   0.855  16.123 -0.8564 -0.5135  0.3867
  636MPD2    C2 9468   3.637   0.766  16.212 -0.3702  0.5662  0.5255
  636MPD2    C3 9469   3.682   0.636  16.172  0.1308  0.1363  0.2903
  636MPD2    C4 9470   3.686   0.613  16.035 -0.0728 -0.1021 -0.1335
  636MPD2    C5 9471   3.659   0.708  15.945  0.4615  0.7331 -0.0578
  636MPD2     H 9472   3.622   0.781  16.318 -0.4404  2.2970  0.2753
  636MPD2    H1 9473   3.707   0.515  15.993  2.7323  1.3308 -2.0138
  636MPD2    H2 9474   3.551   0.885  15.902  1.5770  1.2680  0.6037
  636MPD2    H3 9475   3.657   0.682  15.840  1.0318 -0.4646  0.2345
  636MPD2     N 9476   3.718   0.536  16.267 -0.1200 -0.2324  0.4600
  636MPD2    H5 9477   3.725   0.572  16.361 -0.9302 -0.0610  0.4544
  636MPD2    N1 9478   3.535   0.977  16.174 -0.5306  0.2787  0.8137
  636MPD2    H7 9479   3.554   0.989  16.273 -0.2298  0.4564  0.7326
  637TMC3    C1 9480   3.741   0.333  16.370  0.5237 -0.5940  0.4877
  637TMC3    C2 9481   3.684   0.405  16.467  0.1307 -0.5141  0.3789
  637TMC3    C3 9482   3.754   0.430  16.575  0.5830 -0.0910 -0.6107
  637TMC3    C4 9483   3.854   0.267  16.382  0.6903  0.8031 -0.6242
  637TMC3    C5 9484   3.929   0.298  16.495 -0.0779 -0.3179 -0.3295
  637TMC3    C6 9485   3.880   0.370  16.598  0.3675 -0.0251 -0.4158
  637TMC3     C 9486   3.743   0.397  16.244  0.2514 -0.3853  0.0114
  637TMC3     O 9487   3.774   0.341  16.140 -0.2988  0.4535  0.1735
  637TMC3     H 9488   3.581   0.434  16.450  0.4441  1.4814  1.9245
  637TMC3    H1 9489   3.892   0.192  16.314 -0.5161  1.5571 -2.1413
  637TMC3    H2 9490   3.953   0.398  16.673 -1.0599 -0.3643  1.1020
  637TMC3    C7 9491   4.052   0.226  16.523 -0.3793  0.2388  0.5352
  637TMC3    C8 9492   3.731   0.559  16.627 -1.1410  0.4628 -0.4080
  637TMC3    O1 9493   4.057   0.189  16.641  0.2139  0.7400 -0.4486
  637TMC3    O2 9494   3.677   0.631  16.544  0.3389  0.4012 -0.5005
  638MPD2     C 9495   3.827   4.307  15.073  0.2551 -0.5760 -0.3294
  638MPD2    C1 9496   3.745   4.249  14.976 -0.6377 -0.4404 -0.0316
  638MPD2    C2 9497   3.619   4.201  15.006 -0.0573  0.6558  0.8007
  638MPD2    C3 9498   3.579   4.204  15.139  0.3035 -0.2018  0.0334
  638MPD2    C4 9499   3.665   4.252  15.233 -0.4909 -0.3070  0.3306
  638MPD2    C5 9500   3.782   4.314  15.196  0.3220 -0.2610 -0.3535
  638MPD2     H 9501   3.555   4.173  14.922 -1.6928  2.3393  1.4899
  638MPD2    H1 9502   3.631   4.259  15.336  1.3278  0.3501  0.8786
  638MPD2    H2 9503   3.920   4.359  15.054 -1.4574  2.4016 -0.5389
  638MPD2    H3 9504   3.836   4.372  15.270  2.0826 -2.0422 -0.2470
  638MPD2     N 9505   3.455   4.149  15.187  0.0813 -0.0090  0.4404
  638MPD2    H5 9506   3.447   4.137  15.287 -1.7909  0.3631  0.3338
  638MPD2    N1 9507   3.793   4.253  14.841  0.1566 -0.0623  0.3753
  638MPD2    H7 9508   3.890   4.277  14.822 -0.5612 -0.0751 -3.2693
  639TMC3    C1 9509   3.263   4.015  15.182  0.1553 -0.0966  0.3932
  639TMC3    C2 9510   3.130   4.009  15.138  0.4196 -0.4057 -0.3546
  639TMC3    C3 9511   3.047   3.924  15.210 -0.7739  0.1382  0.5065
  639TMC3    C4 9512   3.313   3.930  15.277 -0.4526 -0.0533 -0.0122
  639TMC3    C5 9513   3.229   3.857  15.352  0.1951 -0.1705 -0.6216
  639TMC3    C6 9514   3.092   3.854  15.327 -0.1609  0.6775 -0.8014
  639TMC3     C 9515   3.354   4.102  15.108  0.3564 -0.0064  0.2147
  639TMC3     O 9516   3.339   4.096  14.988 -0.2174  0.3969  0.7884
  639TMC3     H 9517   3.095   4.071  15.056 -0.3213  0.7472  0.8421
  639TMC3    H1 9518   3.419   3.932  15.300 -0.4987  2.1516  0.0504
  639TMC3    H2 9519   3.031   3.780  15.378  0.1698  0.8529 -0.1506
  639TMC3    C7 9520   3.284   3.740  15.416 -0.1198  0.0643  0.1403
  639TMC3    C8 9521   2.946   3.847  15.134 -0.5500 -0.8922  0.1991
  639TMC3    O1 9522   3.196   3.676  15.474 -1.1765 -0.5803  0.1728
  639TMC3    O2 9523   2.951   3.862  15.013 -0.8511  0.2999  0.1309
  640MPD2     C 9524   3.811   2.891  10.270  0.1827  0.4178  0.3547
  640MPD2    C1 9525   3.756   2.935  10.153 -0.0324 -0.6358 -0.6243
  640MPD2    C2 9526   3.665   3.037  10.156 -0.8193  0.6705  0.5277
  640MPD2    C3 9527   3.626   3.090  10.277  0.3759  0.1773 -0.4182
  640MPD2    C4 9528   3.668   3.027  10.395  0.4827 -0.3359  0.2946
  640MPD2    C5 9529   3.759   2.923  10.391 -0.0061  0.1536 -0.1798
  640MPD2     H 9530   3.623   3.077  10.064 -2.1606  0.6752  1.1500
  640MPD2    H1 9531   3.636   3.059  10.494  1.2771  1.4663 -0.0169
  640MPD2    H2 9532   3.895   2.825  10.256 -1.2235 -1.9255  2.9081
  640MPD2    H3 9533   3.810   2.896  10.482  1.6562  0.4093 -1.0270
  640MPD2     N 9534   3.521   3.185  10.284 -0.6138  0.2035 -0.8838
  640MPD2    H5 9535   3.463   3.190  10.200  1.1375 -0.4708 -2.1343
  640MPD2    N1 9536   3.807   2.870  10.039  0.4859  0.4290 -0.7893
  640MPD2    H7 9537   3.844   2.777  10.052 -1.9205 -0.3393  0.5484
  641TMC3    C1 9538   3.857   2.822   9.816  0.2863 -0.2262  0.1923
  641TMC3    C2 9539   3.966   2.750   9.844 -0.3903  0.7815 -0.5209
  641TMC3    C3 9540   4.026   2.684   9.740 -0.1070  0.5169 -0.4277
  641TMC3    C4 9541   3.834   2.860   9.685 -0.2159 -0.5126 -0.2637
  641TMC3    C5 9542   3.903   2.809   9.579  1.0109 -0.4318 -0.1234
  641TMC3    C6 9543   3.998   2.713   9.608  0.1594  0.7588  0.2274
  641TMC3     C 9544   3.786   2.901   9.909 -0.4197  0.2821 -0.7746
  641TMC3     O 9545   3.719   2.990   9.866  0.2351  0.4038  0.1883
  641TMC3     H 9546   4.000   2.735   9.946  0.0856 -0.7366 -0.9114
  641TMC3    H1 9547   3.746   2.921   9.669  0.0795  0.4363  1.7201
  641TMC3    H2 9548   4.044   2.653   9.531  0.1880 -1.7776  2.2002
  641TMC3    C7 9549   3.879   2.840   9.436  0.4312 -0.3705 -0.7309
  641TMC3    C8 9550   4.158   2.621   9.757  0.8058  0.5030  0.0188
  641TMC3    O1 9551   3.936   2.765   9.360  0.1543  0.0549  0.3114
  641TMC3    O2 9552   4.225   2.597   9.658  0.3049  0.0934  0.4087
  642TMC3    C1 9553   0.616   4.288  12.279  0.3677  0.0840 -0.2975
  642TMC3    C2 9554   0.662   4.324  12.404  0.8552 -0.0139 -0.0494
  642TMC3    C3 9555   0.679   4.223  12.499 -0.4932  0.1498 -0.2715
  642TMC3    C4 9556   0.575   4.161  12.256  0.7280  0.3875  0.0729
  642TMC3    C5 9557   0.577   4.069  12.356  0.1084 -0.1440  0.3065
  642TMC3    C6 9558   0.639   4.093  12.482  0.0292 -0.7025  0.2721
  642TMC3     C 9559   0.513   4.376  12.242  0.0831 -0.8134 -0.2013
  642TMC3     O 9560   0.408   4.337  12.192  0.5447 -0.9020 -0.0716
  642TMC3     H 9561   0.674   4.428  12.430  0.3383 -0.2698  1.1993
  642TMC3    H1 9562   0.526   4.134  12.163 -1.4695 -0.7911  1.5460
  642TMC3    H2 9563   0.655   4.016  12.557 -1.7165 -1.5840 -0.2620
  642TMC3    C7 9564   0.504   3.946  12.324 -0.3460  0.2223 -0.1316
  642TMC3    C8 9565   0.763   4.257  12.616 -0.7338  0.5493 -0.6761
  642TMC3    O1 9566   0.471   3.923  12.208 -0.4452 -0.1134  0.4898
  642TMC3    O2 9567   0.756   4.179  12.711 -0.0779 -0.2262 -0.0846
  643TMC3    C1 9568   4.417   2.805   0.072 -0.3547 -0.4894 -0.2480
  643TMC3    C2 9569   4.312   2.864   0.009  0.1871 -0.2376 -0.4390
  643TMC3    C3 9570   4.298   2.844  17.618  0.0761  0.6767  0.3537
  643TMC3    C4 9571   4.516   2.729   0.003  0.4778 -0.3675  0.8548
  643TMC3    C5 9572   4.491   2.709  17.612 -0.7500  0.0135  0.7316
  643TMC3    C6 9573   4.376   2.750  17.553 -0.0229  0.7928  0.2690
  643TMC3     C 9574   4.461   2.879   0.184  0.5717  0.0341  0.4118
  643TMC3     O 9575   4.408   2.987   0.212  0.9872  0.0633  0.0984
  643TMC3     H 9576   4.252   2.940   0.057 -0.5275 -1.9653  1.4183
  643TMC3    H1 9577   4.607   2.693   0.050 -0.2156 -1.6363  1.2205
  643TMC3    H2 9578   4.358   2.730  17.449 -3.1793 -2.8190  1.5261
  643TMC3    C7 9579   4.557   2.598  17.549 -0.4124  0.0306  0.6395
  643TMC3    C8 9580   4.245   2.952  17.542  0.3794 -0.5539 -0.3428
  643TMC3    O1 9581   4.579   2.502  17.622  0.1596  0.6692  0.3395
  643TMC3    O2 9582   4.223   2.927  17.424  0.1383 -0.2254  0.0843
  644MPD2     C 9583   3.745   3.408   9.212  0.2138 -0.2692  0.6479
  644MPD2    C1 9584   3.784   3.423   9.344  0.6813  0.2870  0.2129
  644MPD2    C2 9585   3.739   3.527   9.429 -0.3005  0.0073 -0.6728
  644MPD2    C3 9586   3.642   3.613   9.381 -0.3488 -0.5672 -0.0642
  644MPD2    C4 9587   3.610   3.602   9.246 -0.0379  0.1466 -0.1196
  644MPD2    C5 9588   3.660   3.504   9.166  0.1576  0.2926  0.3224
  644MPD2     H 9589   3.758   3.527   9.536  1.1108 -0.3829 -0.9346
  644MPD2    H1 9590   3.543   3.673   9.197 -0.0371  1.0316  1.1524
  644MPD2    H2 9591   3.782   3.330   9.146 -0.2262  0.8885 -0.9690
  644MPD2    H3 9592   3.645   3.501   9.059  0.4389 -1.2190  0.3266
  644MPD2     N 9593   3.585   3.709   9.470 -0.1938 -0.3558  0.5356
  644MPD2    H5 9594   3.623   3.716   9.564  1.0668 -2.4156  0.1893
  644MPD2    N1 9595   3.870   3.325   9.392  0.2061  0.7807 -0.3420
  644MPD2    H7 9596   3.884   3.242   9.335  1.1594  1.1875 -0.6968
  645TMC3    C1 9597   3.471   3.878   9.568  0.1564 -0.3727  0.6423
  645TMC3    C2 9598   3.584   3.921   9.638 -0.1289 -0.1384 -0.5618
  645TMC3    C3 9599   3.554   3.993   9.753  0.0599 -0.2871 -0.0589
  645TMC3    C4 9600   3.336   3.897   9.602 -0.2723  0.1251 -0.1019
  645TMC3    C5 9601   3.323   3.979   9.711 -0.4939  0.2737 -0.5296
  645TMC3    C6 9602   3.422   4.013   9.793  0.3693  0.5104 -0.0571
  645TMC3     C 9603   3.483   3.797   9.446  1.0535 -0.3578 -0.1177
  645TMC3     O 9604   3.399   3.800   9.355  0.6067  0.2511 -0.2182
  645TMC3     H 9605   3.687   3.907   9.605 -0.1924 -0.2995 -0.6954
  645TMC3    H1 9606   3.254   3.868   9.538 -0.7432 -0.5234  0.7994
  645TMC3    H2 9607   3.399   4.063   9.887  3.3998  0.9580  0.4701
  645TMC3    C7 9608   3.190   4.016   9.755  0.3316  0.2038 -1.3093
  645TMC3    C8 9609   3.650   4.089   9.802 -0.1595 -0.2292 -0.2413
  645TMC3    O1 9610   3.176   4.136   9.793 -0.8601 -0.1616 -0.8645
  645TMC3    O2 9611   3.607   4.196   9.846  0.1281 -0.0002  0.6137
  646MPD2     C 9612   3.564   2.619  14.655  0.8085  0.7221  0.6930
  646MPD2    C1 9613   3.525   2.658  14.777 -0.3897 -0.1555 -0.6454
  646MPD2    C2 9614   3.426   2.753  14.794 -0.6101  0.2585 -0.7333
  646MPD2    C3 9615   3.373   2.822  14.690 -0.1318 -0.2413  0.7498
  646MPD2    C4 9616   3.412   2.773  14.567  0.2365  0.4481 -0.7653
  646MPD2    C5 9617   3.500   2.667  14.547  0.0334  0.2034 -0.0556
  646MPD2     H 9618   3.379   2.776  14.889  0.8854 -0.1091  0.1106
  646MPD2    H1 9619   3.361   2.808  14.477  0.2600 -3.0049 -2.1235
  646MPD2    H2 9620   3.647   2.551  14.639  1.3289  1.4634  0.2689
  646MPD2    H3 9621   3.538   2.650  14.447  0.7708 -2.3306  0.6568
  646MPD2     N 9622   3.277   2.928  14.702  0.2211 -0.0920  0.3702
  646MPD2    H5 9623   3.244   2.951  14.796  0.3182 -2.2314  0.9147
  646MPD2    N1 9624   3.598   2.597  14.882 -0.1156  0.3024 -0.3123
  646MPD2    H7 9625   3.676   2.542  14.848  0.7867  2.2688 -1.4255
  647TMC3    C1 9626   3.632   2.519  15.107  0.0990 -0.1346  0.1917
  647TMC3    C2 9627   3.557   2.482  15.223 -0.0795  0.0738 -0.4914
  647TMC3    C3 9628   3.622   2.412  15.321  0.2549  0.1432  0.2689
  647TMC3    C4 9629   3.753   2.464  15.082  0.7397  0.3891  0.3985
  647TMC3    C5 9630   3.808   2.389  15.182  0.2069  0.2587 -0.7495
  647TMC3    C6 9631   3.753   2.370  15.304  0.1973 -0.6979  0.2388
  647TMC3     C 9632   3.570   2.617  15.021 -0.0347  0.1601  0.1243
  647TMC3     O 9633   3.477   2.669  15.075 -0.6479 -0.0177  0.2106
  647TMC3     H 9634   3.455   2.512  15.241  0.0767 -0.0487  0.5877
  647TMC3    H1 9635   3.799   2.471  14.984 -0.4320 -0.3085 -0.1947
  647TMC3    H2 9636   3.802   2.317  15.385 -1.4129 -0.0570  1.6295
  647TMC3    C7 9637   3.950   2.363  15.185  0.4762  0.0907  0.3762
  647TMC3    C8 9638   3.543   2.311  15.392  0.7205 -0.2211 -0.1939
  647TMC3    O1 9639   4.009   2.386  15.292  0.3726 -0.3287 -0.2037
  647TMC3    O2 9640   3.573   2.271  15.504 -0.2239 -0.5112  0.0580
  648TMC3    C1 9641   3.060   0.180  16.337 -0.1531  0.5275 -0.2819
  648TMC3    C2 9642   3.158   0.120  16.275  0.2044  0.4724  0.7072
  648TMC3    C3 9643   3.184   0.162  16.149 -0.0862  0.2678 -0.2483
  648TMC3    C4 9644   2.968   0.267  16.278 -0.8586 -0.5930  1.5077
  648TMC3    C5 9645   2.999   0.312  16.151 -0.0299 -0.4361 -0.1423
  648TMC3    C6 9646   3.104   0.253  16.082 -0.1652 -0.3122 -0.2690
  648TMC3     C 9647   3.047   0.170  16.477  0.4888  0.3490 -0.2282
  648TMC3     O 9648   2.999   0.265  16.540 -0.4001  0.1131  0.3806
  648TMC3     H 9649   3.230   0.050  16.316  0.0884 -0.4842 -0.7145
  648TMC3    H1 9650   2.885   0.306  16.335 -1.3275  0.0141  0.4220
  648TMC3    H2 9651   3.133   0.285  15.983  2.0479  1.8913  1.1074
  648TMC3    C7 9652   2.925   0.414  16.075  0.4542  0.2196  0.3148
  648TMC3    C8 9653   3.264   0.062  16.079  0.0528 -0.1444 -0.5738
  648TMC3    O1 9654   2.945   0.416  15.958  0.3097  0.0715  0.4238
  648TMC3    O2 9655   3.383   0.052  16.101 -0.1302 -0.3135 -0.2670
  649TMC3    C1 9656   1.695   0.968  13.466  0.8474 -0.0971 -0.0622
  649TMC3    C2 9657   1.824   1.017  13.486  0.9165 -0.3854 -0.8497
  649TMC3    C3 9658   1.901   0.959  13.580  0.5186 -0.0052 -0.0858
  649TMC3    C4 9659   1.645   0.880  13.556  0.5353  0.7764  0.4276
  649TMC3    C5 9660   1.722   0.825  13.653 -0.6923 -0.3702 -0.2036
  649TMC3    C6 9661   1.853   0.863  13.663  0.9807  0.4110  0.3410
  649TMC3     C 9662   1.599   1.061  13.405 -0.8191  0.5065 -0.3201
  649TMC3     O 9663   1.649   1.170  13.384 -0.0778  0.2567 -0.0810
  649TMC3     H 9664   1.860   1.084  13.408  1.4965  0.4919  0.1746
  649TMC3    H1 9665   1.540   0.852  13.555  0.3048  1.7137 -1.5940
  649TMC3    H2 9666   1.920   0.802  13.723  3.0127  3.5568  1.2507
  649TMC3    C7 9667   1.656   0.742  13.759  0.5408 -0.3822  0.6358
  649TMC3    C8 9668   2.034   1.013  13.612  0.1868  0.2650  0.0062
  649TMC3    O1 9669   1.548   0.691  13.738 -0.1947  0.1322  0.1209
  649TMC3    O2 9670   2.075   0.973  13.719  0.1634 -0.6760 -0.0354
  650TMC3    C1 9671   4.484   3.488  12.726 -0.1795  1.2756 -0.1502
  650TMC3    C2 9672   4.520   3.593  12.650  0.7163 -0.5848  0.4249
  650TMC3    C3 9673   4.428   3.645  12.564 -0.2575  0.7733  0.3949
  650TMC3    C4 9674   4.365   3.420  12.720  0.0281 -0.3623  0.4706
  650TMC3    C5 9675   4.271   3.487  12.646  0.8230  0.1974  0.1785
  650TMC3    C6 9676   4.299   3.600  12.566  0.4765 -0.0483 -0.1393
  650TMC3     C 9677   4.578   3.431  12.823  0.1393 -0.0483  0.0154
  650TMC3     O 9678   4.641   3.515  12.891  0.6526 -0.2468  0.2783
  650TMC3     H 9679   4.619   3.634  12.663  0.5014  0.0259  0.1340
  650TMC3    H1 9680   4.344   3.333  12.780 -0.3404  1.0168  2.3575
  650TMC3    H2 9681   4.220   3.661  12.525 -0.4930 -0.7055  0.7555
  650TMC3    C7 9682   4.143   3.416  12.628  0.0608 -0.2107 -0.1735
  650TMC3    C8 9683   4.451   3.760  12.488  0.2788  0.1873  0.0295
  650TMC3    O1 9684   4.135   3.306  12.679 -0.6881  0.0166  0.4510
  650TMC3    O2 9685   4.548   3.825  12.520  0.2357  0.3199  0.5167
  651MPD2     C 9686   3.140   0.744  10.583  0.4149  0.5146 -0.6439
  651MPD2    C1 9687   3.156   0.857  10.512  0.2841  0.2027  0.5238
  651MPD2    C2 9688   3.265   0.940  10.544  0.0678 -0.2208  0.3448
  651MPD2    C3 9689   3.349   0.899  10.644  0.0546 -0.0814  0.5044
  651MPD2    C4 9690   3.333   0.781  10.716  0.6735  0.6015  0.5519
  651MPD2    C5 9691   3.225   0.704  10.684  0.1094 -1.0356  1.0512
  651MPD2     H 9692   3.275   1.031  10.485 -0.7565  0.5910  1.4636
  651MPD2    H1 9693   3.405   0.750  10.791  0.4202  0.0701  0.5738
  651MPD2    H2 9694   3.057   0.677  10.567  1.4637 -0.8701 -0.3291
  651MPD2    H3 9695   3.200   0.611  10.734  0.1574 -2.0523 -0.8434
  651MPD2     N 9696   3.453   0.986  10.673  0.0133  0.5817  0.2068
  651MPD2    H5 9697   3.471   1.070  10.618 -1.3626  0.7845  0.0477
  651MPD2    N1 9698   3.072   0.901  10.411  0.0781  0.3185  0.7494
  651MPD2    H7 9699   3.110   0.984  10.368 -0.8217  0.2895 -0.0997
  652TMC3    C1 9700   3.848   1.147  10.834 -0.4212 -0.8190 -0.9865
  652TMC3    C2 9701   3.735   1.075  10.867 -0.3390  0.0772 -0.9001
  652TMC3    C3 9702   3.620   1.105  10.798 -0.0903 -0.3927  0.4253
  652TMC3    C4 9703   3.842   1.247  10.737 -0.2167 -0.1012 -0.7962
  652TMC3    C5 9704   3.719   1.265  10.667  0.9887  0.6663 -1.1768
  652TMC3    C6 9705   3.605   1.193  10.691 -0.1663 -0.0142 -0.0262
  652TMC3     C 9706   3.953   1.137  10.933 -0.0402 -1.0870 -1.1000
  652TMC3     O 9707   3.954   1.033  10.998 -0.1058  0.3442  0.1430
  652TMC3     H 9708   3.723   0.991  10.934 -0.2121  0.8840  0.1249
  652TMC3    H1 9709   3.936   1.298  10.719 -0.4274  0.5327 -0.1249
  652TMC3    H2 9710   3.505   1.220  10.662 -0.6463 -1.0573  0.6603
  652TMC3    C7 9711   3.736   1.297  10.524 -0.4166 -0.7556 -0.1530
  652TMC3    C8 9712   3.526   0.991  10.795  0.2026  0.0602  0.3480
  652TMC3    O1 9713   3.648   1.249  10.455 -0.6219 -0.3043 -0.0846
  652TMC3    O2 9714   3.507   0.922  10.892 -0.2255  0.2556  0.7616
  653MPD2     C 9715   2.046   4.635  17.721  0.6456  0.3143 -0.1569
  653MPD2    C1 9716   1.930   4.711  17.728  0.0945 -0.3912  0.4933
  653MPD2    C2 9717   1.809   4.644  17.718  0.4906 -0.8374 -0.7088
  653MPD2    C3 9718   1.804   4.508  17.691  0.6412 -0.6138  0.1287
  653MPD2    C4 9719   1.920   4.431  17.671  0.0020 -0.2321 -0.6123
  653MPD2    C5 9720   2.038   4.504  17.682 -0.7811  0.1639 -0.5120
  653MPD2     H 9721   1.717   4.701  17.723  0.7749 -0.5524  1.3201
  653MPD2    H1 9722   1.912   4.328  17.636  0.9975  0.0621 -1.7066
  653MPD2    H2 9723   2.140   4.689  17.727 -0.3411  1.7499  2.4683
  653MPD2    H3 9724   2.129   4.449  17.660 -2.0949 -3.3782  2.6643
  653MPD2     N 9725   1.675   4.451  17.671  0.2369 -0.5264  0.4483
  653MPD2    H5 9726   1.601   4.520  17.682 -0.0025 -0.2748 -2.8657
  653MPD2    N1 9727   1.938   0.113   0.015 -0.2418  0.1739  0.9494
  653MPD2    H7 9728   2.030   0.154   0.025 -0.8322  0.7715  3.8362
  654TMC3    C1 9729   1.507   4.325  17.577  0.3931 -0.6049  1.1993
  654TMC3    C2 9730   1.442   4.454  17.560  0.5694 -0.4275 -0.4316
  654TMC3    C3 9731   1.349   4.462  17.453  0.1372  0.1945 -0.0850
  654TMC3    C4 9732   1.481   4.224  17.493 -0.0706  0.3828  0.2950
  654TMC3    C5 9733   1.401   4.237  17.389  0.0918 -0.0263 -0.5088
  654TMC3    C6 9734   1.327   4.353  17.370 -0.0431 -0.3977  0.6189
  654TMC3     C 9735   1.643   4.324  17.627 -0.5823  0.4133  0.1441
  654TMC3     O 9736   1.701   4.218  17.627 -0.1456  0.1792  0.9043
  654TMC3     H 9737   1.459   4.538  17.626 -0.8609  0.5609 -1.3039
  654TMC3    H1 9738   1.546   4.138  17.509 -1.4329 -0.5269  0.9483
  654TMC3    H2 9739   1.255   4.370  17.290 -1.3353 -0.1648  1.8224
  654TMC3    C7 9740   1.420   4.162  17.263 -0.2827 -0.1225 -0.3864
  654TMC3    C8 9741   1.375   4.582  17.375  0.2894  0.4811  0.1485
  654TMC3    O1 9742   1.372   4.215  17.163  0.1900  0.2491  0.4120
  654TMC3    O2 9743   1.341   4.693  17.414  0.4038  0.3841  0.6969
  655MPD2     C 9744   3.431   0.386  16.037  0.6914  0.0193  0.0709
  655MPD2    C1 9745   3.366   0.503  16.008  0.2703 -0.0392  0.6529
  655MPD2    C2 9746   3.358   0.549  15.879 -0.3693  0.0654 -0.3550
  655MPD2    C3 9747   3.425   0.481  15.777  0.1819  0.3939 -0.7513
  655MPD2    C4 9748   3.483   0.364  15.802 -0.4874 -0.3359 -0.4579
  655MPD2    C5 9749   3.477   0.317  15.927 -0.1620 -0.2732 -0.0627
  655MPD2     H 9750   3.307   0.642  15.856 -0.6915  0.1356  0.6565
  655MPD2    H1 9751   3.538   0.303  15.730  0.3494 -0.0965 -0.0291
  655MPD2    H2 9752   3.451   0.349  16.136  0.6306  1.3353  0.5723
  655MPD2    H3 9753   3.533   0.225  15.945 -0.1978 -0.0365  1.2526
  655MPD2     N 9754   3.447   0.526  15.646 -0.5583  0.3269  0.3891
  655MPD2    H5 9755   3.484   0.451  15.588 -1.6176  1.8739 -2.2746
  655MPD2    N1 9756   3.320   0.586  16.113 -0.0909 -0.0805  0.1163
  655MPD2    H7 9757   3.288   0.680  16.090 -1.6695 -0.0740  2.2758
  656TMC3    C1 9758   3.266   0.680  16.311 -0.1351 -0.0965 -0.7039
  656TMC3    C2 9759   3.183   0.667  16.414  0.0748  0.6614 -0.7498
  656TMC3    C3 9760   3.089   0.768  16.425 -0.1165 -0.7152  0.7209
  656TMC3    C4 9761   3.269   0.787  16.226 -0.1065 -0.3722 -0.3065
  656TMC3    C5 9762   3.176   0.887  16.250  0.5933  0.5072  0.2167
  656TMC3    C6 9763   3.075   0.877  16.338  0.0006  0.2049  0.3177
  656TMC3     C 9764   3.300   0.559  16.244 -0.1075 -0.8451  0.0706
  656TMC3     O 9765   3.304   0.452  16.304  0.3731 -0.3344  0.0886
  656TMC3     H 9766   3.170   0.579  16.475  0.9154  0.4938 -0.8030
  656TMC3    H1 9767   3.352   0.801  16.158 -1.4087  2.0466 -1.3956
  656TMC3    H2 9768   2.989   0.943  16.343  1.3540  1.9862  0.4028
  656TMC3    C7 9769   3.135   0.941  16.122 -0.3565 -0.1487  0.2341
  656TMC3    C8 9770   2.976   0.739  16.511 -0.1737 -0.1089  0.1185
  656TMC3    O1 9771   3.197   0.897  16.027  0.5372 -0.5485  0.2209
  656TMC3    O2 9772   2.937   0.625  16.511  0.1823 -0.3177  0.2220
  657TMC3    C1 9773   2.347   0.171  15.006 -0.5620  0.8026 -0.0530
  657TMC3    C2 9774   2.409   0.216  15.121 -0.2118 -0.3850 -0.6096
  657TMC3    C3 9775   2.346   0.315  15.187  0.2463 -0.5805  0.0389
  657TMC3    C4 9776   2.224   0.220  14.970 -0.2407 -0.5923  0.5457
  657TMC3    C5 9777   2.165   0.327  15.041 -0.9596  0.1578  0.3448
  657TMC3    C6 9778   2.234   0.379  15.146 -0.0940 -0.4072 -0.6017
  657TMC3     C 9779   2.381   0.042  14.941  0.0111  0.2658  0.1110
  657TMC3     O 9780   2.344   0.037  14.823  0.1622  0.2627  0.3901
  657TMC3     H 9781   2.510   0.178  15.130 -0.1070  0.3224  1.1843
  657TMC3    H1 9782   2.164   0.175  14.892 -0.6735 -2.1947  1.8284
  657TMC3    H2 9783   2.191   0.456  15.209 -0.4334 -1.1057  0.0311
  657TMC3    C7 9784   2.048   0.398  14.991  0.6531  0.0450  0.6547
  657TMC3    C8 9785   2.409   0.363  15.311  0.0808 -0.7884  0.4679
  657TMC3    O1 9786   1.971   0.325  14.936 -0.2050  0.2254 -0.4996
  657TMC3    O2 9787   2.401   0.479  15.344 -0.0227  0.3472 -0.2347
  658MPD2     C 9788   3.802   0.257  15.251 -0.1513  0.5247 -0.1112
  658MPD2    C1 9789   3.775   0.362  15.170  0.0402 -0.3045  0.6027
  658MPD2    C2 9790   3.814   0.365  15.035 -0.7119  0.5208 -0.2671
  658MPD2    C3 9791   3.907   0.267  14.993 -0.4553  1.1398 -0.0430
  658MPD2    C4 9792   3.953   0.172  15.078  0.4013 -0.1142  0.0874
  658MPD2    C5 9793   3.887   0.156  15.200  0.4967  0.7397 -0.2768
  658MPD2     H 9794   3.784   0.447  14.970 -0.7096 -0.4886 -1.5565
  658MPD2    H1 9795   4.026   0.095  15.059 -2.0013 -1.5894 -3.1459
  658MPD2    H2 9796   3.764   0.239  15.350 -0.3118  0.8908 -0.1042
  658MPD2    H3 9797   3.911   0.073  15.265  3.1237 -1.0708 -3.5518
  658MPD2     N 9798   3.959   0.269  14.858 -0.0324  0.1775 -0.1691
  658MPD2    H5 9799   3.905   0.320  14.788  0.6662  0.6497 -0.3623
  658MPD2    N1 9800   3.675   0.445  15.220 -0.7959  0.4181  0.1031
  658MPD2    H7 9801   3.635   0.414  15.308  1.1834  0.8700  1.1730
  659TMC3    C1 9802   3.543   0.639  15.252  0.0722 -0.1619  0.4043
  659TMC3    C2 9803   3.534   0.608  15.389 -0.2676 -0.1364  0.5122
  659TMC3    C3 9804   3.420   0.658  15.447 -0.3146  0.1116 -0.2751
  659TMC3    C4 9805   3.447   0.719  15.190 -0.0179 -0.1252  0.3224
  659TMC3    C5 9806   3.334   0.768  15.256 -0.0421 -1.2141 -0.1716
  659TMC3    C6 9807   3.325   0.737  15.386  0.6102 -0.1710 -0.2954
  659TMC3     C 9808   3.628   0.558  15.161  0.5208  1.0495 -0.8196
  659TMC3     O 9809   3.666   0.613  15.062 -0.7347 -0.2658 -0.3908
  659TMC3     H 9810   3.609   0.550  15.440 -0.5209 -0.5111  0.4608
  659TMC3    H1 9811   3.458   0.761  15.091  0.8835  0.5749  0.7249
  659TMC3    H2 9812   3.234   0.765  15.438  0.1032 -2.0944 -0.1524
  659TMC3    C7 9813   3.207   0.770  15.181  0.6766  0.2998  0.0985
  659TMC3    C8 9814   3.399   0.646  15.595 -0.4670  0.1297 -0.6334
  659TMC3    O1 9815   3.103   0.762  15.245 -0.1863 -0.7683 -0.1534
  659TMC3    O2 9816   3.339   0.738  15.655 -0.5169  0.6137  0.5071
  660MPD2     C 9817   1.637   4.274  12.537  0.6094  0.4776 -0.1415
  660MPD2    C1 9818   1.508   4.316  12.514  0.5620 -0.6639  0.3046
  660MPD2    C2 9819   1.405   4.255  12.586  0.0270  0.0635 -0.0525
  660MPD2    C3 9820   1.441   4.144  12.667 -0.7210 -0.0917  0.2329
  660MPD2    C4 9821   1.574   4.109  12.690 -0.3989  0.2394  0.2213
  660MPD2    C5 9822   1.673   4.173  12.623  0.0270  0.3283 -0.2177
  660MPD2     H 9823   1.301   4.272  12.560  0.3189  0.3948 -0.9925
  660MPD2    H1 9824   1.594   4.019  12.747  2.4330  1.1141  0.5872
  660MPD2    H2 9825   1.716   4.316  12.476  0.0739 -1.2920 -2.0713
  660MPD2    H3 9826   1.776   4.140  12.637 -0.6148 -0.9016  1.5845
  660MPD2     N 9827   1.346   4.054  12.722 -0.3985 -0.1072 -0.6552
  660MPD2    H5 9828   1.392   3.984  12.780  1.0494  1.6734  0.3183
  660MPD2    N1 9829   1.491   4.422  12.423 -0.0885  0.9539  0.2012
  660MPD2    H7 9830   1.567   4.445  12.360  0.7861 -2.7124 -0.0778
  661TMC3    C1 9831   1.398   4.622  12.322  0.3741  0.7098  0.3197
  661TMC3    C2 9832   1.517   4.663  12.266 -0.3939  0.5026 -0.7600
  661TMC3    C3 9833   1.516   0.027  12.180  0.8936 -0.5648  0.1574
  661TMC3    C4 9834   1.281   4.672  12.279 -0.3615  0.4217 -0.7536
  661TMC3    C5 9835   1.284   0.036  12.194 -0.1483 -0.1075  0.4687
  661TMC3    C6 9836   1.396   0.085  12.143 -0.8933 -0.5327 -0.3300
  661TMC3     C 9837   1.377   4.500  12.406  0.4023  0.8288  0.0394
  661TMC3     O 9838   1.269   4.480  12.461 -0.3997 -0.3727  0.1572
  661TMC3     H 9839   1.609   4.641  12.318 -0.7092  1.5876  0.2687
  661TMC3    H1 9840   1.189   4.639  12.327  0.5475 -0.4370  0.3680
  661TMC3    H2 9841   1.394   0.162  12.066 -1.8672 -0.5509 -0.3313
  661TMC3    C7 9842   1.160   0.065  12.121  0.2142  0.1536  0.4981
  661TMC3    C8 9843   1.625   0.040  12.085  0.0089 -1.0641  0.0097
  661TMC3    O1 9844   1.127   0.173  12.077  0.4474 -0.0306 -0.4348
  661TMC3    O2 9845   1.632   0.147  12.027 -0.2547 -0.1532 -0.2280
  662MPD2     C 9846   1.579   3.540   0.268 -0.3495  0.1947  0.0462
  662MPD2    C1 9847   1.479   3.448   0.239  0.1769 -0.2302 -0.1862
  662MPD2    C2 9848   1.362   3.504   0.193  0.2183  0.2861 -0.0285
  662MPD2    C3 9849   1.352   3.638   0.150  0.4484  0.5442  0.8948
  662MPD2    C4 9850   1.460   3.723   0.164 -0.1227  0.0944 -0.3105
  662MPD2    C5 9851   1.571   3.672   0.233  0.0154 -0.0351 -0.0083
  662MPD2     H 9852   1.282   3.432   0.187  0.9854 -0.7725  2.4084
  662MPD2    H1 9853   1.445   3.830   0.154 -0.1545  0.0122 -1.1764
  662MPD2    H2 9854   1.670   3.497   0.307 -0.1276 -1.3188 -2.1362
  662MPD2    H3 9855   1.657   3.736   0.245 -0.9819  0.8736  2.4407
  662MPD2     N 9856   1.232   3.686   0.095 -0.0814  0.4486 -0.1551
  662MPD2    H5 9857   1.229   3.785   0.075  0.3289  0.9648  2.3942
  662MPD2    N1 9858   1.471   3.310   0.279 -0.1148 -0.1226 -0.1106
  662MPD2    H7 9859   1.376   3.277   0.288 -0.1002  0.1363  1.0971
  663TMC3    C1 9860   1.554   3.092   0.320  0.0966  0.3697  0.3383
  663TMC3    C2 9861   1.663   3.011   0.351 -1.3801 -0.0391  0.3782
  663TMC3    C3 9862   1.686   2.872   0.327 -0.4329  0.1051 -0.4605
  663TMC3    C4 9863   1.450   3.034   0.266 -0.3835 -0.1825 -0.9045
  663TMC3    C5 9864   1.462   2.893   0.245 -0.6992  0.7820 -0.7293
  663TMC3    C6 9865   1.569   2.820   0.283  0.4472 -0.5950 -0.0082
  663TMC3     C 9866   1.577   3.235   0.324  0.0697  0.1317  0.4209
  663TMC3     O 9867   1.681   3.279   0.365  0.1637  0.1162 -0.7338
  663TMC3     H 9868   1.734   3.055   0.421 -2.2047 -0.2496  1.3512
  663TMC3    H1 9869   1.361   3.086   0.232 -1.0490  0.7381  2.1738
  663TMC3    H2 9870   1.562   2.712   0.295 -2.1123 -0.1869  1.9440
  663TMC3    C7 9871   1.340   2.828   0.200 -0.4582 -0.1478 -0.4694
  663TMC3    C8 9872   1.734   2.813   0.449  0.5009  0.1423  0.9020
  663TMC3    O1 9873   1.234   2.883   0.227  0.3240  0.4612  0.0083
  663TMC3    O2 9874   1.650   2.749   0.512  0.7509  0.2561 -0.3772
  664MPD2     C 9875   4.355   1.671  17.677 -0.9614 -0.6476  0.7255
  664MPD2    C1 9876   4.488   1.665  17.712 -0.1373  0.4986 -0.4545
  664MPD2    C2 9877   4.532   1.566   0.053  0.1633 -0.1685 -0.3753
  664MPD2    C3 9878   4.451   1.473   0.105  0.6616 -0.3389  0.4752
  664MPD2    C4 9879   4.319   1.475   0.070  0.3357  0.2175  0.5311
  664MPD2    C5 9880   4.271   1.567  17.718  0.0174 -0.0702 -0.1196
  664MPD2     H 9881   4.637   1.564   0.083  0.4449 -0.9493 -1.4097
  664MPD2    H1 9882   4.249   1.407   0.118 -0.3403  0.5177 -0.0169
  664MPD2    H2 9883   4.318   1.736  17.599 -3.3828 -1.9353  0.8298
  664MPD2    H3 9884   4.166   1.556  17.692  0.0703 -0.3656 -0.2010
  664MPD2     N 9885   4.508   1.388   0.207  0.2955 -0.0502 -0.3999
  664MPD2    H5 9886   4.603   1.409   0.235  0.4021  0.3048 -1.0251
  664MPD2    N1 9887   4.588   1.751  17.661  0.4273  0.6334 -0.4311
  664MPD2    H7 9888   4.686   1.728  17.673  0.0398  0.5879  2.6735
  665TMC3    C1 9889   4.527   1.231   0.376 -0.3225 -0.5671 -0.7477
  665TMC3    C2 9890   4.467   1.213   0.500 -0.0178 -0.3442 -0.5395
  665TMC3    C3 9891   4.537   1.248   0.614  0.4812 -0.1212 -0.4266
  665TMC3    C4 9892   4.661   1.262   0.358 -0.0466 -0.0972 -0.0435
  665TMC3    C5 9893   4.732   1.292   0.474 -0.4188 -0.4169 -0.3599
  665TMC3    C6 9894   4.665   1.291   0.600 -0.1386  0.2060  0.0593
  665TMC3     C 9895   4.446   1.291   0.280 -0.1070  0.1163  0.6781
  665TMC3     O 9896   4.332   1.250   0.273 -0.2558  0.0490  0.2445
  665TMC3     H 9897   4.362   1.188   0.506 -0.6784  2.4939 -0.2500
  665TMC3    H1 9898   4.709   1.269   0.261  1.6154 -5.1735  0.4238
  665TMC3    H2 9899   4.720   1.319   0.689  1.3574 -2.2567 -0.0960
  665TMC3    C7 9900   0.081   1.407   0.453 -0.0392 -0.8913 -0.4935
  665TMC3    C8 9901   4.469   1.269   0.736 -0.4631 -0.5849  0.0810
  665TMC3    O1 9902   0.064   1.459   0.345 -0.6874  0.7923  0.0032
  665TMC3    O2 9903   4.519   1.350   0.813  0.5522  0.7860  0.2318
  666TMC3    C1 9904   3.991   2.108   9.568 -0.7106  0.1896 -0.2975
  666TMC3    C2 9905   4.097   2.161   9.492  0.4508  0.7303  0.2090
  666TMC3    C3 9906   4.092   2.293   9.464 -0.0688  0.6143  0.0894
  666TMC3    C4 9907   3.878   2.180   9.600 -0.1498 -0.7164 -0.3726
  666TMC3    C5 9908   3.871   2.306   9.552 -0.0081 -0.0926  0.5370
  666TMC3    C6 9909   3.972   2.366   9.480  0.4705  0.2017  0.3359
  666TMC3     C 9910   4.007   1.975   9.626 -0.0115 -0.6702 -0.9393
  666TMC3     O 9911   4.122   1.928   9.613 -0.4647 -0.4327  0.2446
  666TMC3     H 9912   4.188   2.106   9.473 -1.1879 -1.6022 -0.8810
  666TMC3    H1 9913   3.801   2.132   9.660  0.6789  0.5896  1.7312
  666TMC3    H2 9914   3.953   2.464   9.438 -0.5649 -0.4861 -0.8112
  666TMC3    C7 9915   3.763   2.378   9.609  0.4418  0.9586 -0.7615
  666TMC3    C8 9916   4.189   2.372   9.389 -1.0263  0.5877  0.4167
  666TMC3    O1 9917   3.709   2.328   9.705  0.0306  0.3919 -0.6993
  666TMC3    O2 9918   4.143   2.451   9.312  0.1623  0.3025 -0.2493
  667MPD2     C 9919   0.739   1.500  14.817 -0.3010  0.0504  0.0630
  667MPD2    C1 9920   0.647   1.570  14.887 -0.0746 -0.2282 -0.1346
  667MPD2    C2 9921   0.513   1.528  14.897  0.3623  0.0235 -0.0166
  667MPD2    C3 9922   0.481   1.404  14.848  0.4729 -0.6276 -1.0544
  667MPD2    C4 9923   0.579   1.322  14.797 -0.8763  0.2475 -0.7522
  667MPD2    C5 9924   0.707   1.370  14.777  0.3470 -0.6075 -0.5771
  667MPD2     H 9925   0.449   1.592  14.956  0.0468  0.2478 -0.6017
  667MPD2    H1 9926   0.565   1.219  14.763  2.4626  0.4873 -2.7901
  667MPD2    H2 9927   0.841   1.538  14.815  0.3395 -1.6637 -0.5951
  667MPD2    H3 9928   0.784   1.310  14.730 -1.8252 -2.6855 -1.5045
  667MPD2     N 9929   0.355   1.346  14.854  0.3266  0.8314  0.1528
  667MPD2    H5 9930   0.346   1.251  14.820 -2.7901  1.7652 -1.6273
  667MPD2    N1 9931   0.677   1.699  14.946  1.0005 -0.0950  0.1027
  667MPD2    H7 9932   0.604   1.751  14.993 -0.8280 -1.0897 -1.6564
  668TMC3    C1 9933   0.825   1.869  15.023  0.5847  0.2483  0.2235
  668TMC3    C2 9934   0.912   1.969  14.990 -0.0385 -0.2540 -0.2337
  668TMC3    C3 9935   0.961   2.047  15.093  0.1619  0.1822 -0.1354
  668TMC3    C4 9936   0.768   1.845  15.144 -0.5384 -0.1030  0.3069
  668TMC3    C5 9937   0.798   1.937  15.242  0.9398 -0.4987 -0.1380
  668TMC3    C6 9938   0.886   2.028  15.206  0.0292  0.3129 -0.1995
  668TMC3     C 9939   0.797   1.766  14.928  0.5196 -0.3174  0.1804
  668TMC3     O 9940   0.892   1.743  14.853 -0.2012  0.1714  0.1274
  668TMC3     H 9941   0.944   1.980  14.887  0.9159 -0.9340 -0.0138
  668TMC3    H1 9942   0.705   1.760  15.166  1.9526 -1.8634  0.5992
  668TMC3    H2 9943   0.906   2.093  15.290  0.0428  1.5686 -1.1702
  668TMC3    C7 9944   0.726   1.947  15.368 -0.2895  0.3499 -0.1942
  668TMC3    C8 9945   0.999   2.184  15.068 -0.1209 -0.2900  0.0194
  668TMC3    O1 9946   0.774   2.007  15.465  0.1056 -0.4185 -0.2376
  668TMC3    O2 9947   1.016   2.244  15.173  0.1982  0.0241 -0.2829
  669TMC3    C1 9948   3.119   1.916  14.601 -0.4667  0.2704 -0.0916
  669TMC3    C2 9949   3.048   1.864  14.494  0.8573  0.4317 -0.2398
  669TMC3    C3 9950   3.079   1.910  14.366 -0.3597 -0.2193 -0.3673
  669TMC3    C4 9951   3.238   1.986  14.583 -0.5310 -0.2450  0.0170
  669TMC3    C5 9952   3.255   2.039  14.463  0.8199  0.3048 -0.2961
  669TMC3    C6 9953   3.191   1.988  14.350 -0.4577  0.7450  0.0229
  669TMC3     C 9954   3.084   1.849  14.727  0.4094  0.5506 -0.1850
  669TMC3     O 9955   2.968   1.848  14.768 -0.1426 -0.4600  0.5118
  669TMC3     H 9956   2.957   1.807  14.513  0.4385  1.1512 -0.0503
  669TMC3    H1 9957   3.305   2.001  14.667 -2.0989 -0.4958  1.3127
  669TMC3    H2 9958   3.235   1.996  14.252  1.5981 -1.0108  0.7869
  669TMC3    C7 9959   3.362   2.129  14.444  1.3069 -0.4991 -0.3753
  669TMC3    C8 9960   3.053   1.812  14.265  0.3884  0.2828  1.5752
  669TMC3    O1 9961   3.445   2.127  14.531 -0.1820  0.5853 -0.3136
  669TMC3    O2 9962   3.016   1.701  14.308  0.0729  0.4592 -0.2110
  670MPD2     C 9963   2.243   4.227  13.291 -0.7090 -0.5282 -0.1382
  670MPD2    C1 9964   2.291   4.224  13.421  0.0738  0.2731 -0.2619
  670MPD2    C2 9965   2.202   4.220  13.524  0.4698  1.1818 -0.1384
  670MPD2    C3 9966   2.066   4.220  13.498  0.9707  0.7111  0.4899
  670MPD2    C4 9967   2.020   4.221  13.365 -0.6749  0.3230  0.1476
  670MPD2    C5 9968   2.109   4.224  13.261  0.0555 -0.5269  0.3146
  670MPD2     H 9969   2.234   4.214  13.628 -1.1192  0.8708  0.3340
  670MPD2    H1 9970   1.914   4.212  13.345 -0.9550  2.9424  0.3875
  670MPD2    H2 9971   2.312   4.219  13.207 -1.7034 -0.9090 -0.9131
  670MPD2    H3 9972   2.077   4.224  13.158  0.8820  2.2834  0.0695
  670MPD2     N 9973   1.977   4.227  13.610  0.0757 -0.5523 -0.7936
  670MPD2    H5 9974   2.023   4.203  13.698  0.3364  0.0086 -0.7707
  670MPD2    N1 9975   2.432   4.209  13.458  0.1798 -0.3652 -0.6794
  670MPD2    H7 9976   2.456   4.196  13.555  2.8734 -0.2779 -1.3244
  671TMC3    C1 9977   1.774   4.249  13.736  0.8378  0.6739 -0.2524
  671TMC3    C2 9978   1.831   4.248  13.864  1.0849 -1.0385  0.5234
  671TMC3    C3 9979   1.744   4.216  13.968  0.5842  0.4272 -0.1661
  671TMC3    C4 9980   1.637   4.245  13.729  0.2840 -0.2008  0.0938
  671TMC3    C5 9981   1.556   4.209  13.839  0.1775  0.0940  0.1298
  671TMC3    C6 9982   1.609   4.191  13.961 -0.5313  0.5728 -0.2784
  671TMC3     C 9983   1.847   4.260  13.608 -0.7473 -0.1839  0.3745
  671TMC3     O 9984   1.774   4.283  13.515  0.9753  0.4652  0.4297
  671TMC3     H 9985   1.939   4.239  13.870  1.2685  1.5806  1.1037
  671TMC3    H1 9986   1.596   4.260  13.630  0.3037 -1.8766 -0.1650
  671TMC3    H2 9987   1.553   4.146  14.042  1.3584  0.3099  0.8689
  671TMC3    C7 9988   1.438   4.141  13.813 -1.2515  0.3457 -0.7441
  671TMC3    C8 9989   1.799   4.199  14.100 -0.4826 -0.3357 -0.0769
  671TMC3    O1 9990   1.444   4.064  13.716 -0.2116  0.0962  0.2777
  671TMC3    O2 9991   1.881   4.286  14.132 -0.1636  0.6679  0.4111
  672MPD2     C 9992   2.058   0.211   0.760  0.6566  0.2504  0.2631
  672MPD2    C1 9993   2.124   0.095   0.728 -0.3519  0.5772 -0.2436
  672MPD2    C2 9994   2.263   0.100   0.708 -0.3981 -0.3748  0.0985
  672MPD2    C3 9995   2.335   0.223   0.716  0.4573 -0.4081 -0.1348
  672MPD2    C4 9996   2.264   0.336   0.744  0.0826 -0.2997  0.3390
  672MPD2    C5 9997   2.129   0.332   0.765 -0.5995  0.2845 -0.1545
  672MPD2     H 9998   2.313   0.009   0.679 -0.0886 -0.1971  0.0793
  672MPD2    H1 9999   2.307   0.435   0.745  0.0391 -0.2853  0.7070
  672MPD2    H210000   1.950   0.216   0.773  0.3993 -0.4713 -1.6232
  672MPD2    H310001   2.079   0.426   0.780 -2.0950 -0.5056 -0.2316
  672MPD2     N10002   2.473   0.238   0.718 -0.1924  0.1400 -0.0714
  672MPD2    H510003   2.507   0.333   0.733 -1.9380  0.9620 -1.3234
  672MPD2    N110004   2.052   4.711   0.709  0.1839  0.5563  0.0198
  672MPD2    H710005   2.114   4.632   0.695 -1.0886 -0.4114 -0.1832
  673TMC3    C110006   1.852   4.561   0.662  0.5467 -1.2061  0.1958
  673TMC3    C210007   1.914   4.449   0.715 -0.0744  0.3240  0.2240
  673TMC3    C310008   1.835   4.339   0.743 -0.0113 -0.6709 -0.0355
  673TMC3    C410009   1.725   4.560   0.624  0.0731  0.4053  1.0495
  673TMC3    C510010   1.647   4.452   0.654 -0.3555  0.1209 -0.8996
  673TMC3    C610011   1.704   4.336   0.697  0.4991  0.2496 -0.4570
  673TMC3     C10012   1.916   4.694   0.684  0.9439 -0.1633 -0.2083
  673TMC3     O10013   1.836   0.050   0.661 -0.0304 -0.3225 -0.3400
  673TMC3     H10014   2.014   4.464   0.755  0.3920 -0.3028 -0.7255
  673TMC3    H110015   1.693   4.645   0.566 -1.0447 -1.6673 -1.3485
  673TMC3    H210016   1.633   4.253   0.699  0.1417  0.5321 -1.4671
  673TMC3    C710017   1.509   4.455   0.616 -0.3959 -0.6085  0.0361
  673TMC3    C810018   1.884   4.224   0.813  0.0872 -0.2613  0.5349
  673TMC3    O110019   1.455   4.352   0.581 -0.5495 -0.3944 -0.5835
  673TMC3    O210020   1.788   4.154   0.838  0.1485 -0.0912  0.1832
  674MPD2     C10021   1.247   4.734   0.106 -0.0359  0.4555 -0.5155
  674MPD2    C110022   1.176   4.616   0.114  0.2995 -0.4773 -0.3054
  674MPD2    C210023   1.045   4.627   0.085 -0.0378 -0.3977 -0.2815
  674MPD2    C310024   0.989   0.009   0.032 -0.5331  0.2692 -0.0005
  674MPD2    C410025   1.060   0.129   0.035  0.0550  0.2249 -1.4845
  674MPD2    C510026   1.191   0.116   0.061 -0.7506 -0.0521 -0.4877
  674MPD2     H10027   0.981   4.540   0.089  1.3551 -1.3957  0.2786
  674MPD2    H110028   1.036   0.226  17.736  0.4094  0.1377 -1.8870
  674MPD2    H210029   1.353   4.732   0.128 -0.0171  1.8127 -0.5054
  674MPD2    H310030   1.257   0.201   0.048  0.1818 -0.6440  0.3403
  674MPD2     N10031   0.855   4.727  17.737 -0.2763  0.3518 -0.3800
  674MPD2    H510032   0.817   4.633   0.005 -0.8911  0.7363  0.6756
  674MPD2    N110033   1.245   4.496   0.139  0.1816  0.3759  0.2487
  674MPD2    H710034   1.341   4.514   0.166 -0.1126  2.9429 -0.4450
  675TMC3    C110035   1.277   4.267   0.200 -0.1078 -0.4672 -0.1972
  675TMC3    C210036   1.215   4.157   0.253 -0.6553 -0.7585 -0.0688
  675TMC3    C310037   1.297   4.068   0.300 -0.2772 -0.2205 -0.2810
  675TMC3    C410038   1.413   4.303   0.211  0.2463  0.5896 -0.1138
  675TMC3    C510039   1.483   4.200   0.266 -0.0020 -0.5801 -0.4038
  675TMC3    C610040   1.430   4.082   0.312  0.4763  0.3599  0.1386
  675TMC3     C10041   1.194   4.369   0.145 -0.1278  0.0582  0.3808
  675TMC3     O10042   1.076   4.339   0.116  0.0442 -0.2320  0.6149
  675TMC3     H10043   1.109   4.140   0.239 -0.8729  0.8961 -0.3974
  675TMC3    H110044   1.461   4.384   0.158  0.9663 -0.0294 -0.3996
  675TMC3    H210045   1.496   3.999   0.332  1.2837  1.1528  0.7363
  675TMC3    C710046   1.625   4.220   0.280  0.5583  0.2862  0.3942
  675TMC3    C810047   1.240   3.959   0.372  0.2493 -0.2211 -0.5602
  675TMC3    O110048   1.685   4.116   0.313  0.0626 -0.3470  0.1113
  675TMC3    O210049   1.126   3.931   0.345 -0.2360  0.4753 -0.0925
  676MPD2     C10050   4.427   3.291  11.495  0.0720  0.4519 -0.3610
  676MPD2    C110051   4.323   3.215  11.548  0.1050  0.1533  0.4169
  676MPD2    C210052   4.311   3.084  11.506  0.3251  0.3337 -0.1621
  676MPD2    C310053   4.403   3.035  11.413  0.0082  0.4152 -0.8038
  676MPD2    C410054   4.500   3.113  11.359  0.0418 -0.3974  0.0345
  676MPD2    C510055   4.515   3.238  11.408 -0.1189  0.3905 -0.4286
  676MPD2     H10056   4.250   3.015  11.562 -0.6530  0.2893 -1.2907
  676MPD2    H110057   4.578   3.093  11.287  1.1174  0.0935  1.0608
  676MPD2    H210058   4.449   3.389  11.535  0.0662  0.2831  0.0587
  676MPD2    H310059   4.586   3.304  11.361 -0.6401  2.1769  1.2930
  676MPD2     N10060   4.404   2.902  11.368  0.4511 -0.8601  0.0260
  676MPD2    H510061   4.468   2.876  11.293 -0.4433 -0.0677 -1.0033
  676MPD2    N110062   4.239   3.265  11.658 -0.0063 -0.6098  0.0220
  676MPD2    H710063   4.161   3.208  11.687  0.2304 -1.5898 -1.2713
  677TMC3    C110064   4.161   3.399  11.835  0.0685  0.0860  0.1273
  677TMC3    C210065   4.100   3.281  11.869  0.1197 -0.2682 -0.5153
  677TMC3    C310066   4.083   3.249  12.005  0.4800  0.8149 -0.2683
  677TMC3    C410067   4.210   3.486  11.932  0.6165 -0.1641  0.5798
  677TMC3    C510068   4.194   3.456  12.065 -0.2654 -0.4719  0.2004
  677TMC3    C610069   4.139   3.330  12.101  0.2831  0.3773  0.3058
  677TMC3     C10070   4.245   3.388  11.721 -1.0375  0.2065 -0.2063
  677TMC3     O10071   4.343   3.465  11.713  0.1655 -0.0213  0.2598
  677TMC3     H10072   4.040   3.215  11.807 -2.1189  1.0604  0.2433
  677TMC3    H110073   4.244   3.581  11.892 -1.1465  0.2316 -0.0037
  677TMC3    H210074   4.145   3.305  12.206 -0.7429 -1.6264 -0.1226
  677TMC3    C710075   4.309   3.484  12.145  0.9036 -0.2844  0.3403
  677TMC3    C810076   4.007   3.131  12.042 -0.0642 -0.5087 -0.2308
  677TMC3    O110077   4.307   3.511  12.268  0.0544  0.0126 -0.3340
  677TMC3    O210078   3.907   3.102  11.979  1.0227  0.0779 -0.1572
  678MPD2     C10079   1.313   1.928   1.491 -0.0260  0.7192 -0.5366
  678MPD2    C110080   1.323   1.916   1.355 -0.1548  0.5824 -0.6938
  678MPD2    C210081   1.230   1.987   1.279  0.3290  0.3426 -0.3437
  678MPD2    C310082   1.133   2.064   1.337 -0.1021 -0.3374  0.1038
  678MPD2    C410083   1.131   2.081   1.471 -0.0079  0.2018 -0.1316
  678MPD2    C510084   1.214   2.004   1.548  0.1354 -0.1939 -0.0965
  678MPD2     H10085   1.237   1.999   1.171  2.2244 -0.6766 -0.3211
  678MPD2    H110086   1.061   2.141   1.528  1.0639  1.0873  0.2294
  678MPD2    H210087   1.384   1.878   1.555  0.1303 -0.5266 -1.7047
  678MPD2    H310088   1.210   2.008   1.657  2.7252 -0.5751  0.0143
  678MPD2     N10089   1.026   2.113   1.255 -0.2340  0.1545  0.1846
  678MPD2    H510090   1.027   2.073   1.161 -1.1496 -1.8269  1.0069
  678MPD2    N110091   1.431   1.847   1.294 -0.3381  0.8246 -0.0722
  678MPD2    H710092   1.439   1.878   1.198 -0.3528 -3.5496 -1.4807
  679TMC3    C110093   1.826   1.651   1.182  0.0910 -0.1604  0.0100
  679TMC3    C210094   1.747   1.705   1.280  0.1342 -0.1256 -0.3684
  679TMC3    C310095   1.616   1.723   1.244  0.8988  0.3216  0.2218
  679TMC3    C410096   1.778   1.613   1.057 -0.6428  0.7257  0.3616
  679TMC3    C510097   1.644   1.642   1.024 -0.1663  0.2254  0.7206
  679TMC3    C610098   1.562   1.687   1.121 -0.2958 -0.0315 -0.3255
  679TMC3     C10099   1.973   1.646   1.187 -0.0121  0.6534 -0.3434
  679TMC3     O10100   2.021   1.543   1.142 -0.0533 -0.0276  0.2726
  679TMC3     H10101   1.794   1.752   1.365 -0.9525  0.9546 -0.3525
  679TMC3    H110102   1.838   1.558   0.986 -1.5329 -0.4629  0.5385
  679TMC3    H210103   1.455   1.673   1.109  0.1736 -1.8412 -2.3701
  679TMC3    C710104   1.596   1.605   0.893  0.0539 -0.5859 -0.4587
  679TMC3    C810105   1.529   1.775   1.345  0.2531 -0.3898 -0.6523
  679TMC3    O110106   1.480   1.560   0.893  0.0031 -0.3889  0.2462
  679TMC3    O210107   1.558   1.742   1.460 -0.3306  0.4017  0.0641
  680MPD2     C10108   0.765   0.733  13.865 -0.0690 -0.3203  0.1620
  680MPD2    C110109   0.895   0.741  13.912  0.1753  0.1181  0.1938
  680MPD2    C210110   0.954   0.867  13.921 -0.2306 -0.9276 -0.5986
  680MPD2    C310111   0.879   0.980  13.900  0.2924 -0.1512  0.0743
  680MPD2    C410112   0.755   0.975  13.845  0.3713 -0.0608  0.6044
  680MPD2    C510113   0.698   0.850  13.825  0.0030 -0.3695  0.1317
  680MPD2     H10114   1.058   0.879  13.950 -0.5554  1.1108 -0.2941
  680MPD2    H110115   0.706   1.067  13.816  2.7134  0.2199 -2.5093
  680MPD2    H210116   0.698   0.648  13.849  0.3552 -0.0468 -2.9259
  680MPD2    H310117   0.596   0.839  13.792  0.7417 -1.1241 -1.9125
  680MPD2     N10118   0.920   1.111  13.938  0.1416 -0.2576  0.0926
  680MPD2    H510119   0.859   1.188  13.913 -1.4850 -2.3045 -2.2258
  680MPD2    N110120   0.971   0.629  13.967 -0.5366  0.4512  0.3103
  680MPD2    H710121   1.052   0.651  14.024  1.1958 -3.8581 -0.4387
  681TMC3    C110122   0.998   0.425  14.079 -0.6512 -0.3282  0.1305
  681TMC3    C210123   0.916   0.385  14.184 -0.2857  0.1896 -0.0040
  681TMC3    C310124   0.961   0.415  14.305  0.1169  0.3784  0.3129
  681TMC3    C410125   1.133   0.453  14.093  0.1945 -0.4697 -0.4792
  681TMC3    C510126   1.188   0.441  14.218 -0.0092  0.1729 -0.3734
  681TMC3    C610127   1.095   0.424  14.323  0.3732 -0.3233  0.4699
  681TMC3     C10128   0.917   0.506  13.990  0.4266  0.4865  1.2323
  681TMC3     O10129   0.800   0.462  13.970  0.3791 -0.1056  0.4614
  681TMC3     H10130   0.810   0.367  14.175 -0.2422  0.7811 -1.8516
  681TMC3    H110131   1.192   0.498  14.013 -2.6513 -0.8053 -2.7559
  681TMC3    H210132   1.133   0.417  14.424  2.4383 -1.9040 -0.4247
  681TMC3    C710133   1.303   0.521  14.253 -0.1201  0.5500 -0.2248
  681TMC3    C810134   0.888   0.533  14.359 -0.3637 -0.0884  0.5669
  681TMC3    O110135   1.321   0.547  14.371 -0.1508 -0.4121  0.7275
  681TMC3    O210136   0.787   0.569  14.304  0.4590  0.2647  0.5132
  682MPD2     C10137   3.365   3.045  10.704  0.0059 -0.1793  0.4789
  682MPD2    C110138   3.386   2.907  10.704 -0.6541 -0.3372 -0.2304
  682MPD2    C210139   3.392   2.840  10.830  0.2898  0.3204 -0.3679
  682MPD2    C310140   3.389   2.912  10.952  0.1101 -0.2269  0.1037
  682MPD2    C410141   3.360   3.045  10.947  0.2438 -0.0000  0.7709
  682MPD2    C510142   3.337   3.108  10.822 -0.2072  0.3548  0.0711
  682MPD2     H10143   3.421   2.736  10.836 -0.9059  0.0411  0.5707
  682MPD2    H110144   3.348   3.102  11.039  1.5586 -0.0498  0.9739
  682MPD2    H210145   3.347   3.101  10.613 -0.5489 -1.0156  0.0712
  682MPD2    H310146   3.333   3.216  10.825 -1.0452  0.3312 -0.2785
  682MPD2     N10147   3.413   2.860  11.081  0.1078  0.5622 -0.2353
  682MPD2    H510148   3.392   2.925  11.156  0.5928 -0.4733  0.7983
  682MPD2    N110149   3.397   2.837  10.582 -0.3163 -0.0895  0.1692
  682MPD2    H710150   3.421   2.738  10.583  0.3927  0.0722 -1.0069
  683TMC3    C110151   3.324   2.735  11.461 -0.3471 -0.1255  0.0925
  683TMC3    C210152   3.283   2.611  11.481  0.3769 -0.5719 -0.0968
  683TMC3    C310153   3.309   2.523  11.380  0.1309  0.5988 -0.0348
  683TMC3    C410154   3.393   2.770  11.347  0.1680  0.1536 -0.4356
  683TMC3    C510155   3.408   2.681  11.243  0.7656  0.5467  0.0102
  683TMC3    C610156   3.376   2.551  11.261 -0.8574 -0.3071 -0.4774
  683TMC3     C10157   3.289   2.847  11.552 -0.6895  0.3389  0.8284
  683TMC3     O10158   3.383   2.932  11.553  0.4353 -1.1104  1.0047
  683TMC3     H10159   3.225   2.580  11.568  0.4172  0.8032  0.4242
  683TMC3    H110160   3.439   2.867  11.342  0.4118  0.1248  1.1921
  683TMC3    H210161   3.383   2.477  11.182  1.1739  0.1450 -0.7137
  683TMC3    C710162   3.426   2.725  11.104 -0.8808  0.5052  0.4453
  683TMC3    C810163   3.227   2.405  11.374 -0.4018  0.0522  0.2976
  683TMC3    O110164   3.422   2.628  11.026 -0.0904 -0.4884  0.6329
  683TMC3    O210165   3.161   2.383  11.271 -0.1483 -0.1442 -0.3981
  684MPD2     C10166   1.355   2.708  16.457 -0.2649  0.0279  0.8164
  684MPD2    C110167   1.476   2.653  16.459  0.2095  0.5653  0.7955
  684MPD2    C210168   1.584   2.729  16.425  0.2914  0.2229  0.5720
  684MPD2    C310169   1.573   2.858  16.373 -0.4703 -0.2859 -0.0599
  684MPD2    C410170   1.441   2.903  16.348 -0.1634 -0.0462 -0.2788
  684MPD2    C510171   1.340   2.831  16.401 -0.2153 -0.6424 -0.3505
  684MPD2     H10172   1.681   2.680  16.436 -1.1854 -2.0916  3.1582
  684MPD2    H110173   1.421   3.004  16.315  0.7757  1.1229  2.7070
  684MPD2    H210174   1.265   2.665  16.500  0.2567 -0.0774  1.7972
  684MPD2    H310175   1.236   2.860  16.405  0.3604  1.3470  0.2223
  684MPD2     N10176   1.690   2.931  16.342 -0.4568  0.0765 -0.6230
  684MPD2    H510177   1.672   3.021  16.299 -0.1214  0.3828 -0.1247
  684MPD2    N110178   1.496   2.521  16.495  0.6502  0.6351  0.2885
  684MPD2    H710179   1.591   2.488  16.483  1.1280  1.4778  1.7484
  685TMC3    C110180   1.456   2.294  16.505 -0.1247  0.0409 -0.2874
  685TMC3    C210181   1.395   2.210  16.414 -0.0381  0.3853 -0.4334
  685TMC3    C310182   1.478   2.127  16.348 -0.1333 -0.1589 -0.5275
  685TMC3    C410183   1.589   2.291  16.524 -0.3363  0.4841  0.1365
  685TMC3    C510184   1.666   2.203  16.449 -0.8016  1.0825 -0.1479
  685TMC3    C610185   1.611   2.116  16.365  0.0422 -0.0665 -0.4428
  685TMC3     C10186   1.399   2.427  16.502  0.2929 -0.3287  0.2237
  685TMC3     O10187   1.277   2.439  16.480  0.7174 -0.0436 -0.4392
  685TMC3     H10188   1.287   2.218  16.422  0.0671  0.7758  0.5791
  685TMC3    H110189   1.633   2.358  16.597  1.0865 -0.1230 -0.1660
  685TMC3    H210190   1.672   2.045  16.309 -1.5312 -1.3170 -0.5609
  685TMC3    C710191   1.809   2.210  16.469 -0.3111 -0.2376 -0.6606
  685TMC3    C810192   1.418   2.060  16.234 -0.3488  0.2207 -0.1819
  685TMC3    O110193   1.850   2.307  16.532 -0.1516 -0.6208 -0.2480
  685TMC3    O210194   1.490   1.989  16.166  0.4028 -0.5086  0.0395
  686MPD2     C10195   2.683   2.393  15.723  0.0696  0.3260  0.1051
  686MPD2    C110196   2.688   2.259  15.754  0.0797  0.2593 -0.1574
  686MPD2    C210197   2.789   2.179  15.706  0.2883  0.0393  0.1866
  686MPD2    C310198   2.896   2.229  15.640  0.6220  0.6177 -0.5119
  686MPD2    C410199   2.889   2.365  15.608  0.1786 -0.5381 -0.2659
  686MPD2    C510200   2.786   2.444  15.648 -0.2249 -0.6448 -0.5261
  686MPD2     H10201   2.774   2.072  15.715 -1.0924  0.1352 -0.8836
  686MPD2    H110202   2.962   2.412  15.544 -1.1254  1.7206 -0.0899
  686MPD2    H210203   2.600   2.453  15.759 -0.1620  0.9583 -1.4957
  686MPD2    H310204   2.799   2.547  15.617  0.0953 -1.2977 -2.5999
  686MPD2     N10205   3.001   2.145  15.596 -0.6971 -0.2276  0.0628
  686MPD2    H510206   2.990   2.047  15.624  0.6176  0.2243  2.1762
  686MPD2    N110207   2.597   2.216  15.856  0.0392  0.7009 -0.3343
  686MPD2    H710208   2.540   2.290  15.896  0.3740  0.3957  0.7043
  687TMC3    C110209   3.216   2.078  15.540 -0.2948 -0.2580  0.1960
  687TMC3    C210210   3.163   1.967  15.474  0.4457  0.4645  0.0464
  687TMC3    C310211   3.161   1.856  15.549  0.1535 -0.4076  0.1541
  687TMC3    C410212   3.288   2.069  15.652  0.0373 -0.5815  0.6971
  687TMC3    C510213   3.295   1.956  15.718  0.5924  0.4373  0.5586
  687TMC3    C610214   3.237   1.846  15.664  0.2828 -0.7107 -0.3317
  687TMC3     C10215   3.124   2.187  15.553  0.7937 -0.4956  0.1850
  687TMC3     O10216   3.178   2.295  15.539  0.2239 -0.5622  0.4092
  687TMC3     H10217   3.102   1.975  15.385 -2.0238 -0.7120  1.6699
  687TMC3    H110218   3.324   2.154  15.710  1.3088 -1.3008  0.9589
  687TMC3    H210219   3.229   1.752  15.717  0.2643  0.1745  1.2224
  687TMC3    C710220   3.295   1.972  15.864  0.9330 -0.5845  0.1798
  687TMC3    C810221   3.028   1.811  15.589 -0.2445 -0.4297  0.6873
  687TMC3    O110222   3.359   2.070  15.911  0.0553  0.7162  0.6266
  687TMC3    O210223   3.007   1.810  15.709  0.0044  0.3524  0.4098
  688MPD2     C10224   2.355   0.707  17.643  0.1146 -0.1684  0.4302
  688MPD2    C110225   2.336   0.571  17.649 -0.2979 -0.0644  0.8498
  688MPD2    C210226   2.431   0.495  17.588  0.0516  0.5429  0.3117
  688MPD2    C310227   2.544   0.544  17.524  0.4574 -0.1202 -0.3374
  688MPD2    C410228   2.559   0.677  17.527  0.7815  0.3697 -0.1005
  688MPD2    C510229   2.467   0.756  17.583  0.2155 -0.1379  0.2780
  688MPD2     H10230   2.412   0.388  17.596 -1.4913  0.7178 -1.0573
  688MPD2    H110231   2.641   0.731  17.482  0.3409  0.4562 -0.7977
  688MPD2    H210232   2.284   0.777  17.687  0.8493  0.0234  1.3211
  688MPD2    H310233   2.475   0.864  17.573  0.4370 -0.0481  1.4680
  688MPD2     N10234   2.655   0.474  17.458  0.0508 -0.5287 -0.4051
  688MPD2    H510235   2.732   0.526  17.418  0.5083 -0.1801  0.9359
  688MPD2    N110236   2.237   0.509  17.719 -0.1414  0.0388  0.8681
  688MPD2    H710237   2.238   0.408  17.719  0.5996  0.0371 -2.3006
  689TMC3    C110238   2.046   0.475   0.103  0.5602  0.2595 -0.8540
  689TMC3    C210239   1.987   0.529   0.216  1.0384 -0.1503 -0.6033
  689TMC3    C310240   1.866   0.476   0.259  0.3009 -0.2940 -0.1529
  689TMC3    C410241   1.986   0.372   0.033 -0.2556 -1.0524 -0.0318
  689TMC3    C510242   1.871   0.322   0.085  0.3314 -0.0348 -0.0833
  689TMC3    C610243   1.802   0.367   0.201  1.2194  0.6293  0.5764
  689TMC3     C10244   2.134   0.574   0.042 -0.7346  0.0506 -0.5471
  689TMC3     O10245   2.109   0.693   0.060 -0.0311  0.0267 -0.7164
  689TMC3     H10246   2.039   0.617   0.251  2.0480 -1.5282  1.3274
  689TMC3    H110247   2.038   0.337  17.688 -0.7741  0.7826 -1.0497
  689TMC3    H210248   1.720   0.309   0.242  0.0960 -1.1143 -4.1889
  689TMC3    C710249   1.827   0.197   0.030 -0.3090  0.9975  0.1139
  689TMC3    C810250   1.848   0.517   0.399 -0.8329  0.2861 -0.2207
  689TMC3    O110251   1.706   0.179   0.026 -0.0302  0.1694  0.6250
  689TMC3    O210252   1.921   0.604   0.438 -0.9196  0.0294  0.2118
  690MPD2     C10253   4.516   2.942  15.828  0.1502 -0.2425 -0.7977
  690MPD2    C110254   4.537   2.811  15.780  0.1460 -0.2816 -0.5482
  690MPD2    C210255   4.632   2.785  15.679 -0.0259 -0.6111 -0.3000
  690MPD2    C310256   4.692   2.898  15.613 -0.1435 -0.5081 -0.3915
  690MPD2    C410257   4.664   3.030  15.649  0.1151  0.0331  0.1880
  690MPD2    C510258   4.579   3.046  15.759  0.1113  0.3441  0.0552
  690MPD2     H10259   4.655   2.687  15.640 -1.7103 -0.9032 -0.5453
  690MPD2    H110260   4.712   3.113  15.597  1.4128 -0.2384  0.9460
  690MPD2    H210261   4.460   2.972  15.916  1.1235 -2.7130  0.6607
  690MPD2    H310262   4.565   3.148  15.792  1.7074  0.0462  1.6680
  690MPD2     N10263   0.047   2.867  15.515 -0.1021 -1.0361  0.5612
  690MPD2    H510264   0.084   2.774  15.507 -0.9296 -1.3351  0.2002
  690MPD2    N110265   4.454   2.707  15.823 -0.2208  0.2137  0.7022
  690MPD2    H710266   4.470   2.615  15.784 -0.9400  0.6765 -0.6751
  691TMC3    C110267   4.271   2.605  15.945 -0.3906  0.3961  0.4021
  691TMC3    C210268   4.138   2.620  15.972  0.1645 -0.0482  0.1720
  691TMC3    C310269   4.066   2.507  15.992  0.0901  0.1366 -0.4638
  691TMC3    C410270   4.329   2.484  15.928 -0.3115  0.0751  1.0969
  691TMC3    C510271   4.252   2.372  15.947  0.3069  0.0211 -0.1806
  691TMC3    C610272   4.119   2.384  15.976 -0.3804 -0.3847  0.1834
  691TMC3     C10273   4.343   2.721  15.908  0.1190 -0.3911  0.3055
  691TMC3     O10274   4.299   2.819  15.970 -0.2388  0.6117 -0.0573
  691TMC3     H10275   4.104   2.716  16.011 -1.8856 -1.0151  0.7256
  691TMC3    H110276   4.434   2.464  15.909 -0.3395 -1.0425  2.1897
  691TMC3    H210277   4.046   2.306  15.996 -0.3885 -0.9537 -2.0774
  691TMC3    C710278   4.303   2.245  15.897  0.4530  0.7897 -0.3875
  691TMC3    C810279   3.930   2.519  16.031 -0.6038 -0.0581 -0.0252
  691TMC3    O110280   4.424   2.227  15.884 -0.4612  1.0501 -0.1300
  691TMC3    O210281   3.882   2.428  16.097 -0.2859  0.6309  0.3136
  692TMC3    C110282   1.486   3.951  15.995  0.1366 -0.7546 -0.0026
  692TMC3    C210283   1.605   3.986  16.056 -0.0657 -0.5917  0.1988
  692TMC3    C310284   1.719   3.937  16.006  0.0042  0.7266  0.0870
  692TMC3    C410285   1.472   3.864  15.890 -0.0652  0.2925  0.1087
  692TMC3    C510286   1.589   3.803  15.857 -0.3820  0.0200 -0.2744
  692TMC3    C610287   1.709   3.835  15.917 -0.3327 -0.2158  0.1041
  692TMC3     C10288   1.370   4.015  16.031  0.5904  0.0833  0.2747
  692TMC3     O10289   1.258   3.958  16.027  0.2703 -0.1818 -0.6656
  692TMC3     H10290   1.605   4.075  16.117 -1.5840  0.1914 -0.9561
  692TMC3    H110291   1.378   3.825  15.853  1.9752 -2.5073 -2.1370
  692TMC3    H210292   1.800   3.800  15.869 -0.2572 -2.6257  1.9801
  692TMC3    C710293   1.575   3.676  15.791  0.2701 -0.2109 -1.4533
  692TMC3    C810294   1.817   3.897  16.107 -0.3683 -0.0581  0.0054
  692TMC3    O110295   1.474   3.654  15.723  0.6601  0.0944  0.3636
  692TMC3    O210296   1.884   3.795  16.093 -0.2568  0.4491  0.1356
  693MPD2     C10297   0.921   1.955  11.839  0.2759 -0.3443  0.2545
  693MPD2    C110298   0.909   1.961  11.707 -0.6079  0.0140 -0.2960
  693MPD2    C210299   0.990   1.874  11.637 -0.2818 -0.5664  0.4461
  693MPD2    C310300   1.072   1.780  11.698 -0.1847  0.2242 -0.4496
  693MPD2    C410301   1.077   1.770  11.830  0.3267  0.3733 -0.2489
  693MPD2    C510302   0.992   1.855  11.901  0.0005  0.6779 -0.4364
  693MPD2     H10303   1.003   1.896  11.531  2.2150  1.5786  1.2145
  693MPD2    H110304   1.138   1.697  11.883  0.2635  0.9021  0.5530
  693MPD2    H210305   0.865   2.020  11.905 -1.3490  0.4548 -1.8903
  693MPD2    H310306   0.995   1.851  12.009 -1.1145 -3.5975 -0.5725
  693MPD2     N10307   1.164   1.696  11.624  0.4224 -0.2169  0.0724
  693MPD2    H510308   1.233   1.645  11.678  0.7888 -0.9536 -1.0885
  693MPD2    N110309   0.817   2.054  11.656  0.7011  0.2655 -0.5305
  693MPD2    H710310   0.783   2.126  11.719  1.6613  1.1389 -1.0005
  694TMC3    C110311   0.693   2.160  11.493  0.2867  0.1350 -0.0864
  694TMC3    C210312   0.665   2.182  11.359 -0.7491 -0.4972  0.5195
  694TMC3    C310313   0.537   2.237  11.333 -0.3716  0.0466  0.2116
  694TMC3    C410314   0.605   2.196  11.586 -0.3098  0.4327 -0.3234
  694TMC3    C510315   0.480   2.251  11.549 -0.4870  0.2177  0.2264
  694TMC3    C610316   0.442   2.269  11.426 -0.7257  0.3412  0.6834
  694TMC3     C10317   0.774   2.046  11.524  0.0644 -0.6817  1.0858
  694TMC3     O10318   0.800   1.960  11.441  0.9590 -0.1150 -0.0985
  694TMC3     H10319   0.728   2.158  11.275 -1.2135 -0.9904  0.3089
  694TMC3    H110320   0.605   2.158  11.688 -0.8235  0.2147 -0.4065
  694TMC3    H210321   0.352   2.325  11.403  0.3353  1.5849 -0.5027
  694TMC3    C710322   0.389   2.289  11.656 -0.0945 -0.2033 -0.4582
  694TMC3    C810323   0.501   2.225  11.193  0.1598  0.2035  0.3418
  694TMC3    O110324   0.329   2.396  11.644 -0.4419 -0.3768  0.0580
  694TMC3    O210325   0.591   2.234  11.110 -0.2668 -0.5756  0.1332
  695MPD2     C10326   1.937   3.384  13.607  0.4786 -0.1306  0.6924
  695MPD2    C110327   1.869   3.433  13.717  0.4718  0.1329  0.1922
  695MPD2    C210328   1.749   3.496  13.688 -1.1253  0.3001  0.5431
  695MPD2    C310329   1.705   3.525  13.564  0.4831 -0.0538  0.6009
  695MPD2    C410330   1.780   3.474  13.451  0.2386 -0.4751  0.2221
  695MPD2    C510331   1.896   3.412  13.480 -0.0391  0.0169 -0.0766
  695MPD2     H10332   1.692   3.528  13.774 -2.0472  3.2923 -1.1538
  695MPD2    H110333   1.753   3.491  13.348  1.5530  2.6811  0.4179
  695MPD2    H210334   2.038   3.344  13.615 -0.2787 -2.1931 -0.1658
  695MPD2    H310335   1.954   3.377  13.396 -0.6354 -1.4409  0.1183
  695MPD2     N10336   1.585   3.594  13.547  0.4049 -0.0685 -0.1200
  695MPD2    H510337   1.539   3.623  13.633  0.9388  0.6135 -0.0627
  695MPD2    N110338   1.910   3.418  13.846 -0.4150  0.0748 -0.0440
  695MPD2    H710339   1.847   3.460  13.913 -0.1278  2.9663 -1.5932
  696TMC3    C110340   1.397   3.722  13.454 -0.0539  0.4575  0.2837
  696TMC3    C210341   1.320   3.694  13.564 -0.2148  0.0023 -0.1385
  696TMC3    C310342   1.210   3.784  13.581  0.6642  0.5279 -0.4514
  696TMC3    C410343   1.365   3.812  13.362  0.0256 -0.3661  0.2365
  696TMC3    C510344   1.259   3.894  13.382  0.1896  0.3976  0.0902
  696TMC3    C610345   1.188   3.887  13.502  1.0491 -0.4774  0.4086
  696TMC3     C10346   1.531   3.650  13.434 -0.4606  0.4323 -0.3790
  696TMC3     O10347   1.585   3.670  13.324  0.1293 -0.1428  0.1263
  696TMC3     H10348   1.326   3.608  13.630 -1.5344 -1.2423 -1.6417
  696TMC3    H110349   1.427   3.821  13.272  0.8343  0.4475  0.8702
  696TMC3    H210350   1.099   3.946  13.522  2.8529  1.9222  1.4639
  696TMC3    C710351   1.286   4.022  13.324  0.0377  0.2256  0.8670
  696TMC3    C810352   1.104   3.733  13.665 -0.3960  0.0155 -0.3049
  696TMC3    O110353   1.344   4.025  13.216  0.5516  0.2426  0.2739
  696TMC3    O210354   1.080   3.614  13.659 -0.0884  1.2006  0.2049
  697MPD2     C10355   1.331   1.044  15.873  0.5916 -0.3959 -0.0177
  697MPD2    C110356   1.313   0.979  15.751 -0.4043  1.0469  0.6815
  697MPD2    C210357   1.340   1.050  15.635 -0.2820  0.0942 -0.3484
  697MPD2    C310358   1.376   1.178  15.639 -0.5324 -0.5331 -0.0808
  697MPD2    C410359   1.392   1.244  15.761  0.0025 -0.5492 -0.6919
  697MPD2    C510360   1.373   1.172  15.875  0.1332  0.2624  0.0084
  697MPD2     H10361   1.329   0.993  15.543 -0.4090 -0.6567  0.1328
  697MPD2    H110362   1.424   1.348  15.772  0.6892 -0.8069 -0.2517
  697MPD2    H210363   1.307   0.999  15.969  0.4737 -1.8180 -0.7152
  697MPD2    H310364   1.372   1.230  15.967  0.4392 -1.3114  0.9920
  697MPD2     N10365   1.395   1.247  15.514  0.3474 -0.4575 -0.2072
  697MPD2    H510366   1.375   1.194  15.430 -1.4540  1.1847 -0.8107
  697MPD2    N110367   1.257   0.849  15.739 -0.0537 -0.4091 -0.1198
  697MPD2    H710368   1.233   0.817  15.645  0.7658  1.4756 -0.9700
  698TMC3    C110369   1.424   1.431  15.370 -0.7985  0.5632  0.3016
  698TMC3    C210370   1.533   1.501  15.322  0.4389  1.0419 -0.3238
  698TMC3    C310371   1.554   1.509  15.188 -0.0605  0.1724 -0.3512
  698TMC3    C410372   1.334   1.372  15.284 -0.2541  0.2017  0.2364
  698TMC3    C510373   1.357   1.393  15.151 -0.5937  0.4976 -0.7444
  698TMC3    C610374   1.461   1.462  15.101  0.2624 -0.5840  0.7239
  698TMC3     C10375   1.451   1.372  15.499 -0.3204  0.2853 -0.3332
  698TMC3     O10376   1.531   1.433  15.565  0.2203  0.3562  0.4341
  698TMC3     H10377   1.594   1.550  15.396 -0.5983 -1.0308  1.9316
  698TMC3    H110378   1.257   1.302  15.314  0.6400 -0.2992  1.3804
  698TMC3    H210379   1.479   1.473  14.995 -0.9505 -1.3077  0.4435
  698TMC3    C710380   1.294   1.303  15.067 -0.7403  0.1692 -0.1119
  698TMC3    C810381   1.613   1.627  15.155  0.1261  0.1304  0.3005
  698TMC3    O110382   1.174   1.271  15.078 -0.9198 -0.0155 -0.2378
  698TMC3    O210383   1.600   1.727  15.224  0.3585 -0.0347  0.1369
  699TMC3    C110384   1.137   3.977  12.817  0.0329  0.1216 -0.0921
  699TMC3    C210385   1.209   3.885  12.887 -0.1850  0.3776  0.1114
  699TMC3    C310386   1.154   3.851  13.011 -0.3841  0.1276  0.4389
  699TMC3    C410387   1.027   4.040  12.867  0.2065 -0.5351  0.1439
  699TMC3    C510388   0.991   4.022  12.998 -0.3170 -0.0364 -0.1195
  699TMC3    C610389   1.054   3.924  13.070  0.4346  0.1461 -0.1303
  699TMC3     C10390   1.204   4.061  12.716  0.0284 -0.1603  0.5099
  699TMC3     O10391   1.136   4.145  12.659  0.9490 -0.3037 -0.0930
  699TMC3     H10392   1.293   3.831  12.844  1.3318  1.0171  2.2726
  699TMC3    H110393   0.966   4.111  12.813  2.2554  1.3246  0.2768
  699TMC3    H210394   1.024   3.906  13.172 -0.2174  0.9221 -0.1879
  699TMC3    C710395   0.877   4.072  13.057  0.0360 -0.8280  0.1057
  699TMC3    C810396   1.174   3.728  13.084  0.0201  0.3888  0.4181
  699TMC3    O110397   0.890   4.080  13.178 -0.0321  0.0364  0.1142
  699TMC3    O210398   1.087   3.705  13.168  0.0892 -0.1461  0.1192
  700TMC3    C110399   0.094   0.883  17.289 -0.1981 -0.4048  0.5050
  700TMC3    C210400   0.224   0.859  17.260 -0.2507 -0.1436  0.3969
  700TMC3    C310401   0.291   0.762  17.325  0.0064  0.0934  0.0685
  700TMC3    C410402   0.037   0.821  17.398 -0.4112 -0.1319  0.1777
  700TMC3    C510403   0.115   0.741  17.481 -0.4912 -0.0953  0.4166
  700TMC3    C610404   0.238   0.699  17.436 -0.2046 -0.5825 -0.1934
  700TMC3     C10405   0.026   1.001  17.246 -0.0235  0.2514  0.0054
  700TMC3     O10406   4.646   1.003  17.273  0.2664 -0.3009  0.2480
  700TMC3     H10407   0.269   0.899  17.169 -0.7319 -1.7406 -0.5459
  700TMC3    H110408   4.666   0.815  17.411 -0.3971  0.2218  0.4455
  700TMC3    H210409   0.292   0.624  17.493 -0.4324  0.2053  1.0452
  700TMC3    C710410   0.063   0.684  17.601  0.0975 -0.5418 -0.4319
  700TMC3    C810411   0.431   0.750  17.293 -0.7707 -0.5219  0.0423
  700TMC3    O110412   0.117   0.574  17.615 -0.2166 -0.5971 -0.5268
  700TMC3    O210413   0.471   0.796  17.189 -0.2031  0.5695  0.0004
  701TMC3    C110414   0.568   0.051  15.788 -0.1604  0.2417  0.4005
  701TMC3    C210415   0.591   4.703  15.685  0.9305 -0.2136 -0.3651
  701TMC3    C310416   0.695   4.728  15.603  0.9925  0.4227  0.0754
  701TMC3    C410417   0.639   0.162  15.817  0.2332  0.0067 -0.5886
  701TMC3    C510418   0.745   0.190  15.735  0.1246  0.5429  0.2229
  701TMC3    C610419   0.767   0.105  15.624 -0.3999 -0.1189 -0.7438
  701TMC3     C10420   0.439   0.050  15.852  0.0530  0.5016 -0.2522
  701TMC3     O10421   0.395   0.153  15.901  0.1130  0.3291  0.3047
  701TMC3     H10422   0.527   4.617  15.672  0.7897 -0.4695  2.0041
  701TMC3    H110423   0.620   0.221  15.906 -0.5004  1.3753 -1.6541
  701TMC3    H210424   0.856   0.126  15.565  0.9423 -1.4929  0.8024
  701TMC3    C710425   0.801   0.322  15.729 -0.5348 -0.8678 -0.1940
  701TMC3    C810426   0.707   4.666  15.473  0.0324 -0.0135  0.1095
  701TMC3    O110427   0.839   0.371  15.619 -0.0947  0.4413  0.0324
  701TMC3    O210428   0.814   4.674  15.416  0.6076 -0.3492  0.4169
  702MPD2     C10429   0.012   2.492  10.895  0.6797  0.8729 -0.0821
  702MPD2    C110430   4.681   2.602  10.939  0.3680  0.1103  0.1337
  702MPD2    C210431   4.681   2.715  10.851 -0.0555  0.2357 -0.0309
  702MPD2    C310432   0.005   2.705  10.728  0.0941  0.3976  0.5473
  702MPD2    C410433   0.089   2.597  10.700  0.2883  0.0749  0.0867
  702MPD2    C510434   0.088   2.485  10.778  0.2511  0.4170 -0.3899
  702MPD2     H10435   4.627   2.801  10.891  0.6806  0.0451  1.3374
  702MPD2    H110436   0.156   2.608  10.616  0.8877 -0.0211  0.5443
  702MPD2    H210437   4.734   2.402  10.955 -0.2392 -0.8694 -2.9209
  702MPD2    H310438   0.143   2.394  10.760  0.2603 -0.0219  1.8954
  702MPD2     N10439   0.000   2.810  10.632 -0.1475 -0.1203  0.0309
  702MPD2    H510440   0.069   2.810  10.557  0.4345  1.4790  0.5613
  702MPD2    N110441   4.614   2.604  11.065 -0.2006  0.5134  0.3294
  702MPD2    H710442   4.563   2.688  11.088  1.6352  2.3316 -2.2998
  703TMC3    C110443   4.636   2.993  10.512  0.5358 -0.0585  0.3993
  703TMC3    C210444   4.513   3.048  10.469 -1.0129  0.3392  0.0283
  703TMC3    C310445   4.512   3.137  10.368  0.2656 -0.8830  0.9563
  703TMC3    C410446   0.006   3.017  10.438  0.3748 -0.6644  0.1018
  703TMC3    C510447   4.735   3.117  10.342 -0.8092  0.4486  0.0391
  703TMC3    C610448   4.618   3.179  10.300 -0.2365  0.4381  0.3607
  703TMC3     C10449   4.641   2.910  10.630 -0.3057  0.4613  0.3020
  703TMC3     O10450   4.541   2.918  10.698 -0.7160 -0.0542  0.5386
  703TMC3     H10451   4.423   3.008  10.514 -0.8903  1.5168  1.3122
  703TMC3    H110452   0.105   2.994  10.474 -0.5584 -0.9103  2.5515
  703TMC3    H210453   4.615   3.262  10.231 -3.2685 -0.4731 -0.5645
  703TMC3    C710454   0.122   3.169  10.296  0.0797  0.0184  0.2693
  703TMC3    C810455   4.385   3.207  10.329 -0.0063  0.4990 -0.6369
  703TMC3    O110456   0.227   3.116  10.331  0.2194 -0.4660 -0.1057
  703TMC3    O210457   4.372   3.259  10.218 -0.3850  0.2696  0.0492
  704TMC3    C110458   2.673   0.404  13.267 -0.2003  0.2015 -0.8219
  704TMC3    C210459   2.784   0.453  13.194 -0.0138 -0.0287  1.2022
  704TMC3    C310460   2.907   0.393  13.214 -0.6484 -0.0092 -0.8618
  704TMC3    C410461   2.685   0.297  13.348 -0.5005  0.2754  0.2190
  704TMC3    C510462   2.810   0.239  13.361  0.5706  0.0226  0.1695
  704TMC3    C610463   2.921   0.286  13.299 -0.4750  0.2542 -0.7032
  704TMC3     C10464   2.542   0.454  13.241  0.2214 -0.3557 -0.1353
  704TMC3     O10465   2.464   0.442  13.330  0.5995 -0.3929  0.3104
  704TMC3     H10466   2.788   0.553  13.152  1.8279 -0.2194  0.9060
  704TMC3    H110467   2.601   0.266  13.409 -0.2319  1.7052  1.3098
  704TMC3    H210468   3.017   0.234  13.299 -0.4986  0.2056 -0.2298
  704TMC3    C710469   2.816   0.099  13.385 -0.3557  0.4676 -0.2952
  704TMC3    C810470   3.011   0.408  13.108 -0.0951 -0.9539  1.5576
  704TMC3    O110471   2.915   0.041  13.342 -0.5568  0.7528  0.7357
  704TMC3    O210472   3.112   0.346  13.128  0.2355  0.0940 -0.3857
  705MPD2     C10473   2.223   3.459  16.806 -0.6232  0.0674 -0.3406
  705MPD2    C110474   2.148   3.511  16.700 -0.4373  0.2163 -0.2658
  705MPD2    C210475   2.010   3.518  16.715 -0.9443  0.7370 -0.7734
  705MPD2    C310476   1.944   3.496  16.830  0.4700 -0.6152  0.5489
  705MPD2    C410477   2.026   3.448  16.933 -0.2945 -0.2737 -0.2064
  705MPD2    C510478   2.164   3.435  16.924  0.1791  0.8500  0.7705
  705MPD2     H10479   1.958   3.570  16.635  1.8243  2.0715 -1.7187
  705MPD2    H110480   1.993   3.434  17.036  0.7585  0.1598  0.1976
  705MPD2    H210481   2.331   3.453  16.809 -0.6735 -0.8081 -0.0786
  705MPD2    H310482   2.222   3.405  17.011  0.5731  0.7637  0.4793
  705MPD2     N10483   1.804   3.523  16.851 -0.6948 -0.0950 -0.9718
  705MPD2    H510484   1.768   3.518  16.946  1.6717  4.1500  0.1600
  705MPD2    N110485   2.201   3.553  16.580  0.6133 -0.2406 -0.7191
  705MPD2    H710486   2.144   3.571  16.498 -0.4877  0.0065  0.1044
  706TMC3    C110487   2.383   3.554  16.192 -0.8069 -0.6070 -0.1332
  706TMC3    C210488   2.340   3.678  16.150  0.2860  0.0874 -0.1595
  706TMC3    C310489   2.297   3.762  16.249  1.0262 -0.3856  0.2729
  706TMC3    C410490   2.406   3.516  16.320 -0.2649 -0.4333 -0.1506
  706TMC3    C510491   2.349   3.594  16.410  0.2809 -0.1749 -0.4340
  706TMC3    C610492   2.289   3.719  16.378  0.0439 -0.0572 -0.7495
  706TMC3     C10493   2.391   3.445  16.099 -0.1142 -0.3648  0.4497
  706TMC3     O10494   2.453   3.350  16.144 -0.3254  0.2167 -0.3419
  706TMC3     H10495   2.321   3.718  16.051 -2.1751  0.8177  0.6146
  706TMC3    H110496   2.433   3.416  16.353 -0.4660  0.8103  3.8024
  706TMC3    H210497   2.265   3.788  16.458  1.0673 -0.6816  0.1076
  706TMC3    C710498   2.333   3.542  16.539  0.4304  0.4521 -0.1985
  706TMC3    C810499   2.238   3.888  16.215 -0.3232 -0.8559  0.6196
  706TMC3    O110500   2.423   3.483  16.595  0.2604  0.1398  0.1661
  706TMC3    O210501   2.233   3.917  16.095  0.4888 -0.1290 -0.2905
  707TMC3    C110502   4.169   2.572   1.105  0.4921  0.1663  0.6879
  707TMC3    C210503   4.138   2.479   1.203  0.4993 -0.0133 -0.3470
  707TMC3    C310504   4.187   2.498   1.332  0.4721  0.6714 -0.3297
  707TMC3    C410505   4.218   2.691   1.144 -0.2225  0.9507  0.6024
  707TMC3    C510506   4.244   2.717   1.276 -0.0197  0.1128 -0.0881
  707TMC3    C610507   4.234   2.620   1.370 -0.7992  0.0034 -0.2864
  707TMC3     C10508   4.210   2.521   0.976  0.1572 -0.1848 -1.0301
  707TMC3     O10509   4.179   2.590   0.877 -0.8110 -0.1014 -0.3917
  707TMC3     H10510   4.093   2.385   1.171 -2.1351  1.0637  0.1806
  707TMC3    H110511   4.231   2.767   1.067  1.4710  1.5142  1.4610
  707TMC3    H210512   4.280   2.653   1.462  0.9733  0.0054 -1.1737
  707TMC3    C710513   4.263   2.858   1.315  0.0161  0.9408 -0.0057
  707TMC3    C810514   4.248   2.379   1.373 -0.3881  1.0680 -0.2335
  707TMC3    O110515   4.330   2.884   1.416 -0.0885 -0.0492  0.7359
  707TMC3    O210516   4.265   2.288   1.289  0.4839 -0.4617  0.0152
  708MPD2     C10517   0.243   1.893  13.822 -0.0057  0.6260 -0.1425
  708MPD2    C110518   0.152   1.936  13.918  0.0062 -0.3186  0.3965
  708MPD2    C210519   0.134   1.862  14.033 -0.4064  0.1479  0.2404
  708MPD2    C310520   0.215   1.749  14.059 -0.2553  0.5779  0.4588
  708MPD2    C410521   0.307   1.709  13.963  0.0332 -0.7862  0.0538
  708MPD2    C510522   0.319   1.780  13.848 -0.2601  0.1454  0.4381
  708MPD2     H10523   0.068   1.902  14.110 -1.5071  4.5747 -3.0363
  708MPD2    H110524   0.357   1.614  13.975  0.3415 -0.8097 -1.3649
  708MPD2    H210525   0.269   1.957  13.738 -2.0621 -1.9946 -2.7475
  708MPD2    H310526   0.391   1.744  13.775  1.5606  1.9434  1.3239
  708MPD2     N10527   0.192   1.678  14.181 -0.1611 -0.3070  0.0142
  708MPD2    H510528   0.251   1.596  14.192  0.4877  0.3685  1.4929
  708MPD2    N110529   0.093   2.059  13.886  0.1570 -0.1202 -0.5657
  708MPD2    H710530   0.083   2.082  13.787  0.0965 -0.8373 -0.7270
  709TMC3    C110531   4.676   2.246  13.943 -0.2754  0.3798  0.1790
  709TMC3    C210532   4.608   2.235  13.823  0.3073  0.2012  0.0340
  709TMC3    C310533   4.475   2.266  13.825  0.1958 -1.0130  1.0588
  709TMC3    C410534   4.615   2.302  14.052  0.5151 -0.4986 -0.0780
  709TMC3    C510535   4.481   2.331  14.049 -0.1505 -0.7590  0.3648
  709TMC3    C610536   4.408   2.303  13.939 -0.2732  0.6744 -0.4642
  709TMC3     C10537   0.033   2.137  13.982  0.2728 -0.5436 -0.2434
  709TMC3     O10538   0.043   2.131  14.105  0.3550  0.2712  0.0579
  709TMC3     H10539   4.650   2.191  13.734 -1.8918 -0.7077 -0.5482
  709TMC3    H110540   4.676   2.330  14.137 -1.1209  0.8340  0.6396
  709TMC3    H210541   4.301   2.319  13.935 -0.7514 -1.7987  2.2968
  709TMC3    C710542   4.411   2.278  14.164 -0.6949  0.1824 -0.3362
  709TMC3    C810543   4.390   2.252  13.707 -0.2010  0.5715  1.0840
  709TMC3    O110544   4.297   2.310  14.189  0.1985  1.0121 -0.0020
  709TMC3    O210545   4.269   2.225  13.726  0.5413 -0.0266 -0.2515
  710TMC3    C110546   1.705   2.353   1.193  0.0344  0.2602 -0.4739
  710TMC3    C210547   1.728   2.457   1.108 -0.3289 -0.4948 -0.4717
  710TMC3    C310548   1.813   2.431   1.006  0.3190 -0.2925 -0.8437
  710TMC3    C410549   1.770   2.230   1.176  0.1285 -0.1383  0.6072
  710TMC3    C510550   1.853   2.213   1.073 -0.6848  0.6104  0.0242
  710TMC3    C610551   1.880   2.310   0.987  0.4756  1.0379  0.1195
  710TMC3     C10552   1.586   2.358   1.278  0.8689  0.7819  0.1304
  710TMC3     O10553   1.582   2.276   1.370 -0.4759 -0.2576 -0.6482
  710TMC3     H10554   1.691   2.559   1.117 -2.0424 -1.1345 -0.3200
  710TMC3    H110555   1.759   2.150   1.249  0.2535  0.5949  1.4295
  710TMC3    H210556   1.934   2.286   0.896  0.7168  3.0660 -0.2819
  710TMC3    C710557   1.821   2.085   1.018 -0.3136  1.0195 -0.2771
  710TMC3    C810558   1.817   2.532   0.903 -0.0320 -0.3551  0.5314
  710TMC3    O110559   1.720   2.031   1.060  0.0677  0.8451 -0.0298
  710TMC3    O210560   1.716   2.604   0.889  0.2724  0.3395  0.3725
  711TMC3    C110561   0.975   4.380  15.012 -0.5548  0.9994 -0.9741
  711TMC3    C210562   0.924   4.351  15.132  0.6873  0.0542  0.2634
  711TMC3    C310563   0.968   4.423  15.241  0.2185  0.3010 -0.1069
  711TMC3    C410564   1.060   4.482  14.983 -0.2866  0.2468  0.0282
  711TMC3    C510565   1.093   4.558  15.089  0.0403  0.5560 -0.0073
  711TMC3    C610566   1.045   4.529  15.216 -1.1891 -0.0126 -0.5224
  711TMC3     C10567   0.965   4.273  14.918 -0.5414 -0.7350  0.4347
  711TMC3     O10568   0.856   4.219  14.903 -1.0554  0.2328  0.2869
  711TMC3     H10569   0.886   4.250  15.143  1.2160  0.1262  2.7581
  711TMC3    H110570   1.113   4.478  14.889 -1.6458  0.8381 -0.7646
  711TMC3    H210571   1.075   4.597  15.295  2.9094 -1.9909 -0.4016
  711TMC3    C710572   1.231   4.609  15.095 -0.3508 -0.4477  0.4767
  711TMC3    C810573   0.995   4.347  15.357  0.1433 -0.2000 -0.4147
  711TMC3    O110574   1.291   4.594  15.200 -0.0510 -0.1621 -0.0145
  711TMC3    O210575   0.927   4.253  15.395 -0.1859  0.2940 -0.2451
  712MPD2     C10576   2.398   0.161  13.912 -0.1875 -0.4329  0.8284
  712MPD2    C110577   2.302   0.247  13.956  0.2411 -0.3491 -0.2057
  712MPD2    C210578   2.335   0.344  14.051 -0.4218 -0.4638 -0.5761
  712MPD2    C310579   2.458   0.347  14.107  0.4038 -0.0168  0.4315
  712MPD2    C410580   2.560   0.268  14.059  0.0040 -0.4874  1.0720
  712MPD2    C510581   2.522   0.167  13.967 -0.3366 -0.3386 -0.2696
  712MPD2     H10582   2.252   0.397  14.098  1.8494 -0.7636  3.8173
  712MPD2    H110583   2.666   0.275  14.082  0.2225 -2.2899  0.6160
  712MPD2    H210584   2.375   0.073  13.852  3.0703 -0.5231 -0.2707
  712MPD2    H310585   2.603   0.099  13.944  1.4665  1.2987  1.2250
  712MPD2     N10586   2.493   0.434  14.215  0.1681  0.6152  0.3037
  712MPD2    H510587   2.590   0.439  14.242  0.5891 -2.9847 -0.5729
  712MPD2    N110588   2.168   0.249  13.918 -0.1874  0.2605  0.2194
  712MPD2    H710589   2.095   0.297  13.971  1.2618  2.8325 -0.1288
  713TMC3    C110590   2.473   0.622  14.366  0.5351  0.3097  0.2605
  713TMC3    C210591   2.610   0.637  14.354  0.6822 -0.0738  0.1980
  713TMC3    C310592   2.662   0.753  14.408 -0.6256 -0.5309  0.4394
  713TMC3    C410593   2.393   0.727  14.400 -0.0937 -0.0749  0.1550
  713TMC3    C510594   2.447   0.839  14.448 -0.2442 -0.2428  0.3079
  713TMC3    C610595   2.587   0.856  14.454  0.2742 -0.9199 -0.0025
  713TMC3     C10596   2.406   0.522  14.282 -0.1240 -1.3528 -0.6175
  713TMC3     O10597   2.287   0.535  14.269  0.4919 -0.1740 -0.0293
  713TMC3     H10598   2.681   0.558  14.335 -2.4675 -3.6032  2.9757
  713TMC3    H110599   2.287   0.710  14.416  0.1528 -1.6710  0.0658
  713TMC3    H210600   2.635   0.953  14.459  0.2865 -1.1063  3.6822
  713TMC3    C710601   2.368   0.942  14.385 -0.0119  0.3787  0.1342
  713TMC3    C810602   2.801   0.779  14.372 -0.1497 -1.0399  0.1290
  713TMC3    O110603   2.282   0.903  14.313  0.4426  0.0719  0.0745
  713TMC3    O210604   2.846   0.703  14.284 -0.0047  0.7460  0.2392
  714MPD2     C10605   4.699   3.667   1.780  0.3288  0.0140  0.0540
  714MPD2    C110606   4.679   3.608   1.661 -0.1405  0.2408  0.2244
  714MPD2    C210607   4.570   3.645   1.577  0.0649  0.0034 -0.2767
  714MPD2    C310608   4.483   3.745   1.627  0.0410  0.2779  0.5248
  714MPD2    C410609   4.495   3.793   1.759 -0.0634  0.2056  0.3214
  714MPD2    C510610   4.608   3.758   1.831  0.0772  0.4920  0.4812
  714MPD2     H10611   4.569   3.609   1.474 -0.2929 -0.2921 -0.1692
  714MPD2    H110612   4.426   3.865   1.799 -0.0069  0.4690 -0.0589
  714MPD2    H210613   0.043   3.641   1.847 -1.7381 -0.5777  2.3030
  714MPD2    H310614   4.624   3.803   1.929  1.6698 -1.3672  1.0711
  714MPD2     N10615   4.385   3.792   1.540 -0.0525  0.2453 -0.9082
  714MPD2    H510616   4.395   3.765   1.442  0.6164  1.2489 -1.1122
  714MPD2    N110617   0.043   3.517   1.618  0.3443 -0.4722 -0.2930
  714MPD2    H710618   0.122   3.510   1.681  0.6905 -1.0881 -0.7940
  715TMC3    C110619   0.184   3.405   1.486 -0.2671 -0.0998  1.1919
  715TMC3    C210620   0.213   3.289   1.427  0.0198 -0.4168  0.6268
  715TMC3    C310621   0.347   3.253   1.416 -0.8292 -0.9380 -0.0748
  715TMC3    C410622   0.286   3.484   1.538  1.0312  0.7518 -0.6207
  715TMC3    C510623   0.412   3.435   1.538  0.1930 -0.1743 -0.0731
  715TMC3    C610624   0.449   3.323   1.473  0.1278 -0.6541  0.0534
  715TMC3     C10625   0.047   3.438   1.512 -0.2210  0.4731 -0.1921
  715TMC3     O10626   4.689   3.393   1.448  0.0416  0.1643 -0.4033
  715TMC3     H10627   0.140   3.238   1.367  0.9744 -0.9616 -0.0738
  715TMC3    H110628   0.273   3.584   1.579  2.3751  1.0507 -0.9228
  715TMC3    H210629   0.546   3.277   1.487 -0.5809 -1.3290  2.7660
  715TMC3    C710630   0.512   3.527   1.587  0.2084  0.4303 -0.7628
  715TMC3    C810631   0.380   3.152   1.324 -0.1021  0.3229  0.1636
  715TMC3    O110632   0.621   3.532   1.533 -0.2325  0.1470 -0.2974
  715TMC3    O210633   0.294   3.069   1.316  0.1895 -0.4063  0.0453
  716MPD2     C10634   4.295   2.443  10.056 -0.1500 -0.0376 -0.8029
  716MPD2    C110635   4.297   2.516   9.931  0.4275 -0.2777  0.4012
  716MPD2    C210636   4.418   2.512   9.856  0.1161 -0.3157  0.3921
  716MPD2    C310637   4.527   2.446   9.896 -0.4739 -0.0626  0.0246
  716MPD2    C410638   4.528   2.393  10.022 -1.2879  0.2466 -0.0722
  716MPD2    C510639   4.410   2.378  10.096  0.5139 -0.5737  1.6437
  716MPD2     H10640   4.414   2.560   9.759 -0.1637  1.6726  1.3833
  716MPD2    H110641   4.611   2.335  10.061  0.1427  2.6733  0.4506
  716MPD2    H210642   4.204   2.420  10.112 -0.3839 -1.5822 -1.8116
  716MPD2    H310643   4.406   2.320  10.188  1.3097 -0.0324  2.0203
  716MPD2     N10644   4.634   2.430   9.802  0.2646  0.2441  0.0758
  716MPD2    H510645   4.613   2.464   9.709 -0.8043  2.0518  0.9716
  716MPD2    N110646   4.175   2.577   9.886  0.4533  1.0967 -0.4229
  716MPD2    H710647   4.098   2.578   9.952 -0.2027 -1.5841 -1.1447
  717TMC3    C110648   0.106   2.353   9.715 -0.6827  0.5618 -0.0277
  717TMC3    C210649   0.054   2.389   9.588 -0.5696  0.4212 -0.4372
  717TMC3    C310650   0.132   2.355   9.479 -0.4695  0.0677  0.4664
  717TMC3    C410651   0.224   2.286   9.731  0.3948 -0.2360 -0.1993
  717TMC3    C510652   0.296   2.268   9.622  0.0105 -0.4854 -0.0801
  717TMC3    C610653   0.252   2.296   9.495 -0.5690 -0.4965  0.0026
  717TMC3     C10654   0.017   2.359   9.826  0.1464  0.2349 -0.5905
  717TMC3     O10655   0.059   2.331   9.935 -0.0969 -0.6019 -0.4651
  717TMC3     H10656   4.691   2.433   9.578 -0.3081  0.9355 -0.7806
  717TMC3    H110657   0.257   2.261   9.831  0.0683  0.6337  0.1264
  717TMC3    H210658   0.307   2.253   9.412  0.3041 -0.1020  0.3789
  717TMC3    C710659   0.423   2.201   9.647  0.0215 -0.4660  0.2232
  717TMC3    C810660   0.069   2.377   9.351 -0.2608 -0.2006 -0.3121
  717TMC3    O110661   0.436   2.126   9.741 -0.3237  0.1804  0.1784
  717TMC3    O210662   4.697   2.440   9.343  0.1104 -0.4335  0.2664
  718MPD2     C10663   3.600   1.172  12.800  0.2922  0.2143  0.6379
  718MPD2    C110664   3.699   1.096  12.854 -0.7255 -0.8769  0.0311
  718MPD2    C210665   3.660   0.998  12.942  0.1370 -0.0625  0.0391
  718MPD2    C310666   3.528   0.968  12.974 -0.1038 -1.0327 -0.5253
  718MPD2    C410667   3.432   1.045  12.920  0.0695 -0.1400 -0.2148
  718MPD2    C510668   3.471   1.147  12.840  0.1700  0.2146  0.0028
  718MPD2     H10669   3.729   0.927  12.987 -0.0593 -0.2573  0.0313
  718MPD2    H110670   3.330   1.023  12.950 -0.5489  3.5804  0.5069
  718MPD2    H210671   3.625   1.252  12.731 -0.7757 -0.7725 -0.8951
  718MPD2    H310672   3.390   1.206  12.797  2.9057  2.2563 -2.3105
  718MPD2     N10673   3.520   0.852  13.055 -0.5051 -0.6099  0.0702
  718MPD2    H510674   3.603   0.799  13.078  0.5961  1.2905  0.5170
  718MPD2    N110675   3.825   1.118  12.806 -0.4074 -0.3711 -0.1131
  718MPD2    H710676   3.834   1.201  12.749 -0.4108 -0.0253  0.3879
  719TMC3    C110677   4.067   1.092  12.815  0.5480 -0.0072 -0.6715
  719TMC3    C210678   4.152   0.988  12.841  0.3591  0.8662  0.5480
  719TMC3    C310679   4.258   1.005  12.919  0.2414 -0.1813 -0.6265
  719TMC3    C410680   4.089   1.222  12.868 -0.1152 -1.0262  0.3000
  719TMC3    C510681   4.204   1.240  12.935 -0.1177  0.3488 -0.0455
  719TMC3    C610682   4.288   1.138  12.961 -0.0457  0.2549  0.0820
  719TMC3     C10683   3.935   1.038  12.840  0.3600  0.3276 -0.1945
  719TMC3     O10684   3.932   0.921  12.881  0.6791  0.5752  0.1626
  719TMC3     H10685   4.133   0.899  12.783  0.8155 -0.4435  2.4376
  719TMC3    H110686   4.019   1.302  12.850  0.9867  0.1717  1.3794
  719TMC3    H210687   4.368   1.144  13.034 -1.3833 -1.5555  1.7098
  719TMC3    C710688   4.264   1.371  12.916  0.5830 -0.2699 -0.1228
  719TMC3    C810689   4.274   0.891  13.014 -0.8039 -0.4059 -0.0147
  719TMC3    O110690   4.358   1.378  12.835  0.2139 -0.6219  0.1834
  719TMC3    O210691   4.372   0.889  13.084  0.2213  0.2996 -0.3289
  720MPD2     C10692   2.190   2.650  13.619 -0.2900  0.0903 -0.4497
  720MPD2    C110693   2.319   2.693  13.608  0.0886 -0.3049  0.4019
  720MPD2    C210694   2.400   2.693  13.720 -0.0961  0.8085 -0.0542
  720MPD2    C310695   2.348   2.672  13.849  0.2216  0.4250  0.1774
  720MPD2    C410696   2.214   2.644  13.858  0.2571 -0.7122  1.3082
  720MPD2    C510697   2.144   2.617  13.742  0.3176  0.5709 -0.3486
  720MPD2     H10698   2.507   2.709  13.714  0.2755 -1.2174  1.2637
  720MPD2    H110699   2.166   2.621  13.953  1.5382 -3.9850  1.1524
  720MPD2    H210700   2.123   2.649  13.534  1.7429  1.0934 -2.0736
  720MPD2    H310701   2.044   2.579  13.757 -0.4815  1.6171 -3.0396
  720MPD2     N10702   2.432   2.682  13.964  0.1031 -0.2423  0.1240
  720MPD2    H510703   2.530   2.694  13.941  0.0851  1.1244  0.7305
  720MPD2    N110704   2.376   2.724  13.482 -0.7623  0.0147  0.0981
  720MPD2    H710705   2.474   2.751  13.477 -1.0329  0.5293 -2.3074
  721TMC3    C110706   2.496   2.642  14.190 -0.4164  0.6475  0.0435
  721TMC3    C210707   2.447   2.594  14.310 -0.3412  0.2869 -0.3717
  721TMC3    C310708   2.532   2.592  14.417 -0.3528 -0.1534  0.1008
  721TMC3    C410709   2.621   2.694  14.177 -0.1456 -0.2352 -0.0617
  721TMC3    C510710   2.707   2.687  14.290  0.4750 -0.2140 -0.1973
  721TMC3    C610711   2.663   2.640  14.408  0.5061  0.0386  0.9025
  721TMC3     C10712   2.388   2.667  14.098 -0.5227 -0.5685 -0.5832
  721TMC3     O10713   2.280   2.675  14.155  0.1533 -0.0124 -0.0716
  721TMC3     H10714   2.347   2.553  14.318  0.0043 -0.9895 -2.4728
  721TMC3    H110715   2.646   2.743  14.084  0.9741  0.4652  0.6063
  721TMC3    H210716   2.716   2.647  14.502 -0.2180  1.0592  1.2364
  721TMC3    C710717   2.838   2.737  14.277  0.7739  1.0167  0.1383
  721TMC3    C810718   2.494   2.510  14.531  0.2047 -0.3805  0.1727
  721TMC3    O110719   2.859   2.814  14.184  0.2923 -0.3546  0.8854
  721TMC3    O210720   2.581   2.443  14.580 -0.7076 -0.2832  0.2053
  722MPD2     C10721   1.572   1.037  13.861 -0.2839 -0.4179  0.5120
  722MPD2    C110722   1.574   1.142  13.770 -0.3110 -0.2720  0.5420
  722MPD2    C210723   1.464   1.163  13.694 -0.2936 -0.5530  0.2033
  722MPD2    C310724   1.348   1.098  13.713  0.1404 -0.5852 -0.1187
  722MPD2    C410725   1.338   0.996  13.803  0.2330  0.6174  0.0090
  722MPD2    C510726   1.458   0.965  13.873  0.5160  0.8892 -0.2965
  722MPD2     H10727   1.472   1.258  13.642  0.2447  0.9179  2.9373
  722MPD2    H110728   1.246   0.942  13.821  2.0436 -1.3077  3.5787
  722MPD2    H210729   1.656   1.004  13.920  0.4059 -2.1986 -1.4938
  722MPD2    H310730   1.451   0.886  13.946 -1.7973  1.4726  0.1246
  722MPD2     N10731   1.237   1.129  13.630 -0.1210 -0.0372  0.5175
  722MPD2    H510732   1.235   1.218  13.582 -0.7477 -0.5010 -0.3277
  722MPD2    N110733   1.688   1.227  13.754 -0.3046  0.4461  0.6622
  722MPD2    H710734   1.676   1.296  13.681  3.5451 -0.8198 -1.1906
  723TMC3    C110735   1.004   1.149  13.593  0.2760  0.5913 -0.1742
  723TMC3    C210736   0.886   1.086  13.569  0.2264 -0.1170 -1.1827
  723TMC3    C310737   0.781   1.173  13.573 -0.1429 -0.1658  0.0768
  723TMC3    C410738   1.018   1.278  13.604  0.2183 -0.0225  0.3955
  723TMC3    C510739   0.908   1.359  13.601 -0.1546  0.7126  0.1761
  723TMC3    C610740   0.784   1.308  13.600  0.0268  0.2617  0.1772
  723TMC3     C10741   1.115   1.062  13.635 -0.0528 -0.8172 -0.1126
  723TMC3     O10742   1.094   0.940  13.639  0.1206 -0.5739 -0.1569
  723TMC3     H10743   0.875   0.979  13.578 -1.9522  0.1078 -1.0996
  723TMC3    H110744   1.110   1.331  13.625  0.1425  0.6159 -0.8527
  723TMC3    H210745   0.699   1.374  13.607 -1.8134 -1.9982 -0.9161
  723TMC3    C710746   0.939   1.487  13.545 -0.2261  0.3504  0.1536
  723TMC3    C810747   0.650   1.117  13.550  0.6431 -0.4391 -0.0765
  723TMC3    O110748   1.053   1.508  13.510  0.7717  0.1145 -0.1208
  723TMC3    O210749   0.546   1.166  13.597 -0.1804 -0.2410  0.6738
  724TMC3    C110750   1.585   4.459  10.226  0.1269 -0.9003 -0.0664
  724TMC3    C210751   1.488   4.559  10.192 -0.4030  0.0594  0.3500
  724TMC3    C310752   1.521   4.633  10.080  0.0534  0.1161 -0.7644
  724TMC3    C410753   1.708   4.443  10.151  0.4812 -0.3344 -0.0407
  724TMC3    C510754   1.726   4.526  10.039 -0.3883  0.5743 -0.2821
  724TMC3    C610755   1.631   4.615  10.000  0.5293 -0.3205  0.3667
  724TMC3     C10756   1.557   4.346  10.312 -0.1280  0.7870  0.2604
  724TMC3     O10757   1.648   4.298  10.377 -0.8105  0.4526  0.0198
  724TMC3     H10758   1.389   4.551  10.236 -0.1375 -0.5314  0.8318
  724TMC3    H110759   1.763   4.351  10.169 -2.9176 -2.4161 -0.2696
  724TMC3    H210760   1.653   4.670   9.909 -0.5025 -0.8778 -0.2248
  724TMC3    C710761   1.811   4.466   9.935 -0.3012 -0.6001 -0.0340
  724TMC3    C810762   1.423   4.729  10.031 -0.2233 -0.6718 -0.0825
  724TMC3    O110763   1.842   4.349   9.947  0.1058  0.4138 -0.0910
  724TMC3    O210764   1.307   4.706  10.072  0.2566  0.2150  0.0565
  725TMC3    C110765   3.169   3.498  12.640 -0.3562  0.1679 -0.5256
  725TMC3    C210766   3.103   3.522  12.525 -0.1690  1.1251  0.6198
  725TMC3    C310767   2.994   3.444  12.494 -0.5449 -0.0950 -0.2335
  725TMC3    C410768   3.129   3.397  12.723  0.1342 -0.3127 -0.4402
  725TMC3    C510769   3.021   3.318  12.694  0.3212  0.5979  0.9465
  725TMC3    C610770   2.956   3.339  12.571 -0.4312  0.2858  0.8089
  725TMC3     C10771   3.294   3.572  12.667  0.3002  0.2160 -0.1454
  725TMC3     O10772   3.285   3.694  12.648 -0.8125 -0.1014  0.2204
  725TMC3     H10773   3.137   3.603  12.462  1.4005  0.8962  1.1639
  725TMC3    H110774   3.179   3.389  12.820 -0.7496  1.5260  0.1671
  725TMC3    H210775   2.864   3.287  12.548 -1.0581  1.9702 -0.5068
  725TMC3    C710776   3.023   3.178  12.735  0.1344  0.0799 -0.0397
  725TMC3    C810777   2.937   3.443  12.360  0.4402  0.1729 -0.4050
  725TMC3    O110778   2.939   3.104  12.697  0.0480 -0.7982  0.4985
  725TMC3    O210779   2.847   3.364  12.340  0.1661 -0.0370 -0.3635
  726MPD2     C10780   1.035   0.386  10.793  0.1202 -0.5104 -0.1255
  726MPD2    C110781   0.899   0.403  10.834  0.2412  0.0360 -0.2113
  726MPD2    C210782   0.808   0.295  10.835 -0.4878  0.8731 -0.1568
  726MPD2    C310783   0.849   0.172  10.798 -0.3003 -0.5263 -0.2867
  726MPD2    C410784   0.982   0.158  10.757 -0.6208 -0.3905  0.0019
  726MPD2    C510785   1.070   0.265  10.755 -0.4822 -0.4218  0.6153
  726MPD2     H10786   0.706   0.303  10.872 -0.0578  0.8951  1.0091
  726MPD2    H110787   1.016   0.063  10.718  0.4196  0.0999 -0.2788
  726MPD2    H210788   1.103   0.469  10.784 -1.1951  0.6653  0.7107
  726MPD2    H310789   1.169   0.249  10.712  0.6341  0.1567  2.9929
  726MPD2     N10790   0.762   0.053  10.799  0.4064  0.0084 -0.0249
  726MPD2    H510791   0.800   4.700  10.768 -1.5160 -1.3334  1.4651
  726MPD2    N110792   0.849   0.535  10.860 -0.1581 -0.1969 -0.0847
  726MPD2    H710793   0.748   0.540  10.874 -0.2119 -0.4326 -0.3856
  727TMC3    C110794   0.853   0.778  10.856  1.8349 -0.3860 -0.7720
  727TMC3    C210795   0.931   0.888  10.830 -0.2283 -0.7000 -0.3304
  727TMC3    C310796   0.877   1.003  10.816  0.0115  0.2963  0.5632
  727TMC3    C410797   0.715   0.790  10.877  0.0973 -0.4592 -0.0499
  727TMC3    C510798   0.662   0.914  10.868 -0.3505  0.0393  0.0667
  727TMC3    C610799   0.745   1.020  10.836 -0.7572 -0.0486 -0.0358
  727TMC3     C10800   0.926   0.653  10.855  0.5967 -0.0128 -0.1475
  727TMC3     O10801   1.048   0.655  10.858 -0.1429  0.1759  0.1819
  727TMC3     H10802   1.038   0.871  10.826  0.2736  2.8549 -2.8706
  727TMC3    H110803   0.653   0.704  10.901  1.3939 -1.7441 -1.3281
  727TMC3    H210804   0.703   1.120  10.835  1.7504  1.0129 -0.6103
  727TMC3    C710805   0.520   0.931  10.838 -1.2537 -0.1108 -0.9819
  727TMC3    C810806   0.946   1.081  10.708 -0.3670 -0.4546  0.6510
  727TMC3    O110807   0.487   1.045  10.834 -0.4791 -0.2378 -0.3637
  727TMC3    O210808   1.016   1.009  10.636 -0.2214  0.1532 -0.1596
  728TMC3    C110809   0.192   2.910  15.342 -0.4899 -0.0190 -0.3116
  728TMC3    C210810   0.302   2.851  15.399  0.3778 -0.2447 -0.3741
  728TMC3    C310811   0.411   2.830  15.322 -0.2480  0.0754  0.2743
  728TMC3    C410812   0.195   2.945  15.207  0.5731  0.8481 -0.0916
  728TMC3    C510813   0.307   2.930  15.136  0.0054 -0.1970  0.4059
  728TMC3    C610814   0.419   2.880  15.193  0.3952  1.0431  0.3401
  728TMC3     C10815   0.085   2.962  15.422  0.8182 -0.2138  0.1572
  728TMC3     O10816   0.024   3.057  15.377  0.0642  0.0736 -0.1361
  728TMC3     H10817   0.307   2.815  15.501 -2.4474 -1.2914 -0.5953
  728TMC3    H110818   0.109   2.989  15.158  1.0027  0.6248 -1.0444
  728TMC3    H210819   0.498   2.848  15.126  0.5722 -1.4640  1.7454
  728TMC3    C710820   0.296   2.953  14.989 -0.0042  0.1368  0.1725
  728TMC3    C810821   0.530   2.780  15.386 -0.5229  0.1400 -0.7720
  728TMC3    O110822   0.184   2.945  14.945 -0.8114 -0.0979  0.1335
  728TMC3    O210823   0.515   2.755  15.503 -0.0871  0.0523 -0.4486
  729MPD2     C10824   2.442   3.877  16.685 -0.0998 -1.3668 -0.9008
  729MPD2    C110825   2.408   4.012  16.698 -0.7800  0.3320 -0.5385
  729MPD2    C210826   2.294   4.047  16.766 -0.1352  0.5768  0.0388
  729MPD2    C310827   2.221   3.951  16.843  0.5532 -0.0026  0.8061
  729MPD2    C410828   2.266   3.817  16.840  0.3355  0.3061 -0.6720
  729MPD2    C510829   2.368   3.785  16.754 -0.1577  0.1912 -0.5887
  729MPD2     H10830   2.263   4.150  16.780 -1.4991  0.0950  0.6699
  729MPD2    H110831   2.220   3.738  16.899  1.5236  1.8041  2.2859
  729MPD2    H210832   2.530   3.836  16.638  1.2805  0.0205  0.4630
  729MPD2    H310833   2.401   3.681  16.756  1.2859  0.6717  0.8325
  729MPD2     N10834   2.111   3.983  16.929 -0.5538 -0.2397 -0.3283
  729MPD2    H510835   2.080   3.905  16.985 -0.0202 -0.0262  0.2686
  729MPD2    N110836   2.488   4.104  16.630 -0.7659 -0.4651  0.0776
  729MPD2    H710837   2.567   4.057  16.587  0.4122  0.8382  0.8384
  730TMC3    C110838   1.985   4.120  17.070 -0.3424  0.0421  0.8780
  730TMC3    C210839   2.036   4.060  17.182 -0.3581 -0.3623  0.2593
  730TMC3    C310840   1.980   4.095  17.300 -0.2299 -0.7425  1.1330
  730TMC3    C410841   1.894   4.226  17.080  0.1637  0.4133 -0.7283
  730TMC3    C510842   1.833   4.244  17.200 -0.2851  0.5340  0.7125
  730TMC3    C610843   1.877   4.185  17.310  0.3037  0.3625 -0.0120
  730TMC3     C10844   2.046   4.095  16.936  0.1741  0.3110 -0.2072
  730TMC3     O10845   2.030   4.183  16.857 -0.2414 -0.1476  0.3434
  730TMC3     H10846   2.112   3.984  17.172  0.3169  0.3563 -0.0721
  730TMC3    H110847   1.836   4.263  16.996 -0.6363 -3.0863 -1.7198
  730TMC3    H210848   1.834   4.211  17.406 -0.6779  1.2709 -0.6984
  730TMC3    C710849   1.777   4.367  17.236 -0.4826  0.5430  0.3133
  730TMC3    C810850   2.022   4.032  17.423  0.2378 -0.4430 -0.1400
  730TMC3    O110851   1.677   4.363  17.303  0.0966  0.2128 -0.1022
  730TMC3    O210852   2.006   3.913  17.444  0.1870  0.1738  0.2273
  731MPD2     C10853   3.195   1.986  12.073 -0.0206  0.1474 -0.5789
  731MPD2    C110854   3.078   1.921  12.033 -0.5572  0.3268 -0.0364
  731MPD2    C210855   2.994   1.868  12.137 -0.3169 -0.0567  0.0065
  731MPD2    C310856   3.020   1.890  12.267 -0.0575 -0.1271 -0.7288
  731MPD2    C410857   3.141   1.953  12.303 -0.3235  0.0415  0.6696
  731MPD2    C510858   3.229   1.995  12.205  0.0361  0.5626  0.2151
  731MPD2     H10859   2.898   1.825  12.113 -0.3580  0.5809 -0.9902
  731MPD2    H110860   3.171   1.961  12.407  0.4565 -2.4176  0.6161
  731MPD2    H210861   3.268   2.032  12.008 -1.0708  2.6451 -0.0189
  731MPD2    H310862   3.327   2.029  12.236 -0.4932  1.3670  0.9826
  731MPD2     N10863   2.920   1.857  12.366  0.3319 -0.1143 -0.4391
  731MPD2    H510864   2.844   1.802  12.328 -0.0755  0.0099  0.1999
  731MPD2    N110865   3.043   1.934  11.900 -0.0895 -0.1611 -0.0580
  731MPD2    H710866   3.094   2.001  11.844  0.6109 -0.8489 -0.2387
  732TMC3    C110867   2.876   1.994  11.755 -0.4193  0.5355  0.2127
  732TMC3    C210868   2.753   1.965  11.707  0.1511 -0.2454 -0.3559
  732TMC3    C310869   2.673   2.067  11.665  0.3869  0.0874  0.2674
  732TMC3    C410870   2.934   2.123  11.733 -0.5902 -0.1542  0.1233
  732TMC3    C510871   2.843   2.219  11.691  0.2597 -0.1541  0.3456
  732TMC3    C610872   2.711   2.193  11.650 -0.6211  0.1216  0.0128
  732TMC3     C10873   2.921   1.898  11.847 -0.2906  0.0368 -0.1296
  732TMC3     O10874   2.836   1.824  11.896 -0.4056 -0.6947  0.6360
  732TMC3     H10875   2.711   1.865  11.707  0.3293 -0.3210 -0.9086
  732TMC3    H110876   3.038   2.141  11.755 -0.1212 -4.2070  1.3098
  732TMC3    H210877   2.647   2.267  11.604 -0.3990 -0.0382 -0.5429
  732TMC3    C710878   2.889   2.353  11.711 -0.2139  0.7308 -0.0476
  732TMC3    C810879   2.541   2.041  11.701  1.1998  0.9138  0.0305
  732TMC3    O110880   2.861   2.439  11.627  0.0358 -0.2853  0.3543
  732TMC3    O210881   2.484   1.947  11.644 -0.2813  0.3694 -0.0288
  733TMC3    C110882   3.390   0.485  13.291  0.0048  0.2568  0.4442
  733TMC3    C210883   3.344   0.598  13.227 -1.3044  0.1673 -0.2231
  733TMC3    C310884   3.430   0.655  13.134  0.2467 -0.0521  0.0477
  733TMC3    C410885   3.510   0.429  13.275 -0.1647  0.1191  0.3362
  733TMC3    C510886   3.585   0.482  13.173  0.1848  0.0499 -0.0984
  733TMC3    C610887   3.546   0.594  13.103  0.4456  0.4517 -0.4773
  733TMC3     C10888   3.296   0.421  13.383  0.1263 -0.3305  0.1134
  733TMC3     O10889   3.309   0.300  13.392 -0.3324 -0.0413 -0.3420
  733TMC3     H10890   3.242   0.635  13.235 -0.7032  1.3689  1.7021
  733TMC3    H110891   3.538   0.342  13.333  1.9490  1.0753  0.7644
  733TMC3    H210892   3.606   0.621  13.016 -0.8609  0.0116 -1.5252
  733TMC3    C710893   3.722   0.462  13.203 -0.0070 -0.0102  0.7494
  733TMC3    C810894   3.400   0.791  13.085  0.0394  0.1343 -0.0655
  733TMC3    O110895   3.755   0.370  13.277 -0.2412 -0.2187 -0.7085
  733TMC3    O210896   3.292   0.847  13.092  0.3690 -0.6554 -0.3148
  734MPD2     C10897   0.835   3.752  12.643 -0.8540 -0.3135 -0.4717
  734MPD2    C110898   0.781   3.644  12.585  0.3172  0.7872 -0.1559
  734MPD2    C210899   0.769   3.644  12.448  0.2042  0.0527  0.4079
  734MPD2    C310900   0.811   3.753  12.374 -0.3923 -0.5945  0.0671
  734MPD2    C410901   0.872   3.863  12.430  0.1543  0.2720 -0.6009
  734MPD2    C510902   0.886   3.854  12.566  0.2602  0.4024  0.5823
  734MPD2     H10903   0.732   3.561  12.388 -2.3698 -0.5065  2.7342
  734MPD2    H110904   0.915   3.946  12.376 -1.4643  1.6517  0.2273
  734MPD2    H210905   0.857   3.742  12.749 -0.1717 -1.6445 -0.7344
  734MPD2    H310906   0.944   3.936  12.606  1.7206  0.6946 -2.1481
  734MPD2     N10907   0.783   3.733  12.238 -0.2605 -0.0969 -0.0644
  734MPD2    H510908   0.739   3.648  12.204 -0.7027 -0.9428  2.6687
  734MPD2    N110909   0.746   3.537  12.667 -0.3531  0.3837  0.1379
  734MPD2    H710910   0.779   3.529  12.762 -1.8706  0.9237  0.7014
  735TMC3    C110911   0.632   3.340  12.714 -0.9012 -0.2631 -0.5654
  735TMC3    C210912   0.515   3.275  12.685  0.2613  0.0609 -0.0807
  735TMC3    C310913   0.511   3.138  12.675  0.1075 -0.1591  0.1430
  735TMC3    C410914   0.747   3.274  12.743  0.0770  0.1240 -0.4184
  735TMC3    C510915   0.743   3.135  12.728 -0.5767  0.1977  0.5165
  735TMC3    C610916   0.623   3.068  12.697 -0.2012  0.6431  0.0911
  735TMC3     C10917   0.644   3.457  12.634 -0.0531 -0.2006 -0.4843
  735TMC3     O10918   0.564   3.464  12.546  0.3167  0.3009 -0.2316
  735TMC3     H10919   0.424   3.331  12.668  0.1484  0.2734  1.2321
  735TMC3    H110920   0.842   3.323  12.761  0.7004 -1.4537  0.5928
  735TMC3    H210921   0.644   2.965  12.672 -1.1291  0.4618  0.0359
  735TMC3    C710922   0.862   3.070  12.692 -0.1363 -0.1062 -0.8917
  735TMC3    C810923   0.447   3.091  12.557  0.2073  0.3750 -0.6357
  735TMC3    O110924   0.923   3.126  12.603 -0.5631  0.1076  0.6323
  735TMC3    O210925   0.446   2.973  12.539  0.7083 -0.0541  0.4948
  736MPD2     C10926   1.005   2.758  12.820 -0.2877 -0.4438  0.0060
  736MPD2    C110927   0.991   2.867  12.734 -0.8917  0.1079 -0.4169
  736MPD2    C210928   1.083   2.886  12.624 -0.2672  0.1809 -0.3332
  736MPD2    C310929   1.186   2.800  12.597  0.2273  0.0545 -1.0970
  736MPD2    C410930   1.197   2.691  12.683  0.5842  0.7039  0.9053
  736MPD2    C510931   1.108   2.675  12.785 -0.2017 -0.2405  0.1069
  736MPD2     H10932   1.068   2.966  12.553 -2.5912  0.0322 -0.0194
  736MPD2    H110933   1.267   2.610  12.668  0.6357  0.7566  0.8621
  736MPD2    H210934   0.942   2.734  12.905 -0.5243 -3.5184 -1.0290
  736MPD2    H310935   1.112   2.580  12.838 -0.8963 -1.1583 -1.4749
  736MPD2     N10936   1.277   2.817  12.486 -1.0095 -0.0714 -0.7071
  736MPD2    H510937   1.341   2.738  12.474  0.3288  0.9908 -0.5788
  736MPD2    N110938   0.873   2.944  12.751  0.3115 -0.1520 -0.1170
  736MPD2    H710939   0.814   2.921  12.830  1.5087  1.9785  1.3804
  737TMC3    C110940   1.413   2.929  12.326 -0.1175  0.4343  1.1392
  737TMC3    C210941   1.428   3.038  12.247 -0.0665  0.2868 -0.3469
  737TMC3    C310942   1.529   3.037  12.156 -0.4328 -1.2233 -0.3899
  737TMC3    C410943   1.499   2.822  12.316 -0.1400  0.1754  0.1444
  737TMC3    C510944   1.593   2.820  12.214 -0.5813 -0.1504  0.2013
  737TMC3    C610945   1.612   2.930  12.139  0.1324 -0.2018 -0.7183
  737TMC3     C10946   1.297   2.934  12.414 -0.7334 -0.6742 -0.1226
  737TMC3     O10947   1.231   3.041  12.417 -0.3090  0.4868  0.1642
  737TMC3     H10948   1.355   3.119  12.251 -0.2026  0.2440 -1.7463
  737TMC3    H110949   1.490   2.739  12.386 -1.4515  1.4172  1.4340
  737TMC3    H210950   1.688   2.941  12.063 -1.4607  1.5111 -2.0731
  737TMC3    C710951   1.681   2.709  12.186 -0.1632 -0.4236 -0.2744
  737TMC3    C810952   1.553   3.158  12.078 -0.2994  0.7840 -0.1184
  737TMC3    O110953   1.684   2.616  12.265  0.2412 -0.4130 -0.1638
  737TMC3    O210954   1.672   3.175  12.075  0.3086  0.0431  0.6345
  738MPD2     C10955   1.723   1.848  14.987 -1.1677  0.7219  0.0189
  738MPD2    C110956   1.721   1.719  14.949  0.2832 -0.2849 -0.0925
  738MPD2    C210957   1.786   1.686  14.830  0.2931 -0.8867  0.2391
  738MPD2    C310958   1.851   1.784  14.747 -0.0902 -0.2568  0.0652
  738MPD2    C410959   1.855   1.914  14.791  0.3000 -0.6323 -0.0830
  738MPD2    C510960   1.778   1.941  14.902 -0.0444  0.1657  0.0153
  738MPD2     H10961   1.803   1.582  14.802  2.1116 -0.3723 -0.6117
  738MPD2    H110962   1.910   1.992  14.739 -0.7003  0.4796  0.5459
  738MPD2    H210963   1.674   1.885  15.076 -0.3915 -0.5650  0.9725
  738MPD2    H310964   1.782   2.044  14.936  0.7137  0.3094 -0.5189
  738MPD2     N10965   1.936   1.756  14.634 -0.6825  0.4397 -0.0775
  738MPD2    H510966   1.973   1.836  14.585 -1.8926 -0.4764 -2.5141
  738MPD2    N110967   1.666   1.609  15.029  0.1623 -0.2791 -0.6574
  738MPD2    H710968   1.657   1.517  14.989  0.9247 -0.7081  0.1712
  739TMC3    C110969   2.011   1.644  14.445 -0.0146  0.9622  0.2031
  739TMC3    C210970   1.964   1.570  14.339  0.3265  0.8875  0.0701
  739TMC3    C310971   2.012   1.593  14.210  0.3639 -0.4583 -0.0685
  739TMC3    C410972   2.105   1.743  14.427 -0.7964 -0.0806 -0.2262
  739TMC3    C510973   2.140   1.774  14.297  0.5083  0.5548  0.7029
  739TMC3    C610974   2.091   1.700  14.189 -0.1353  0.1415 -1.6088
  739TMC3     C10975   1.933   1.635  14.567 -0.2605 -0.0436  0.4282
  739TMC3     O10976   1.883   1.526  14.591 -0.5178 -0.2218  0.1364
  739TMC3     H10977   1.903   1.485  14.368  0.8097  0.4537 -0.1855
  739TMC3    H110978   2.152   1.790  14.513  1.2214  0.6300 -1.7198
  739TMC3    H210979   2.119   1.716  14.085 -0.8991  0.6073 -1.7397
  739TMC3    C710980   2.237   1.880  14.268 -0.4974  0.0684 -0.4215
  739TMC3    C810981   1.926   1.538  14.107  0.3151 -0.2983  0.1858
  739TMC3    O110982   2.307   1.921  14.359 -0.3561  0.0492 -0.1281
  739TMC3    O210983   1.862   1.446  14.149 -0.4256  0.2910 -0.4373
  740TMC3    C110984   1.826   2.854  14.070 -0.4384  0.2010  0.1004
  740TMC3    C210985   1.937   2.883  14.151  0.1451 -0.1536 -0.5483
  740TMC3    C310986   2.060   2.918  14.094 -0.2702 -0.4210 -0.5271
  740TMC3    C410987   1.832   2.871  13.932 -0.4037 -0.6059 -0.6546
  740TMC3    C510988   1.954   2.904  13.879  0.1024 -0.4160 -0.0519
  740TMC3    C610989   2.065   2.929  13.958 -0.4461  0.5246  0.5493
  740TMC3     C10990   1.698   2.885  14.137 -0.3486 -0.8198  0.5733
  740TMC3     O10991   1.607   2.919  14.062 -0.0229  0.0802  0.0297
  740TMC3     H10992   1.933   2.875  14.259  0.4269 -2.6714 -0.7266
  740TMC3    H110993   1.759   2.839  13.859  1.8559 -3.0464 -1.8705
  740TMC3    H210994   2.156   2.948  13.901  0.2252 -0.0342  1.4379
  740TMC3    C710995   1.956   2.947  13.741  0.2075 -0.3698 -0.4342
  740TMC3    C810996   2.161   2.976  14.180 -0.1233 -0.2281 -0.6453
  740TMC3    O110997   1.850   2.940  13.684 -0.4726 -0.4774 -0.0314
  740TMC3    O210998   2.122   2.993  14.296 -0.5284  0.1432 -0.2377
  741TMC3    C110999   1.482   2.297  13.728 -0.2700  0.4080  0.0605
  741TMC3    C211000   1.417   2.227  13.823 -0.2605  0.3996 -0.2218
  741TMC3    C311001   1.462   2.110  13.871  0.0232 -0.3221  0.2745
  741TMC3    C411002   1.611   2.271  13.693  0.3051  0.1962  0.4498
  741TMC3    C511003   1.656   2.147  13.744 -0.5031 -0.2355 -0.7205
  741TMC3    C611004   1.584   2.067  13.829  0.7627 -0.4767  0.1966
  741TMC3     C11005   1.399   2.401  13.660 -0.6467 -0.3858  0.5486
  741TMC3     O11006   1.284   2.417  13.697  0.3944 -0.0806  0.3596
  741TMC3     H11007   1.319   2.264  13.848  0.0285  0.2661  1.0761
  741TMC3    H111008   1.658   2.320  13.609 -1.5168 -0.3685 -0.8681
  741TMC3    H211009   1.631   1.977  13.868  2.6057  0.7420  0.7774
  741TMC3    C711010   1.803   2.117  13.726 -0.0204 -0.0086 -0.3353
  741TMC3    C811011   1.380   2.037  13.971  0.5129  0.8328 -0.0632
  741TMC3    O111012   1.850   2.031  13.796 -0.1801  0.1561  0.0429
  741TMC3    O211013   1.281   2.100  14.014 -0.1447 -0.3126 -0.5839
  742TMC3    C111014   1.646   0.589  15.525 -0.0792  0.0032  0.0955
  742TMC3    C211015   1.602   0.497  15.427  0.6710 -0.1169 -0.4809
  742TMC3    C311016   1.702   0.462  15.337 -0.0918 -0.4497 -0.3612
  742TMC3    C411017   1.765   0.653  15.514  0.2729  0.1609 -0.0462
  742TMC3    C511018   1.862   0.607  15.428 -0.1903  0.4302  0.6044
  742TMC3    C611019   1.828   0.512  15.338 -0.5695 -0.2644 -0.5847
  742TMC3     C11020   1.606   0.564  15.657 -0.2519 -0.2131 -0.5160
  742TMC3     O11021   1.612   0.650  15.745 -0.8766 -1.0010 -0.0399
  742TMC3     H11022   1.521   0.428  15.447  1.1967 -0.4599  0.4899
  742TMC3    H111023   1.786   0.714  15.601 -1.2458 -0.4053  0.7053
  742TMC3    H211024   1.901   0.478  15.266 -1.1549 -2.1833 -0.2610
  742TMC3    C711025   1.999   0.650  15.431  0.2061 -0.1109 -0.3077
  742TMC3    C811026   1.649   0.399  15.211  0.0562  0.4145  0.3580
  742TMC3    O111027   2.064   0.620  15.337  0.0085  0.9626 -0.1922
  742TMC3    O211028   1.733   0.335  15.140  0.7246  0.3044 -0.4576
  743MPD2     C11029   0.095   1.653   1.874 -0.7594  0.4560 -0.6191
  743MPD2    C111030   0.086   1.562   1.773 -0.2309  0.0180 -0.6787
  743MPD2    C211031   0.197   1.488   1.745 -0.3668 -0.4372 -0.6110
  743MPD2    C311032   0.303   1.475   1.830 -0.2095  0.0832  0.2262
  743MPD2    C411033   0.313   1.561   1.936  0.0121  0.2689 -0.5682
  743MPD2    C511034   0.209   1.656   1.957  0.3844  0.3795 -0.1419
  743MPD2     H11035   0.186   1.426   1.657 -2.6908 -0.9415  0.0078
  743MPD2    H111036   0.397   1.553   2.004 -0.5850 -0.6010  0.0785
  743MPD2    H211037   0.021   1.725   1.906 -0.3626  0.1742  0.9762
  743MPD2    H311038   0.200   1.722   2.042  2.3261  1.8626 -1.0707
  743MPD2     N11039   0.396   1.376   1.802  0.6169 -0.5238 -0.7000
  743MPD2    H511040   0.367   1.308   1.732 -0.4546 -0.7835  0.0117
  743MPD2    N111041   4.709   1.568   1.684  0.4676 -0.2652 -0.5069
  743MPD2    H711042   4.644   1.640   1.712  1.3861  0.5344 -0.4461
  744TMC3    C111043   4.561   1.538   1.501 -0.7074 -0.7688 -0.2902
  744TMC3    C211044   4.533   1.674   1.506  0.3958 -0.2965  0.0901
  744TMC3    C311045   4.434   1.724   1.420 -0.0759 -0.9349  0.2950
  744TMC3    C411046   4.500   1.450   1.408  0.6000 -0.2481 -0.9497
  744TMC3    C511047   4.402   1.509   1.324 -0.6643  0.2518 -0.0922
  744TMC3    C611048   4.366   1.647   1.332 -0.5383 -0.0218  0.3368
  744TMC3     C11049   4.677   1.493   1.571 -0.0869  0.5297 -0.7144
  744TMC3     O11050   4.726   1.388   1.535 -0.0513  0.1874  0.0793
  744TMC3     H11051   4.585   1.733   1.581 -0.4181 -0.3587  0.7104
  744TMC3    H111052   4.535   1.349   1.393  1.2803 -0.5670  2.9102
  744TMC3    H211053   4.291   1.695   1.270 -1.3323 -3.4284 -1.3291
  744TMC3    C711054   4.338   1.431   1.222 -0.0970  1.0333  0.2060
  744TMC3    C811055   4.390   1.856   1.444 -0.7564 -0.4032  0.1376
  744TMC3    O111056   4.286   1.496   1.124 -0.2756  0.2371  0.1582
  744TMC3    O211057   4.347   1.913   1.343  0.1438  0.1703 -0.3955
  745TMC3    C111058   1.982   0.179  13.807 -0.2452 -0.5045 -0.5460
  745TMC3    C211059   1.914   0.192  13.926 -0.4478  0.4743  0.2134
  745TMC3    C311060   1.796   0.255  13.920  0.4910 -0.4841  0.3648
  745TMC3    C411061   1.930   0.227  13.693 -0.4340  0.6711  0.2739
  745TMC3    C511062   1.809   0.284  13.696  0.4162  0.6194 -0.5302
  745TMC3    C611063   1.738   0.298  13.809  0.4016 -1.0725  0.7964
  745TMC3     C11064   2.128   0.175  13.813 -0.1309  0.2176  0.5390
  745TMC3     O11065   2.193   0.164  13.707 -0.5151 -0.0470 -0.0066
  745TMC3     H11066   1.966   0.152  14.012  0.1358  2.1738  0.6475
  745TMC3    H111067   1.984   0.227  13.599  2.5737 -1.0793  1.9965
  745TMC3    H211068   1.654   0.368  13.810  1.9312  0.7865  0.0770
  745TMC3    C711069   1.771   0.384  13.590  0.4331  0.3261 -0.0016
  745TMC3    C811070   1.734   0.296  14.038 -1.0357 -0.2958  0.7664
  745TMC3    O111071   1.652   0.412  13.569  0.0401 -0.2137 -0.3061
  745TMC3    O211072   1.615   0.328  14.034 -0.3415 -0.1426  0.1933
  746TMC3    C111073   4.343   2.676  11.353 -0.2132 -0.1273  0.7963
  746TMC3    C211074   4.458   2.647  11.287  0.1686 -0.4122  0.4043
  746TMC3    C311075   4.468   2.527  11.223 -0.2338 -0.1639  0.1302
  746TMC3    C411076   4.237   2.593  11.343  0.3536  0.6666 -0.8817
  746TMC3    C511077   4.252   2.470  11.274  0.1810 -0.5446  0.3197
  746TMC3    C611078   4.366   2.440  11.216 -0.0124  0.2408  0.3270
  746TMC3     C11079   4.325   2.806  11.423  0.0017 -0.0320  0.0979
  746TMC3     O11080   4.234   2.806  11.504  0.4495  0.1482 -0.0798
  746TMC3     H11081   4.539   2.713  11.315  1.5162 -2.1635  0.6189
  746TMC3    H111082   4.143   2.622  11.388  0.4781 -0.3376  0.0440
  746TMC3    H211083   4.387   2.345  11.167  1.4750  1.1586 -0.7850
  746TMC3    C711084   4.139   2.383  11.254  0.4551  0.0219  0.4945
  746TMC3    C811085   4.580   2.500  11.144 -0.4017  0.2380  0.4438
  746TMC3    O111086   4.145   2.300  11.165 -0.3391 -0.3877  0.6828
  746TMC3    O211087   4.612   2.383  11.144  0.4631  0.3022  0.1678
  747TMC3    C111088   2.083   2.428  11.334 -0.2469 -0.3513  0.2680
  747TMC3    C211089   2.067   2.452  11.467 -0.7426 -0.1591 -0.8960
  747TMC3    C311090   2.180   2.496  11.539 -0.3087  0.6642 -0.1411
  747TMC3    C411091   2.200   2.456  11.265  0.7619  0.0251  0.2320
  747TMC3    C511092   2.298   2.500  11.341 -0.4681 -0.1901 -0.1140
  747TMC3    C611093   2.301   2.515  11.476  0.1675 -0.0521  0.1191
  747TMC3     C11094   1.969   2.425  11.247  0.2495 -0.3811  0.3526
  747TMC3     O11095   1.875   2.495  11.282  0.1851 -0.3077 -0.4128
  747TMC3     H11096   1.973   2.423  11.513  0.8205 -1.3544  1.5328
  747TMC3    H111097   2.206   2.460  11.157 -3.6606 -0.8612 -0.0863
  747TMC3    H211098   2.396   2.541  11.522  0.6337 -3.1700  0.9044
  747TMC3    C711099   2.404   2.570  11.273  0.2995 -0.5323 -0.2335
  747TMC3    C811100   2.179   2.520  11.681 -0.1257 -0.5814  0.4847
  747TMC3    O111101   2.356   2.658  11.204  0.4492 -0.4786  0.2526
  747TMC3    O211102   2.286   2.504  11.734  0.0320 -0.0456  0.7741
  748MPD2     C11103   4.311   3.004   2.113 -0.5491  0.0307  0.0604
  748MPD2    C111104   4.352   3.061   1.998  0.1834 -0.5152 -0.6986
  748MPD2    C211105   4.472   3.030   1.948 -0.1961  0.2717 -0.1463
  748MPD2    C311106   4.565   2.950   2.005  0.1576 -0.5488 -0.2005
  748MPD2    C411107   4.526   2.894   2.128  0.3842 -0.1797  0.7904
  748MPD2    C511108   4.405   2.932   2.186 -0.2627  0.7049 -0.6371
  748MPD2     H11109   4.513   3.084   1.862  0.5165 -0.7229 -0.4320
  748MPD2    H111110   4.591   2.836   2.192 -0.6401  1.2711  3.1199
  748MPD2    H211111   4.208   3.005   2.147 -0.3699  1.3911  0.5532
  748MPD2    H311112   4.374   2.904   2.286 -1.1038  1.1373 -0.7714
  748MPD2     N11113   4.683   2.919   1.934 -0.4452 -0.0794 -0.0036
  748MPD2    H511114   4.693   2.969   1.846 -1.4158  2.6351  1.4237
  748MPD2    N111115   4.261   3.139   1.930 -0.2536 -0.0757 -0.4268
  748MPD2    H711116   4.170   3.155   1.971 -0.3300 -0.7958 -0.3263
  749TMC3    C111117   0.077   2.751   1.837  0.5646 -0.2598  0.4325
  749TMC3    C211118   0.184   2.662   1.846  0.1142 -0.6841 -0.5022
  749TMC3    C311119   0.223   2.585   1.732  0.9147  0.0330 -0.8245
  749TMC3    C411120   4.730   2.750   1.732 -0.0802 -0.1889 -0.5467
  749TMC3    C511121   0.027   2.669   1.630  0.0311 -0.0456 -0.2720
  749TMC3    C611122   0.141   2.592   1.621 -0.0049 -0.8973 -0.4749
  749TMC3     C11123   0.034   2.816   1.963  0.4456 -0.1326 -0.7779
  749TMC3     O11124   0.061   2.765   2.068 -0.5136  0.3520 -0.0918
  749TMC3     H11125   0.223   2.644   1.945  0.8795 -0.5681 -0.7862
  749TMC3    H111126   4.648   2.820   1.720  0.8827  1.2266  0.9981
  749TMC3    H211127   0.172   2.546   1.528 -0.4177  1.7725 -1.9363
  749TMC3    C711128   4.719   2.714   1.500 -0.0731  0.2034 -0.2773
  749TMC3    C811129   0.347   2.502   1.743 -0.2193 -0.6364 -0.6644
  749TMC3    O111130   4.724   2.835   1.473  0.1385 -0.0005 -0.3496
  749TMC3    O211131   0.413   2.517   1.847  0.2719 -0.6076 -0.1357
  750MPD2     C11132   0.001   4.522  11.430  0.0884 -0.0414  0.2807
  750MPD2    C111133   4.602   4.504  11.428  0.4510 -0.6432  0.0266
  750MPD2    C211134   4.549   4.399  11.343 -0.0059 -0.2988  0.3083
  750MPD2    C311135   4.637   4.311  11.279  0.2132 -0.0249  0.3860
  750MPD2    C411136   0.035   4.341  11.279  0.0302 -0.1749 -0.0791
  750MPD2    C511137   0.088   4.443  11.353 -0.5636  0.5054 -0.4633
  750MPD2     H11138   4.441   4.386  11.342 -0.1494  0.8499  0.5567
  750MPD2    H111139   0.099   4.274  11.223  0.6115  2.1385 -2.1643
  750MPD2    H211140   0.044   4.580  11.511 -0.8499 -1.7663  2.0087
  750MPD2    H311141   0.195   4.463  11.353 -0.6377  0.8918  1.2824
  750MPD2     N11142   4.593   4.194  11.212  0.2630  0.2700  0.2971
  750MPD2    H511143   4.657   4.159  11.141  0.0509  0.6400 -0.0744
  750MPD2    N111144   4.516   4.578  11.518  0.5369  0.0682  0.1678
  750MPD2    H711145   4.571   4.636  11.580  0.7679 -0.2630  0.2719
  751TMC3    C111146   4.417   4.042  11.121 -0.3153 -0.7042 -0.3054
  751TMC3    C211147   4.301   3.974  11.139 -0.2235 -0.0871 -0.0146
  751TMC3    C311148   4.268   3.885  11.041  0.1096  0.5095  0.5514
  751TMC3    C411149   4.485   4.035  10.993  0.2639  1.3233  0.9224
  751TMC3    C511150   4.443   3.947  10.907 -0.9707 -1.2456 -0.2408
  751TMC3    C611151   4.331   3.876  10.925 -0.2981  0.3273  0.2318
  751TMC3     C11152   4.462   4.145  11.219  0.2192 -0.7680  0.1862
  751TMC3     O11153   4.389   4.166  11.314  0.3321  0.0864  0.2833
  751TMC3     H11154   4.261   3.960  11.239  1.4339 -3.5052  0.1688
  751TMC3    H111155   4.565   4.104  10.967  2.2720 -2.2228 -2.2501
  751TMC3    H211156   4.294   3.805  10.852  2.7522  0.6856 -1.6781
  751TMC3    C711157   4.506   3.937  10.773  1.0309  0.0511 -0.4442
  751TMC3    C811158   4.159   3.791  11.065  0.3324  0.0820  0.5103
  751TMC3    O111159   4.624   3.973  10.762  0.5871  0.3200 -0.3900
  751TMC3    O211160   4.155   3.687  11.000  0.4412  0.1042  0.4429
  752TMC3    C111161   3.161   3.952  17.236  0.6300 -0.0232 -0.7010
  752TMC3    C211162   3.223   3.872  17.322  0.0446  0.4627 -0.1654
  752TMC3    C311163   3.161   3.850  17.447  0.2426  0.1882 -0.4806
  752TMC3    C411164   3.039   4.007  17.260  0.8381 -0.4786 -0.1246
  752TMC3    C511165   2.974   3.976  17.373  0.2437  0.0594  0.4121
  752TMC3    C611166   3.042   3.902  17.473  0.3552 -0.4224  0.7298
  752TMC3     C11167   3.216   3.963  17.102 -0.6076 -0.3191 -0.1372
  752TMC3     O11168   3.336   3.949  17.095  0.1174 -0.4000 -0.1809
  752TMC3     H11169   3.320   3.836  17.292 -0.2907 -0.1644 -0.4993
  752TMC3    H111170   2.998   4.072  17.184  0.5459  1.3365  1.5701
  752TMC3    H211171   2.991   3.871  17.564 -0.2530 -1.9898 -0.1523
  752TMC3    C711172   2.830   3.982  17.360  0.3430  0.3660  0.5731
  752TMC3    C811173   3.207   3.740  17.528 -0.0114  0.1414  0.0905
  752TMC3    O111174   2.785   4.025  17.254  0.4002  0.1467  0.1395
  752TMC3    O211175   3.159   3.741  17.641 -0.0820 -0.3589 -0.7530
  753TMC3    C111176   0.313   0.388  13.963 -0.2280  0.0094  0.0050
  753TMC3    C211177   0.385   0.337  14.070 -0.1835 -0.0231 -0.5473
  753TMC3    C311178   0.431   0.206  14.063  0.2304 -0.3444  0.1621
  753TMC3    C411179   0.297   0.313  13.850 -0.6432  0.2505  0.2833
  753TMC3    C511180   0.334   0.183  13.851 -0.0703 -0.3410  0.2310
  753TMC3    C611181   0.402   0.127  13.958  0.2983 -0.1346 -0.0931
  753TMC3     C11182   0.277   0.530  13.946  0.0147 -0.1186 -0.4460
  753TMC3     O11183   0.186   0.567  13.870 -0.2173  0.1095  0.3702
  753TMC3     H11184   0.398   0.392  14.162 -1.9601 -1.6933  0.6803
  753TMC3    H111185   0.223   0.339  13.775  0.5148  0.3062 -0.8473
  753TMC3    H211186   0.440   0.027  13.942 -0.5573 -0.3098 -1.0042
  753TMC3    C711187   0.372   0.132  13.718 -0.0697 -0.2561  0.3254
  753TMC3    C811188   0.478   0.145  14.182 -0.3922  0.1615  0.0728
  753TMC3    O111189   0.390   0.013  13.713 -0.6380 -0.0125  0.7015
  753TMC3    O211190   0.450   0.024  14.187  0.7281  0.4012  0.2310
  754MPD2     C11191   4.445   3.836  12.936  0.0630  0.6539 -0.0241
  754MPD2    C111192   4.320   3.774  12.903 -0.5844  0.5217  0.2875
  754MPD2    C211193   4.242   3.825  12.805 -0.2932 -0.4168  0.0047
  754MPD2    C311194   4.276   3.942  12.738 -1.0384 -0.1800  0.0111
  754MPD2    C411195   4.390   4.009  12.775 -0.0323 -0.1957  0.4611
  754MPD2    C511196   4.473   3.959  12.880  0.5609  0.0336 -0.1337
  754MPD2     H11197   4.144   3.786  12.783 -0.1331 -0.5882 -0.3926
  754MPD2    H111198   4.418   4.106  12.736 -2.5086 -0.1965 -1.3252
  754MPD2    H211199   4.514   3.803  13.013 -1.8760 -2.2916  0.4232
  754MPD2    H311200   4.568   4.004  12.907  0.2357 -0.2398  1.5094
  754MPD2     N11201   4.204   3.997  12.635 -0.0787  0.2665 -0.4072
  754MPD2    H511202   4.223   4.092  12.604 -0.3935  0.7754  0.9922
  754MPD2    N111203   4.294   3.657  12.979 -0.4508 -0.3443  0.4905
  754MPD2    H711204   4.363   3.628  13.048 -0.5743 -1.0200  0.3294
  755MPD2     C11205   3.662   4.425  13.230 -0.9832 -0.0965  0.4295
  755MPD2    C111206   3.638   4.296  13.198 -0.3654  1.2951  0.1169
  755MPD2    C211207   3.681   4.241  13.081  0.1079  0.1919  0.4891
  755MPD2    C311208   3.769   4.310  12.993  0.0809 -0.0618  0.0623
  755MPD2    C411209   3.812   4.433  13.041 -0.2711 -0.7910  0.3864
  755MPD2    C511210   3.748   4.490  13.147  0.3651 -0.1276  0.4119
  755MPD2     H11211   3.647   4.140  13.062  1.5470  0.0095 -1.2033
  755MPD2    H111212   3.875   4.494  12.976 -1.5198  0.8614  0.7325
  755MPD2    H211213   3.627   4.469  13.323 -0.7047  0.0207  0.4790
  755MPD2    H311214   3.773   4.595  13.156  2.8498 -0.8383  1.6700
  755MPD2     N11215   3.815   4.262  12.873 -0.2860 -0.4569  0.3470
  755MPD2    H511216   3.886   4.320  12.828  0.6250 -2.2702 -0.5578
  755MPD2    N111217   3.562   4.205  13.276  0.2729  0.2017  0.4021
  755MPD2    H711218   3.570   4.106  13.257  1.3719 -0.0712  2.2472
  756MPD2     C11219   3.844   0.197   9.994  0.1940 -0.1258  0.8464
  756MPD2    C111220   3.728   0.156  10.053  0.5885 -0.9032 -0.2683
  756MPD2    C211221   3.612   0.160   9.980  0.3722  0.1219  0.4570
  756MPD2    C311222   3.601   0.206   9.848  0.0672 -0.0562  0.1584
  756MPD2    C411223   3.716   0.254   9.790  0.5693  0.1599 -0.6610
  756MPD2    C511224   3.831   0.253   9.866 -0.6155 -0.5439  0.4316
  756MPD2     H11225   3.526   0.120  10.033  0.9045 -0.7739  0.6454
  756MPD2    H111226   3.732   0.293   9.690  4.4201  0.2598 -0.0357
  756MPD2    H211227   3.938   0.203  10.049  0.7241  0.1085 -0.0832
  756MPD2    H311228   3.922   0.288   9.818  0.0462 -0.5516  1.6898
  756MPD2     N11229   3.471   0.202   9.787 -0.8443 -0.3709 -1.0818
  756MPD2    H511230   3.396   0.156   9.838  2.3911 -2.5369  1.6971
  756MPD2    N111231   3.720   0.116  10.188  0.2318 -0.4285 -1.1156
  756MPD2    H711232   3.629   0.091  10.225  0.1091 -1.1397 -1.8936
  757MPD2     C11233   2.803   4.470  10.016 -0.3573  0.7920  0.7672
  757MPD2    C111234   2.937   4.478  10.030  0.3737 -0.4329  0.9318
  757MPD2    C211235   3.008   4.572   9.959 -0.6560 -0.3257  0.0954
  757MPD2    C311236   2.942   4.666   9.883 -0.4603  0.5064 -0.7631
  757MPD2    C411237   2.807   4.658   9.868 -0.5139  0.1416 -0.2362
  757MPD2    C511238   2.742   4.560   9.935  0.2339  0.3093  0.1732
  757MPD2     H11239   3.112   4.584   9.986 -0.6728 -2.1611  1.0083
  757MPD2    H111240   2.751   4.729   9.808  0.2050  0.8752 -0.0429
  757MPD2    H211241   2.744   4.404  10.078  0.0748  0.0123  0.3395
  757MPD2    H311242   2.635   4.563   9.923  0.2006  0.3597  0.4669
  757MPD2     N11243   3.022   0.023   9.815 -0.5834 -0.2262  0.5607
  757MPD2    H511244   3.122   0.025   9.837 -0.1234 -0.8024 -1.5117
  757MPD2    N111245   2.990   4.388  10.123 -0.3026 -0.3848  0.3731
  757MPD2    H711246   2.923   4.323  10.161 -0.5761 -0.0498  0.4644
  758MPD2     C11247   4.143   3.782  15.898 -0.5338 -0.5310  0.6232
  758MPD2    C111248   4.099   3.700  15.998  0.1654  0.2705  0.8582
  758MPD2    C211249   4.104   3.749  16.126 -0.2757 -0.2810 -0.1297
  758MPD2    C311250   4.137   3.880  16.154  0.3944 -1.3782 -0.1472
  758MPD2    C411251   4.184   3.963  16.054 -0.0405  0.4806 -0.2908
  758MPD2    C511252   4.183   3.905  15.929  0.0477  0.4181  1.0097
  758MPD2     H11253   4.070   3.687  16.208 -0.7598  0.1307 -0.0152
  758MPD2    H111254   4.222   4.062  16.076  1.1111 -0.4868  2.0652
  758MPD2    H211255   4.144   3.744  15.797 -1.1185  0.7745  0.1235
  758MPD2    H311256   4.215   3.969  15.848  2.4712 -0.7972  0.9905
  758MPD2     N11257   4.128   3.927  16.288  0.0083  0.2056 -0.0286
  758MPD2    H511258   4.085   3.864  16.355  3.0747 -0.5227  1.2725
  758MPD2    N111259   4.056   3.564  15.974 -0.6129  0.0489 -0.5480
  758MPD2    H711260   4.070   3.533  15.878  0.7111 -0.0013 -0.3337
  759MPD2     C11261   3.104   2.476  10.330  0.0417  0.0714  0.3534
  759MPD2    C111262   3.153   2.360  10.271  0.2939 -0.1883 -0.6124
  759MPD2    C211263   3.180   2.352  10.137  0.7834  0.4542 -0.2398
  759MPD2    C311264   3.152   2.469  10.063  0.5701 -0.3256 -1.0294
  759MPD2    C411265   3.110   2.586  10.127 -0.4810 -0.7190 -0.1752
  759MPD2    C511266   3.072   2.586  10.259 -0.0669 -0.0110  0.6630
  759MPD2     H11267   3.216   2.260  10.091  0.6607  0.0246  0.5185
  759MPD2    H111268   3.078   2.666  10.061  0.0451  0.7115  1.2987
  759MPD2    H211269   3.080   2.483  10.435  0.5757 -3.5129  0.7134
  759MPD2    H311270   3.034   2.671  10.315  0.3476  1.5501 -1.3729
  759MPD2     N11271   3.180   2.464   9.918  0.0496  0.4672  0.1823
  759MPD2    H511272   3.203   2.371   9.886  0.5923  0.3669  0.8645
  759MPD2    N111273   3.184   2.247  10.345 -0.5725  0.0951 -0.5246
  759MPD2    H711274   3.226   2.170  10.294 -0.5868 -0.4986  0.3698
  760MPD2     C11275   2.710   4.651  12.121 -0.5469  0.8367  0.3647
  760MPD2    C111276   2.767   4.663  12.000  0.1053 -0.0958  0.8201
  760MPD2    C211277   2.767   4.551  11.919 -0.3681 -0.5072  0.1412
  760MPD2    C311278   2.711   4.437  11.951  0.0292  0.5530 -0.3328
  760MPD2    C411279   2.654   4.425  12.075  0.4029 -0.7367  0.7134
  760MPD2    C511280   2.650   4.529  12.162  0.3299 -0.1275 -0.5670
  760MPD2     H11281   2.802   4.572  11.819  1.4624  2.1163  1.3313
  760MPD2    H111282   2.613   4.329  12.104  0.3018 -0.9589 -0.1626
  760MPD2    H211283   2.712   4.728  12.198 -0.0086 -1.8559  3.0563
  760MPD2    H311284   2.609   4.522  12.262  0.7462 -0.8731 -0.4421
  760MPD2     N11285   2.711   4.322  11.870 -0.6099  0.2063  0.1868
  760MPD2    H511286   2.654   4.242  11.894 -0.3862 -0.5295 -1.7357
  760MPD2    N111287   2.839   0.039  11.962 -0.5595 -0.1173  0.0843
  760MPD2    H711288   2.868   0.052  11.866 -0.3389 -2.0224 -0.0981
  761MPD2     C11289   3.742   3.630  11.319 -0.4331 -0.0052  1.0896
  761MPD2    C111290   3.823   3.562  11.221  0.6467  0.0623  0.2178
  761MPD2    C211291   3.926   3.627  11.166 -0.1452 -0.1311  0.2527
  761MPD2    C311292   3.957   3.757  11.202  0.5044  0.4062 -0.4220
  761MPD2    C411293   3.882   3.823  11.298  0.4216 -0.6477 -0.3671
  761MPD2    C511294   3.783   3.751  11.368 -0.2394 -0.5550  0.5855
  761MPD2     H11295   3.996   3.575  11.102  0.6068 -0.5818  1.4251
  761MPD2    H111296   3.912   3.918  11.342  0.2441 -0.5850 -0.3803
  761MPD2    H211297   3.656   3.577  11.358 -0.9495  0.6119  0.7920
  761MPD2    H311298   3.736   3.796  11.455  0.4394  0.6976  0.2950
  761MPD2     N11299   4.069   3.834  11.164 -0.0715 -0.0513 -0.0844
  761MPD2    H511300   4.071   3.925  11.207 -0.4993  0.1835 -0.5643
  761MPD2    N111301   3.782   3.429  11.185 -0.0982  0.3372  0.4344
  761MPD2    H711302   3.695   3.396  11.225  0.7253  0.4834  2.3487
  762MPD2     C11303   3.886   3.306  10.406  0.4673  0.5179  0.1064
  762MPD2    C111304   3.931   3.235  10.515 -0.3050  0.4762  0.3815
  762MPD2    C211305   4.067   3.192  10.517 -0.7625 -0.4405  0.0021
  762MPD2    C311306   4.151   3.231  10.413 -0.7259  0.9452 -0.3005
  762MPD2    C411307   4.106   3.307  10.302 -0.2279 -0.5346  0.5301
  762MPD2    C511308   3.973   3.342  10.303 -0.4560 -0.1636  0.2423
  762MPD2     H11309   4.106   3.140  10.603 -0.0923  0.5547  0.3019
  762MPD2    H111310   4.174   3.330  10.221 -2.7424 -1.4107 -1.8370
  762MPD2    H211311   3.782   3.334  10.415 -0.0350 -1.5787  0.9408
  762MPD2    H311312   3.945   3.399  10.216 -1.8010  1.5259  1.7705
  762MPD2     N11313   4.281   3.186  10.424  0.5725 -0.1614 -1.3871
  762MPD2    H511314   4.303   3.134  10.508  2.3206  0.7321 -1.2800
  762MPD2    N111315   3.839   3.207  10.620  0.1677 -0.2406  0.3288
  762MPD2    H711316   3.748   3.252  10.616 -0.7483 -1.7902  3.1646
  763MPD2     C11317   1.586   3.516  16.147  0.2338  0.8608  0.1475
  763MPD2    C111318   1.460   3.567  16.134  0.0063  0.3357  1.1413
  763MPD2    C211319   1.418   3.666  16.216 -0.2474  0.0785  0.0373
  763MPD2    C311320   1.511   3.714  16.310  0.5320  0.7451  0.5616
  763MPD2    C411321   1.641   3.662  16.319  0.0534 -0.1755  0.1890
  763MPD2    C511322   1.678   3.556  16.240  0.3661  0.1208  0.0938
  763MPD2     H11323   1.318   3.706  16.202  0.0552  0.6691 -0.4421
  763MPD2    H111324   1.713   3.707  16.387  1.3513  0.9661 -1.9445
  763MPD2    H211325   1.620   3.443  16.075  0.7209  0.3914  0.8498
  763MPD2    H311326   1.781   3.528  16.225  0.0936  0.4693 -2.4927
  763MPD2     N11327   1.488   3.823  16.397 -0.7839 -0.1750 -0.4894
  763MPD2    H511328   1.565   3.862  16.450 -1.5237  0.2802  0.2483
  763MPD2    N111329   1.378   3.510  16.026  0.8127 -0.3734 -0.3566
  763MPD2    H711330   1.298   3.564  15.996  0.7060  0.9093  2.2186
  764MPD2     C11331   3.590   0.634   0.474 -0.0792  0.2979 -0.1460
  764MPD2    C111332   3.540   0.535   0.389 -0.3016 -0.8443  0.3390
  764MPD2    C211333   3.521   0.405   0.441  0.2705 -0.3704 -0.3342
  764MPD2    C311334   3.547   0.380   0.575 -0.4190 -0.3522  0.1527
  764MPD2    C411335   3.572   0.481   0.656 -0.2393 -0.5005 -0.1613
  764MPD2    C511336   3.591   0.609   0.609  0.7766 -0.2664  0.0278
  764MPD2     H11337   3.489   0.322   0.379 -0.3539 -1.2909  1.2169
  764MPD2    H111338   3.585   0.468   0.763  0.5277 -0.6305 -0.2723
  764MPD2    H211339   3.633   0.727   0.440  0.1822  0.1678 -0.1664
  764MPD2    H311340   3.630   0.684   0.677 -0.6344 -0.9530  1.6100
  764MPD2     N11341   3.521   0.251   0.624 -0.4283 -0.2995 -0.4585
  764MPD2    H511342   3.482   0.183   0.560  0.9107 -0.1591 -1.4162
  764MPD2    N111343   3.512   0.565   0.252  0.2065 -0.3286  0.3250
  764MPD2    H711344   3.474   0.494   0.190  1.9583 -1.0674  0.0865
  765MPD2     C11345   3.468   2.741  15.987 -0.2072 -0.0400 -0.6105
  765MPD2    C111346   3.572   2.837  15.952  0.3254  0.1752  0.5041
  765MPD2    C211347   3.708   2.799  15.950  0.1576  0.6288  1.2300
  765MPD2    C311348   3.742   2.673  15.984 -0.3044  0.0606  0.8549
  765MPD2    C411349   3.645   2.579  16.020 -0.6582 -0.2859 -0.0009
  765MPD2    C511350   3.511   2.620  16.019  0.4303  0.0268  0.3352
  765MPD2     H11351   3.787   2.868  15.922  1.6869 -0.6550  2.3972
  765MPD2    H111352   3.674   2.481  16.057 -2.6797 -1.5065 -1.6249
  765MPD2    H211353   3.363   2.762  15.976  0.4136  1.1217 -4.2336
  765MPD2    H311354   3.435   2.548  16.046  0.8338 -0.4558  0.1819
  765MPD2     N11355   3.879   2.638  15.982 -0.2238  0.4629  0.2096
  765MPD2    H511356   3.941   2.699  15.930 -2.4862  1.7968 -0.9185
  765MPD2    N111357   3.531   2.970  15.917  0.5486  0.1045  0.4076
  765MPD2    H711358   3.434   2.997  15.926 -0.0895 -1.2366 -2.2905
  766MPD2     C11359   3.026   3.366  15.559  0.1986 -0.5438  0.3686
  766MPD2    C111360   3.143   3.290  15.570 -0.2410 -0.5757 -0.2168
  766MPD2    C211361   3.185   3.214  15.462 -1.4682  0.5103  0.1417
  766MPD2    C311362   3.128   3.237  15.330 -0.2508  0.0649  0.0574
  766MPD2    C411363   3.021   3.319  15.320 -0.6072  0.0018 -0.1236
  766MPD2    C511364   2.967   3.368  15.438  0.1025 -0.0330 -0.0960
  766MPD2     H11365   3.280   3.161  15.466 -1.0911  0.9945 -2.1817
  766MPD2    H111366   2.970   3.343  15.227 -0.3328 -0.1285 -0.3056
  766MPD2    H211367   2.992   3.425  15.644  0.3037  1.3033 -0.8742
  766MPD2    H311368   2.877   3.424  15.415  1.1671  0.9523 -1.8796
  766MPD2     N11369   3.197   3.196  15.211  0.5923 -0.4115 -0.6706
  766MPD2    H511370   3.176   3.231  15.117  0.6669 -0.6490 -0.7751
  766MPD2    N111371   3.224   3.273  15.688  0.1988 -0.4488 -0.5600
  766MPD2    H711372   3.303   3.210  15.679  0.2198 -0.4115 -0.6410
  767MPD2     C11373   2.737   3.562  15.229  0.1950 -0.3481  0.1064
  767MPD2    C111374   2.832   3.637  15.164  0.0087  0.0025 -0.2701
  767MPD2    C211375   2.888   3.579  15.050 -0.9022 -0.5154 -0.7744
  767MPD2    C311376   2.858   3.447  15.004 -0.3611 -0.2678  0.0471
  767MPD2    C411377   2.770   3.380  15.082 -0.5875 -0.1362  0.5782
  767MPD2    C511378   2.706   3.438  15.187 -0.2730  0.2189 -0.2571
  767MPD2     H11379   2.956   3.635  14.986  0.5563 -0.7704  0.5437
  767MPD2    H111380   2.736   3.281  15.054  1.4523 -0.7231  0.1357
  767MPD2    H211381   2.680   3.609  15.308 -1.6749 -1.5184 -0.5521
  767MPD2    H311382   2.619   3.390  15.230  1.0091 -1.1798  0.7732
  767MPD2     N11383   2.912   3.394  14.887 -0.0174  0.0539  0.1220
  767MPD2    H511384   2.963   3.460  14.830 -0.8730 -1.0453 -1.9104
  767MPD2    N111385   2.867   3.764  15.207 -0.2424 -0.2340 -0.0890
  767MPD2    H711386   2.832   3.782  15.301 -0.8683 -0.5841 -0.2497
  768MPD2     C11387   4.278   2.029  10.851 -0.3897 -1.0733  0.1804
  768MPD2    C111388   4.204   1.992  10.964 -0.3660  0.1960  0.0066
  768MPD2    C211389   4.254   2.012  11.091  0.6500  0.2193  0.2481
  768MPD2    C311390   4.379   2.073  11.106 -0.0558 -0.1921  0.4451
  768MPD2    C411391   4.449   2.113  10.994 -0.5062 -0.5047 -0.1605
  768MPD2    C511392   4.398   2.092  10.874 -0.2279  0.1236 -0.6084
  768MPD2     H11393   4.194   1.995  11.180  0.3971  2.1656  0.4480
  768MPD2    H111394   4.550   2.151  10.999 -0.1642 -1.3826 -0.4805
  768MPD2    H211395   4.262   2.012  10.745 -3.9161 -1.0540  0.7246
  768MPD2    H311396   4.456   2.111  10.785 -0.3489 -0.5731 -0.8361
  768MPD2     N11397   4.445   2.075  11.229  0.3998  0.4807 -0.1395
  768MPD2    H511398   4.539   2.114  11.226  0.9878 -0.8605  0.7762
  768MPD2    N111399   4.072   1.933  10.954  0.5179  0.1441  0.6765
  768MPD2    H711400   4.030   1.899  11.040 -2.4394  1.6088 -0.1832
  769MPD2     C11401   0.481   4.465  15.050 -0.4607  0.0786  0.4387
  769MPD2    C111402   0.391   4.463  15.154  0.2025  0.1148 -0.4379
  769MPD2    C211403   0.425   4.522  15.278 -0.9584  0.7345 -0.1774
  769MPD2    C311404   0.546   4.584  15.298 -0.2202 -0.3300 -1.0292
  769MPD2    C411405   0.642   4.569  15.195  0.6741  0.1489  0.1727
  769MPD2    C511406   0.604   4.518  15.072 -0.2089 -0.0268 -0.7779
  769MPD2     H11407   0.359   4.517  15.364 -1.0933  2.9081 -0.1456
  769MPD2    H111408   0.740   4.614  15.202  0.2082  1.4296 -1.6282
  769MPD2    H211409   0.444   4.426  14.957  0.5057 -1.8973  0.8773
  769MPD2    H311410   0.683   4.512  14.998  1.7140  0.6344  1.1995
  769MPD2     N11411   0.580   4.630  15.430 -0.4862  0.7499 -0.4041
  769MPD2    H511412   0.514   4.626  15.507 -2.6339 -2.0866 -2.3966
  769MPD2    N111413   0.277   4.386  15.130  0.6880  0.1766  0.1760
  769MPD2    H711414   0.264   4.346  15.038 -1.1662  2.2551 -0.4602
  770MPD2     C11415   4.320   3.631  15.424 -0.2597 -0.1523  0.0605
  770MPD2    C111416   4.338   3.625  15.290  0.8742  0.1661  0.7397
  770MPD2    C211417   4.440   3.691  15.237 -0.1875  0.5065  0.1375
  770MPD2    C311418   4.523   3.766  15.313  0.0035  0.1745 -0.0133
  770MPD2    C411419   4.507   3.778  15.447  0.1201 -0.1010 -0.0258
  770MPD2    C511420   4.404   3.704  15.503  0.5967  0.6278 -0.0266
  770MPD2     H11421   4.458   3.678  15.131 -0.6000  2.0271 -0.1227
  770MPD2    H111422   4.558   3.843  15.517 -0.4284  0.0042  0.2790
  770MPD2    H211423   4.237   3.582  15.473 -0.4229  1.7559  1.7084
  770MPD2    H311424   4.383   3.714  15.609 -0.3928  1.3919 -0.3022
  770MPD2     N11425   4.613   3.849  15.242 -0.7588 -1.2917  0.1369
  770MPD2    H511426   4.610   3.852  15.141  0.4450  0.0120  0.1322
  770MPD2    N111427   4.246   3.541  15.216  0.3341 -0.2935 -0.1301
  770MPD2    H711428   4.172   3.492  15.265  0.4179  0.8319  1.1200
  771MPD2     C11429   0.985   2.638  13.866  0.0232 -0.3724 -0.0230
  771MPD2    C111430   0.881   2.703  13.806  0.1287 -0.1767 -0.1292
  771MPD2    C211431   0.762   2.649  13.803 -0.9988  0.2221 -0.1221
  771MPD2    C311432   0.735   2.525  13.860  0.5317 -0.5759 -0.1338
  771MPD2    C411433   0.839   2.460  13.922 -0.0327 -0.2910  0.2218
  771MPD2    C511434   0.964   2.518  13.927  0.3609 -0.6402 -0.3167
  771MPD2     H11435   0.678   2.700  13.758  0.3652  1.7558 -0.9042
  771MPD2    H111436   0.829   2.361  13.966  0.3516  0.1747  1.3679
  771MPD2    H211437   1.086   2.677  13.857 -0.6447  1.4461  0.3689
  771MPD2    H311438   1.048   2.464  13.968 -0.9045 -0.7351  2.1505
  771MPD2     N11439   0.609   2.466  13.842 -0.7569  0.4683  0.2065
  771MPD2    H511440   0.551   2.512  13.772 -1.1442  2.2178  1.6896
  771MPD2    N111441   0.900   2.828  13.738  0.0258 -0.1836 -0.4786
  771MPD2    H711442   0.812   2.875  13.725  0.4003  0.7098  0.1902
  772MPD2     C11443   0.580   3.391  13.449  0.4426 -0.0377  0.2171
  772MPD2    C111444   0.552   3.262  13.473  0.2343  0.5338  0.2908
  772MPD2    C211445   0.421   3.229  13.506  0.0924 -0.7626  0.0353
  772MPD2    C311446   0.320   3.326  13.503  0.6161 -0.5548  0.2993
  772MPD2    C411447   0.358   3.457  13.474  0.2547  0.0101 -0.1001
  772MPD2    C511448   0.486   3.486  13.456  0.6830  0.5210  0.1658
  772MPD2     H11449   0.398   3.124  13.518 -0.6604 -0.5880  0.1125
  772MPD2    H111450   0.286   3.537  13.462 -0.7985 -0.7448  1.0767
  772MPD2    H211451   0.680   3.427  13.427  0.0947 -0.0615 -1.3463
  772MPD2    H311452   0.518   3.585  13.425  2.5232 -0.2325 -0.3698
  772MPD2     N11453   0.182   3.302  13.523  0.5643 -0.4974 -0.3916
  772MPD2    H511454   0.116   3.379  13.516  0.1875 -0.8111 -0.2986
  772MPD2    N111455   0.653   3.169  13.477  0.6968 -0.7377  0.0508
  772MPD2    H711456   0.643   3.095  13.545  1.0827 -0.6281  0.2273
  773MPD2     C11457   0.137   3.659   0.379  0.0233  0.2704 -0.2869
  773MPD2    C111458   0.039   3.579   0.318  0.5590 -0.0970  0.2908
  773MPD2    C211459   0.069   3.441   0.320 -0.7708  0.0072  0.7057
  773MPD2    C311460   0.190   3.386   0.370  1.0185  0.3188  0.7979
  773MPD2    C411461   0.291   3.473   0.402 -0.2135  0.3207  1.0414
  773MPD2    C511462   0.260   3.610   0.408  0.1731 -0.7715 -0.2132
  773MPD2     H11463   4.731   3.372   0.283 -0.7761 -1.8095  4.1204
  773MPD2    H111464   0.386   3.454   0.449 -0.3219  0.3967  1.2940
  773MPD2    H211465   0.130   3.767   0.391  0.1591  0.3644 -1.0693
  773MPD2    H311466   0.327   3.684   0.450 -0.6280 -0.0197 -0.2655
  773MPD2     N11467   0.209   3.246   0.363 -0.1332  0.2564 -0.1948
  773MPD2    H511468   0.138   3.188   0.321  1.1569 -0.4440 -1.4107
  773MPD2    N111469   4.646   3.619   0.274  0.2272 -0.3407  0.1531
  773MPD2    H711470   4.596   3.551   0.218 -2.1658  0.8901  0.7616
  774MPD2     C11471   3.427   3.154  13.454 -0.2218 -0.3151  0.6481
  774MPD2    C111472   3.511   3.216  13.543  0.3701  0.8074  0.5544
  774MPD2    C211473   3.626   3.277  13.499  0.5372 -0.1738  0.2543
  774MPD2    C311474   3.660   3.268  13.361  0.6282 -0.1835 -0.0573
  774MPD2    C411475   3.562   3.227  13.268  0.0728  0.2579 -0.0727
  774MPD2    C511476   3.449   3.167  13.316 -0.5229 -0.1843  0.7071
  774MPD2     H11477   3.699   3.324  13.564 -0.8027  1.7962  0.3389
  774MPD2    H111478   3.583   3.218  13.162 -1.0249  2.1069 -0.4393
  774MPD2    H211479   3.338   3.104  13.489  0.0101 -1.0811  0.1301
  774MPD2    H311480   3.390   3.117  13.241 -1.3588  0.8064  0.6937
  774MPD2     N11481   3.785   3.324  13.333 -0.3944  0.8341 -0.3209
  774MPD2    H511482   3.850   3.348  13.408 -0.4620  0.1866 -0.0581
  774MPD2    N111483   3.507   3.206  13.684 -0.4093  0.3983 -0.2603
  774MPD2    H711484   3.588   3.254  13.721 -0.0155 -0.8738  0.5472
  775MPD2     C11485   0.915   4.580  15.949 -0.8850  0.2911 -0.2915
  775MPD2    C111486   0.877   4.697  16.011 -0.8010 -0.1046 -0.9038
  775MPD2    C211487   0.966   0.070  16.004 -0.3784  0.3103 -0.2458
  775MPD2    C311488   1.076   0.063  15.926 -0.4804  0.2542 -0.7657
  775MPD2    C411489   1.105   4.681  15.864 -0.0863 -0.0168 -0.5691
  775MPD2    C511490   1.023   4.572  15.867  0.1478 -0.2463  0.4185
  775MPD2     H11491   0.938   0.155  16.065  1.5763  0.1174  0.9136
  775MPD2    H111492   1.199   4.682  15.810  0.9289 -0.8874  1.1913
  775MPD2    H211493   0.851   4.493  15.955 -0.4229  0.0646  1.2583
  775MPD2    H311494   1.048   4.478  15.819  0.3898 -0.8319  1.6997
  775MPD2     N11495   1.161   0.176  15.894  0.2086  0.1634  0.2930
  775MPD2    H511496   1.213   0.159  15.809 -1.6279 -2.3046 -0.3464
  775MPD2    N111497   0.754   4.684  16.081 -0.2906 -0.2502  0.0830
  775MPD2    H711498   0.713   4.592  16.075 -0.1602 -0.2807 -0.3257
  776MPD2     C11499   4.721   0.322  11.844 -0.0571 -0.0884  0.1471
  776MPD2    C111500   4.588   0.353  11.804 -0.3622  0.5460 -0.3657
  776MPD2    C211501   4.551   0.488  11.818  0.2411  0.0077 -0.3639
  776MPD2    C311502   4.639   0.592  11.857  0.4040 -0.7284 -0.1363
  776MPD2    C411503   0.025   0.550  11.896 -0.4237  0.2702 -0.4670
  776MPD2    C511504   0.064   0.420  11.893  0.2307 -0.7818 -0.2123
  776MPD2     H11505   4.459   0.521  11.771 -0.6461 -1.6776  0.2024
  776MPD2    H111506   0.102   0.617  11.934  1.1718 -1.8871  0.0919
  776MPD2    H211507   0.023   0.221  11.843  1.0369  0.3544 -2.3230
  776MPD2    H311508   0.158   0.396  11.943 -2.2244 -3.9989  2.8660
  776MPD2     N11509   4.612   0.728  11.858  0.1726 -0.4287  0.4189
  776MPD2    H511510   4.662   0.794  11.917 -1.4414  1.7871 -0.7064
  776MPD2    N111511   4.507   0.250  11.760 -0.2134 -0.6621 -0.2345
  776MPD2    H711512   4.547   0.157  11.753 -0.4168 -0.7905  0.3182
  777MPD2     C11513   0.296   1.834   0.668 -0.5195 -0.5765 -0.2171
  777MPD2    C111514   0.313   1.726   0.758 -0.1774 -0.2689  0.4635
  777MPD2    C211515   0.258   1.607   0.721 -0.8604  0.3610 -0.2356
  777MPD2    C311516   0.190   1.587   0.596  0.2529  0.2697 -0.4375
  777MPD2    C411517   0.178   1.697   0.509  0.3093  0.0982 -0.7862
  777MPD2    C511518   0.237   1.808   0.545  1.2303  0.5281  0.3938
  777MPD2     H11519   0.286   1.519   0.778 -1.7921 -0.0745 -0.4435
  777MPD2    H111520   0.123   1.682   0.417 -1.2824 -0.4815  0.2602
  777MPD2    H211521   0.326   1.935   0.692 -0.3139 -0.8225  0.5908
  777MPD2    H311522   0.236   1.889   0.472 -1.8096  1.3480  1.3537
  777MPD2     N11523   0.147   1.454   0.564  0.3923 -0.1019 -0.0005
  777MPD2    H511524   0.163   1.386   0.639  1.5653 -0.4293 -0.5406
  777MPD2    N111525   0.376   1.748   0.881 -0.3793  0.4144  0.1433
  777MPD2    H711526   0.403   1.844   0.901  0.2598  0.6669 -1.9776
  778MPD2     C11527   1.014   2.467  14.965 -0.1293  0.0763 -0.1273
  778MPD2    C111528   1.043   2.354  14.893 -0.4208 -0.3435  0.0030
  778MPD2    C211529   1.079   2.377  14.762 -0.6245  0.3068  0.3281
  778MPD2    C311530   1.095   2.502  14.706  0.3956 -1.0238  0.4716
  778MPD2    C411531   1.055   2.606  14.784  0.0895  0.5839  0.0183
  778MPD2    C511532   1.010   2.592  14.905 -0.9199  0.1958 -0.1743
  778MPD2     H11533   1.108   2.295  14.698 -3.2417 -0.1713 -0.2214
  778MPD2    H111534   1.074   2.707  14.749 -2.4151  1.0362 -0.0506
  778MPD2    H211535   1.001   2.453  15.071 -0.5765 -0.6808 -0.2838
  778MPD2    H311536   1.005   2.684  14.962  3.4811  0.6659 -0.5635
  778MPD2     N11537   1.148   2.523  14.576  0.4061  0.5544 -0.0353
  778MPD2    H511538   1.182   2.442  14.526  0.7971  0.1277  0.9069
  778MPD2    N111539   1.021   2.223  14.940  0.1434  0.2237 -0.0770
  778MPD2    H711540   1.024   2.148  14.872 -2.0189  0.3101 -0.2592
  779MPD2     C11541   0.503   1.032  14.434 -0.1503 -0.1701 -0.7353
  779MPD2    C111542   0.622   1.085  14.490 -0.6292 -0.3516 -0.7462
  779MPD2    C211543   0.677   1.208  14.434 -0.2630 -0.0938  0.3770
  779MPD2    C311544   0.606   1.282  14.344 -0.1120  0.8012  0.0773
  779MPD2    C411545   0.493   1.224  14.295  0.3181 -0.9403 -0.3418
  779MPD2    C511546   0.437   1.108  14.340 -0.5413 -0.3742  0.4716
  779MPD2     H11547   0.775   1.244  14.463 -0.3170  0.1282  0.2856
  779MPD2    H111548   0.440   1.271  14.213 -3.0767 -1.3743  1.6107
  779MPD2    H211549   0.463   0.935  14.462  0.7081 -0.4212 -0.3586
  779MPD2    H311550   0.354   1.060  14.289  0.1043 -1.6022  0.5715
  779MPD2     N11551   0.659   1.408  14.300 -0.2034  0.7452  0.1502
  779MPD2    H511552   0.744   1.444  14.343 -0.1752  0.1644  0.5832
  779MPD2    N111553   0.691   1.015  14.585  0.3909 -0.5790 -0.2633
  779MPD2    H711554   0.790   1.028  14.605  0.2214 -0.6785  0.6590
  780MPD2     C11555   0.093   0.713   1.221  0.5173  0.2405  0.0300
  780MPD2    C111556   0.004   0.675   1.119 -0.1683 -0.4922  0.8272
  780MPD2    C211557   0.046   0.663   0.988 -0.1335 -0.2247 -0.2901
  780MPD2    C311558   0.178   0.682   0.963 -0.9095  0.2939  0.0197
  780MPD2    C411559   0.267   0.705   1.067  0.2881  0.1955  0.6025
  780MPD2    C511560   0.226   0.722   1.193 -0.5193 -0.1021  0.3541
  780MPD2     H11561   4.714   0.634   0.909  0.0714 -1.1116 -0.1359
  780MPD2    H111562   0.373   0.708   1.046 -0.1271 -0.1364 -1.5209
  780MPD2    H211563   0.052   0.708   1.321  1.9755 -1.6602  0.5388
  780MPD2    H311564   0.298   0.743   1.271  0.8695  2.5025 -1.5903
  780MPD2     N11565   0.206   0.668   0.823  0.1392 -0.5068 -0.3125
  780MPD2    H511566   0.125   0.649   0.765 -0.3080 -1.2135  0.5500
  780MPD2    N111567   4.608   0.652   1.165  0.4091  0.2358  0.2876
  780MPD2    H711568   4.592   0.629   1.263  2.1369 -0.5863  0.3822
  781MPD2     C11569   2.551   3.707  11.782  0.5191  0.0516 -0.5751
  781MPD2    C111570   2.579   3.573  11.793 -0.4584  0.0459 -0.2820
  781MPD2    C211571   2.609   3.491  11.680 -0.3368  0.0046 -0.0745
  781MPD2    C311572   2.630   3.552  11.554 -0.1416 -0.4320 -0.5306
  781MPD2    C411573   2.617   3.688  11.553  0.2292  0.2090 -0.0116
  781MPD2    C511574   2.574   3.765  11.661 -0.4599 -0.3592 -0.4939
  781MPD2     H11575   2.616   3.384  11.689  0.2130 -0.1525 -2.2186
  781MPD2    H111576   2.611   3.744  11.460  3.4991  1.7160  0.6740
  781MPD2    H211577   2.519   3.777  11.858  2.2633  2.3314 -1.9470
  781MPD2    H311578   2.555   3.870  11.640  3.3009  0.7629  1.7962
  781MPD2     N11579   2.678   3.491  11.435  0.4937  0.0133 -0.2280
  781MPD2    H511580   2.708   3.551  11.358  0.1602  1.3094  0.6489
  781MPD2    N111581   2.568   3.505  11.918  0.9368 -0.0509  0.7803
  781MPD2    H711582   2.579   3.405  11.925  0.2347 -0.2754 -1.3911
  782MPD2     C11583   0.598   4.295  10.102 -0.5258 -0.5540 -0.2369
  782MPD2    C111584   0.550   4.213  10.206 -0.1271 -0.4424 -0.2093
  782MPD2    C211585   0.557   4.260  10.335 -0.4069 -0.5011  0.2884
  782MPD2    C311586   0.616   4.387  10.366 -0.0986 -0.6550 -0.3864
  782MPD2    C411587   0.666   4.469  10.271  0.5595  0.1914  0.9014
  782MPD2    C511588   0.654   4.422  10.138  0.1321  0.5195 -0.7670
  782MPD2     H11589   0.521   4.191  10.410 -2.0535 -0.1315 -0.1724
  782MPD2    H111590   0.708   4.568  10.283  2.7885 -0.4812 -1.3167
  782MPD2    H211591   0.595   4.257  10.001 -1.1027  1.4310 -0.9696
  782MPD2    H311592   0.693   4.488  10.062  0.0281 -0.0262 -1.2920
  782MPD2     N11593   0.612   4.442  10.495 -0.1716  0.1830 -0.5006
  782MPD2    H511594   0.624   4.542  10.500 -1.8099  0.3075  0.9909
  782MPD2    N111595   0.494   4.089  10.183 -0.0114 -0.4507  0.3601
  782MPD2    H711596   0.471   4.030  10.263  0.6542  0.3806  1.1718
  783MPD2     C11597   4.334   3.894  10.447  0.5461  0.1973  0.5097
  783MPD2    C111598   4.443   3.894  10.534 -0.0023  0.2149 -0.5189
  783MPD2    C211599   4.571   3.887  10.483  0.0271 -0.1190  0.4440
  783MPD2    C311600   4.595   3.863  10.349  0.2266  0.2509  0.1935
  783MPD2    C411601   4.490   3.850  10.262  0.3949  0.7541 -0.3022
  783MPD2    C511602   4.364   3.882  10.308  0.0549  0.1532  0.3858
  783MPD2     H11603   4.650   3.895  10.557 -0.9155 -0.4454  1.4825
  783MPD2    H111604   4.497   3.824  10.157  1.8983  1.0194 -0.2696
  783MPD2    H211605   4.230   3.905  10.476  0.5692  2.6415 -0.3157
  783MPD2    H311606   4.284   3.863  10.237  1.4028 -1.7250 -0.6443
  783MPD2     N11607   4.725   3.845  10.309  0.1265 -0.0833  0.1651
  783MPD2    H511608   0.060   3.851  10.380  1.2140 -0.5527 -0.8800
  783MPD2    N111609   4.413   3.908  10.672 -0.4292 -0.5634  0.1492
  783MPD2    H711610   4.317   3.897  10.703 -0.8129  0.6795 -0.5976
  784MPD2     C11611   2.202   3.941   1.079  0.7590  0.9751  0.0823
  784MPD2    C111612   2.283   4.033   1.021  0.7373  0.0476  0.0238
  784MPD2    C211613   2.228   4.134   0.944 -0.0946 -0.2842 -0.9787
  784MPD2    C311614   2.088   4.118   0.918  0.4639 -0.0416  0.2172
  784MPD2    C411615   2.010   4.023   0.975  0.2395  0.3469 -0.0566
  784MPD2    C511616   2.068   3.943   1.063 -0.3545 -0.2762 -0.3241
  784MPD2     H11617   2.287   4.198   0.879  0.5598 -0.8522 -0.9524
  784MPD2    H111618   1.904   4.003   0.968  0.2984  0.0863 -0.2180
  784MPD2    H211619   2.241   3.868   1.149  1.3330 -0.5204 -1.8032
  784MPD2    H311620   2.012   3.868   1.118  1.3457 -1.0905  0.3087
  784MPD2     N11621   2.021   4.221   0.842 -0.6758 -0.1088 -0.3848
  784MPD2    H511622   2.084   4.297   0.820 -0.8098  0.1309  0.0586
  784MPD2    N111623   2.420   4.036   1.039  0.6170 -0.2769 -0.6495
  784MPD2    H711624   2.466   4.110   0.987 -1.1786  1.0873 -0.3134
  785MPD2     C11625   2.774   2.345  10.386  0.5071 -0.0687  1.2086
  785MPD2    C111626   2.690   2.317  10.491  0.1882  0.3892 -0.9276
  785MPD2    C211627   2.570   2.251  10.475  0.1922 -0.0015  0.2116
  785MPD2    C311628   2.530   2.231  10.350  0.0536 -0.4643 -0.2163
  785MPD2    C411629   2.619   2.253  10.244 -0.5035  0.7097  0.1593
  785MPD2    C511630   2.743   2.307  10.261  0.2758 -0.6372 -0.8665
  785MPD2     H11631   2.500   2.235  10.557 -2.6627  0.8071 -2.0622
  785MPD2    H111632   2.601   2.243  10.138  1.1453 -0.9536  0.0366
  785MPD2    H211633   2.869   2.396  10.401  0.1781  1.3691 -1.6108
  785MPD2    H311634   2.809   2.334  10.179  0.6482  0.9693 -0.0333
  785MPD2     N11635   2.405   2.175  10.331 -0.6589  0.0438 -0.5594
  785MPD2    H511636   2.349   2.174  10.416  0.4354  0.8626  0.1735
  785MPD2    N111637   2.724   2.359  10.622 -0.0306 -0.4883 -0.2824
  785MPD2    H711638   2.661   2.339  10.699  1.2081 -3.5316 -0.0752
  786MPD2     C11639   1.270   0.414  14.853 -1.1709 -0.2341  0.2344
  786MPD2    C111640   1.368   0.326  14.875 -0.9984 -0.3198  0.2669
  786MPD2    C211641   1.448   0.332  14.981  0.3605  0.0113  0.0821
  786MPD2    C311642   1.432   0.426  15.079  0.5249  0.2435 -0.9596
  786MPD2    C411643   1.330   0.518  15.060 -0.0258  0.3830  0.7390
  786MPD2    C511644   1.248   0.510  14.950  0.2829  0.2039 -0.5910
  786MPD2     H11645   1.535   0.267  14.979 -1.5561 -2.5360 -1.1154
  786MPD2    H111646   1.314   0.605  15.122  2.3928  0.5806  1.0957
  786MPD2    H211647   1.207   0.417  14.765 -1.0931 -1.0116  0.1528
  786MPD2    H311648   1.169   0.585  14.957 -1.2093 -1.2544 -1.6601
  786MPD2     N11649   1.522   0.447  15.189 -0.2230 -0.9504  0.6651
  786MPD2    H511650   1.496   0.513  15.261 -0.6393  0.0886 -0.4340
  786MPD2    N111651   1.398   0.233  14.774  0.0860 -0.4718 -0.0734
  786MPD2    H711652   1.496   0.206  14.775  0.3274  0.4087 -0.7987
  787MPD2     C11653   1.932   4.713  14.746 -0.1619  0.3722 -0.0502
  787MPD2    C111654   1.900   4.705  14.605  0.4444 -0.0890  0.7581
  787MPD2    C211655   1.968   4.609  14.534 -0.1120 -0.2472 -0.7407
  787MPD2    C311656   2.073   4.538  14.597 -0.2958  0.0171  0.3179
  787MPD2    C411657   2.118   4.561  14.725 -0.0260  0.1142 -0.1217
  787MPD2    C511658   2.040   4.647  14.798  0.3290  0.5870 -0.3047
  787MPD2     H11659   1.958   4.598  14.426 -2.1937 -0.8173 -0.4788
  787MPD2    H111660   2.203   4.513  14.772 -1.2990 -0.7643  1.2646
  787MPD2    H211661   1.875   0.043  14.810 -1.4146  0.4283 -1.2148
  787MPD2    H311662   2.067   4.662  14.902 -3.7542 -3.5970  1.3473
  787MPD2     N11663   2.139   4.449  14.513 -0.4375 -0.8312 -0.0726
  787MPD2    H511664   2.106   4.456  14.417 -0.7141  3.0155  0.3070
  787MPD2    N111665   1.781   0.034  14.564  0.5253  0.3140  0.2715
  787MPD2    H711666   1.745   0.106  14.625  0.8737 -0.1503  1.0227
  788MPD2     C11667   3.811   4.260   0.505  0.3984 -0.3424 -0.3934
  788MPD2    C111668   3.703   4.183   0.524  0.1218  0.3898  0.0862
  788MPD2    C211669   3.576   4.232   0.500 -0.5797 -0.6207 -0.2950
  788MPD2    C311670   3.565   4.365   0.453  0.5303  0.3193  0.6345
  788MPD2    C411671   3.678   4.446   0.455 -0.1668  0.1946 -0.1714
  788MPD2    C511672   3.805   4.395   0.468  0.5463 -0.2519  0.2060
  788MPD2     H11673   3.494   4.162   0.512 -1.2020  0.3444  1.1437
  788MPD2    H111674   3.676   4.553   0.439  0.0739  0.1266 -0.6494
  788MPD2    H211675   3.910   4.216   0.518  0.6444  0.1743 -0.5129
  788MPD2    H311676   3.895   4.455   0.462  1.3878 -1.4086  1.1717
  788MPD2     N11677   3.436   4.420   0.423  0.4939 -0.1801  0.3606
  788MPD2    H511678   3.429   4.520   0.403  0.5176  0.4735  3.6080
  788MPD2    N111679   3.728   4.051   0.562  0.1763 -0.1703  0.0876
  788MPD2    H711680   3.825   4.023   0.548  0.0369 -1.0846  0.9217
  789MPD2     C11681   3.579   2.980  16.833 -0.2876  0.0322 -0.2421
  789MPD2    C111682   3.499   3.030  16.734  0.2194  0.6694  0.7064
  789MPD2    C211683   3.460   3.162  16.730 -0.3297  0.5806  1.2388
  789MPD2    C311684   3.487   3.238  16.837  0.4622 -0.1130 -0.8209
  789MPD2    C411685   3.562   3.193  16.941 -0.2840 -0.4512 -0.1106
  789MPD2    C511686   3.612   3.066  16.933  0.1210  0.7293 -0.7250
  789MPD2     H11687   3.413   3.200  16.640  0.8152  0.0021  0.3900
  789MPD2    H111688   3.598   3.256  17.021 -1.7433  1.4952 -0.9980
  789MPD2    H211689   3.606   2.876  16.851 -1.0078 -0.0392  0.4183
  789MPD2    H311690   3.667   3.033  17.020 -0.6691 -1.2963 -0.9930
  789MPD2     N11691   3.429   3.373  16.842  0.4878  0.4508 -0.6267
  789MPD2    H511692   3.447   3.421  16.930 -0.7709 -2.2988  1.1341
  789MPD2    N111693   3.447   2.944  16.635  0.6022  0.2543 -0.4372
  789MPD2    H711694   3.383   2.985  16.568 -0.3834  0.5876  0.7085
  790MPD2     C11695   4.711   0.746  13.542  0.2486 -0.0951 -0.5029
  790MPD2    C111696   4.640   0.647  13.606 -0.1323  0.3701 -0.3672
  790MPD2    C211697   4.572   0.539  13.531  0.2870 -0.5186 -0.0431
  790MPD2    C311698   4.575   0.546  13.396  0.3195  0.3508 -0.8013
  790MPD2    C411699   4.636   0.653  13.336  0.0029  0.3756  0.2299
  790MPD2    C511700   4.706   0.744  13.407  0.1786  0.1218 -0.5563
  790MPD2     H11701   4.512   0.464  13.581  0.7255 -0.7749  0.0966
  790MPD2    H111702   4.640   0.660  13.228 -1.7519 -0.5620  0.1018
  790MPD2    H211703   0.022   0.832  13.589  0.3088 -0.7119  0.5555
  790MPD2    H311704   0.021   0.823  13.354  2.1655 -1.0992 -0.4410
  790MPD2     N11705   4.505   0.451  13.319  0.1497  0.1513  0.2328
  790MPD2    H511706   4.466   0.375  13.373 -0.4380  1.8889  2.2513
  790MPD2    N111707   4.644   0.654  13.747 -0.8827 -0.0421 -0.0572
  790MPD2    H711708   4.697   0.731  13.787 -0.4526  1.2572 -3.1336
  791MPD2     C11709   3.999   0.538  12.725  0.1618 -1.0197 -0.5846
  791MPD2    C111710   4.055   0.414  12.718  0.0418  0.8616  0.7757
  791MPD2    C211711   3.997   0.336  12.621  1.2456  0.8587 -0.6663
  791MPD2    C311712   3.898   0.377  12.535 -0.4115 -0.0440 -0.2977
  791MPD2    C411713   3.851   0.508  12.545 -0.6333  0.0230 -0.4334
  791MPD2    C511714   3.902   0.586  12.644 -0.1819  0.0614 -0.0275
  791MPD2     H11715   4.034   0.235  12.607  2.0048  1.0537 -0.0988
  791MPD2    H111716   3.771   0.554  12.488 -1.8310 -1.1708  0.3083
  791MPD2    H211717   4.050   0.612  12.785 -1.4508 -0.1023 -0.3262
  791MPD2    H311718   3.870   0.689  12.653  1.1226  0.3086  1.8778
  791MPD2     N11719   3.836   0.285  12.444 -1.2076 -0.3999 -0.2564
  791MPD2    H511720   3.878   0.193  12.434  0.0228 -0.3317  4.3898
  791MPD2    N111721   4.160   0.383  12.809  0.7008  0.4364 -0.1916
  791MPD2    H711722   4.176   0.454  12.879 -0.7204  0.9577 -0.3925
  792MPD2     C11723   4.391   0.225  11.344  0.4216 -0.0219  0.5231
  792MPD2    C111724   4.327   0.344  11.394  0.8203 -0.6055 -0.2220
  792MPD2    C211725   4.192   0.332  11.428 -0.2309 -0.6327  0.1284
  792MPD2    C311726   4.125   0.210  11.424  0.0277  0.4513 -0.6779
  792MPD2    C411727   4.190   0.100  11.370 -0.5316  0.1213 -0.3984
  792MPD2    C511728   4.318   0.107  11.333 -0.0410 -0.2875  0.5084
  792MPD2     H11729   4.147   0.426  11.456  2.0201 -0.2326  2.4550
  792MPD2    H111730   4.148   0.001  11.364  0.2773 -0.2039 -0.5928
  792MPD2    H211731   4.494   0.222  11.313  0.8258  2.3907  1.5980
  792MPD2    H311732   4.362   0.017  11.294  0.7233  1.0024 -1.5868
  792MPD2     N11733   3.986   0.193  11.462  0.4699  0.2824  0.0649
  792MPD2    H511734   3.950   0.099  11.449  1.5730 -0.0416 -0.6534
  792MPD2    N111735   4.404   0.460  11.395 -0.2552  0.4219  0.6314
  792MPD2    H711736   4.505   0.455  11.381 -0.5150  2.2221 -1.8673
  793MPD2     C11737   3.406   0.369  10.872  0.2878  0.1505 -0.5180
  793MPD2    C111738   3.539   0.343  10.908 -0.0233 -0.2996 -0.2148
  793MPD2    C211739   3.577   0.340  11.042  0.1642  0.5948 -0.1879
  793MPD2    C311740   3.484   0.362  11.138  0.2135  0.2491 -0.2662
  793MPD2    C411741   3.357   0.400  11.096  0.1829 -0.3109 -0.0685
  793MPD2    C511742   3.318   0.394  10.967  0.0913  0.5722 -0.8296
  793MPD2     H11743   3.679   0.325  11.074 -0.0056  2.4441  1.2557
  793MPD2    H111744   3.283   0.420  11.172 -1.3878  0.4206 -1.7703
  793MPD2    H211745   3.366   0.377  10.771 -0.0399  0.3017 -0.3714
  793MPD2    H311746   3.219   0.429  10.939  0.5275  3.4068  1.1555
  793MPD2     N11747   3.527   0.341  11.276 -0.5868  0.4981 -0.6337
  793MPD2    H511748   3.622   0.307  11.293  0.0536  2.4607 -0.3378
  793MPD2    N111749   3.634   0.299  10.811  0.3092  0.1047 -0.2174
  793MPD2    H711750   3.720   0.263  10.849  1.5664  1.3305 -1.9045
  794MPD2     C11751   4.090   4.297   0.177  0.4503  0.5121 -0.2292
  794MPD2    C111752   4.125   4.228   0.056 -0.3980  0.5117 -0.0282
  794MPD2    C211753   4.105   4.283  17.678  0.0620  1.0475 -0.1838
  794MPD2    C311754   4.056   4.412  17.678  0.0737 -0.3806  0.4725
  794MPD2    C411755   4.007   4.482   0.047 -0.0922  0.4151 -0.5757
  794MPD2    C511756   4.032   4.422   0.169  0.1785  0.3704 -0.7449
  794MPD2     H11757   4.132   4.238  17.583  1.4473  1.1175  0.1756
  794MPD2    H111758   3.952   4.574   0.032  0.9323  1.0776 -0.3159
  794MPD2    H211759   4.119   4.259   0.274 -1.2245 -0.5103 -0.1424
  794MPD2    H311760   3.998   4.474   0.258  1.2967  0.2717 -0.2637
  794MPD2     N11761   4.054   4.491  17.563  0.1985 -0.3788 -0.0564
  794MPD2    H511762   4.022   4.586  17.571 -1.2134 -0.8320 -0.4110
  794MPD2    N111763   4.199   4.103   0.057 -0.3702  0.5713  0.5235
  794MPD2    H711764   4.231   4.056  17.717 -1.8905 -0.3559  0.4609
  795MPD2     C11765   2.321   1.435  14.249  0.2555  0.4155  0.1006
  795MPD2    C111766   2.280   1.318  14.189 -0.5544 -0.1393  0.1281
  795MPD2    C211767   2.309   1.198  14.250  0.1946 -0.4506  0.3063
  795MPD2    C311768   2.387   1.188  14.363 -0.2739  0.8767 -0.0449
  795MPD2    C411769   2.418   1.303  14.429  0.2932  0.0187 -0.1274
  795MPD2    C511770   2.390   1.426  14.369 -0.4398  0.6282 -0.3255
  795MPD2     H11771   2.283   1.110  14.191  0.6302  0.6365 -1.4924
  795MPD2    H111772   2.477   1.322  14.518 -0.1279 -1.2904  0.4246
  795MPD2    H211773   2.302   1.532  14.205 -3.0379 -1.9227 -3.5785
  795MPD2    H311774   2.431   1.519  14.406 -1.6135  0.5794  1.1172
  795MPD2     N11775   2.422   1.065  14.427 -0.2028 -0.6345  0.8008
  795MPD2    H511776   2.498   1.071  14.495  0.3577 -0.8189  0.1886
  795MPD2    N111777   2.221   1.305  14.062  0.4003  0.0354 -0.3280
  795MPD2    H711778   2.207   1.210  14.029 -2.3710 -0.3671  1.9977
  796MPD2     C11779   1.708   3.183  15.788  0.3912 -0.2049  0.0273
  796MPD2    C111780   1.786   3.243  15.880  0.4965  0.2985 -0.1973
  796MPD2    C211781   1.781   3.381  15.877  0.0666 -0.3301 -0.1872
  796MPD2    C311782   1.689   3.454  15.811  0.4989  0.1046 -0.0060
  796MPD2    C411783   1.612   3.389  15.727 -0.9700  0.4032 -0.1951
  796MPD2    C511784   1.626   3.257  15.714 -0.3280 -0.2538 -0.9222
  796MPD2     H11785   1.848   3.444  15.934 -1.6014  1.7533 -0.5074
  796MPD2    H111786   1.541   3.441  15.664 -1.3068  1.6055  1.1631
  796MPD2    H211787   1.708   3.075  15.782  1.6453 -0.1234 -1.4958
  796MPD2    H311788   1.550   3.196  15.667 -0.0088  0.4574 -2.3607
  796MPD2     N11789   1.682   3.593  15.825  1.0559  0.5587 -0.8708
  796MPD2    H511790   1.741   3.633  15.898  1.2258 -0.9619 -0.1763
  796MPD2    N111791   1.863   3.169  15.977  0.5442 -0.4611 -0.3354
  796MPD2    H711792   1.876   3.070  15.956  2.3234 -0.3693  0.2907
  797MPD2     C11793   2.834   2.326  17.560 -0.1062  0.4365  0.5339
  797MPD2    C111794   2.888   2.453  17.547  0.5133  1.0236  0.5554
  797MPD2    C211795   2.880   2.520  17.431 -0.9762  0.6675 -1.0287
  797MPD2    C311796   2.792   2.477  17.334 -0.1721  0.1451 -0.5118
  797MPD2    C411797   2.742   2.351  17.341 -0.1160  0.4433  0.8590
  797MPD2    C511798   2.768   2.271  17.453 -0.0970 -0.3861  0.0638
  797MPD2     H11799   2.926   2.618  17.425 -1.3958  0.8658 -1.0755
  797MPD2    H111800   2.677   2.301  17.271 -0.4009  1.1887  0.5929
  797MPD2    H211801   2.836   2.263  17.648 -1.2476 -0.1908  0.1135
  797MPD2    H311802   2.726   2.172  17.466 -0.3094 -0.3838 -0.5834
  797MPD2     N11803   2.762   2.553  17.219 -0.2334  0.0378  0.3696
  797MPD2    H511804   2.688   2.517  17.160 -1.2795  0.1145  1.6356
  797MPD2    N111805   2.949   2.517  17.655 -0.1394  0.4079 -0.3112
  797MPD2    H711806   3.005   2.599  17.632 -0.5023 -0.1085 -3.0646
  798MPD2     C11807   2.889   3.251  17.444 -0.2113  0.3051 -0.4579
  798MPD2    C111808   2.796   3.147  17.447  0.0209 -0.0562 -0.7545
  798MPD2    C211809   2.807   3.055  17.550 -0.6006  0.0673  0.5383
  798MPD2    C311810   2.912   3.063  17.649  1.0860  0.0537  0.7954
  798MPD2    C411811   3.001   3.176  17.644  0.1076 -0.6888 -0.2366
  798MPD2    C511812   2.987   3.264  17.534 -0.0713  0.5893  0.2676
  798MPD2     H11813   2.737   2.973  17.539  1.2587 -1.4235 -0.1454
  798MPD2    H111814   3.083   3.195  17.712 -0.4380 -1.4704  0.6352
  798MPD2    H211815   2.891   3.326  17.365  0.5087  0.4979 -0.2539
  798MPD2    H311816   3.063   3.341  17.526 -1.9724  2.1511 -2.6256
  798MPD2     N11817   2.902   2.973   0.016  0.2772  0.4388 -0.3678
  798MPD2    H511818   2.828   2.904   0.013  1.3937 -0.7436 -0.9567
  798MPD2    N111819   2.726   3.125  17.325  0.3097 -0.1174 -0.0501
  798MPD2    H711820   2.756   3.188  17.252 -0.4314  0.7746  0.4139
  799MPD2     C11821   1.624   4.164  14.578 -0.1223 -1.0275  0.2086
  799MPD2    C111822   1.553   4.120  14.471 -0.6686  0.0830 -0.0137
  799MPD2    C211823   1.536   4.210  14.369 -0.5092  1.3679  0.6077
  799MPD2    C311824   1.592   4.335  14.374 -0.2145 -0.3825  0.0995
  799MPD2    C411825   1.664   4.374  14.487  0.2161  0.0092 -0.5965
  799MPD2    C511826   1.681   4.283  14.594 -0.6612  0.8268  0.1265
  799MPD2     H11827   1.493   4.176  14.275 -0.5838 -1.2297  1.5637
  799MPD2    H111828   1.707   4.472  14.500  1.2516 -0.7466  1.6514
  799MPD2    H211829   1.646   4.101  14.664  0.1504 -1.0011  0.1556
  799MPD2    H311830   1.749   4.307  14.675  0.9356 -0.9101 -0.7001
  799MPD2     N11831   1.594   4.422  14.264  0.2574  0.1169  0.0647
  799MPD2    H511832   1.641   4.511  14.267  2.8521 -1.3044  1.4653
  799MPD2    N111833   1.503   3.984  14.457 -0.4566 -0.3227  0.4820
  799MPD2    H711834   1.472   3.973  14.361 -0.5526  0.7820  0.3894
  800MPD2     C11835   1.743   0.397  14.547 -0.4157  0.3361 -1.0708
  800MPD2    C111836   1.874   0.372  14.503 -0.1523  0.1319  0.0948
  800MPD2    C211837   1.897   0.320  14.378  0.5423  0.6142  0.0014
  800MPD2    C311838   1.789   0.324  14.280 -0.3543  0.5549  0.1872
  800MPD2    C411839   1.664   0.365  14.322 -0.1903  0.1818  0.5535
  800MPD2    C511840   1.644   0.396  14.454  0.3496 -0.4035 -0.2580
  800MPD2     H11841   1.999   0.298  14.346 -0.0965  1.3309 -2.5341
  800MPD2    H111842   1.575   0.381  14.263  1.8158  0.2299 -2.4531
  800MPD2    H211843   1.725   0.440  14.644  1.3571  1.2103 -1.1156
  800MPD2    H311844   1.544   0.433  14.477  0.9465  0.4737  0.9731
  800MPD2     N11845   1.820   0.285  14.151 -0.4479  0.4442 -0.8262
  800MPD2    H511846   1.918   0.261  14.141  0.3426  1.8403  3.9289
  800MPD2    N111847   1.970   0.388  14.607  0.3776 -0.3504 -0.9630
  800MPD2    H711848   1.931   0.448  14.678  2.5112  2.4999 -2.1754
  801MPD2     C11849   2.196   1.050  14.687 -0.3243 -0.3579 -0.4054
  801MPD2    C111850   2.094   0.967  14.675  0.1727  0.1865 -0.0123
  801MPD2    C211851   1.977   1.003  14.607 -0.0421 -0.6295  0.0499
  801MPD2    C311852   1.957   1.139  14.576 -0.3132  0.8505 -0.1592
  801MPD2    C411853   2.064   1.223  14.594  0.2606  0.0195  1.0469
  801MPD2    C511854   2.182   1.182  14.646 -0.0659 -0.6870 -0.0213
  801MPD2     H11855   1.891   0.938  14.597 -1.8604  1.8463 -0.3977
  801MPD2    H111856   2.057   1.328  14.568  1.0032  0.1748  1.4840
  801MPD2    H211857   2.293   1.023  14.727  0.6829 -0.2377 -2.7663
  801MPD2    H311858   2.265   1.251  14.652  1.2843 -2.2878 -0.0512
  801MPD2     N11859   1.838   1.197  14.534 -0.3374  0.2366  0.0244
  801MPD2    H511860   1.836   1.297  14.520 -1.1481  0.2414  0.1634
  801MPD2    N111861   2.113   0.832  14.703 -0.1496  0.5250 -0.2646
  801MPD2    H711862   2.057   0.763  14.653 -0.7380  0.9324 -0.1634
  802MPD2     C11863   1.440   0.782  17.129 -0.0114 -0.0083  0.1881
  802MPD2    C111864   1.431   0.917  17.121 -0.3169 -0.9659 -0.4207
  802MPD2    C211865   1.503   0.980  17.022  0.3638  0.3379  0.3014
  802MPD2    C311866   1.582   0.917  16.931  1.1401 -0.6263 -1.0183
  802MPD2    C411867   1.573   0.777  16.928 -0.5715  0.0360 -0.2147
  802MPD2    C511868   1.507   0.721  17.029 -0.7427  0.5069  0.1372
  802MPD2     H11869   1.488   1.087  17.013  2.5934  0.6467  0.3142
  802MPD2    H111870   1.633   0.715  16.863 -2.0569 -1.3651 -0.2445
  802MPD2    H211871   1.401   0.718  17.208  0.6018 -1.4467 -0.6725
  802MPD2    H311872   1.531   0.615  17.026  0.3132  0.7839 -1.3561
  802MPD2     N11873   1.657   0.995  16.837 -0.4955  0.3489  0.4338
  802MPD2    H511874   1.649   1.095  16.848  0.4429  0.4306  0.3593
  802MPD2    N111875   1.354   0.992  17.224  0.0973  0.3467 -0.3768
  802MPD2    H711876   1.367   1.092  17.214 -0.9878  0.3851 -1.5262
  803MPD2     C11877   2.452   0.236  12.279  0.3095  0.4652 -0.0709
  803MPD2    C111878   2.590   0.233  12.316 -0.5309 -0.1047  0.2401
  803MPD2    C211879   2.637   0.135  12.394  0.8891 -0.3570  0.0392
  803MPD2    C311880   2.558   0.025  12.431 -0.1269  0.0945 -0.2686
  803MPD2    C411881   2.424   0.027  12.394 -0.0943 -0.4269 -0.4137
  803MPD2    C511882   2.374   0.135  12.321 -0.5214 -0.2339 -0.2178
  803MPD2     H11883   2.741   0.137  12.427  0.3396 -2.1236  1.8674
  803MPD2    H111884   2.366   4.678  12.428  0.8172 -0.3714  1.2432
  803MPD2    H211885   2.411   0.309  12.210 -0.4381 -0.0218 -0.1451
  803MPD2    H311886   2.267   0.134  12.301 -0.4625  0.6813 -0.5703
  803MPD2     N11887   2.605   4.647  12.509  0.5571  0.3004 -0.7474
  803MPD2    H511888   2.540   4.570  12.524  1.6683 -0.1719  1.5588
  803MPD2    N111889   2.683   0.332  12.272  0.3513  0.0818 -0.1010
  803MPD2    H711890   2.779   0.317  12.304  0.9795  1.6406 -1.2422
  804MPD2     C11891   1.998   1.296  17.321  0.0685  0.2017  1.0355
  804MPD2    C111892   1.971   1.232  17.439 -0.5203 -0.5140 -0.1205
  804MPD2    C211893   2.035   1.282  17.552 -0.0458 -0.1137  0.7263
  804MPD2    C311894   2.125   1.389  17.550  0.5372 -0.2767 -0.0535
  804MPD2    C411895   2.148   1.451  17.430  0.2893 -0.1499  0.3937
  804MPD2    C511896   2.082   1.400  17.314 -0.1626  0.2291  0.4181
  804MPD2     H11897   2.013   1.229  17.644  0.9592 -2.7399 -0.5592
  804MPD2    H111898   2.211   1.539  17.419 -0.1430  0.0260 -0.6765
  804MPD2    H211899   1.953   1.264  17.228  0.3555 -0.2502  1.0488
  804MPD2    H311900   2.095   1.457  17.223 -2.4955 -1.3935 -0.9096
  804MPD2     N11901   2.197   1.420  17.673  0.0321  0.7263 -0.1782
  804MPD2    H511902   2.165   1.364   0.008  2.4779 -0.5132 -0.0749
  804MPD2    N111903   1.889   1.117  17.445  0.1308 -0.2889 -0.0087
  804MPD2    H711904   1.887   1.078  17.538 -0.8222  2.4466  1.1079
  805MPD2     C11905   1.157   4.220  15.574  0.0949  0.6713 -0.1130
  805MPD2    C111906   1.192   4.337  15.517  0.3821  0.4131 -0.5226
  805MPD2    C211907   1.305   4.396  15.558 -0.6031  0.1929 -0.0145
  805MPD2    C311908   1.385   4.329  15.657 -0.1777  0.1037 -0.1138
  805MPD2    C411909   1.349   4.206  15.707  0.7842  0.0686  0.1881
  805MPD2    C511910   1.232   4.151  15.663  0.0953  0.6671 -0.0055
  805MPD2     H11911   1.331   4.499  15.535  0.1813  0.0114  0.0493
  805MPD2    H111912   1.411   4.156  15.781  0.0966 -0.8220  0.1632
  805MPD2    H211913   1.072   4.165  15.537  0.4240  1.3198 -1.8683
  805MPD2    H311914   1.202   4.053  15.698  0.3642 -0.2044 -2.1811
  805MPD2     N11915   1.501   4.399  15.705  0.1386 -0.1946  0.4042
  805MPD2    H511916   1.513   4.491  15.663 -1.2219 -0.2101 -0.0371
  805MPD2    N111917   1.111   4.395  15.412  0.2904 -0.0153 -0.4794
  805MPD2    H711918   1.161   4.460  15.353 -1.9155  0.3066 -1.9939
  806MPD2     C11919   1.243   3.529   0.640  0.0318 -0.1377  0.2891
  806MPD2    C111920   1.336   3.611   0.698  0.0342  0.8018 -0.4233
  806MPD2    C211921   1.350   3.738   0.634 -0.2699 -0.2296  0.6094
  806MPD2    C311922   1.283   3.771   0.523  0.4596 -0.6484  0.5051
  806MPD2    C411923   1.198   3.684   0.463  0.0392  0.2724 -0.6777
  806MPD2    C511924   1.193   3.558   0.513  0.2766 -0.6419 -0.2390
  806MPD2     H11925   1.418   3.815   0.667 -0.6994  0.2276  0.4378
  806MPD2    H111926   1.155   3.709   0.366  1.1318 -0.9885 -1.4813
  806MPD2    H211927   1.201   3.441   0.689 -2.9169  0.7545 -0.6148
  806MPD2    H311928   1.138   3.475   0.471  1.1626 -1.6866  0.6504
  806MPD2     N11929   1.318   3.895   0.463  0.0122 -0.2482 -0.0087
  806MPD2    H511930   1.395   3.945   0.505  0.1829 -2.2305  2.0141
  806MPD2    N111931   1.396   3.574   0.815 -0.0331 -0.6766  0.5588
  806MPD2    H711932   1.378   3.482   0.855 -0.1292  0.1662  2.4383
  807MPD2     C11933   1.248   3.252   1.514 -0.0001 -0.0912  0.6280
  807MPD2    C111934   1.350   3.204   1.434 -0.2385  0.1048 -0.2676
  807MPD2    C211935   1.393   3.078   1.452  0.8251  0.3741 -0.5581
  807MPD2    C311936   1.342   2.994   1.549  0.3889 -0.7191  0.0199
  807MPD2    C411937   1.235   3.039   1.626  0.3612 -0.2851  0.5330
  807MPD2    C511938   1.204   3.166   1.615  0.1549 -0.8427 -0.0032
  807MPD2     H11939   1.475   3.040   1.392  0.3307 -0.9224 -0.4170
  807MPD2    H111940   1.193   2.981   1.708  0.7659 -1.8887 -0.3909
  807MPD2    H211941   1.222   3.357   1.511 -2.6554 -0.8132 -0.6725
  807MPD2    H311942   1.138   3.203   1.692  1.1532 -2.7944  1.7750
  807MPD2     N11943   1.398   2.862   1.563 -1.1668 -0.5032  0.4167
  807MPD2    H511944   1.468   2.843   1.493 -0.5368  2.9066  0.0990
  807MPD2    N111945   1.412   3.281   1.329  0.0796  0.1233 -0.6041
  807MPD2    H711946   1.486   3.243   1.270 -1.3346  0.7694 -2.7893
  808MPD2     C11947   2.229   1.037   9.776 -0.8553  0.3687 -0.0916
  808MPD2    C111948   2.166   1.101   9.883  0.2346  0.4747  0.1415
  808MPD2    C211949   2.213   1.224   9.927  0.8157  0.1020 -0.0616
  808MPD2    C311950   2.322   1.286   9.863  0.1890  0.2721  1.5633
  808MPD2    C411951   2.372   1.225   9.749 -0.1731  0.1474 -0.2867
  808MPD2    C511952   2.334   1.096   9.715 -0.3740 -0.2677 -0.1574
  808MPD2     H11953   2.159   1.276  10.005 -1.6756  1.0428 -2.4313
  808MPD2    H111954   2.454   1.267   9.691  0.7114 -1.7462 -0.4363
  808MPD2    H211955   2.214   0.935   9.742 -2.3522 -0.1977  2.2959
  808MPD2    H311956   2.378   1.048   9.629 -1.9834  0.7630 -1.5658
  808MPD2     N11957   2.374   1.415   9.902 -0.8531 -0.2614  0.7855
  808MPD2    H511958   2.447   1.445   9.837 -1.6944  0.2354  0.0701
  808MPD2    N111959   2.049   1.041   9.937  0.1734  0.0710  0.3413
  808MPD2    H711960   2.003   1.104  10.003 -1.0654 -1.4783  0.9776
  809MPD2     C11961   2.564   2.332   9.543 -0.1787 -0.9149  0.0771
  809MPD2    C111962   2.605   2.205   9.505  0.3037  0.0412  0.4894
  809MPD2    C211963   2.588   2.102   9.601 -0.2543  0.1827 -0.1194
  809MPD2    C311964   2.545   2.127   9.735 -0.0616 -0.7697 -0.0816
  809MPD2    C411965   2.531   2.256   9.767  0.1232 -0.1119  0.2662
  809MPD2    C511966   2.530   2.351   9.671 -0.1711  0.2617 -0.2361
  809MPD2     H11967   2.622   2.001   9.582 -2.4573 -0.6447  0.2857
  809MPD2    H111968   2.496   2.289   9.865  1.3084  2.2795 -0.1145
  809MPD2    H211969   2.569   2.409   9.467 -0.7949 -0.0670  0.9008
  809MPD2    H311970   2.495   2.452   9.687 -0.4779 -0.0434  1.1103
  809MPD2     N11971   2.511   2.025   9.825 -0.2594 -0.4226  0.4507
  809MPD2    H511972   2.486   2.065   9.914  2.6193  0.1610  1.0138
  809MPD2    N111973   2.660   2.179   9.377  0.1099 -0.2909  0.4659
  809MPD2    H711974   2.687   2.082   9.362 -3.9874 -1.3317 -0.2680
  810MPD2     C11975   1.734   0.475  10.290  0.3691 -0.1980  0.0719
  810MPD2    C111976   1.605   0.518  10.302 -0.4392  0.0824  0.1285
  810MPD2    C211977   1.584   0.660  10.304  0.6393  0.6593 -0.2561
  810MPD2    C311978   1.702   0.737  10.305 -0.3986 -0.2185  0.2581
  810MPD2    C411979   1.825   0.688  10.273 -0.6228 -0.2254  0.7234
  810MPD2    C511980   1.844   0.552  10.271 -0.2682  0.5149 -0.6572
  810MPD2     H11981   1.485   0.702  10.316  0.5521 -0.0780  1.6197
  810MPD2    H111982   1.912   0.753  10.276 -1.7284  1.2136  0.9682
  810MPD2    H211983   1.758   0.369  10.293  3.2403  0.3650 -3.7547
  810MPD2    H311984   1.944   0.514  10.253 -0.1213 -0.2025  1.6306
  810MPD2     N11985   1.689   0.878  10.318 -0.2745  0.1750  0.9230
  810MPD2    H511986   1.770   0.933  10.293 -1.0786  1.3434  0.8577
  810MPD2    N111987   1.487   0.439  10.304  0.1555  0.2095  0.3668
  810MPD2    H711988   1.398   0.487  10.299 -0.7997 -1.2860  3.4061
  811MPD2     C11989   0.705   0.352  10.535 -0.7396 -0.1248 -0.5819
  811MPD2    C111990   0.788   0.399  10.443 -0.0867 -0.1196 -0.3379
  811MPD2    C211991   0.784   0.533  10.410  0.3985  0.0639  0.0463
  811MPD2    C311992   0.689   0.614  10.463  0.1798 -0.2701  0.4343
  811MPD2    C411993   0.595   0.565  10.547  0.3993  1.1132 -0.3524
  811MPD2    C511994   0.602   0.429  10.587  0.3975 -0.1061 -1.2509
  811MPD2     H11995   0.863   0.573  10.347  0.2476  0.1270 -0.1047
  811MPD2    H111996   0.509   0.619  10.585 -0.0596 -0.1791  0.4223
  811MPD2    H211997   0.712   0.252  10.575 -1.1884 -0.7854 -2.1674
  811MPD2    H311998   0.536   0.391  10.664 -1.2508  0.3580 -2.4263
  811MPD2     N11999   0.690   0.750  10.425  0.2785  0.2656  0.6127
  811MPD2    H512000   0.756   0.775  10.353  0.9831 -0.3841  1.0308
  811MPD2    N112001   0.891   0.305  10.404  0.1371 -0.2467 -0.0995
  811MPD2    H712002   0.895   0.220  10.459 -0.9237 -0.2655 -0.0446
  812MPD2     C12003   0.859   0.409  12.311 -0.1035 -0.5040  0.1224
  812MPD2    C112004   0.758   0.440  12.396  0.0191 -0.2907 -0.3884
  812MPD2    C212005   0.692   0.344  12.465  0.7098 -0.3819 -0.1165
  812MPD2    C312006   0.723   0.210  12.461 -0.1555  0.2538  0.6213
  812MPD2    C412007   0.836   0.176  12.387 -0.8085  0.7552 -0.4319
  812MPD2    C512008   0.895   0.278  12.308  0.2231 -0.0581  0.2735
  812MPD2     H12009   0.606   0.370  12.525  0.6898 -1.9198  0.5319
  812MPD2    H112010   0.874   0.076  12.373 -3.6225 -0.5116  0.7981
  812MPD2    H212011   0.911   0.485  12.255 -0.9280 -0.3056 -0.3761
  812MPD2    H312012   0.975   0.238  12.247  0.3060 -0.2725  0.5234
  812MPD2     N12013   0.646   0.122  12.541 -0.1160 -0.0462 -0.0798
  812MPD2    H512014   0.589   0.159  12.616 -1.5787  1.2275 -1.8174
  812MPD2    N112015   0.716   0.576  12.399  0.0780  0.1415 -0.6755
  812MPD2    H712016   0.771   0.646  12.352 -0.4436  0.4114 -0.8822
  813MPD2     C12017   4.211   2.182  12.818  0.5619 -0.1568  0.0832
  813MPD2    C112018   4.234   2.305  12.874  0.1980 -0.4947  0.3902
  813MPD2    C212019   4.152   2.343  12.978  0.1198  0.3233 -0.0815
  813MPD2    C312020   4.046   2.258  13.021  0.0394  0.3026  0.5228
  813MPD2    C412021   4.020   2.134  12.961 -0.7818  0.6494 -0.5329
  813MPD2    C512022   4.106   2.100  12.860 -0.0191  0.5119  0.5208
  813MPD2     H12023   4.180   2.434  13.030 -1.1619 -0.1047  1.3313
  813MPD2    H112024   3.941   2.068  12.994  0.7069  1.0543  3.8987
  813MPD2    H212025   4.278   2.144  12.741  1.1199  0.4946  0.2463
  813MPD2    H312026   4.100   2.000  12.821  1.1241  1.2601 -1.5718
  813MPD2     N12027   3.982   2.294  13.142 -0.4552  1.0943 -0.2979
  813MPD2    H512028   4.014   2.383  13.177 -2.6426  1.6769  0.2322
  813MPD2    N112029   4.351   2.387  12.845 -0.1990  0.0330  0.0437
  813MPD2    H712030   4.364   2.472  12.898 -1.1720  1.6898 -2.3314
  814MPD2     C12031   0.219   3.551  12.494  0.5509 -0.1567  0.2443
  814MPD2    C112032   0.258   3.581  12.363  0.3567  0.2129  0.2265
  814MPD2    C212033   0.336   3.694  12.340 -0.7478 -0.0549  0.0828
  814MPD2    C312034   0.382   3.765  12.454  0.0211 -0.1887  0.1859
  814MPD2    C412035   0.351   3.726  12.577  0.2014 -0.0028  0.1802
  814MPD2    C512036   0.265   3.623  12.600  1.1596 -0.2090 -0.2077
  814MPD2     H12037   0.393   3.711  12.250  0.1728 -0.6097  0.5680
  814MPD2    H112038   0.388   3.770  12.669 -0.7764  0.3404  0.4137
  814MPD2    H212039   0.155   3.467  12.520 -1.0087  1.2264  0.9156
  814MPD2    H312040   0.248   3.602  12.705  0.6112  0.0956 -0.2381
  814MPD2     N12041   0.470   3.879  12.438 -0.2268  0.3080  0.7900
  814MPD2    H512042   0.481   3.937  12.520  0.3388  0.3172  0.7030
  814MPD2    N112043   0.213   3.506  12.254 -0.4529 -0.2686  0.3627
  814MPD2    H712044   0.245   3.541  12.165 -1.9826  1.1133  0.3525
  815MPD2     C12045   0.513   2.225  12.221 -0.7619 -0.6024 -0.1528
  815MPD2    C112046   0.499   2.090  12.241 -0.3555  0.2191 -0.8845
  815MPD2    C212047   0.412   2.051  12.339  0.0311  0.0630 -0.3832
  815MPD2    C312048   0.333   2.135  12.409 -0.4089  0.2484 -0.4303
  815MPD2    C412049   0.350   2.272  12.397 -0.5671  0.0919 -0.4497
  815MPD2    C512050   0.438   2.310  12.299  0.0552  0.2551  0.4184
  815MPD2     H12051   0.399   1.945  12.354  4.0099 -0.6258 -1.8649
  815MPD2    H112052   0.290   2.341  12.455 -1.3902  0.4413 -1.7076
  815MPD2    H212053   0.576   2.267  12.144 -0.0980 -0.6809  0.3416
  815MPD2    H312054   0.456   2.416  12.283 -0.7333  0.4077  0.5611
  815MPD2     N12055   0.250   2.075  12.501 -0.0331 -0.1917  0.9948
  815MPD2    H512056   0.229   1.977  12.484  0.4585 -0.1406  0.1009
  815MPD2    N112057   0.566   2.001  12.153  0.3533 -0.4379  0.3801
  815MPD2    H712058   0.610   2.036  12.069  1.2171 -1.0616  0.5748
  816MPD2     C12059   0.700   0.707  17.542 -0.2784  0.7777 -0.7285
  816MPD2    C112060   0.645   0.694  17.417 -0.2614  0.0048  0.3589
  816MPD2    C212061   0.726   0.672  17.308  0.1448 -0.4737 -0.3451
  816MPD2    C312062   0.862   0.647  17.324 -0.2519  0.4965 -0.1473
  816MPD2    C412063   0.914   0.652  17.450  0.1836 -0.3764  0.5171
  816MPD2    C512064   0.832   0.686  17.557 -0.0061 -0.4889 -0.1773
  816MPD2     H12065   0.672   0.670  17.214  0.1499  0.0651 -0.3609
  816MPD2    H112066   1.012   0.620  17.483  0.0266 -2.4520 -1.0253
  816MPD2    H212067   0.633   0.742  17.619 -2.5348  0.1311 -2.4148
  816MPD2    H312068   0.882   0.720  17.648  0.0556  0.0163 -0.3967
  816MPD2     N12069   0.952   0.616  17.216  0.1811  0.1362  0.2938
  816MPD2    H512070   0.917   0.633  17.123 -2.3589 -2.3318  0.7888
  816MPD2    N112071   0.505   0.729  17.409 -0.1780 -0.3013  0.4169
  816MPD2    H712072   0.451   0.722  17.494 -1.6125 -1.1991 -0.5691
  817MPD2     C12073   4.290   2.834  10.270 -0.1012  0.3878  0.3835
  817MPD2    C112074   4.389   2.824  10.175 -0.2738  0.1783 -0.0976
  817MPD2    C212075   4.365   2.884  10.051 -0.2675  0.0871  0.1071
  817MPD2    C312076   4.244   2.941  10.021  0.1638 -0.5181  0.8168
  817MPD2    C412077   4.143   2.948  10.116  0.3852  0.1860  0.3105
  817MPD2    C512078   4.169   2.890  10.240 -0.0824  0.1402  0.1808
  817MPD2     H12079   4.447   2.888   9.980 -0.5671 -1.2597 -0.3172
  817MPD2    H112080   4.043   2.983  10.094  0.3168 -0.7925 -0.9630
  817MPD2    H212081   4.284   2.775  10.360  0.5304 -1.2525 -0.6525
  817MPD2    H312082   4.088   2.884  10.312 -0.6745  2.6751 -0.2658
  817MPD2     N12083   4.228   2.985   9.886  0.4640 -0.1445  0.1648
  817MPD2    H512084   4.308   2.966   9.825 -0.2529  1.8405 -1.4053
  817MPD2    N112085   4.517   2.754  10.194  0.5358 -0.6481 -0.1078
  817MPD2    H712086   4.571   2.759  10.108  0.2776  1.8608 -0.1325
  818MPD2     C12087   3.473   2.761   9.713 -0.2316 -0.5398 -0.4521
  818MPD2    C112088   3.549   2.685   9.802  0.0602 -0.2510 -0.6219
  818MPD2    C212089   3.645   2.602   9.746 -1.1959 -0.4213  0.0455
  818MPD2    C312090   3.640   2.584   9.612  0.2511 -0.1578 -0.1112
  818MPD2    C412091   3.568   2.665   9.523  0.2504 -0.0235 -0.5635
  818MPD2    C512092   3.494   2.758   9.574 -0.8151 -0.1800 -0.6289
  818MPD2     H12093   3.718   2.553   9.809 -1.2087  2.0002  1.9821
  818MPD2    H112094   3.582   2.668   9.415 -4.1712  2.5689 -1.0842
  818MPD2    H212095   3.412   2.841   9.755 -0.3206 -2.4288  2.9911
  818MPD2    H312096   3.442   2.830   9.511 -0.2541  0.4204 -0.4068
  818MPD2     N12097   3.729   2.493   9.549 -1.1129  0.0863 -0.0883
  818MPD2    H512098   3.768   2.522   9.460  1.9834  0.1516  1.2609
  818MPD2    N112099   3.527   2.684   9.941  0.1420 -0.3105 -0.1845
  818MPD2    H712100   3.566   2.611   9.999  1.2783  0.4501  0.0188
  819MPD2     C12101   2.119   4.660  15.816  0.3469  0.2822  0.2838
  819MPD2    C112102   2.101   4.540  15.756  1.0313  0.5047 -0.9041
  819MPD2    C212103   2.166   4.429  15.809  0.1737  0.2111 -0.1420
  819MPD2    C312104   2.250   4.437  15.915 -0.6411 -0.0897 -0.3603
  819MPD2    C412105   2.259   4.561  15.981 -0.0524 -0.1318  0.9338
  819MPD2    C512106   2.188   4.668  15.929  0.0720 -0.8158  0.0861
  819MPD2     H12107   2.150   4.333  15.761 -0.4324 -0.1577  0.7848
  819MPD2    H112108   2.296   4.570  16.082 -3.2960 -2.2795  2.3268
  819MPD2    H212109   2.085   0.018  15.774  1.4120 -0.2236 -1.6856
  819MPD2    H312110   2.186   0.028  15.977  1.2059 -2.2453  3.0027
  819MPD2     N12111   2.315   4.317  15.958 -0.2511  0.1787  0.0647
  819MPD2    H512112   2.309   4.241  15.891 -0.4643  0.7245 -0.5233
  819MPD2    N112113   2.009   4.531  15.645  0.2770 -0.2010 -0.4462
  819MPD2    H712114   1.986   4.617  15.596  0.7328  0.9941  1.4230
  820MPD2     C12115   1.446   4.626  14.810  0.1763 -0.1874  0.4505
  820MPD2    C112116   1.415   4.653  14.940  0.3233  0.1810 -0.7246
  820MPD2    C212117   1.514   4.669  15.034 -0.3222  0.2586  0.0441
  820MPD2    C312118   1.643   4.629  14.997 -0.2185  0.3857 -1.0347
  820MPD2    C412119   1.668   4.593  14.863 -0.3024 -0.7487  0.1031
  820MPD2    C512120   1.573   4.603  14.773 -0.7669 -0.4793 -0.6528
  820MPD2     H12121   1.489   4.684  15.138 -0.2763 -1.4461  0.2933
  820MPD2    H112122   1.767   4.563  14.832  0.1258 -0.0299  0.7649
  820MPD2    H212123   1.368   4.600  14.740  0.1657 -0.4583  0.5641
  820MPD2    H312124   1.592   4.577  14.670  2.8344 -2.6467  0.5408
  820MPD2     N12125   1.748   4.604  15.091  0.4808 -0.6354  0.2158
  820MPD2    H512126   1.829   4.556  15.052  0.4069  0.1074 -0.8609
  820MPD2    N112127   1.277   4.647  14.973 -0.0798 -0.6442 -0.3359
  820MPD2    H712128   1.219   4.643  14.890 -0.5313 -1.3566  0.0206
  821MPD2     C12129   1.804   0.613  13.366 -0.2118  0.1074 -0.4474
  821MPD2    C112130   1.902   0.557  13.452 -0.4746 -0.1630 -0.3640
  821MPD2    C212131   2.033   0.606  13.444  0.1199 -0.5706  0.3922
  821MPD2    C312132   2.067   0.706  13.357  0.6270  0.3945  0.5624
  821MPD2    C412133   1.972   0.765  13.280 -0.2134 -0.8507 -0.6614
  821MPD2    C512134   1.843   0.721  13.281 -0.5000  0.3856  0.0849
  821MPD2     H12135   2.106   0.559  13.509 -0.2579 -1.2389  0.3302
  821MPD2    H112136   1.999   0.841  13.208  0.7542 -0.2448  0.3543
  821MPD2    H212137   1.702   0.575  13.366 -0.0201 -0.4020  1.1029
  821MPD2    H312138   1.772   0.761  13.210 -0.9145  0.7454  0.7019
  821MPD2     N12139   2.195   0.762  13.349  0.7899 -0.1209 -1.0123
  821MPD2    H512140   2.210   0.806  13.259  2.2666  1.0908 -0.1811
  821MPD2    N112141   1.886   0.452  13.550  0.0836 -0.2759 -0.2917
  821MPD2    H712142   1.971   0.418  13.595  0.1939  2.5162  1.5603
  822MPD2     C12143   2.757   0.662  16.001  0.8831  0.0489 -0.2800
  822MPD2    C112144   2.772   0.614  16.128 -0.7631  0.3658  1.0605
  822MPD2    C212145   2.705   0.680  16.227 -0.0093 -0.9408 -0.6650
  822MPD2    C312146   2.633   0.793  16.201  0.0895  0.4312 -0.1649
  822MPD2    C412147   2.623   0.844  16.068 -0.2199  0.5808 -0.0304
  822MPD2    C512148   2.681   0.772  15.968  0.3321 -0.3273 -0.9677
  822MPD2     H12149   2.702   0.648  16.331 -2.7574  0.9553 -0.1639
  822MPD2    H112150   2.555   0.926  16.050  0.9383  1.9016  1.6543
  822MPD2    H212151   2.804   0.609  15.918  1.3109 -0.2872  0.1775
  822MPD2    H312152   2.683   0.818  15.870 -0.3702  1.6062 -0.0635
  822MPD2     N12153   2.579   0.856  16.313 -0.2671  0.0983  0.7589
  822MPD2    H512154   2.589   0.810  16.403 -1.3058 -4.1165 -1.2824
  822MPD2    N112155   2.844   0.494  16.158  0.2353 -0.4694 -0.1278
  822MPD2    H712156   2.842   0.465  16.255  1.5500 -2.2352 -0.6447
  823MPD2     C12157   2.278   1.137  17.100 -0.1859  0.2815 -0.6096
  823MPD2    C112158   2.306   1.044  17.004  0.0197  0.2337 -0.0409
  823MPD2    C212159   2.327   0.911  17.039 -0.1930 -0.4608  0.3663
  823MPD2    C312160   2.311   0.873  17.175  0.5917  0.2979  0.0935
  823MPD2    C412161   2.282   0.966  17.273 -0.0881 -0.4721 -0.2804
  823MPD2    C512162   2.273   1.095  17.230 -0.2242 -0.1945  0.0731
  823MPD2     H12163   2.347   0.843  16.957 -0.1524  0.0201 -0.0196
  823MPD2    H112164   2.261   0.937  17.375 -0.4261 -2.3652 -0.8915
  823MPD2    H212165   2.253   1.236  17.064  0.8567  0.3413 -1.1509
  823MPD2    H312166   2.246   1.172  17.302  3.2093  0.5546  0.5486
  823MPD2     N12167   2.315   0.736  17.217 -0.3914 -0.0379 -0.7014
  823MPD2    H512168   2.288   0.714  17.313  0.4434  1.0577 -0.2086
  823MPD2    N112169   2.342   1.086  16.880 -0.1573  0.1119  0.2256
  823MPD2    H712170   2.362   1.185  16.865 -0.0238  0.0647  0.0843
  824MPD2     C12171   3.125   4.551  15.845 -0.5333  1.0902  0.4690
  824MPD2    C112172   3.223   4.629  15.908 -0.2911 -0.4619 -0.1206
  824MPD2    C212173   3.353   4.603  15.877  0.0300  0.5967  0.8744
  824MPD2    C312174   3.389   4.502  15.791  0.5983 -0.8140  0.2362
  824MPD2    C412175   3.293   4.418  15.742  0.2272  0.8842 -0.1312
  824MPD2    C512176   3.162   4.446  15.765  0.0392  0.5625 -1.0525
  824MPD2     H12177   3.435   4.660  15.918  0.1002 -0.6039  2.3612
  824MPD2    H112178   3.318   4.334  15.678  2.4490  2.0784 -0.8280
  824MPD2    H212179   3.020   4.568  15.868 -0.5919  2.3793 -0.7911
  824MPD2    H312180   3.088   4.388  15.711 -2.2234  1.9762  0.4868
  824MPD2     N12181   3.534   4.485  15.768 -0.0951 -0.2977  0.6463
  824MPD2    H512182   3.597   4.548  15.816  0.7267 -0.5001 -0.1822
  824MPD2    N112183   3.184   4.725  15.995 -0.9108 -0.5362  0.1148
  824MPD2    H712184   3.085   4.720  16.018 -0.6532 -0.2202  1.2889
  825MPD2     C12185   4.315   4.594  15.364 -0.2262 -0.8516  0.6066
  825MPD2    C112186   4.199   4.644  15.425 -0.2449  0.7102 -0.5265
  825MPD2    C212187   4.165   0.039  15.406  0.3628 -0.0488 -0.8285
  825MPD2    C312188   4.261   0.125  15.340 -0.5018 -0.0287 -0.4769
  825MPD2    C412189   4.372   0.072  15.284  0.2258 -0.0923  0.2371
  825MPD2    C512190   4.407   4.679  15.311  0.1370 -1.1957  0.0890
  825MPD2     H12191   4.076   0.079  15.453  0.6434  0.4436 -0.7128
  825MPD2    H112192   4.435   0.139  15.227 -2.4948  1.4388 -0.9496
  825MPD2    H212193   4.344   4.490  15.363  2.1598 -0.1906  1.0984
  825MPD2    H312194   4.495   4.637  15.264 -0.3817 -0.4570 -1.5720
  825MPD2     N12195   4.241   0.261  15.310 -0.2333  0.4790  0.6768
  825MPD2    H512196   4.315   0.296  15.249  1.3135 -1.1765  1.5965
  825MPD2    N112197   4.116   4.547  15.493  0.1966 -0.4881 -0.0147
  825MPD2    H712198   4.146   4.451  15.484  0.5456 -0.3433 -0.4539
  826MPD2     C12199   3.728   4.250  13.658  0.5604 -0.6639 -0.1418
  826MPD2    C112200   3.787   4.375  13.654 -0.5284  0.1178 -0.1138
  826MPD2    C212201   3.701   4.486  13.667 -0.5690 -0.3826  0.3976
  826MPD2    C312202   3.566   4.474  13.687  0.6215 -0.5287  0.5722
  826MPD2    C412203   3.505   4.346  13.694  0.2988  0.5169  0.5676
  826MPD2    C512204   3.595   4.247  13.692 -0.6307 -0.2370 -0.0148
  826MPD2     H12205   3.744   4.585  13.665 -0.7221 -0.3143  0.5746
  826MPD2    H112206   3.398   4.336  13.706 -0.2161  3.5120 -1.5318
  826MPD2    H212207   3.774   4.154  13.640 -0.0003 -1.1738  1.0977
  826MPD2    H312208   3.552   4.148  13.697  1.6121 -1.2486 -0.8527
  826MPD2     N12209   3.486   4.588  13.701  0.1572  0.2699 -0.2782
  826MPD2    H512210   3.392   4.574  13.737  0.6037 -1.0782  0.3540
  826MPD2    N112211   3.929   4.386  13.640 -0.0155  0.3136  0.5660
  826MPD2    H712212   3.982   4.299  13.631  0.1789  0.3820  1.0725
  827MPD2     C12213   4.481   1.701  10.434 -0.4608 -0.1994 -0.1661
  827MPD2    C112214   4.431   1.638  10.543  0.2165  0.0236  0.3685
  827MPD2    C212215   4.337   1.541  10.514  0.5342 -0.3575  0.2402
  827MPD2    C312216   4.302   1.504  10.385  0.4274  0.1296  0.3404
  827MPD2    C412217   4.341   1.585  10.282  0.9484 -0.3002  0.5457
  827MPD2    C512218   4.430   1.684  10.310  0.5109  0.0531 -0.0091
  827MPD2     H12219   4.304   1.481  10.598 -0.8651  1.2489  0.8359
  827MPD2    H112220   4.304   1.578  10.180 -0.1178 -0.3814  0.9408
  827MPD2    H212221   4.549   1.785  10.442 -1.3700  0.8003 -2.8408
  827MPD2    H312222   4.456   1.733  10.217  1.5449 -1.1866 -0.3704
  827MPD2     N12223   4.211   1.399  10.371 -0.4036 -0.8133 -0.4297
  827MPD2    H512224   4.183   1.345  10.452 -1.9071 -0.4740 -0.7332
  827MPD2    N112225   4.458   1.679  10.678  0.5091 -0.2391  0.5575
  827MPD2    H712226   4.528   1.751  10.688  1.7932 -1.5371  0.9201
  828MPD2     C12227   2.499   1.953  12.432 -0.4797 -0.4576 -0.5267
  828MPD2    C112228   2.397   1.865  12.402  0.2371 -0.5010 -1.1504
  828MPD2    C212229   2.399   1.811  12.279  0.5385  0.6074  0.0379
  828MPD2    C312230   2.497   1.845  12.181  0.1451 -0.3693 -0.3749
  828MPD2    C412231   2.598   1.940  12.213 -0.7911 -0.1908 -0.6944
  828MPD2    C512232   2.596   1.988  12.341  0.4209 -0.7952 -0.4081
  828MPD2     H12233   2.311   1.753  12.253  0.4005  1.6388 -1.8390
  828MPD2    H112234   2.683   1.958  12.148 -1.3648 -1.5973 -1.8313
  828MPD2    H212235   2.512   1.997  12.530 -0.1108 -2.8453  0.4865
  828MPD2    H312236   2.664   2.069  12.366  0.1905 -1.2484  1.6618
  828MPD2     N12237   2.493   1.795  12.047  0.3055  0.3909  0.5623
  828MPD2    H512238   2.547   1.843  11.976 -0.0569 -2.1560 -1.4554
  828MPD2    N112239   2.291   1.829  12.491 -0.1010 -0.1738 -0.4269
  828MPD2    H712240   2.221   1.763  12.456  0.8433 -0.7861 -1.1723
  829MPD2     C12241   1.634   2.373  12.474 -0.1648  0.3791 -0.4639
  829MPD2    C112242   1.724   2.304  12.397  0.8204 -0.1548 -0.0893
  829MPD2    C212243   1.806   2.205  12.460 -0.4000 -0.6499  0.6408
  829MPD2    C312244   1.780   2.168  12.589  0.1270  0.1619  0.0159
  829MPD2    C412245   1.690   2.237  12.665 -0.4029 -0.2250 -0.2003
  829MPD2    C512246   1.623   2.343  12.610  0.6303  0.0149 -0.5613
  829MPD2     H12247   1.885   2.159  12.402  0.0690  0.0676  0.7190
  829MPD2    H112248   1.678   2.218  12.771 -1.1156 -0.9685 -0.4097
  829MPD2    H212249   1.575   2.452  12.429  1.5579  1.5703 -0.6258
  829MPD2    H312250   1.550   2.404  12.661  0.2364  0.8397 -2.1055
  829MPD2     N12251   1.858   2.059  12.631  0.0533 -0.2977  0.6751
  829MPD2    H512252   1.923   2.019  12.564 -0.4313 -0.4214  0.2787
  829MPD2    N112253   1.738   2.349  12.268  0.6637  0.0008 -0.0167
  829MPD2    H712254   1.700   2.441  12.249  0.4232 -0.3415 -1.1830
  830MPD2     C12255   3.067   3.946  15.887 -0.2247 -0.7926  0.1454
  830MPD2    C112256   2.957   3.993  15.815 -1.1155 -0.6547  0.0018
  830MPD2    C212257   2.976   4.058  15.695  0.1104  0.2027  0.3697
  830MPD2    C312258   3.105   4.074  15.644 -0.0202  0.6257 -0.2862
  830MPD2    C412259   3.215   4.021  15.715  0.2319  0.6130 -0.4801
  830MPD2    C512260   3.193   3.953  15.832 -0.2194 -0.2633  0.7525
  830MPD2     H12261   2.895   4.116  15.651  0.5181 -0.3905 -1.1473
  830MPD2    H112262   3.311   4.015  15.665  1.1306  1.0842  1.1833
  830MPD2    H212263   3.050   3.895  15.981 -0.3194 -0.8495  0.0970
  830MPD2    H312264   3.276   3.902  15.878 -0.0803 -0.9796 -0.3123
  830MPD2     N12265   3.134   4.150  15.526  0.2310 -0.3292 -0.1819
  830MPD2    H512266   3.234   4.152  15.508  0.2999 -1.3156  0.1046
  830MPD2    N112267   2.833   3.983  15.887  0.2614 -0.5683 -0.7638
  830MPD2    H712268   2.840   3.938  15.977  1.9125 -0.3699 -0.7833
  831MPD2     C12269   2.812   0.943  16.773 -0.1920 -0.3521 -0.1457
  831MPD2    C112270   2.822   0.849  16.669 -0.7061 -0.5973 -0.5882
  831MPD2    C212271   2.715   0.766  16.647 -0.1670 -0.0746 -0.4642
  831MPD2    C312272   2.622   0.752  16.746  0.0732  0.1122  0.5410
  831MPD2    C412273   2.637   0.822  16.861  0.2342  1.2288 -0.0124
  831MPD2    C512274   2.727   0.924  16.877 -0.2523  0.0707  0.5802
  831MPD2     H12275   2.720   0.697  16.564  2.3390  0.8614 -1.0893
  831MPD2    H112276   2.570   0.804  16.945  1.5654  0.2416  0.8455
  831MPD2    H212277   2.894   1.011  16.789 -0.9620  0.6485 -0.4818
  831MPD2    H312278   2.721   0.990  16.962  1.1172 -0.3054  0.9714
  831MPD2     N12279   2.510   0.672  16.726 -0.4355 -0.0383  0.3286
  831MPD2    H512280   2.442   0.666  16.801 -0.9129 -1.0402 -0.1916
  831MPD2    N112281   2.935   0.849  16.585  0.2435 -0.8332 -0.0154
  831MPD2    H712282   2.992   0.932  16.586  0.0239 -0.6868  0.3386
  832MPD2     C12283   1.266   1.560  17.176 -0.0805  0.0532  0.0305
  832MPD2    C112284   1.203   1.667  17.240 -0.0449 -0.5673 -0.0512
  832MPD2    C212285   1.072   1.702  17.200  0.2118 -0.3497 -0.0546
  832MPD2    C312286   1.015   1.633  17.099  0.0349  0.4017 -0.2896
  832MPD2    C412287   1.071   1.521  17.040  0.2376  0.5570 -0.2843
  832MPD2    C512288   1.195   1.481  17.080 -0.2590 -0.2752  0.3220
  832MPD2     H12289   1.026   1.798  17.221 -0.0156 -1.0734  2.8256
  832MPD2    H112290   1.023   1.460  16.964 -1.6258  0.9677  0.5626
  832MPD2    H212291   1.370   1.542  17.201 -0.4196 -0.2505  1.2150
  832MPD2    H312292   1.261   1.409  17.034 -2.3017  0.7703 -4.2238
  832MPD2     N12293   0.883   1.662  17.059  0.1898 -0.2401 -0.2434
  832MPD2    H512294   0.837   1.593  17.001  1.8590 -1.0603 -0.6040
  832MPD2    N112295   1.279   1.751  17.326  0.1396 -0.8953  0.5812
  832MPD2    H712296   1.377   1.724  17.331  0.7044  0.5926 -2.5709
  833MPD2     C12297   3.460   3.656  12.318  0.4804  0.2325  0.8209
  833MPD2    C112298   3.455   3.765  12.239  0.5657  0.0482  0.0696
  833MPD2    C212299   3.462   3.752  12.103  0.1820 -0.2556  0.3387
  833MPD2    C312300   3.475   3.626  12.053 -0.5304  0.5853  0.4284
  833MPD2    C412301   3.483   3.513  12.135  0.0193  0.3395  0.9883
  833MPD2    C512302   3.473   3.530  12.271 -0.1799 -0.5234  0.2723
  833MPD2     H12303   3.430   3.835  12.041 -1.4749  0.3363  1.9768
  833MPD2    H112304   3.486   3.412  12.094 -0.5583 -0.3700  2.7205
  833MPD2    H212305   3.452   3.672  12.425 -5.3519  0.6079  0.3477
  833MPD2    H312306   3.464   3.443  12.336  1.2166 -0.5793  0.3880
  833MPD2     N12307   3.468   3.604  11.911 -0.6430 -0.5795  0.3649
  833MPD2    H512308   3.478   3.506  11.887 -1.5702 -0.2770 -1.2467
  833MPD2    N112309   3.460   3.895  12.299  0.4509  0.5856 -0.1733
  833MPD2    H712310   3.459   3.894  12.401 -0.9095 -0.9820 -0.1978
  834MPD2     C12311   2.951   2.973  11.584  0.2395  0.6083  0.2467
  834MPD2    C112312   3.091   2.977  11.594  0.2432  0.5351  0.0714
  834MPD2    C212313   3.159   3.096  11.615  0.6160 -0.6094 -0.3002
  834MPD2    C312314   3.085   3.214  11.621 -0.3783 -0.1620  0.2389
  834MPD2    C412315   2.946   3.214  11.613 -0.1727 -0.1221  0.2776
  834MPD2    C512316   2.884   3.093  11.603 -1.1222  0.7805 -0.5842
  834MPD2     H12317   3.266   3.101  11.633  0.2657  1.4688  1.2327
  834MPD2    H112318   2.874   3.291  11.637 -0.1570 -0.4858  1.4887
  834MPD2    H212319   2.896   2.883  11.559  1.6915 -0.6427  1.5561
  834MPD2    H312320   2.776   3.091  11.590 -1.2281  1.7585  0.1555
  834MPD2     N12321   3.161   3.332  11.621  0.4328 -0.0116  0.0489
  834MPD2    H512322   3.261   3.318  11.620 -0.0019 -3.0789  0.6114
  834MPD2    N112323   3.158   2.864  11.571  0.0048 -0.1993  0.1405
  834MPD2    H712324   3.101   2.786  11.541 -0.7276  0.2816  0.2844
  835MPD2     C12325   3.985   1.430  11.234  0.6503 -0.0223 -0.0266
  835MPD2    C112326   3.853   1.392  11.254 -0.3627 -0.6091  0.1647
  835MPD2    C212327   3.818   1.311  11.358  0.0436 -0.2566  0.1789
  835MPD2    C312328   3.914   1.253  11.433 -0.0497 -0.2919  0.2444
  835MPD2    C412329   4.048   1.267  11.404 -0.1810 -0.0946  0.2653
  835MPD2    C512330   4.082   1.360  11.315 -0.2322 -0.1560  0.6989
  835MPD2     H12331   3.714   1.309  11.386 -0.0660  1.6440 -0.1264
  835MPD2    H112332   4.121   1.216  11.466 -0.1729 -1.7639 -1.1005
  835MPD2    H212333   4.031   1.495  11.161  0.5678 -0.8433 -0.8215
  835MPD2    H312334   4.187   1.370  11.291  1.0247 -2.9690  5.0122
  835MPD2     N12335   3.874   1.173  11.538  0.0754  0.0625 -0.1157
  835MPD2    H512336   3.947   1.145  11.603  1.5395  1.4458 -1.1745
  835MPD2    N112337   3.757   1.446  11.174  0.7768 -0.0129  0.2347
  835MPD2    H712338   3.660   1.430  11.201  0.1201  0.7367 -1.6744
  836MPD2     C12339   3.165   1.189  11.713  0.0477  0.0829 -0.5770
  836MPD2    C112340   3.218   1.159  11.838 -0.6751  0.3913 -0.6060
  836MPD2    C212341   3.138   1.131  11.944 -0.3055 -0.1097 -0.1270
  836MPD2    C312342   3.005   1.151  11.928 -0.9609  0.1626  0.5066
  836MPD2    C412343   2.954   1.193  11.806  0.7713  0.3344  0.8992
  836MPD2    C512344   3.032   1.214  11.698  0.5305 -0.0858 -0.1189
  836MPD2     H12345   3.182   1.084  12.031 -0.0769 -2.7079 -1.6436
  836MPD2    H112346   2.849   1.216  11.795  0.7398 -0.3220 -0.1469
  836MPD2    H212347   3.226   1.207  11.626  0.1771  2.1553 -0.0620
  836MPD2    H312348   2.992   1.251  11.604  2.7911 -1.0218 -1.4375
  836MPD2     N12349   2.913   1.153  12.038 -0.4335  0.1216 -0.3698
  836MPD2    H512350   2.816   1.177  12.022 -0.0669  1.2192 -0.9205
  836MPD2    N112351   3.355   1.132  11.832  0.2292 -0.0000 -0.2054
  836MPD2    H712352   3.404   1.151  11.745 -0.2759  1.2660 -0.2061
  837MPD2     C12353   1.163   1.257  10.100  0.7545  1.2310 -0.7221
  837MPD2    C112354   1.054   1.324  10.145 -0.1671  0.1595  0.7736
  837MPD2    C212355   1.046   1.461  10.144  0.2821  0.4061 -0.0256
  837MPD2    C312356   1.152   1.532  10.114 -0.3952 -0.7242  0.8016
  837MPD2    C412357   1.263   1.472  10.059 -0.4082  0.4908 -0.0018
  837MPD2    C512358   1.270   1.333  10.054 -0.2822  0.1354  0.4780
  837MPD2     H12359   0.956   1.505  10.186 -0.1418  1.2522 -1.8238
  837MPD2    H112360   1.351   1.531  10.039 -0.1767 -0.0511 -0.5906
  837MPD2    H212361   1.164   1.150  10.079  1.5943  0.9552  0.7732
  837MPD2    H312362   1.360   1.287  10.015 -1.1767  1.1573 -2.7789
  837MPD2     N12363   1.132   1.665  10.141  0.5718 -0.3804 -0.7557
  837MPD2    H512364   1.046   1.693  10.187  1.5707 -0.6906  1.3097
  837MPD2    N112365   0.938   1.261  10.188 -0.0085  0.4450  0.2214
  837MPD2    H712366   0.862   1.322  10.214  1.1849  2.7388 -1.6909
  838MPD2     C12367   4.325   3.644  11.372 -0.3050  0.0606  0.0617
  838MPD2    C112368   4.330   3.764  11.438 -0.0789 -0.0087 -0.2562
  838MPD2    C212369   4.223   3.801  11.518 -0.0556 -0.1567  0.2089
  838MPD2    C312370   4.114   3.709  11.536  0.4450  0.0823  1.0892
  838MPD2    C412371   4.106   3.597  11.455  0.0530  0.2286 -0.2381
  838MPD2    C512372   4.220   3.563  11.380 -0.4380 -0.2404  0.3052
  838MPD2     H12373   4.233   3.895  11.571  0.1180 -1.1971  2.0395
  838MPD2    H112374   4.016   3.539  11.442 -0.8870  1.6614 -0.0904
  838MPD2    H212375   4.409   3.609  11.313 -0.0754 -0.7125  0.8395
  838MPD2    H312376   4.212   3.468  11.328  1.1685  0.8434 -1.8982
  838MPD2     N12377   4.018   3.743  11.632  0.9199 -0.5427  0.1997
  838MPD2    H512378   4.024   3.832  11.680  0.7196 -0.1971 -0.4207
  838MPD2    N112379   4.444   3.846  11.443 -0.1672 -0.1047 -0.6056
  838MPD2    H712380   4.440   3.929  11.500  3.6938 -0.9407  0.8808
  839MPD2     C12381   4.573   3.613  12.200  0.2747  0.3283  0.0646
  839MPD2    C112382   4.531   3.560  12.081  0.4377  0.6840 -0.0310
  839MPD2    C212383   4.592   3.603  11.960 -0.0865  0.5588 -0.6398
  839MPD2    C312384   4.679   3.706  11.964  0.4294  0.5904 -0.4347
  839MPD2    C412385   4.720   3.760  12.082  0.3666 -0.6781  0.0046
  839MPD2    C512386   4.674   3.713  12.206  0.0959 -0.1131  0.2361
  839MPD2     H12387   4.547   3.564  11.869  0.2493 -2.6792  0.5592
  839MPD2    H112388   0.047   3.848  12.091  1.9602 -1.7525 -0.7969
  839MPD2    H212389   4.539   3.569  12.293 -0.2906 -2.3742 -1.4232
  839MPD2    H312390   4.713   3.747  12.301  3.1181  1.4631 -1.5506
  839MPD2     N12391   4.715   3.766  11.840 -0.6900 -0.3709 -0.0640
  839MPD2    H512392   4.670   3.722  11.760  2.7164 -0.7860 -1.7712
  839MPD2    N112393   4.415   3.484  12.062 -0.4258 -0.0592 -0.1743
  839MPD2    H712394   4.397   3.452  11.967  3.4984  0.8887 -1.2379
  840MPD2     C12395   0.169   2.055  10.834  0.3140  0.3499 -0.3986
  840MPD2    C112396   0.133   2.010  10.963 -0.3138  0.2185  0.0957
  840MPD2    C212397   0.203   2.044  11.075  0.1810 -0.3488 -1.0543
  840MPD2    C312398   0.311   2.127  11.063  0.8443 -0.3378 -0.1411
  840MPD2    C412399   0.351   2.167  10.936 -0.1517 -0.2024  0.1237
  840MPD2    C512400   0.284   2.128  10.825  0.3111  0.0724  0.3371
  840MPD2     H12401   0.176   2.019  11.177 -1.6715 -0.8271 -1.6627
  840MPD2    H112402   0.437   2.232  10.923 -0.4918 -0.1683 -1.8925
  840MPD2    H212403   0.110   2.032  10.746  0.1549  0.1927 -0.2512
  840MPD2    H312404   0.319   2.167  10.730 -0.2121 -1.8696 -0.6463
  840MPD2     N12405   0.380   2.162  11.182  0.4975  0.2105 -0.0048
  840MPD2    H512406   0.330   2.145  11.268  1.1884  1.9033  0.7443
  840MPD2    N112407   0.020   1.927  10.970  0.2491  0.8266  0.2895
  840MPD2    H712408   4.702   1.932  10.884 -1.7760 -3.0701  1.3148
  841MPD2     C12409   4.096   1.652  14.827  0.1121  0.1188 -0.0071
  841MPD2    C112410   4.126   1.541  14.749 -0.4253 -0.3143  0.7354
  841MPD2    C212411   4.248   1.482  14.763  0.0530 -0.4828 -0.4951
  841MPD2    C312412   4.344   1.527  14.848 -0.6722  0.2414 -0.3004
  841MPD2    C412413   4.318   1.641  14.918  0.6081 -0.3941 -0.2614
  841MPD2    C512414   4.197   1.700  14.908 -0.7273  0.4967  0.1222
  841MPD2     H12415   4.264   1.397  14.698 -0.2124 -1.4212  0.6696
  841MPD2    H112416   4.388   1.681  14.990  0.3157 -1.0423  0.3740
  841MPD2    H212417   4.002   1.706  14.831 -0.1615 -0.4498  1.4842
  841MPD2    H312418   4.173   1.785  14.971  1.8557 -0.6257  2.6096
  841MPD2     N12419   4.471   1.463  14.863 -0.3041 -0.2983  0.3829
  841MPD2    H512420   4.545   1.525  14.896  0.1082 -1.0201  0.7982
  841MPD2    N112421   4.027   1.475  14.668 -0.6499 -0.2629  0.3951
  841MPD2    H712422   4.067   1.406  14.605 -0.3370 -0.2457  0.5787
  842MPD2     C12423   0.149   2.181  16.799  0.6451 -0.2281  0.2334
  842MPD2    C112424   0.064   2.090  16.842  0.4536 -0.4142  0.6248
  842MPD2    C212425   0.068   2.048  16.972  0.3210  0.1980  0.5514
  842MPD2    C312426   0.180   2.082  17.050  0.4378 -0.1386 -0.5559
  842MPD2    C412427   0.263   2.177  17.008  0.7732  0.0703  0.8455
  842MPD2    C512428   0.250   2.227  16.877 -0.3435 -0.5446  0.1330
  842MPD2     H12429   0.007   1.966  17.010 -0.9658  1.2785  0.7974
  842MPD2    H112430   0.343   2.220  17.068 -0.0242 -2.1858  3.5305
  842MPD2    H212431   0.152   2.217  16.697 -0.8110 -1.0236 -0.0863
  842MPD2    H312432   0.312   2.307  16.840  0.6012 -1.0871  0.5448
  842MPD2     N12433   0.203   2.042  17.188 -0.2771 -0.2092 -0.0788
  842MPD2    H512434   0.282   2.082  17.237  0.1516  0.5870 -1.4424
  842MPD2    N112435   4.699   2.064  16.749 -0.2968 -0.0105 -0.2980
  842MPD2    H712436   4.701   2.116  16.662 -1.6941  0.8549  0.1860
  843MPD2     C12437   2.305   2.967   0.008 -0.4417 -0.4101  0.0169
  843MPD2    C112438   2.433   2.911   0.024  0.8236 -0.3905  0.4679
  843MPD2    C212439   2.527   3.000   0.071 -0.7355  0.1874  0.0059
  843MPD2    C312440   2.495   3.134   0.108  0.3894 -0.2547  0.5520
  843MPD2    C412441   2.364   3.177   0.098  0.1901 -0.2198 -0.3807
  843MPD2    C512442   2.267   3.098   0.041 -0.1970 -0.1035 -0.6293
  843MPD2     H12443   2.632   2.974   0.075 -0.4642  1.0352 -1.5571
  843MPD2    H112444   2.334   3.276   0.131  1.6448  0.6548 -1.7108
  843MPD2    H212445   2.221   2.911  17.713  0.2431  0.0184 -2.0930
  843MPD2    H312446   2.165   3.134   0.031 -0.5047 -0.4835  1.1055
  843MPD2     N12447   2.590   3.224   0.159  0.3736 -0.6444  0.2476
  843MPD2    H512448   2.574   3.325   0.159 -0.5921 -0.7759  4.0222
  843MPD2    N112449   2.444   2.777  17.723 -0.3902  0.1135  0.1954
  843MPD2    H712450   2.369   2.739  17.667 -0.4779 -1.3890  1.3070
  844MPD2     C12451   0.785   1.752  16.583  0.5489 -0.2688 -1.0310
  844MPD2    C112452   0.873   1.657  16.601  0.6314  0.1201 -0.0507
  844MPD2    C212453   0.991   1.690  16.669  0.2315  0.5140 -0.3140
  844MPD2    C312454   1.008   1.812  16.727 -0.4357 -0.1246 -0.1715
  844MPD2    C412455   0.905   1.902  16.710  0.3761  0.8335  0.1656
  844MPD2    C512456   0.793   1.874  16.641  0.1473 -0.9676  0.1597
  844MPD2     H12457   1.072   1.621  16.690  0.4358  0.2444 -1.9619
  844MPD2    H112458   0.906   2.005  16.743  0.6305  0.6954  0.5965
  844MPD2    H212459   0.696   1.740  16.522  0.7410  1.4271 -1.6228
  844MPD2    H312460   0.720   1.948  16.611 -1.4368 -2.0205  1.3501
  844MPD2     N12461   1.122   1.832  16.808 -0.4556 -0.0081  0.1164
  844MPD2    H512462   1.188   1.755  16.815  0.3118  0.6419  0.0173
  844MPD2    N112463   0.871   1.529  16.539 -0.3669  0.3417 -0.2706
  844MPD2    H712464   0.957   1.476  16.548  0.7258  1.6208 -3.1059
  845MPD2     C12465   1.257   2.553  17.477  0.7573  0.4263 -0.2887
  845MPD2    C112466   1.156   2.462  17.466 -0.7980  0.5091 -0.3515
  845MPD2    C212467   1.175   2.343  17.396 -0.7208  0.3216  0.7581
  845MPD2    C312468   1.297   2.329  17.332 -0.5384 -0.4080  0.4255
  845MPD2    C412469   1.395   2.418  17.346 -0.8127  0.3675  0.6604
  845MPD2    C512470   1.381   2.533  17.416  0.3821  0.3901  0.6943
  845MPD2     H12471   1.087   2.281  17.384 -0.6298  0.2214  0.6117
  845MPD2    H112472   1.494   2.405  17.305 -0.6690  1.6207  0.6019
  845MPD2    H212473   1.246   2.643  17.536 -3.6982 -3.0329  4.1409
  845MPD2    H312474   1.469   2.594  17.432  0.6202 -0.1579  1.4361
  845MPD2     N12475   1.311   2.229  17.233 -0.1103  0.7344  0.2112
  845MPD2    H512476   1.226   2.175  17.221  0.2556  0.1639  0.2376
  845MPD2    N112477   1.033   2.503  17.521  0.2900 -0.3323  0.1957
  845MPD2    H712478   1.026   2.598  17.554  0.5056  0.1879 -1.2725
  846MPD2     C12479   2.154   3.132  13.312  0.5228  0.1337 -0.0471
  846MPD2    C112480   2.239   3.163  13.419 -0.4372  0.0312 -0.5975
  846MPD2    C212481   2.200   3.127  13.542 -0.2471 -0.2537  0.6561
  846MPD2    C312482   2.089   3.053  13.564 -0.1375 -0.0840 -0.6710
  846MPD2    C412483   1.996   3.032  13.457  0.0294  0.5236  0.3065
  846MPD2    C512484   2.027   3.078  13.336  0.2529 -0.0396 -0.2061
  846MPD2     H12485   2.261   3.142  13.631  1.3494  0.2532 -0.5416
  846MPD2    H112486   1.902   2.979  13.458  1.1996 -1.5254  0.2722
  846MPD2    H212487   2.186   3.160  13.213  0.8371 -1.7717 -0.4838
  846MPD2    H312488   1.965   3.065  13.248 -2.5487  2.7338  1.3662
  846MPD2     N12489   2.067   3.010  13.696  0.0222  0.5739 -0.7582
  846MPD2    H512490   2.137   3.028  13.767 -0.4803  0.3443 -0.2100
  846MPD2    N112491   2.359   3.235  13.415 -0.3163  0.2208  0.5404
  846MPD2    H712492   2.397   3.272  13.502  0.1014 -0.7589  0.7660
  847MPD2     C12493   3.921   4.039  14.283  0.5863  0.5734 -0.6201
  847MPD2    C112494   3.871   4.160  14.330  1.4146  0.0208 -0.1434
  847MPD2    C212495   3.958   4.265  14.368 -0.9478  0.5177 -0.4139
  847MPD2    C312496   4.088   4.234  14.373  0.1557 -0.1627 -0.3143
  847MPD2    C412497   4.137   4.114  14.329 -0.0877  0.0418  0.1090
  847MPD2    C512498   4.056   4.014  14.289 -0.3273  0.4815 -0.2868
  847MPD2     H12499   3.914   4.354  14.412  0.2139 -0.1097  2.0270
  847MPD2    H112500   4.242   4.091  14.315  0.2282  0.9419  1.0637
  847MPD2    H212501   3.852   3.958  14.260  2.2728 -1.0475  0.0459
  847MPD2    H312502   4.105   3.926  14.250  1.7976  0.8768  1.4927
  847MPD2     N12503   4.163   4.338  14.430 -0.3403  0.2365 -0.4064
  847MPD2    H512504   4.112   4.423  14.454 -0.3343  0.3547 -0.8199
  847MPD2    N112505   3.735   4.190  14.336  0.5396 -0.5249 -0.8864
  847MPD2    H712506   3.704   4.284  14.357  1.3196 -0.3484 -0.5376
  848MPD2     C12507   0.398   1.994  16.555 -0.0094 -0.2735 -0.3223
  848MPD2    C112508   0.461   2.074  16.650 -0.1397  0.2121 -0.1008
  848MPD2    C212509   0.510   2.196  16.620  0.0419 -0.1177 -0.2297
  848MPD2    C312510   0.481   2.252  16.499 -0.5515 -0.1643 -0.5347
  848MPD2    C412511   0.409   2.179  16.405  0.6712  0.0789 -0.0893
  848MPD2    C512512   0.375   2.049  16.431 -0.2701 -0.1273  0.1352
  848MPD2     H12513   0.570   2.245  16.695 -3.1540 -1.0762  2.9482
  848MPD2    H112514   0.383   2.215  16.306  1.5234 -0.4565 -0.5133
  848MPD2    H212515   0.363   1.893  16.572  1.2632 -0.1402  3.2764
  848MPD2    H312516   0.309   2.000  16.361 -0.8117  1.6325 -0.5892
  848MPD2     N12517   0.505   2.391  16.480 -0.0574  0.5827  0.7857
  848MPD2    H512518   0.465   2.431  16.396 -0.5079  1.4728  1.4314
  848MPD2    N112519   0.485   2.017  16.776 -0.6154 -0.8726 -0.1246
  848MPD2    H712520   0.540   2.075  16.838 -1.8636  0.5883 -0.3851
  849MPD2     C12521   4.335   2.116  14.405 -0.6165 -0.4948  0.1427
  849MPD2    C112522   4.450   2.099  14.331  0.1182 -0.8576 -0.3109
  849MPD2    C212523   4.538   2.002  14.376  0.4142 -0.0006  0.0287
  849MPD2    C312524   4.524   1.936  14.495  0.1410 -0.5937  0.1343
  849MPD2    C412525   4.413   1.969  14.577  0.5784  0.2144  0.7698
  849MPD2    C512526   4.316   2.055  14.530 -0.7912 -0.0678 -0.7453
  849MPD2     H12527   4.631   2.004  14.321  0.5610  4.4049  0.4735
  849MPD2    H112528   4.406   1.925  14.676 -1.8405  3.7189  2.1496
  849MPD2    H212529   4.260   2.189  14.377  0.2538  0.4138  0.1796
  849MPD2    H312530   4.227   2.075  14.589  0.4483  0.1257  1.0663
  849MPD2     N12531   4.618   1.840  14.521 -0.4848 -0.1714 -0.1240
  849MPD2    H512532   4.681   1.827  14.443  0.9739  0.3118  0.9808
  849MPD2    N112533   4.480   2.175  14.211 -0.5767 -0.0896  0.8239
  849MPD2    H712534   4.570   2.156  14.167 -1.1725  0.0295 -0.4548
  850MPD2     C12535   2.938   0.629  14.774  0.5369 -0.2366  0.2991
  850MPD2    C112536   2.895   0.674  14.895 -0.2768 -0.3918  1.1712
  850MPD2    C212537   2.987   0.723  14.979  0.0693 -0.5182  0.2641
  850MPD2    C312538   3.125   0.732  14.948 -0.7045  0.1517 -0.7121
  850MPD2    C412539   3.169   0.694  14.825  0.2984 -0.0070  0.0436
  850MPD2    C512540   3.072   0.639  14.742  0.0403  0.0220 -0.2157
  850MPD2     H12541   2.950   0.767  15.071  3.9869  1.5795  0.8077
  850MPD2    H112542   3.274   0.692  14.799  0.9202 -0.8045  2.6348
  850MPD2    H212543   2.871   0.589  14.698  2.1142  0.6763 -1.5744
  850MPD2    H312544   3.097   0.595  14.646  0.0899  1.5395 -0.9040
  850MPD2     N12545   3.224   0.763  15.045  0.2975 -0.0345  0.4974
  850MPD2    H512546   3.321   0.766  15.016 -0.3248  2.4795 -1.2917
  850MPD2    N112547   2.753   0.657  14.920  0.5388 -0.9576 -0.0987
  850MPD2    H712548   2.697   0.636  14.838  0.4792  0.8182 -0.4999
  851MPD2     C12549   3.167   0.277  15.618 -1.0432 -0.0540  0.5283
  851MPD2    C112550   3.106   0.279  15.490  0.2665  0.1239  0.5057
  851MPD2    C212551   3.122   0.167  15.403  0.3379 -0.1101 -0.7901
  851MPD2    C312552   3.202   0.062  15.447 -0.0993 -0.0899  0.2630
  851MPD2    C412553   3.272   0.067  15.570  0.0205  0.4314 -0.4142
  851MPD2    C512554   3.253   0.177  15.649 -0.2527  0.3226  0.0635
  851MPD2     H12555   3.076   0.156  15.306  1.8014 -1.3888 -1.3539
  851MPD2    H112556   3.317   4.714  15.612  0.8102 -0.0247 -2.2000
  851MPD2    H212557   3.165   0.351  15.697  3.3686 -0.2004  0.7665
  851MPD2    H312558   3.289   0.163  15.750  0.0070 -3.4142 -0.5498
  851MPD2     N12559   3.204   4.684  15.361 -0.1772  0.4543  0.5245
  851MPD2    H512560   3.130   4.685  15.291  0.7330 -1.7773 -0.4611
  851MPD2    N112561   3.022   0.383  15.459  0.2693 -0.2685 -0.3549
  851MPD2    H712562   3.010   0.456  15.528  0.4844 -0.9185  0.3776
  852MPD2     C12563   2.026   2.704   9.959 -0.5709 -0.1278  0.1869
  852MPD2    C112564   2.060   2.684  10.091  0.2153 -0.0263  0.6289
  852MPD2    C212565   2.090   2.794  10.168  0.4535  0.0453  0.5738
  852MPD2    C312566   2.081   2.923  10.116 -0.6264 -0.0741 -1.3342
  852MPD2    C412567   2.046   2.943   9.983 -0.6095 -0.7038  0.3122
  852MPD2    C512568   2.018   2.831   9.910  0.2650 -0.0160  0.6358
  852MPD2     H12569   2.100   2.782  10.275  1.9006  0.2607  0.4555
  852MPD2    H112570   2.048   3.041   9.937  1.3656 -0.7625  0.2649
  852MPD2    H212571   2.022   2.622   9.888  0.3806  0.0009 -0.0205
  852MPD2    H312572   1.992   2.842   9.805 -0.1090 -0.6597  0.6574
  852MPD2     N12573   2.105   3.026  10.211 -0.4351 -0.1542  0.1209
  852MPD2    H512574   2.137   2.999  10.304  0.8153 -1.0880 -0.5750
  852MPD2    N112575   2.073   2.557  10.150 -0.5126 -0.0999 -0.1379
  852MPD2    H712576   2.092   2.556  10.249 -1.9368 -0.7634  0.1382
  853MPD2     C12577   4.006   2.536  12.652  0.1263  0.0433 -0.8030
  853MPD2    C112578   3.960   2.646  12.591  0.1193 -0.4678  0.4595
  853MPD2    C212579   3.987   2.666  12.459 -0.0475 -0.2522 -0.1132
  853MPD2    C312580   4.072   2.586  12.386 -0.0235 -0.2638 -0.3492
  853MPD2    C412581   4.127   2.476  12.450 -0.6242 -0.6385  0.6185
  853MPD2    C512582   4.088   2.453  12.581  1.0055  0.6300 -0.1393
  853MPD2     H12583   3.935   2.747  12.409  1.9697  2.5495  2.3568
  853MPD2    H112584   4.193   2.413  12.391 -0.6933  1.0077 -1.1896
  853MPD2    H212585   3.980   2.521  12.756  3.0374 -0.2950 -0.1304
  853MPD2    H312586   4.132   2.365  12.627  0.4209 -0.7612 -2.2116
  853MPD2     N12587   4.108   2.603  12.253 -0.3427 -0.0614  0.5173
  853MPD2    H512588   4.187   2.547  12.220 -1.3432 -1.6776  0.8342
  853MPD2    N112589   3.890   2.745  12.667  0.0424 -0.4189  0.0381
  853MPD2    H712590   3.861   2.723  12.762 -1.7551 -0.6553 -0.5541
  854MPD2     C12591   0.780   2.820  13.272  0.3537 -0.1384  0.5647
  854MPD2    C112592   0.896   2.833  13.203 -0.4036  0.4109 -0.0857
  854MPD2    C212593   0.971   2.717  13.203  0.3690  0.7938 -0.5599
  854MPD2    C312594   0.937   2.597  13.265  0.1342  0.0822  0.4820
  854MPD2    C412595   0.814   2.588  13.328 -0.1214  0.3378  0.9878
  854MPD2    C512596   0.734   2.697  13.316  0.9112  0.2981 -0.5352
  854MPD2     H12597   1.069   2.719  13.156  0.1931 -0.2788 -0.9652
  854MPD2    H112598   0.774   2.501  13.378  0.1520 -0.5503 -0.3385
  854MPD2    H212599   0.713   2.906  13.271 -0.3797 -0.7179  0.1260
  854MPD2    H312600   0.629   2.690  13.338  1.0026 -1.3916 -0.6559
  854MPD2     N12601   1.027   2.494  13.279  0.3071  0.3464  0.6479
  854MPD2    H512602   1.004   2.421  13.346  1.7664  0.7269  1.5715
  854MPD2    N112603   0.929   2.950  13.127  0.0138  0.0672 -0.3728
  854MPD2    H712604   0.852   3.010  13.099  1.1181  0.8297 -1.8230
  855MPD2     C12605   0.884   1.891  13.862  0.6709  0.2604  0.8157
  855MPD2    C112606   0.997   1.840  13.802  0.7472 -0.7373  0.2016
  855MPD2    C212607   1.072   1.920  13.718  0.3002  0.4314 -0.6526
  855MPD2    C312608   1.037   2.050  13.687 -0.0241 -0.0673 -0.4661
  855MPD2    C412609   0.930   2.104  13.764  0.2614 -0.3468 -0.3759
  855MPD2    C512610   0.848   2.022  13.842  0.4156  0.3540  0.0471
  855MPD2     H12611   1.153   1.862  13.677 -1.7341 -1.3163 -2.2285
  855MPD2    H112612   0.895   2.201  13.732  0.4281  0.1659  0.9968
  855MPD2    H212613   0.828   1.837  13.937 -1.2810  1.0069 -0.1170
  855MPD2    H312614   0.764   2.063  13.897  0.9830  0.2556  0.9907
  855MPD2     N12615   1.098   2.113  13.575 -0.3251 -0.2521  0.5698
  855MPD2    H512616   1.075   2.211  13.567  0.2187  0.0601  2.7663
  855MPD2    N112617   1.045   1.712  13.831  0.2881 -0.1841  0.3224
  855MPD2    H712618   1.137   1.694  13.791  0.6378 -0.6993  1.3512
  856MPD2     C12619   3.952   2.886  14.490  0.4453  0.0390  0.0500
  856MPD2    C112620   3.979   2.997  14.416 -0.4925  0.2826 -0.0173
  856MPD2    C212621   3.878   3.086  14.377  0.7241  0.1536 -0.5080
  856MPD2    C312622   3.753   3.062  14.417 -0.0924 -0.7056  0.3051
  856MPD2    C412623   3.720   2.943  14.475 -0.8987  0.1995  0.1961
  856MPD2    C512624   3.822   2.861  14.523 -0.1293  0.5164  0.2268
  856MPD2     H12625   3.906   3.178  14.327 -0.6154  2.0147  2.1845
  856MPD2    H112626   3.618   2.912  14.498 -1.4478  1.7958 -0.0996
  856MPD2    H212627   4.024   2.820  14.537  1.5121  1.7659  0.8513
  856MPD2    H312628   3.788   2.775  14.580 -1.1334  1.6456  1.3427
  856MPD2     N12629   3.641   3.139  14.364 -0.0242  0.4539  0.1308
  856MPD2    H512630   3.549   3.114  14.399 -1.0472  1.1535 -2.0563
  856MPD2    N112631   4.117   3.038  14.387 -0.2702  0.1971 -0.1404
  856MPD2    H712632   4.122   3.118  14.325 -1.0075  1.2990  1.2146
  857MPD2     C12633   0.379   0.825  13.235 -0.1393  0.5791  0.4852
  857MPD2    C112634   0.508   0.801  13.202  0.3898  0.6300 -0.0783
  857MPD2    C212635   0.600   0.858  13.285 -0.2374  0.3602  0.1125
  857MPD2    C312636   0.564   0.950  13.383  0.1115  0.1886  0.6371
  857MPD2    C412637   0.431   0.972  13.402  0.2084 -0.1362 -0.7131
  857MPD2    C512638   0.340   0.906  13.334  0.1835 -0.1491 -0.0181
  857MPD2     H12639   0.707   0.844  13.269  0.1355  2.7090  0.5640
  857MPD2    H112640   0.392   1.033  13.483  0.1111 -2.6242  1.1301
  857MPD2    H212641   0.299   0.773  13.183 -0.6874 -1.1285  3.0236
  857MPD2    H312642   0.236   0.929  13.356 -0.0284  0.3448 -1.5527
  857MPD2     N12643   0.661   1.017  13.458  0.3923 -0.2610 -0.2565
  857MPD2    H512644   0.755   0.986  13.434 -0.2829 -1.5340 -1.2471
  857MPD2    N112645   0.537   0.726  13.084  0.0340 -0.2000  0.4829
  857MPD2    H712646   0.462   0.683  13.030 -1.5180  0.2139  2.2933
  858MPD2     C12647   0.922   4.070  16.661  0.6507 -1.1398 -0.1998
  858MPD2    C112648   0.988   4.186  16.656 -0.5310 -0.2997  0.3431
  858MPD2    C212649   0.950   4.291  16.739 -0.0427  0.0405 -0.1858
  858MPD2    C312650   0.841   4.282  16.820  0.2097  0.5990  0.0839
  858MPD2    C412651   0.771   4.160  16.816  0.6091  0.3613 -0.1237
  858MPD2    C512652   0.814   4.059  16.734  0.3098 -0.5558  0.1688
  858MPD2     H12653   1.015   4.378  16.748  0.0969  0.1767 -2.4854
  858MPD2    H112654   0.686   4.140  16.881  0.4778  0.2282 -0.3394
  858MPD2    H212655   0.951   3.987  16.597  1.7674 -1.5827  0.8882
  858MPD2    H312656   0.771   3.960  16.738 -2.1643  0.4701 -0.7277
  858MPD2     N12657   0.796   4.379  16.911  0.7112  0.1687 -0.6252
  858MPD2    H512658   0.732   4.343  16.981 -0.0352 -0.2663 -1.5379
  858MPD2    N112659   1.104   4.191  16.566  0.1581  0.4977  0.1043
  858MPD2    H712660   1.125   4.110  16.509 -0.7077  1.3091 -1.3624
  859MPD2     C12661   4.345   1.628  15.307 -0.6540 -0.1859 -0.3494
  859MPD2    C112662   4.452   1.656  15.387  0.5043 -0.2514  0.0094
  859MPD2    C212663   4.492   1.559  15.483 -0.2038  0.5735 -0.1519
  859MPD2    C312664   4.441   1.433  15.481  0.3745  0.1916 -0.1363
  859MPD2    C412665   4.346   1.405  15.387  0.1482  0.0893  0.2484
  859MPD2    C512666   4.293   1.503  15.305  0.2162 -0.2456 -0.0209
  859MPD2     H12667   4.585   1.580  15.534  0.4426 -1.4561 -0.4941
  859MPD2    H112668   4.300   1.307  15.396 -0.0573  0.3427  1.9225
  859MPD2    H212669   4.305   1.696  15.232 -0.0867 -0.7618 -1.1733
  859MPD2    H312670   4.203   1.488  15.246  0.4084  1.6630 -0.8244
  859MPD2     N12671   4.498   1.329  15.560  0.5917 -0.2263 -0.0979
  859MPD2    H512672   4.467   1.233  15.546  0.4567  0.0058 -1.3348
  859MPD2    N112673   4.521   1.776  15.354 -0.2645 -0.4001  0.2458
  859MPD2    H712674   4.479   1.818  15.272 -1.8120 -1.3956  0.5083
  860MPD2     C12675   2.285   2.013  11.856 -0.5437  0.4908 -0.0195
  860MPD2    C112676   2.388   2.096  11.887 -0.0561  0.3687 -0.0438
  860MPD2    C212677   2.386   2.157  12.011  0.2574 -0.0105 -0.0206
  860MPD2    C312678   2.285   2.139  12.106  0.1660  0.4064 -0.0600
  860MPD2    C412679   2.179   2.057  12.071  0.0903  0.3966 -0.8165
  860MPD2    C512680   2.175   2.000  11.945  0.0899 -0.5823  0.5949
  860MPD2     H12681   2.474   2.213  12.041 -1.1006  1.3009  1.5054
  860MPD2    H112682   2.097   2.033  12.137  0.9738 -0.0764  0.1062
  860MPD2    H212683   2.288   1.950  11.769  3.0278  0.6269  0.0016
  860MPD2    H312684   2.093   1.936  11.914  1.6088 -1.1944 -2.2454
  860MPD2     N12685   2.294   2.211  12.227  0.7058 -0.1720  0.2784
  860MPD2    H512686   2.363   2.284  12.241  0.3519 -0.0295  1.3027
  860MPD2    N112687   2.508   2.112  11.814  1.3609 -0.3764  0.1219
  860MPD2    H712688   2.577   2.177  11.850  2.2107 -0.0683 -2.0768
  861MPD2     C12689   0.922   0.970  11.309  0.7342 -0.2894  0.3435
  861MPD2    C112690   0.823   0.922  11.379  0.1248 -0.3945  0.0185
  861MPD2    C212691   0.694   0.954  11.348  0.2334 -0.3725 -0.8271
  861MPD2    C312692   0.663   1.037  11.237 -0.4067  0.1102 -1.0455
  861MPD2    C412693   0.772   1.092  11.169  0.0914  0.1061  0.6608
  861MPD2    C512694   0.898   1.054  11.200  0.3781  0.1491 -0.4341
  861MPD2     H12695   0.624   0.914  11.420 -0.1333  0.0317 -0.9603
  861MPD2    H112696   0.755   1.164  11.090 -0.5364 -0.5201  0.2286
  861MPD2    H212697   1.028   0.956  11.329  0.9031 -0.4589 -0.6557
  861MPD2    H312698   0.978   1.096  11.141 -0.7291  0.6977 -1.5531
  861MPD2     N12699   0.530   1.081  11.210  0.2677 -0.8095 -0.2736
  861MPD2    H512700   0.518   1.161  11.148  1.3656  0.6460  1.3993
  861MPD2    N112701   0.850   0.831  11.487 -0.2630 -0.2241  0.6991
  861MPD2    H712702   0.772   0.811  11.549 -0.4539 -0.1991  0.4651
  862MPD2     C12703   4.507   0.858  10.934  0.0592  0.2008 -0.0213
  862MPD2    C112704   4.609   0.820  11.015 -0.9838 -0.1576 -0.1733
  862MPD2    C212705   4.613   0.687  11.058 -0.0165 -0.1173 -0.9218
  862MPD2    C312706   4.530   0.588  11.004 -0.0791  0.1705  0.2255
  862MPD2    C412707   4.427   0.629  10.922 -0.2907  0.0019 -0.2603
  862MPD2    C512708   4.412   0.760  10.895  0.0377  0.4815  0.0587
  862MPD2     H12709   4.706   0.667  11.109 -0.7162  0.6621  0.6479
  862MPD2    H112710   4.358   0.560  10.874 -1.3389  0.9954 -0.1954
  862MPD2    H212711   4.494   0.961  10.903  1.5023 -0.1677 -1.8313
  862MPD2    H312712   4.322   0.787  10.841  0.9944  0.7330 -1.3868
  862MPD2     N12713   4.556   0.450  11.026 -0.2867  0.0277  0.3377
  862MPD2    H512714   4.506   0.384  10.968 -0.6319  0.3928  0.2143
  862MPD2    N112715   4.717   0.908  11.054 -0.1953  0.3555 -0.9288
  862MPD2    H712716   0.052   0.856  11.104 -2.0923  0.2243  1.6432
  863MPD2     C12717   4.133   3.495  16.641 -1.2579 -0.2477  0.0138
  863MPD2    C112718   4.145   3.610  16.723  0.0605 -0.0776  0.0805
  863MPD2    C212719   4.213   3.589  16.842 -0.5467 -0.0336  0.1386
  863MPD2    C312720   4.257   3.463  16.881 -0.3774  0.6649 -0.4915
  863MPD2    C412721   4.219   3.354  16.804  0.3418  1.0094 -0.1432
  863MPD2    C512722   4.157   3.374  16.684 -0.6121  0.2295 -0.7086
  863MPD2     H12723   4.248   3.673  16.901  1.3889  0.0790 -1.1741
  863MPD2    H112724   4.244   3.253  16.834  0.5912  1.0594 -0.1828
  863MPD2    H212725   4.086   3.504  16.544 -0.8305 -1.3513 -0.2974
  863MPD2    H312726   4.144   3.289  16.619 -4.3794 -2.3600  3.4545
  863MPD2     N12727   4.349   3.433  16.989  0.0401 -0.0545 -0.2009
  863MPD2    H512728   4.373   3.336  17.007  0.5174 -0.3374 -2.4334
  863MPD2    N112729   4.117   3.742  16.678 -0.2379 -0.5690  0.8835
  863MPD2    H712730   4.057   3.750  16.597  1.3097  0.5971 -0.1614
  864MPD2     C12731   4.397   0.074  17.220 -0.2192 -0.3312 -0.6352
  864MPD2    C112732   4.492   0.015  17.132  0.4981  0.6702  0.2327
  864MPD2    C212733   4.559   0.092  17.035 -0.0891 -0.0263 -0.1013
  864MPD2    C312734   4.549   0.231  17.035 -1.0959  0.3676 -0.1603
  864MPD2    C412735   4.434   0.280  17.099  0.5744  0.4574 -0.5833
  864MPD2    C512736   4.359   0.206  17.194 -0.1815 -0.7544  0.2496
  864MPD2     H12737   4.641   0.044  16.983 -0.9592 -1.3813 -0.2476
  864MPD2    H112738   4.407   0.383  17.079  1.1455  0.3176 -2.0920
  864MPD2    H212739   4.339   0.023  17.296  0.0726  1.1934  0.6073
  864MPD2    H312740   4.276   0.251  17.245  1.6437 -1.5576  3.9042
  864MPD2     N12741   4.626   0.309  16.940 -0.9679 -0.4299  0.1295
  864MPD2    H512742   4.596   0.405  16.923  0.8806  0.4139  1.7007
  864MPD2    N112743   4.511   4.613  17.145 -0.4992  0.3545 -0.6545
  864MPD2    H712744   4.491   4.564  17.231  2.4256  0.7453  0.2261
  865MPD2     C12745   0.195   0.489  16.099 -0.1675  0.1315  0.5372
  865MPD2    C112746   0.194   0.422  16.212  0.6400  0.0615 -0.6651
  865MPD2    C212747   0.132   0.469  16.330 -0.0013  0.3928  0.1880
  865MPD2    C312748   0.100   0.609  16.331  0.2940  0.2318 -0.2458
  865MPD2    C412749   0.112   0.677  16.211  0.0376  0.2126  0.4198
  865MPD2    C512750   0.151   0.622  16.094 -0.0445  0.1617 -0.3778
  865MPD2     H12751   0.124   0.404  16.416  0.4218 -0.3670 -0.3527
  865MPD2    H112752   0.089   0.783  16.208  0.4077  0.2467 -1.3024
  865MPD2    H212753   0.228   0.433  16.012 -1.5498 -0.0342  0.1148
  865MPD2    H312754   0.127   0.677  16.004 -1.5367 -2.3476 -1.5349
  865MPD2     N12755   0.054   0.693  16.442 -0.3713 -0.1981 -0.3826
  865MPD2    H512756   0.038   0.788  16.411  0.2631 -0.1583 -0.5804
  865MPD2    N112757   0.260   0.295  16.218  0.2675 -0.3924  0.2027
  865MPD2    H712758   0.311   0.262  16.137 -1.5827  3.4478 -2.5200
  866MPD2     C12759   1.571   1.158  11.490  0.3651  0.1356  0.2443
  866MPD2    C112760   1.504   1.176  11.370  0.4085 -0.5155  0.5269
  866MPD2    C212761   1.365   1.190  11.370 -0.2549  0.2694  0.4312
  866MPD2    C312762   1.288   1.202  11.489  0.2843 -0.8157  0.6106
  866MPD2    C412763   1.356   1.186  11.608  0.1234 -0.5065  0.3408
  866MPD2    C512764   1.494   1.175  11.603 -0.1749 -0.7959  0.4314
  866MPD2     H12765   1.317   1.212  11.275 -0.3040  1.7727  0.8039
  866MPD2    H112766   1.319   1.206  11.708 -1.6671  1.4965 -0.7356
  866MPD2    H212767   1.678   1.160  11.504 -0.0106  0.6396  3.0174
  866MPD2    H312768   1.544   1.169  11.699  1.0853 -1.1047 -0.2548
  866MPD2     N12769   1.153   1.232  11.508 -0.2769  0.1436  0.1738
  866MPD2    H512770   1.122   1.219  11.604  1.8650  0.5595  0.9151
  866MPD2    N112771   1.592   1.170  11.262 -0.4040  0.3627 -0.0176
  866MPD2    H712772   1.689   1.170  11.292 -0.1769  1.7362 -0.7498
  867MPD2     C12773   3.531   0.162  17.078 -0.0808 -0.4564  0.1575
  867MPD2    C112774   3.616   0.171  17.188  0.2634 -0.4567  0.2897
  867MPD2    C212775   3.591   0.257  17.292  0.0034 -0.1329 -0.2016
  867MPD2    C312776   3.488   0.346  17.285  0.3165 -0.1263  0.2471
  867MPD2    C412777   3.398   0.331  17.182 -0.0655  0.0739  0.4439
  867MPD2    C512778   3.419   0.237  17.077 -0.7184  0.0720 -0.9428
  867MPD2     H12779   3.656   0.269  17.378 -0.5982  0.3901  0.1779
  867MPD2    H112780   3.309   0.392  17.185  0.1471  0.4769 -1.3208
  867MPD2    H212781   3.537   0.085  17.002 -1.3466 -1.2948  0.9100
  867MPD2    H312782   3.342   0.230  17.002 -1.4023  1.3139 -0.3595
  867MPD2     N12783   3.453   0.436  17.394  0.3979  0.1467 -0.3902
  867MPD2    H512784   3.361   0.481  17.393  0.6933  0.7948  2.1357
  867MPD2    N112785   3.735   0.089  17.177 -0.6266  0.1231 -0.0674
  867MPD2    H712786   3.740   0.037  17.090 -1.1668  1.4435 -0.8866
  868MPD2     C12787   0.540   4.037  12.929 -0.3739 -0.5780 -0.5312
  868MPD2    C112788   0.644   4.028  13.015 -0.0528  0.6327 -0.0239
  868MPD2    C212789   0.622   3.978  13.137 -0.4517 -0.4041 -0.4441
  868MPD2    C312790   0.499   3.932  13.176 -0.2299  0.6048 -0.1669
  868MPD2    C412791   0.392   3.936  13.088  0.2966  1.0086  0.6900
  868MPD2    C512792   0.414   3.995  12.969 -0.3174 -0.2869  0.2823
  868MPD2     H12793   0.703   3.954  13.206 -1.5903  0.1888  1.0892
  868MPD2    H112794   0.289   3.908  13.109  0.6922  1.0132  2.6483
  868MPD2    H212795   0.557   4.075  12.830  0.9916 -0.7940 -0.3816
  868MPD2    H312796   0.329   4.009  12.903  0.2106  1.0056 -0.1320
  868MPD2     N12797   0.494   3.885  13.310 -0.0633  0.4214 -0.4241
  868MPD2    H512798   0.573   3.896  13.372 -0.9625  1.7777  0.4442
  868MPD2    N112799   0.769   4.070  12.974 -0.2085 -0.3456 -0.0559
  868MPD2    H712800   0.777   4.097  12.877  1.3242  0.0155  0.1733
  869MPD2     C12801   1.743   1.255   0.769 -0.2190 -0.2681  0.1623
  869MPD2    C112802   1.773   1.257   0.633 -0.3200 -0.9579 -0.2626
  869MPD2    C212803   1.889   1.315   0.594  0.0484 -0.6487 -0.3654
  869MPD2    C312804   1.976   1.364   0.690  0.0775 -0.2660 -0.0483
  869MPD2    C412805   1.954   1.354   0.824 -0.1282  0.0801  0.7417
  869MPD2    C512806   1.836   1.300   0.861 -0.0755  0.1504 -0.1235
  869MPD2     H12807   1.913   1.331   0.490  0.8153 -0.4352 -0.1532
  869MPD2    H112808   2.015   1.405   0.898  0.1734  0.6497  0.0994
  869MPD2    H212809   1.642   1.226   0.798 -0.2850 -0.6772 -0.4854
  869MPD2    H312810   1.814   1.305   0.967 -1.0912 -0.7046 -0.2827
  869MPD2     N12811   2.100   1.430   0.663 -0.1985  0.2848 -0.2659
  869MPD2    H512812   2.161   1.437   0.744 -0.8454 -1.5163  0.3716
  869MPD2    N112813   1.660   1.238   0.552  0.1618  0.3817 -0.1303
  869MPD2    H712814   1.574   1.217   0.601 -0.6753  2.0913 -0.8461
  870MPD2     C12815   2.233   0.504   1.369 -0.5218 -0.1676 -0.5358
  870MPD2    C112816   2.115   0.444   1.332 -0.1271 -0.0768 -0.1585
  870MPD2    C212817   1.990   0.474   1.392 -0.1026 -0.1044  0.0732
  870MPD2    C312818   1.987   0.575   1.487  0.6260  0.7540  0.7370
  870MPD2    C412819   2.103   0.638   1.523  1.0877  0.5696  0.4839
  870MPD2    C512820   2.222   0.604   1.459  0.0134  0.3837 -0.0686
  870MPD2     H12821   1.903   0.418   1.362  1.1021 -2.3170  0.7058
  870MPD2    H112822   2.107   0.718   1.596 -0.1401  2.1752 -1.2132
  870MPD2    H212823   2.326   0.487   1.316 -1.0259 -0.6361 -1.2648
  870MPD2    H312824   2.308   0.661   1.492  1.6025 -1.5097 -0.9170
  870MPD2     N12825   1.862   0.618   1.534  0.4246 -0.0403  0.0265
  870MPD2    H512826   1.782   0.582   1.483 -0.0642  0.6948  0.2741
  870MPD2    N112827   2.130   0.340   1.234  0.0778 -0.3498  0.1968
  870MPD2    H712828   2.226   0.321   1.209  0.3113 -0.8288  1.4509
  871MPD2     C12829   2.684   0.347  16.725  0.4645  0.5690  0.2988
  871MPD2    C112830   2.614   0.255  16.800  0.8105  0.7058  0.0520
  871MPD2    C212831   2.593   0.126  16.745 -0.0469 -0.5217  0.0216
  871MPD2    C312832   2.637   0.095  16.621  0.5825  0.6593  0.3055
  871MPD2    C412833   2.700   0.194  16.542 -0.2111  0.5631  0.9227
  871MPD2    C512834   2.716   0.320  16.593 -0.4060 -0.3512  0.1167
  871MPD2     H12835   2.555   0.044  16.806  4.5738 -1.6118  1.4361
  871MPD2    H112836   2.745   0.173  16.446  2.0404 -0.1292  2.1204
  871MPD2    H212837   2.714   0.444  16.763  0.3881  1.3511 -1.6249
  871MPD2    H312838   2.768   0.389  16.528 -0.0401 -0.4156  0.3402
  871MPD2     N12839   2.627   4.694  16.580  0.4917 -0.6163 -0.2081
  871MPD2    H512840   2.595   4.626  16.648  0.2948  0.3261  0.6342
  871MPD2    N112841   2.574   0.294  16.928  0.0467  0.2920  0.5947
  871MPD2    H712842   2.557   0.393  16.944 -0.5769  0.7220 -2.8697
  872MPD2     C12843   3.329   2.605  14.281 -0.2756 -0.4688 -0.8456
  872MPD2    C112844   3.269   2.722  14.234  0.3043 -0.6090  0.3104
  872MPD2    C212845   3.135   2.736  14.244 -0.0852  0.1860 -0.4065
  872MPD2    C312846   3.058   2.644  14.314 -0.1192 -0.6002  1.0495
  872MPD2    C412847   3.119   2.533  14.371 -0.4107  0.0918 -0.1016
  872MPD2    C512848   3.255   2.521  14.357 -0.3341 -0.3716 -0.4379
  872MPD2     H12849   3.090   2.825  14.202 -0.9673 -0.3820 -0.6566
  872MPD2    H112850   3.072   2.458  14.433 -2.4469  1.4192 -0.0696
  872MPD2    H212851   3.435   2.582  14.283 -0.2192 -0.2536 -1.4104
  872MPD2    H312852   3.304   2.447  14.419  0.9350 -0.6367 -1.7850
  872MPD2     N12853   2.924   2.655  14.340  0.1324 -0.0402  0.4616
  872MPD2    H512854   2.882   2.582  14.396  0.1692  0.8394  1.6298
  872MPD2    N112855   3.335   2.823  14.161 -0.0298  0.0194 -0.1400
  872MPD2    H712856   3.276   2.900  14.131 -0.5685 -0.4421 -0.2358
  873MPD2     C12857   0.608   1.910   0.563  0.3170  0.2219  0.6471
  873MPD2    C112858   0.632   1.876   0.694 -0.1956  0.0153 -0.1208
  873MPD2    C212859   0.648   1.738   0.730 -0.1948 -0.1294 -0.0866
  873MPD2    C312860   0.643   1.647   0.624  0.5460 -0.0733 -1.1034
  873MPD2    C412861   0.629   1.689   0.496 -0.0449 -0.3388 -0.6885
  873MPD2    C512862   0.604   1.822   0.461  0.9139  0.3260  0.0613
  873MPD2     H12863   0.646   1.709   0.835 -1.8106 -2.1955 -0.6863
  873MPD2    H112864   0.609   1.615   0.420 -1.5706 -0.1261 -0.4943
  873MPD2    H212865   0.578   2.013   0.547  1.6780  0.6740  1.0616
  873MPD2    H312866   0.572   1.851   0.361 -2.4065  0.7322  1.2369
  873MPD2     N12867   0.639   1.506   0.648  0.4420  0.3696  0.1648
  873MPD2    H512868   0.608   1.453   0.567  0.2142 -1.6541  1.5826
  873MPD2    N112869   0.640   1.978   0.790 -0.0997  1.1427  0.3901
  873MPD2    H712870   0.605   2.072   0.771 -0.1076  0.8295 -1.0779
  874MPD2     C12871   4.514   2.560  16.219 -0.1085 -0.2329 -0.0600
  874MPD2    C112872   4.566   2.482  16.320 -1.1063  0.0712 -0.3182
  874MPD2    C212873   4.689   2.529  16.364 -0.0119 -0.1011  0.5322
  874MPD2    C312874   0.013   2.643  16.323 -0.5975  0.0909  0.7210
  874MPD2    C412875   4.691   2.721  16.229  0.3848 -0.0619  0.3366
  874MPD2    C512876   4.568   2.676  16.180 -0.5836  0.6007  0.1928
  874MPD2     H12877   0.004   2.474  16.442 -0.7578 -0.5696  0.7008
  874MPD2    H112878   0.011   2.807  16.193 -2.1308  1.9867  1.3312
  874MPD2    H212879   4.427   2.527  16.163  1.2655 -0.6608 -1.9437
  874MPD2    H312880   4.521   2.731  16.099 -1.3630 -0.1815  0.1223
  874MPD2     N12881   0.144   2.663  16.376  0.1855  0.0729 -0.2547
  874MPD2    H512882   0.180   2.584  16.429 -2.2068 -0.9672 -0.2002
  874MPD2    N112883   4.503   2.365  16.361 -0.0171 -0.6772  1.0353
  874MPD2    H712884   4.411   2.342  16.325  0.9427  0.4931 -2.1447
  875MPD2     C12885   1.344   0.897  14.754 -0.9552 -0.5541 -0.0971
  875MPD2    C112886   1.237   0.951  14.826 -0.7630 -0.1204 -0.4734
  875MPD2    C212887   1.253   1.068  14.904  0.0348 -0.0754  0.5245
  875MPD2    C312888   1.370   1.132  14.912 -0.2116 -0.3858  0.6124
  875MPD2    C412889   1.476   1.074  14.847  0.2218  0.5115  0.4192
  875MPD2    C512890   1.460   0.963  14.772 -0.0337 -0.5935  0.1966
  875MPD2     H12891   1.166   1.090  14.964  0.8455 -3.9089  3.1159
  875MPD2    H112892   1.568   1.129  14.830  1.9366 -1.4121  3.4762
  875MPD2    H212893   1.336   0.818  14.680  1.7447  1.7916 -2.8767
  875MPD2    H312894   1.551   0.945  14.715 -0.4284 -1.8638 -0.0401
  875MPD2     N12895   1.394   1.246  14.990 -0.6183  0.1708 -0.5909
  875MPD2    H512896   1.488   1.283  14.985 -1.0069  1.6600  3.0299
  875MPD2    N112897   1.112   0.893  14.823 -0.5490  0.2293 -0.3246
  875MPD2    H712898   1.034   0.934  14.873  1.6857  0.5279  2.8599
  876MPD2     C12899   0.012   2.194  16.150 -0.9093 -0.4572 -0.1709
  876MPD2    C112900   0.130   2.145  16.111  0.1982 -0.3593  0.2796
  876MPD2    C212901   0.163   2.021  16.155  1.0168 -0.1660  0.1894
  876MPD2    C312902   0.072   1.950  16.232  0.4300 -1.4387  0.1504
  876MPD2    C412903   4.685   1.999  16.255 -0.3819  0.1864 -0.1009
  876MPD2    C512904   4.656   2.124  16.210  0.2666  0.6737  0.7319
  876MPD2     H12905   0.251   1.976  16.111  0.6986  1.6587 -2.3330
  876MPD2    H112906   4.602   1.949  16.304 -0.0486 -2.1951 -1.9487
  876MPD2    H212907   4.718   2.290  16.110  1.2516  0.3387  0.1326
  876MPD2    H312908   4.557   2.161  16.234  0.4176  1.3349  0.3121
  876MPD2     N12909   0.119   1.819  16.261  0.1190  0.4100  0.1146
  876MPD2    H512910   0.211   1.792  16.226 -0.6404 -0.8278 -0.9169
  876MPD2    N112911   0.201   2.229  16.019  0.5077  0.2276 -0.1688
  876MPD2    H712912   0.166   2.324  16.010  0.2978  0.3815  2.1436
  877MPD2     C12913   0.056   2.531  15.413 -0.4571  0.0655 -0.5443
  877MPD2    C112914   0.196   2.513  15.390  0.5239  0.7606  0.8106
  877MPD2    C212915   0.237   2.526  15.259 -0.5357 -0.7561 -0.0191
  877MPD2    C312916   0.154   2.561  15.150  0.2571  0.2305 -0.1446
  877MPD2    C412917   0.014   2.570  15.175  0.0272  0.5667  0.1789
  877MPD2    C512918   4.702   2.541  15.305  0.5233  0.0163  0.4665
  877MPD2     H12919   0.342   2.508  15.238 -0.4190 -3.0012  2.4953
  877MPD2    H112920   4.687   2.592  15.090 -1.7599 -2.1793  0.7690
  877MPD2    H212921   0.018   2.520  15.514 -0.4856  0.2767 -0.5320
  877MPD2    H312922   4.595   2.542  15.322  0.7026 -0.4151  1.6051
  877MPD2     N12923   0.201   2.586  15.021  0.2584 -0.8062  0.7368
  877MPD2    H512924   0.131   2.595  14.948  3.2910  2.5322 -1.7699
  877MPD2    N112925   0.293   2.494  15.491  0.0906 -0.0891 -0.4197
  877MPD2    H712926   0.383   2.460  15.457  0.2020  0.5243 -0.7347
  878MPD2     C12927   4.356   2.156  13.212  0.2313 -0.1260  1.0447
  878MPD2    C112928   4.465   2.230  13.234 -0.2180  0.4661 -0.3625
  878MPD2    C212929   4.504   2.263  13.364  0.1447  0.4289 -0.1012
  878MPD2    C312930   4.416   2.225  13.463 -0.1185  0.1054 -0.1918
  878MPD2    C412931   4.299   2.154  13.445  0.2020 -0.3027 -0.6015
  878MPD2    C512932   4.274   2.113  13.322 -0.1961  0.0743  0.2233
  878MPD2     H12933   4.591   2.326  13.380 -0.7103  1.4488  0.5565
  878MPD2    H112934   4.233   2.108  13.518 -1.1715  2.7849  0.0839
  878MPD2    H212935   4.320   2.134  13.112 -0.2113 -0.4706  1.2754
  878MPD2    H312936   4.176   2.068  13.309  0.4894 -1.2500 -0.4040
  878MPD2     N12937   4.461   2.265  13.590  0.1440  0.9170  0.0230
  878MPD2    H512938   4.555   2.302  13.596  0.3810  0.4333 -0.6315
  878MPD2    N112939   4.539   2.279  13.120  0.0411  0.1303 -0.2202
  878MPD2    H712940   4.509   2.238  13.031  0.8553 -1.3348  0.1731
  879MPD2     C12941   0.011   3.109  16.585  0.3632 -0.2209 -0.2367
  879MPD2    C112942   0.048   3.004  16.666 -0.0914 -0.7197  0.5127
  879MPD2    C212943   4.714   2.884  16.658  0.2389 -0.3822  0.2841
  879MPD2    C312944   4.611   2.869  16.568  0.3069 -0.1387 -0.2750
  879MPD2    C412945   4.581   2.975  16.485 -0.1828  0.5330 -0.2250
  879MPD2    C512946   4.649   3.097  16.499 -0.0332 -0.8252  0.0264
  879MPD2     H12947   4.734   2.797  16.720  1.0778 -0.0325  0.5136
  879MPD2    H112948   4.491   2.966  16.425 -0.9912 -1.4250  1.2648
  879MPD2    H212949   0.063   3.204  16.585 -0.1099  0.0375  0.1616
  879MPD2    H312950   4.622   3.185  16.442 -0.2791 -1.2020 -0.4412
  879MPD2     N12951   4.521   2.765  16.575  0.3072 -0.1212  0.1191
  879MPD2    H512952   4.431   2.778  16.531  0.8529  0.2216 -0.9003
  879MPD2    N112953   0.144   3.028  16.770  0.0647  0.3025 -0.0130
  879MPD2    H712954   0.166   3.124  16.793  0.9848  1.0266 -4.0051
  880MPD2     C12955   1.113   0.013   0.465  0.3023  0.8358  0.9002
  880MPD2    C112956   1.213   0.090   0.527 -0.4454  0.0948  0.5574
  880MPD2    C212957   1.324   0.029   0.577  1.0437 -0.2616 -0.5754
  880MPD2    C312958   1.349   4.633   0.569  0.0658 -0.4492  0.3697
  880MPD2    C412959   1.251   4.558   0.504  0.2225 -1.1669  0.0345
  880MPD2    C512960   1.140   4.613   0.444  0.4025 -0.3889  0.8128
  880MPD2     H12961   1.401   0.088   0.626  0.7312  2.2065 -3.0430
  880MPD2    H112962   1.261   4.451   0.491  0.4640 -0.9271 -1.7435
  880MPD2    H212963   1.024   0.051   0.417  0.2459  0.2386  0.5314
  880MPD2    H312964   1.069   4.545   0.400 -0.4669  0.2504  1.2236
  880MPD2     N12965   1.467   4.582   0.623 -0.0203 -0.0088  0.0586
  880MPD2    H512966   1.518   4.650   0.677 -1.6093  0.6745  0.7001
  880MPD2    N112967   1.190   0.232   0.538 -0.5904 -0.6851  1.0212
  880MPD2    H712968   1.129   0.279   0.472  2.1552  1.1144 -0.2729
  881MPD2     C12969   1.826   0.937   0.248  0.0586  0.5040 -0.8280
  881MPD2    C112970   1.729   0.861   0.188  0.0125  0.6226  0.5512
  881MPD2    C212971   1.621   0.831   0.271  0.6766 -0.0425  0.3185
  881MPD2    C312972   1.637   0.826   0.408  0.7280 -0.2164 -0.4978
  881MPD2    C412973   1.737   0.898   0.466  0.1432 -0.6588  0.4556
  881MPD2    C512974   1.830   0.954   0.384 -0.4093  0.1612 -1.0193
  881MPD2     H12975   1.532   0.784   0.229  0.9060  0.0052 -0.2179
  881MPD2    H112976   1.746   0.896   0.574  0.8486 -1.1328  0.3865
  881MPD2    H212977   1.898   0.981   0.180  1.0139  1.7153  0.9831
  881MPD2    H312978   1.917   1.004   0.424 -1.1953  1.1650 -0.5805
  881MPD2     N12979   1.541   0.761   0.489 -0.2308 -0.0619  0.2763
  881MPD2    H512980   1.564   0.765   0.588 -1.8455 -2.4676  0.7309
  881MPD2    N112981   1.714   0.878   0.047 -0.1336  0.2667 -0.6406
  881MPD2    H712982   1.794   0.911  17.739  0.6494 -1.9320 -0.8397
  882MPD2     C12983   0.050   2.657  14.213  0.2319 -0.9724 -0.4787
  882MPD2    C112984   0.026   2.656  14.345 -0.5264 -0.3231 -0.9054
  882MPD2    C212985   4.638   2.635  14.397  0.1044 -0.0735 -0.4826
  882MPD2    C312986   4.526   2.613  14.319 -0.2922 -0.0496 -0.4282
  882MPD2    C412987   4.555   2.615  14.183  0.3849 -0.3582  0.3142
  882MPD2    C512988   4.679   2.635  14.133  0.0782  0.7085 -0.0592
  882MPD2     H12989   4.626   2.634  14.505 -0.7509 -0.0409 -0.5775
  882MPD2    H112990   4.477   2.588  14.112  0.7403  0.2402 -0.3055
  882MPD2    H212991   0.148   2.672  14.168  1.0407  1.5924  2.1607
  882MPD2    H312992   4.687   2.640  14.025  0.3359  2.0385  0.0157
  882MPD2     N12993   4.397   2.577  14.362 -0.3182 -0.1936  0.1197
  882MPD2    H512994   4.321   2.585  14.294 -1.2718 -2.5186  0.9261
  882MPD2    N112995   0.139   2.656  14.430  0.5203 -0.4074 -0.1462
  882MPD2    H712996   0.227   2.653  14.380 -0.3994 -1.6726 -1.7225
  883MPD2     C12997   1.602   2.339  15.996  0.2515 -0.7045 -0.3111
  883MPD2    C112998   1.707   2.261  16.029  0.0268 -0.3867  0.9007
  883MPD2    C212999   1.807   2.304  16.106 -0.3724  0.0734  0.1938
  883MPD2    C313000   1.808   2.437  16.150  0.2308 -1.1411  0.6403
  883MPD2    C413001   1.688   2.508  16.133 -0.0258  0.3281 -0.4423
  883MPD2    C513002   1.592   2.462  16.054 -0.1702 -0.5844  0.1745
  883MPD2     H13003   1.893   2.247  16.139 -0.2394  0.3071  0.2560
  883MPD2    H113004   1.675   2.609  16.170 -3.8207 -0.7229  1.0926
  883MPD2    H213005   1.515   2.297  15.945  2.3240 -0.2419 -4.2279
  883MPD2    H313006   1.504   2.524  16.040 -0.6043 -1.0833  0.6927
  883MPD2     N13007   1.917   2.488  16.223 -0.1039  0.6409  0.0740
  883MPD2    H513008   1.994   2.428  16.249 -1.3732 -0.8553  0.3545
  883MPD2    N113009   1.727   2.125  15.981 -0.5808 -0.0452  0.0451
  883MPD2    H713010   1.813   2.077  16.007 -1.0737  0.1275  1.9774
  884MPD2     C13011   3.623   3.344  15.406 -0.3260 -0.4016 -0.5884
  884MPD2    C113012   3.656   3.435  15.302  0.1170  1.0725  0.6223
  884MPD2    C213013   3.586   3.554  15.291  0.5919 -0.9610 -0.2731
  884MPD2    C313014   3.476   3.576  15.375  0.0655  0.3580  0.2695
  884MPD2    C413015   3.441   3.486  15.471  0.7383  0.0597 -0.4469
  884MPD2    C513016   3.512   3.368  15.482 -0.2915  0.5311 -1.3044
  884MPD2     H13017   3.628   3.627  15.222  1.3642  1.5302  2.8519
  884MPD2    H113018   3.356   3.508  15.534  0.0401 -0.1805 -1.3055
  884MPD2    H213019   3.677   3.252  15.426 -1.3637 -1.2489 -1.6687
  884MPD2    H313020   3.476   3.295  15.554  3.5481  0.2760  0.3967
  884MPD2     N13021   3.403   3.698  15.360 -0.1328 -0.2424 -0.3852
  884MPD2    H513022   3.447   3.757  15.290  1.9593  0.6400  1.6915
  884MPD2    N113023   3.769   3.417  15.221  0.1591  0.1036 -0.2028
  884MPD2    H713024   3.794   3.495  15.161 -0.2200  1.6872  1.6920
  885MPD2     C13025   2.046   3.659   0.328  0.7672 -0.1166  0.2464
  885MPD2    C113026   2.169   3.609   0.289 -0.4367  0.6894 -0.1472
  885MPD2    C213027   2.199   3.588   0.157 -0.2537  0.1215 -0.0066
  885MPD2    C313028   2.097   3.598   0.067  0.2552 -0.7937  0.1200
  885MPD2    C413029   1.965   3.629   0.107  0.2134 -0.5247  0.4560
  885MPD2    C513030   1.946   3.666   0.234  0.4680 -0.2274 -0.0636
  885MPD2     H13031   2.296   3.557   0.121 -1.5954 -2.3060 -1.5452
  885MPD2    H113032   1.882   3.646   0.039  2.0193  1.7310 -1.1647
  885MPD2    H213033   2.039   3.689   0.432  0.4060  0.0674  0.1696
  885MPD2    H313034   1.848   3.693   0.270 -0.1512 -2.0881 -0.3334
  885MPD2     N13035   2.129   3.583  17.674 -0.2564 -0.0258 -0.9839
  885MPD2    H513036   2.226   3.568  17.648  0.0726  1.6886 -0.7271
  885MPD2    N113037   2.266   3.591   0.396  0.0688 -0.7020 -0.2236
  885MPD2    H713038   2.224   3.599   0.488  0.3403 -0.2310 -0.1399
  886MPD2     C13039   3.407   1.848  15.220 -0.1762 -0.2733  0.9967
  886MPD2    C113040   3.470   1.885  15.338  0.3565 -0.6419 -0.8464
  886MPD2    C213041   3.481   2.023  15.368 -0.5552  0.3309  0.6855
  886MPD2    C313042   3.419   2.123  15.290 -0.1441 -0.2236 -0.1105
  886MPD2    C413043   3.352   2.077  15.180  0.5974  0.0443  0.3042
  886MPD2    C513044   3.357   1.940  15.145 -0.1534 -0.0829  0.4695
  886MPD2     H13045   3.540   2.054  15.453 -1.4092 -1.4920  1.9443
  886MPD2    H113046   3.289   2.140  15.118 -1.2301 -2.1128 -0.0099
  886MPD2    H213047   3.403   1.745  15.185 -1.3562 -0.1462  0.7600
  886MPD2    H313048   3.289   1.910  15.066 -1.5505  0.6492  1.3944
  886MPD2     N13049   3.456   2.256  15.298 -0.5490 -0.2203  0.5984
  886MPD2    H513050   3.441   2.297  15.206 -0.0666  1.4346  1.2643
  886MPD2    N113051   3.524   1.794  15.434 -0.2463  0.3895 -0.6699
  886MPD2    H713052   3.542   1.828  15.528 -1.9674  0.1823 -0.2528
  887MPD2     C13053   4.224   1.797  15.656  0.4082  0.6068 -0.0184
  887MPD2    C113054   4.101   1.830  15.729 -0.3219 -0.1018 -0.0799
  887MPD2    C213055   4.103   1.945  15.801  0.1336 -0.2048 -0.3730
  887MPD2    C313056   4.216   2.026  15.808 -0.0215  0.3420 -0.0795
  887MPD2    C413057   4.332   1.985  15.748  0.6314 -0.5923 -0.0806
  887MPD2    C513058   4.334   1.876  15.672  0.1111 -0.4237 -0.1568
  887MPD2     H13059   4.013   1.981  15.850 -0.3770 -1.7377 -0.1986
  887MPD2    H113060   4.431   2.028  15.759 -0.6620  2.3335  0.1532
  887MPD2    H213061   4.236   1.708  15.595  1.5223 -0.4691  1.7253
  887MPD2    H313062   4.426   1.846  15.625 -0.4376 -1.2161 -0.7184
  887MPD2     N13063   4.201   2.149  15.871  0.4744 -0.0406  0.8292
  887MPD2    H513064   4.106   2.182  15.881 -0.4554 -2.2175 -0.9858
  887MPD2    N113065   3.981   1.761  15.713 -0.1227 -0.4419 -0.0157
  887MPD2    H713066   3.898   1.809  15.747 -0.5399 -1.6682  0.6880
  888MPD2     C13067   1.307   1.782  15.089 -0.1949  0.5634  0.0579
  888MPD2    C113068   1.255   1.864  15.187  0.3167 -1.2273  0.2137
  888MPD2    C213069   1.279   1.997  15.176 -0.0691  0.6177  0.2769
  888MPD2    C313070   1.339   2.046  15.061 -0.3046  0.1605 -0.7769
  888MPD2    C413071   1.391   1.964  14.966  0.3604 -0.3222 -0.1823
  888MPD2    C513072   1.376   1.830  14.979 -0.1442  0.3614  0.1152
  888MPD2     H13073   1.249   2.065  15.254  0.1875 -0.5861  1.4200
  888MPD2    H113074   1.462   1.996  14.890 -0.0114 -0.2766 -0.5094
  888MPD2    H213075   1.318   1.676  15.110 -2.5962  0.4917  0.9156
  888MPD2    H313076   1.438   1.766  14.918 -0.0586  0.9961 -0.4648
  888MPD2     N13077   1.359   2.191  15.051  0.5398 -0.0615  0.0760
  888MPD2    H513078   1.329   2.243  15.133 -0.5917  1.0808 -1.0717
  888MPD2    N113079   1.176   1.807  15.290 -0.0448  0.0192  0.2069
  888MPD2    H713080   1.170   1.868  15.371  1.3323  0.2932  0.1048
  889MPD2     C13081   0.910   1.742  13.405 -0.0002 -0.4270  0.2908
  889MPD2    C113082   0.833   1.703  13.515 -0.0290  0.5096  0.0106
  889MPD2    C213083   0.724   1.781  13.545  1.0322 -0.7721 -0.1053
  889MPD2    C313084   0.707   1.907  13.499 -0.9841 -0.7247 -0.4527
  889MPD2    C413085   0.799   1.954  13.401 -0.4450 -0.3968  0.3105
  889MPD2    C513086   0.898   1.867  13.355 -0.4233  0.3907 -0.0781
  889MPD2     H13087   0.672   1.748  13.634  2.2273  2.0365  1.6741
  889MPD2    H113088   0.801   2.050  13.351 -0.1433 -0.0076  1.0748
  889MPD2    H213089   0.997   1.685  13.375  2.5599  3.4213  0.3561
  889MPD2    H313090   0.965   1.903  13.278  0.4811  3.1604  1.9836
  889MPD2     N13091   0.614   1.991  13.573  0.4359 -0.3392  0.8386
  889MPD2    H513092   0.566   1.953  13.654 -0.7925  0.1285  0.3318
  889MPD2    N113093   0.834   1.570  13.565  0.2663 -0.0709  0.0240
  889MPD2    H713094   0.749   1.534  13.607  0.6592 -2.0921 -0.8959
  890MPD2     C13095   0.373   3.155  14.537 -0.6290  0.2926  0.1640
  890MPD2    C113096   0.481   3.192  14.613 -0.2322  0.5890 -0.4286
  890MPD2    C213097   0.499   3.139  14.739 -0.1925 -0.1713 -0.1478
  890MPD2    C313098   0.406   3.044  14.785 -0.2662  0.2189 -0.3487
  890MPD2    C413099   0.315   2.985  14.702  0.7199  0.1738  0.4715
  890MPD2    C513100   0.292   3.047  14.573  0.3629 -0.0572  0.2631
  890MPD2     H13101   0.570   3.171  14.815  0.1225 -0.4450 -0.3270
  890MPD2    H113102   0.237   2.915  14.729 -0.1083  0.5793 -0.9155
  890MPD2    H213103   0.352   3.208  14.445  1.5035  2.7874  1.1201
  890MPD2    H313104   0.208   3.023  14.509  0.5350 -0.6873  0.2659
  890MPD2     N13105   0.403   3.010  14.923 -0.0314  0.0733 -0.3669
  890MPD2    H513106   0.478   3.050  14.979 -0.4452 -0.0389  0.2671
  890MPD2    N113107   0.565   3.297  14.560 -0.3776 -0.9777 -0.8858
  890MPD2    H713108   0.534   3.334  14.470 -1.7637 -1.4392 -0.6047
  891MPD2     C13109   2.742   1.727  17.012 -1.1127 -0.2093  0.1639
  891MPD2    C113110   2.732   1.836  17.094 -0.2146  0.0459 -0.3883
  891MPD2    C213111   2.833   1.858  17.193 -0.2584  0.2324 -0.2827
  891MPD2    C313112   2.927   1.761  17.210 -0.4048 -0.0958  0.2364
  891MPD2    C413113   2.924   1.645  17.137  0.1023 -0.4144  0.5006
  891MPD2    C513114   2.825   1.621  17.043 -0.4804 -1.0519 -0.8935
  891MPD2     H13115   2.841   1.949  17.251  0.3126 -0.0924  0.1434
  891MPD2    H113116   2.995   1.564  17.146 -0.3873 -0.8392  0.5402
  891MPD2    H213117   2.677   1.703  16.929 -1.0652 -0.1062  0.0977
  891MPD2    H313118   2.822   1.526  16.991 -1.8102 -0.7120 -1.4428
  891MPD2     N13119   3.033   1.799  17.294  0.1520 -0.2828 -0.2360
  891MPD2    H513120   3.026   1.889  17.341  1.0529 -0.2527 -0.1579
  891MPD2    N113121   2.638   1.933  17.057  0.1159 -0.0004 -0.1933
  891MPD2    H713122   2.574   1.917  16.979  0.4298 -0.3771 -0.3740
  892MPD2     C13123   3.911   2.817  15.198 -0.6030 -0.0952 -0.7397
  892MPD2    C113124   3.849   2.828  15.074  0.3581  0.3199 -0.5787
  892MPD2    C213125   3.898   2.765  14.963  0.0996  0.2762 -1.2219
  892MPD2    C313126   4.014   2.686  14.973  0.8096  0.3061 -0.6835
  892MPD2    C413127   4.086   2.692  15.092 -0.5943  0.6298 -0.0243
  892MPD2    C513128   4.029   2.751  15.204 -0.2206 -0.4881 -0.3268
  892MPD2     H13129   3.830   2.768  14.878 -1.5768  0.5568  0.1225
  892MPD2    H113130   4.177   2.636  15.106  0.1324  1.6076 -0.8166
  892MPD2    H213131   3.867   2.869  15.282  2.1683  0.6440  0.2418
  892MPD2    H313132   4.080   2.742  15.299  2.9187 -1.5055 -2.1353
  892MPD2     N13133   4.059   2.616  14.860 -0.0650  0.6285  0.0481
  892MPD2    H513134   4.155   2.589  14.880 -0.5475 -1.8386 -0.9602
  892MPD2    N113135   3.728   2.907  15.065 -0.1595 -0.1358  0.2810
  892MPD2    H713136   3.680   2.936  15.150  0.5884  1.0352  0.3069
  893MPD2     C13137   0.522   1.306   1.297 -0.1713 -0.2736 -0.6004
  893MPD2    C113138   0.633   1.337   1.371 -0.0927 -0.5239  0.4246
  893MPD2    C213139   0.610   1.436   1.474 -0.0664  0.4808  0.7145
  893MPD2    C313140   0.489   1.502   1.484  0.0618 -0.3598  0.7423
  893MPD2    C413141   0.384   1.474   1.401  0.3706 -0.5985  0.1247
  893MPD2    C513142   0.407   1.382   1.304  0.4627 -0.5058 -0.5469
  893MPD2     H13143   0.703   1.467   1.520  0.0500 -1.0568  1.4927
  893MPD2    H113144   0.287   1.522   1.406  0.6758 -0.0419  0.6642
  893MPD2    H213145   0.511   1.237   1.215 -1.7401 -0.9803  0.2117
  893MPD2    H313146   0.332   1.353   1.232  0.5101 -0.6920 -0.5207
  893MPD2     N13147   0.472   1.620   1.557  0.5278 -0.2905  0.1752
  893MPD2    H513148   0.388   1.674   1.537  2.2823  3.3412  2.5086
  893MPD2    N113149   0.741   1.247   1.359 -0.2770 -0.4640  0.0376
  893MPD2    H713150   0.739   1.183   1.280  0.1460  1.7798 -1.7818
  894MPD2     C13151   4.009   3.424   0.835  0.0340 -0.0174 -0.1320
  894MPD2    C113152   3.938   3.430   0.954  1.4759  0.3418  0.1161
  894MPD2    C213153   3.972   3.519   1.058  0.0574  0.1450  0.0219
  894MPD2    C313154   4.067   3.614   1.038  0.3384 -0.1362 -0.1326
  894MPD2    C413155   4.130   3.615   0.914  0.0819  0.0591  0.4101
  894MPD2    C513156   4.104   3.524   0.821  1.2146  0.4777 -0.0214
  894MPD2     H13157   3.929   3.506   1.156 -0.9621 -1.7272 -0.6730
  894MPD2    H113158   4.213   3.681   0.893  0.4710 -0.1127  1.4285
  894MPD2    H213159   3.973   3.365   0.751 -0.2519  0.8918 -0.6457
  894MPD2    H313160   4.162   3.521   0.729  0.3988 -0.8750 -0.4953
  894MPD2     N13161   4.083   3.725   1.126 -0.6086 -0.2696 -0.2952
  894MPD2    H513162   4.019   3.729   1.205 -1.1950  0.1832 -0.8066
  894MPD2    N113163   3.835   3.333   0.964  0.5286 -0.1210 -0.4922
  894MPD2    H713164   3.815   3.272   0.886  1.3995  0.3255 -1.0555
  895MPD2     C13165   3.590   1.669  13.718  0.1326 -0.1962  0.1225
  895MPD2    C113166   3.502   1.593  13.642  0.2415  0.5395 -0.7667
  895MPD2    C213167   3.497   1.460  13.668  0.6795 -0.0170  0.1428
  895MPD2    C313168   3.574   1.397  13.763 -0.0168 -0.1679  0.3807
  895MPD2    C413169   3.662   1.477  13.833 -0.6015  0.3230 -0.5864
  895MPD2    C513170   3.669   1.611  13.817 -0.5422 -0.7835 -0.0560
  895MPD2     H13171   3.424   1.394  13.622  0.5833 -0.4961  0.9838
  895MPD2    H113172   3.726   1.431  13.907 -0.2042 -1.4705 -2.0384
  895MPD2    H213173   3.614   1.775  13.712 -0.5367 -0.1719 -1.9878
  895MPD2    H313174   3.744   1.672  13.867 -1.7687  1.2553 -0.6901
  895MPD2     N13175   3.559   1.266  13.806 -0.1137  0.2436  0.5148
  895MPD2    H513176   3.606   1.237  13.892  1.8004 -1.3926 -1.0809
  895MPD2    N113177   3.428   1.638  13.529 -0.3531 -0.0796 -0.0881
  895MPD2    H713178   3.377   1.567  13.476  0.3021 -1.6632  1.3731
  896MPD2     C13179   0.819   4.505   1.505  0.0310 -0.2734 -0.0787
  896MPD2    C113180   0.782   4.454   1.380 -0.4290 -0.1384 -0.6152
  896MPD2    C213181   0.677   4.359   1.373  0.3043  0.2944 -0.0923
  896MPD2    C313182   0.619   4.320   1.497 -0.3970 -0.6415 -0.1313
  896MPD2    C413183   0.653   4.379   1.617  0.1967 -0.0634  0.8052
  896MPD2    C513184   0.751   4.472   1.618  0.2097  0.3744  0.0514
  896MPD2     H13185   0.662   4.316   1.275  0.3403 -1.3294  0.6193
  896MPD2    H113186   0.617   4.355   1.717 -1.1001 -1.1503  0.0779
  896MPD2    H213187   0.897   4.579   1.517 -0.4823  0.3363 -0.5145
  896MPD2    H313188   0.779   4.508   1.716  2.2072 -0.5200 -0.1854
  896MPD2     N13189   0.536   4.210   1.490 -0.4034 -0.1464 -0.1050
  896MPD2    H513190   0.516   4.172   1.398  1.3519 -0.8528 -0.2047
  896MPD2    N113191   0.864   4.496   1.271  0.1112 -0.7772  0.4172
  896MPD2    H713192   0.947   4.550   1.293 -0.6700  0.6873 -0.2835
  897MPD2     C13193   1.572   1.465  10.651 -0.6135  0.5750 -0.8441
  897MPD2    C113194   1.651   1.550  10.726 -0.2413 -0.0462  0.7246
  897MPD2    C213195   1.629   1.552  10.863  0.2191 -0.5877 -0.2086
  897MPD2    C313196   1.518   1.495  10.919 -0.2136 -0.4773  0.4701
  897MPD2    C413197   1.435   1.417  10.838  0.1820  0.0664  0.4466
  897MPD2    C513198   1.469   1.399  10.707 -0.8768  0.7474 -0.1734
  897MPD2     H13199   1.691   1.609  10.930 -2.1103  2.1774 -0.3840
  897MPD2    H113200   1.353   1.354  10.869  0.0121 -0.4237 -0.9794
  897MPD2    H213201   1.580   1.457  10.543 -0.3094 -3.7290 -0.5280
  897MPD2    H313202   1.409   1.333  10.645  1.0940 -0.7359 -0.4890
  897MPD2     N13203   1.495   1.510  11.060 -0.5862 -0.3613 -0.4702
  897MPD2    H513204   1.567   1.560  11.112  0.4022 -1.3333 -0.8974
  897MPD2    N113205   1.741   1.642  10.670  0.0655  0.0712  0.3241
  897MPD2    H713206   1.781   1.714  10.730  2.4228 -1.0366  0.0811
  898MPD2     C13207   4.194   2.668   0.360  0.6442  0.0491 -0.6079
  898MPD2    C113208   4.106   2.622   0.263 -0.3056  0.8753 -0.3278
  898MPD2    C213209   4.034   2.713   0.189 -0.0829 -0.3609  0.1248
  898MPD2    C313210   4.043   2.845   0.214 -0.2824 -0.1455  0.0102
  898MPD2    C413211   4.123   2.893   0.313  0.0650  0.0777  0.3004
  898MPD2    C513212   4.194   2.802   0.384 -0.1017  0.7090 -0.3437
  898MPD2     H13213   3.963   2.692   0.109  0.1134  1.0157 -0.4131
  898MPD2    H113214   4.136   2.996   0.343  1.0219 -0.3564  1.3689
  898MPD2    H213215   4.261   2.610   0.422  0.8323  1.5407  0.5878
  898MPD2    H313216   4.267   2.840   0.455  1.0076  1.1941 -1.7578
  898MPD2     N13217   3.982   2.935   0.122  0.0742  1.0986  0.0737
  898MPD2    H513218   3.926   2.895   0.048  0.5673  1.7128 -0.6240
  898MPD2    N113219   4.098   2.485   0.223 -0.2702 -0.2705  0.5137
  898MPD2    H713220   4.068   2.473   0.127  0.1190 -2.3588  0.6525
  899MPD2     C13221   4.575   2.853  17.099  0.8279 -0.4366  0.6697
  899MPD2    C113222   4.562   2.906  17.226  0.4329 -0.6487 -0.0126
  899MPD2    C213223   4.566   2.815  17.330 -0.0454  0.5546  0.6431
  899MPD2    C313224   4.556   2.679  17.310  0.5999 -0.3646 -0.5056
  899MPD2    C413225   4.576   2.632  17.180  0.0276  0.5666  0.2499
  899MPD2    C513226   4.582   2.718  17.076  0.0851 -1.2566  0.3419
  899MPD2     H13227   4.600   2.849  17.427 -0.9287 -0.2765  1.2429
  899MPD2    H113228   4.591   2.526  17.161  0.3111  0.5315  0.6704
  899MPD2    H213229   4.597   2.930  17.027 -0.9261  0.4189  1.0434
  899MPD2    H313230   4.608   2.677  16.979 -0.0306  0.3756 -0.3826
  899MPD2     N13231   4.556   2.580  17.415 -0.1437 -0.2024 -0.3574
  899MPD2    H513232   4.578   2.488  17.378 -1.6665 -1.3690  1.6149
  899MPD2    N113233   4.561   3.047  17.223 -1.0184 -0.8506  0.2003
  899MPD2    H713234   4.560   3.089  17.131 -2.1387  0.6541  0.9116
  900MPD2     C13235   4.509   0.391  12.618  0.7105  0.4670 -0.3667
  900MPD2    C113236   4.421   0.325  12.535  0.4590 -0.5040  0.1773
  900MPD2    C213237   4.320   0.405  12.480  0.2664  0.1892  0.1100
  900MPD2    C313238   4.290   0.536  12.523 -0.3408 -0.1381  0.5569
  900MPD2    C413239   4.373   0.595  12.620 -0.4136  0.7114  0.0274
  900MPD2    C513240   4.484   0.523  12.657  0.1673 -0.4050 -0.4433
  900MPD2     H13241   4.265   0.347  12.406  4.9591 -0.2686 -3.1144
  900MPD2    H113242   4.353   0.691  12.666 -0.5863  0.0072  1.4105
  900MPD2    H213243   4.595   0.345  12.665 -0.2468  0.5310  1.4410
  900MPD2    H313244   4.554   0.576  12.721  0.5358 -1.1406 -0.2322
  900MPD2     N13245   4.198   0.616  12.446 -0.0926  0.1362  0.5616
  900MPD2    H513246   4.151   0.571  12.368  1.5670  1.0863 -0.9720
  900MPD2    N113247   4.454   0.197  12.491 -0.0354 -0.5330 -0.8520
  900MPD2    H713248   4.537   0.152  12.529  0.0181  0.3414  0.0698
  901MPD2     C13249   4.220   3.882  12.230 -0.2705 -0.1741 -0.1072
  901MPD2    C113250   4.328   3.898  12.317  0.8085  0.4654 -0.7897
  901MPD2    C213251   4.381   4.023  12.333  1.0109 -0.1135 -0.0059
  901MPD2    C313252   4.329   4.137  12.270  0.2374 -0.2584  0.2423
  901MPD2    C413253   4.207   4.123  12.204  0.1286  0.1733  0.2922
  901MPD2    C513254   4.158   3.991  12.180 -0.0190 -0.1020  0.3482
  901MPD2     H13255   4.468   4.023  12.397  1.4964 -1.5238 -0.6728
  901MPD2    H113256   4.158   4.205  12.153 -1.6394 -0.5653  0.7792
  901MPD2    H213257   4.168   3.789  12.206 -0.2789  0.1206 -1.2136
  901MPD2    H313258   4.066   3.976  12.123 -0.4013  1.8591  0.4273
  901MPD2     N13259   4.385   4.259  12.295  0.2789  0.5765 -0.5988
  901MPD2    H513260   4.472   4.248  12.346  0.0486  1.1774 -0.0837
  901MPD2    N113261   4.363   3.779  12.383 -0.0543 -0.0437  0.0256
  901MPD2    H713262   4.319   3.690  12.358  3.3807 -1.8419  0.3198
  902MPD2     C13263   3.215   3.023  13.007  0.9052 -0.2755  0.4823
  902MPD2    C113264   3.150   3.026  12.884 -0.0016  0.1829 -0.7053
  902MPD2    C213265   3.134   2.909  12.815  0.2390 -0.2681 -0.1809
  902MPD2    C313266   3.194   2.797  12.863  0.1143 -0.4062  0.2343
  902MPD2    C413267   3.243   2.792  12.992 -0.2675 -0.1618  0.8178
  902MPD2    C513268   3.257   2.908  13.063  0.4070 -0.2781 -0.7408
  902MPD2     H13269   3.076   2.908  12.723  0.0021  0.7352 -0.0451
  902MPD2    H113270   3.269   2.694  13.030 -3.7356 -1.9324 -1.3138
  902MPD2    H213271   3.240   3.115  13.060 -2.6658  0.6781  0.4631
  902MPD2    H313272   3.296   2.918  13.163  1.1647 -2.9933 -0.7690
  902MPD2     N13273   3.214   2.682  12.782 -0.1465  0.0808  0.0972
  902MPD2    H513274   3.275   2.617  12.832  0.4148 -0.7494 -1.6553
  902MPD2    N113275   3.115   3.155  12.836  0.5146 -0.6745 -0.5330
  902MPD2    H713276   3.152   3.236  12.885  1.3112 -1.7763  0.6908
  903MPD2     C13277   3.182   2.667  11.973  0.9019 -0.7544 -0.2122
  903MPD2    C113278   3.170   2.544  12.042 -0.1014 -0.3764 -1.0343
  903MPD2    C213279   3.084   2.451  11.994 -0.0973 -0.2140  1.3878
  903MPD2    C313280   3.010   2.469  11.877 -0.0888 -0.2941 -0.0242
  903MPD2    C413281   3.028   2.590  11.807 -0.4350 -0.0285  0.0041
  903MPD2    C513282   3.112   2.682  11.856  0.1382 -0.1453 -0.3248
  903MPD2     H13283   3.061   2.358  12.044  0.9465 -0.4780  1.3828
  903MPD2    H113284   2.967   2.623  11.723 -0.7764 -2.5621 -0.7262
  903MPD2    H213285   3.257   2.739  12.004 -1.6182  1.8891 -0.3413
  903MPD2    H313286   3.141   2.767  11.794  1.3894  0.3197  0.8837
  903MPD2     N13287   2.946   2.363  11.824  0.2826 -0.4883  0.1144
  903MPD2    H513288   2.957   2.278  11.879  1.1909  0.7566  1.8784
  903MPD2    N113289   3.235   2.535  12.168 -0.2781 -0.1795 -0.4671
  903MPD2    H713290   3.301   2.603  12.201 -1.8322  1.5528 -0.9500
  904MPD2     C13291   2.993   1.166  14.102 -0.2178 -0.5849 -0.3488
  904MPD2    C113292   2.934   1.262  14.191  0.3180  0.1887 -0.7006
  904MPD2    C213293   3.004   1.379  14.212  0.3591 -0.7756  0.3407
  904MPD2    C313294   3.128   1.400  14.160  0.0241  0.4202 -0.0377
  904MPD2    C413295   3.189   1.303  14.075 -0.5417 -0.2795 -0.3774
  904MPD2    C513296   3.119   1.182  14.051 -0.4967 -0.9405  0.4760
  904MPD2     H13297   2.958   1.454  14.276  2.6698  0.5834  0.4195
  904MPD2    H113298   3.293   1.315  14.045  0.2174 -1.1339  1.8775
  904MPD2    H213299   2.936   1.075  14.083  1.2366 -1.2887 -1.3441
  904MPD2    H313300   3.161   1.107  13.986 -1.0432 -1.6574  0.9502
  904MPD2     N13301   3.197   1.517  14.192 -0.0919 -0.0564  0.2227
  904MPD2    H513302   3.153   1.577  14.260 -0.3829 -0.1307  0.1007
  904MPD2    N113303   2.800   1.261  14.239  0.2283  0.8172  0.0242
  904MPD2    H713304   2.768   1.353  14.268  0.6241  0.6716  0.9295
  905MPD2     C13305   2.742   0.651  13.949  0.2498 -0.5694  0.4108
  905MPD2    C113306   2.776   0.769  13.887  0.3798 -0.0524  1.5479
  905MPD2    C213307   2.907   0.787  13.843  0.2851  0.1574 -0.2225
  905MPD2    C313308   3.003   0.691  13.863  0.1518  0.9328 -0.5177
  905MPD2    C413309   2.962   0.572  13.920 -0.2180 -0.6062  0.4274
  905MPD2    C513310   2.836   0.552  13.962 -0.1344 -0.2065 -0.1818
  905MPD2     H13311   2.939   0.885  13.809  2.0918 -0.2798  0.2239
  905MPD2    H113312   3.031   0.489  13.925 -1.5238 -1.7161 -0.2522
  905MPD2    H213313   2.645   0.630  13.992 -0.5583  0.9504 -0.6433
  905MPD2    H313314   2.816   0.463  14.019  0.0104 -0.3928 -0.4230
  905MPD2     N13315   3.140   0.711  13.843  0.3013 -0.9965  0.0053
  905MPD2    H513316   3.199   0.633  13.868 -0.9827 -2.5168 -1.7063
  905MPD2    N113317   2.673   0.864  13.884  0.0820 -0.2417  0.2825
  905MPD2    H713318   2.589   0.835  13.933 -0.4728 -1.1472 -1.1897
  906MPD2     C13319   0.244   2.316  11.933 -0.1110 -0.5210 -0.1153
  906MPD2    C113320   0.299   2.203  11.885  0.2244 -0.0179 -0.1340
  906MPD2    C213321   0.281   2.085  11.951 -0.4208  0.1119  0.0478
  906MPD2    C313322   0.186   2.067  12.051 -0.4531  0.1947 -0.5986
  906MPD2    C413323   0.128   2.180  12.098 -0.2733  0.1829  0.4004
  906MPD2    C513324   0.164   2.302  12.044 -0.0990  0.6571  0.5308
  906MPD2     H13325   0.331   2.003  11.899 -0.6062  0.3872 -0.5683
  906MPD2    H113326   0.061   2.189  12.183 -0.0155  1.0035  0.5095
  906MPD2    H213327   0.267   2.413  11.890  1.4614 -0.2766  1.3102
  906MPD2    H313328   0.118   2.391  12.086 -0.0445  1.5015 -1.1979
  906MPD2     N13329   0.143   1.935  12.091  0.3360 -0.0971  0.0569
  906MPD2    H513330   0.062   1.933  12.152  1.9993  1.0010  2.2788
  906MPD2    N113331   0.374   2.194  11.757  0.0177  0.4368  0.4989
  906MPD2    H713332   0.426   2.108  11.744 -0.8172  0.3414 -2.0684
  907MPD2     C13333   3.732   0.899  15.501 -0.2444 -0.1990  0.0188
  907MPD2    C113334   3.857   0.853  15.540  0.0570 -0.0022  0.3280
  907MPD2    C213335   3.904   0.879  15.668 -0.3084  1.2723  0.4268
  907MPD2    C313336   3.834   0.962  15.750  0.2440 -0.0722  0.2405
  907MPD2    C413337   3.700   1.000  15.719 -0.5408 -0.3452 -0.2344
  907MPD2    C513338   3.660   0.961  15.596  0.3266 -0.6463  0.0749
  907MPD2     H13339   4.000   0.842  15.702  0.1965  0.6783 -1.7091
  907MPD2    H113340   3.637   1.050  15.792  2.0857  4.6059 -1.3381
  907MPD2    H213341   3.695   0.900  15.399 -0.4281 -0.1446  0.0851
  907MPD2    H313342   3.566   1.003  15.563 -1.2627 -2.2802  2.4967
  907MPD2     N13343   3.894   0.971  15.876 -0.0124  0.6006  0.9538
  907MPD2    H513344   3.979   0.917  15.887  0.6771  2.0307  2.8280
  907MPD2    N113345   3.935   0.790  15.446 -0.9377 -0.2648 -0.3585
  907MPD2    H713346   4.027   0.767  15.482 -0.6465  0.3723 -0.6915
  908MPD2     C13347   2.124   1.789   9.733 -0.1314 -0.5607  0.3342
  908MPD2    C113348   2.068   1.671   9.782  0.0168  0.7677 -0.4804
  908MPD2    C213349   2.006   1.691   9.906  0.1778 -0.3307 -1.1208
  908MPD2    C313350   2.010   1.809   9.975  0.2486 -0.4132 -0.0183
  908MPD2    C413351   2.079   1.921   9.917  0.5030 -0.8160  0.4908
  908MPD2    C513352   2.128   1.904   9.795 -0.1040  0.2751  0.9318
  908MPD2     H13353   1.940   1.616   9.948 -0.9587  1.7781  0.8020
  908MPD2    H113354   2.089   2.017   9.968 -1.0155 -0.7873  0.7468
  908MPD2    H213355   2.173   1.785   9.637 -0.2905  0.7439  0.1979
  908MPD2    H313356   2.183   1.990   9.758  1.9838  0.1762  3.8386
  908MPD2     N13357   1.947   1.815  10.101 -0.2648  0.8032  0.0912
  908MPD2    H513358   1.901   1.730  10.132  1.8063 -0.0614  0.8107
  908MPD2    N113359   2.053   1.555   9.702  0.4309  0.5685  0.2050
  908MPD2    H713360   2.104   1.561   9.615  0.7562  2.8456  0.5428
  909MPD2     C13361   2.584   0.152  11.588 -0.1779  0.3904  0.6879
  909MPD2    C113362   2.480   0.234  11.552  0.2320 -0.1936 -0.6906
  909MPD2    C213363   2.381   0.261  11.647  0.6156  0.4351 -0.3940
  909MPD2    C313364   2.379   0.185  11.766 -0.3084 -0.3260 -0.4411
  909MPD2    C413365   2.479   0.087  11.788 -0.3210  0.2121  0.2459
  909MPD2    C513366   2.585   0.080  11.707  0.2243  0.3561  0.3194
  909MPD2     H13367   2.304   0.331  11.618 -0.9551 -1.5646 -1.0901
  909MPD2    H113368   2.485   0.024  11.875 -0.3303  0.2968  0.3080
  909MPD2    H213369   2.663   0.115  11.524 -2.2917 -1.4710 -0.8275
  909MPD2    H313370   2.666   0.011  11.726  0.0673 -0.3286 -1.5256
  909MPD2     N13371   2.275   0.211  11.855  0.2239 -0.6190  0.0973
  909MPD2    H513372   2.210   0.286  11.837  0.2022 -0.1959  1.9978
  909MPD2    N113373   2.479   0.312  11.431  0.8409  0.6691  0.0079
  909MPD2    H713374   2.413   0.386  11.409  1.9969  1.6021 -0.3113
  910MPD2     C13375   2.879   1.528  16.109  0.1859 -0.3038 -0.4257
  910MPD2    C113376   2.973   1.473  16.022 -0.3755 -0.5307  0.2234
  910MPD2    C213377   2.931   1.467  15.888 -0.2687 -0.2511 -1.2330
  910MPD2    C313378   2.811   1.521  15.841  0.0804  0.2989  0.6128
  910MPD2    C413379   2.728   1.587  15.925 -0.3172  0.3647  0.4884
  910MPD2    C513380   2.761   1.587  16.054  0.0209 -0.1397 -0.4936
  910MPD2     H13381   3.002   1.418  15.821  1.7197 -0.7728  1.2550
  910MPD2    H113382   2.629   1.623  15.901  0.9292  3.2184 -0.3887
  910MPD2    H213383   2.898   1.531  16.215 -1.0717  0.8114 -0.2389
  910MPD2    H313384   2.697   1.637  16.126 -1.5057 -0.9701 -1.2764
  910MPD2     N13385   2.772   1.507  15.702 -0.1659  0.0341 -0.0225
  910MPD2    H513386   2.690   1.554  15.665  0.0117  0.5741  0.2646
  910MPD2    N113387   3.101   1.416  16.058 -0.3198  0.2674  0.8597
  910MPD2    H713388   3.167   1.384  15.987 -1.9663 -0.3264 -0.3974
  911MPD2     C13389   1.233   1.717  16.398  1.2041 -0.5088 -0.0921
  911MPD2    C113390   1.250   1.831  16.474  0.0377  0.8693  0.2451
  911MPD2    C213391   1.169   1.942  16.461  0.4730  0.0627  0.1239
  911MPD2    C313392   1.071   1.935  16.353  0.1682  0.1893 -0.1358
  911MPD2    C413393   1.071   1.831  16.265 -1.1757  0.2885  0.1613
  911MPD2    C513394   1.149   1.718  16.289 -0.4522  0.6664  0.4642
  911MPD2     H13395   1.174   2.026  16.528 -1.4597 -0.5718  1.0634
  911MPD2    H113396   0.991   1.834  16.192 -0.8259 -1.2677 -0.2937
  911MPD2    H213397   1.302   1.635  16.403  0.5446 -1.3406 -4.4380
  911MPD2    H313398   1.161   1.634  16.222 -0.0393  0.6224  0.5936
  911MPD2     N13399   0.969   2.028  16.331  0.8082  0.0168  0.4692
  911MPD2    H513400   0.898   1.997  16.266  0.7329  0.4614  0.3426
  911MPD2    N113401   1.371   1.835  16.561  0.0682  0.2583  0.3462
  911MPD2    H713402   1.428   1.751  16.561  1.3739  1.1470 -1.6262
  912MPD2     C13403   0.800   1.908  15.791  0.2718  0.1465 -0.2164
  912MPD2    C113404   0.751   1.906  15.918 -0.1023 -0.4617  0.4660
  912MPD2    C213405   0.771   1.794  15.992  0.5649  0.0604  0.4025
  912MPD2    C313406   0.844   1.688  15.945 -0.6509  0.1503  0.3154
  912MPD2    C413407   0.878   1.683  15.813 -0.4885  0.8645 -0.4330
  912MPD2    C513408   0.856   1.795  15.738 -0.7101  0.2611 -0.2511
  912MPD2     H13409   0.720   1.783  16.087 -1.6697  0.5047 -0.7406
  912MPD2    H113410   0.918   1.591  15.772 -2.5174 -0.6778  1.0299
  912MPD2    H213411   0.787   1.997  15.730  0.5066  1.3944  1.5410
  912MPD2    H313412   0.879   1.797  15.632  1.2805 -0.7523  0.1646
  912MPD2     N13413   0.855   1.583  16.039 -0.2693  0.1652  0.5475
  912MPD2    H513414   0.807   1.589  16.128  1.6830  0.3597  1.5842
  912MPD2    N113415   0.707   2.026  15.980  0.0198  0.0702  0.3000
  912MPD2    H713416   0.735   2.107  15.926  1.3436 -0.7841 -0.2874
  913MPD2     C13417   1.796   3.726  11.453  0.7179 -0.0927  0.0408
  913MPD2    C113418   1.844   3.709  11.323  0.1330  0.6183 -0.6071
  913MPD2    C213419   1.758   3.660  11.227 -0.7984 -0.4447 -0.4824
  913MPD2    C313420   1.626   3.628  11.270 -0.3435 -0.6796  0.5335
  913MPD2    C413421   1.582   3.652  11.395  0.6814  0.4692  0.1018
  913MPD2    C513422   1.670   3.696  11.483 -0.2022  0.1334 -0.7036
  913MPD2     H13423   1.787   3.645  11.123  1.6668  2.3254 -0.1915
  913MPD2    H113424   1.477   3.640  11.420  0.1562  3.1609 -0.8010
  913MPD2    H213425   1.863   3.781  11.518 -1.3688 -0.5004  2.5198
  913MPD2    H313426   1.636   3.722  11.583  2.8021  0.4340  0.2643
  913MPD2     N13427   1.539   3.571  11.175 -0.0224  0.0123 -0.2422
  913MPD2    H513428   1.439   3.578  11.191  0.3248 -0.3249  2.1596
  913MPD2    N113429   1.980   3.739  11.300 -0.2699 -0.9085  0.3665
  913MPD2    H713430   2.038   3.782  11.371 -0.5602 -0.6117  0.4263
  914MPD2     C13431   3.786   3.341  12.247 -0.5997 -0.5756 -0.6963
  914MPD2    C113432   3.837   3.465  12.245 -0.3002 -0.4021 -0.0601
  914MPD2    C213433   3.916   3.513  12.353 -0.7176  0.2988 -0.0919
  914MPD2    C313434   3.960   3.428  12.452 -0.1099  0.7113 -0.0469
  914MPD2    C413435   3.905   3.299  12.450  0.0264  0.2935  0.1807
  914MPD2    C513436   3.815   3.256  12.355  0.0862  0.2346 -0.4831
  914MPD2     H13437   3.964   3.611  12.351  0.9058 -0.5168 -0.9982
  914MPD2    H113438   3.928   3.234  12.534 -1.2288  0.7103  0.8523
  914MPD2    H213439   3.725   3.300  12.168  0.9186  0.6831 -2.5334
  914MPD2    H313440   3.775   3.156  12.361 -0.7661  0.4558 -2.4540
  914MPD2     N13441   4.067   3.476  12.527  0.2001 -0.2111 -0.3455
  914MPD2    H513442   4.103   3.569  12.508 -0.5739  0.2254  0.3154
  914MPD2    N113443   3.805   3.551  12.130 -0.6174  0.5402  0.0790
  914MPD2    H713444   3.752   3.507  12.055 -1.6913  0.7878  0.6791
  915MPD2     C13445   2.240   3.154  15.713 -0.8674 -0.8243  0.5322
  915MPD2    C113446   2.170   3.266  15.707  0.1252  0.6433 -0.7462
  915MPD2    C213447   2.199   3.364  15.802 -0.6707  0.4965 -0.5558
  915MPD2    C313448   2.303   3.352  15.889 -0.0183  0.5121  0.2288
  915MPD2    C413449   2.386   3.241  15.879  0.0185  0.2654 -0.1043
  915MPD2    C513450   2.349   3.141  15.795  0.0626 -0.1685 -0.0653
  915MPD2     H13451   2.138   3.454  15.802 -1.5289 -0.0823  0.3170
  915MPD2    H113452   2.476   3.227  15.938 -0.1496 -0.6765 -0.0757
  915MPD2    H213453   2.216   3.069  15.650 -1.3773  0.0063 -0.3853
  915MPD2    H313454   2.409   3.051  15.792 -3.1998 -2.3773  1.1126
  915MPD2     N13455   2.326   3.463  15.975 -0.5217  0.0090 -0.1007
  915MPD2    H513456   2.259   3.539  15.974  0.7746  1.1760  1.0821
  915MPD2    N113457   2.059   3.274  15.622 -0.5665 -0.9122  0.2033
  915MPD2    H713458   2.035   3.194  15.564  0.9969 -1.7610  0.7268
  916MPD2     C13459   0.504   1.640  15.884 -0.1404  0.5446  0.1426
  916MPD2    C113460   0.475   1.520  15.937  0.1980  0.4734  0.2867
  916MPD2    C213461   0.511   1.408  15.862  0.3456  0.1499  0.8020
  916MPD2    C313462   0.571   1.421  15.736 -0.1374  0.4781 -0.0710
  916MPD2    C413463   0.596   1.548  15.695 -0.4050  0.0404  0.0370
  916MPD2    C513464   0.574   1.655  15.771  0.3703  0.2277  0.6804
  916MPD2     H13465   0.498   1.309  15.904  0.6305 -0.4908 -0.5997
  916MPD2    H113466   0.639   1.581  15.601  1.4129 -0.5899  0.6446
  916MPD2    H213467   0.487   1.733  15.938 -1.8130 -0.2404  0.9728
  916MPD2    H313468   0.611   1.752  15.743  0.3516  0.6496  2.1383
  916MPD2     N13469   0.622   1.310  15.667 -0.5180 -0.1201 -0.6611
  916MPD2    H513470   0.600   1.221  15.710 -0.9538 -0.0200 -0.6764
  916MPD2    N113471   0.403   1.515  16.059  0.0177  0.1731 -0.2184
  916MPD2    H713472   0.372   1.602  16.102  2.7874  2.0522 -1.9962
  917MPD2     C13473   1.285   4.261  11.577 -0.2557  0.0590  0.0010
  917MPD2    C113474   1.170   4.221  11.513 -0.0363 -0.1366 -0.3272
  917MPD2    C213475   1.154   4.254  11.377  1.1780  0.2762  0.0601
  917MPD2    C313476   1.239   4.337  11.307 -0.9156  0.5876 -0.5009
  917MPD2    C413477   1.355   4.378  11.369  1.2275  0.0146 -0.2939
  917MPD2    C513478   1.370   4.342  11.505 -0.1729  0.3781 -0.5891
  917MPD2     H13479   1.057   4.230  11.335  0.6463 -0.7261  1.8213
  917MPD2    H113480   1.431   4.441  11.324 -1.5428  2.3286 -1.7459
  917MPD2    H213481   1.297   4.235  11.682 -0.8585  0.4077  0.1577
  917MPD2    H313482   1.462   4.380  11.549  0.8363  0.4891 -2.7611
  917MPD2     N13483   1.217   4.392  11.181 -0.1686  0.4900 -0.7641
  917MPD2    H513484   1.276   4.467  11.148 -1.1026  1.6989  0.3210
  917MPD2    N113485   1.065   4.156  11.590 -0.0761 -0.4613  0.2892
  917MPD2    H713486   1.073   4.136  11.689 -0.0094  2.7693  0.9264
  918MPD2     C13487   0.870   0.034  12.030 -0.7678 -0.1316 -0.6040
  918MPD2    C113488   0.952   4.667  12.066 -0.2750 -0.3030  0.3654
  918MPD2    C213489   0.919   4.542  12.032 -0.1163  0.0199 -0.4229
  918MPD2    C313490   0.799   4.509  11.977 -0.5756 -0.4721  0.1281
  918MPD2    C413491   0.702   4.607  11.963  0.7351  0.3647  0.0250
  918MPD2    C513492   0.747   0.000  11.984 -0.0008 -0.2252  0.3197
  918MPD2     H13493   0.989   4.463  12.058 -3.6472 -2.1665  2.4306
  918MPD2    H113494   0.600   4.602  11.928  1.0470 -0.1925 -0.8027
  918MPD2    H213495   0.900   0.137  12.050  1.9982 -1.2423  1.0048
  918MPD2    H313496   0.679   0.083  11.968 -2.5184 -1.8879  2.5249
  918MPD2     N13497   0.786   4.371  11.947 -0.3234  0.2392  0.1570
  918MPD2    H513498   0.869   4.314  11.958 -0.0555  0.4687 -0.6791
  918MPD2    N113499   1.084   4.686  12.117 -0.0655  0.1914  0.1495
  918MPD2    H713500   1.126   4.596  12.136  0.9769  0.6129 -0.1214
  919MPD2     C13501   1.558   3.412  11.936  0.5062 -0.0455  0.2417
  919MPD2    C113502   1.450   3.324  11.931 -0.1044 -0.0712 -0.2089
  919MPD2    C213503   1.343   3.335  11.836 -0.4647  0.7917  0.3471
  919MPD2    C313504   1.355   3.438  11.748 -0.1360  0.6877 -0.6410
  919MPD2    C413505   1.462   3.525  11.745  0.3265 -0.1987 -0.5134
  919MPD2    C513506   1.559   3.519  11.850 -0.7178  0.0853  0.3359
  919MPD2     H13507   1.277   3.251  11.817 -0.4012  1.2299 -1.9141
  919MPD2    H113508   1.475   3.607  11.675 -0.3037  1.4130  1.2397
  919MPD2    H213509   1.636   3.396  12.009 -0.7270 -0.0684  1.5746
  919MPD2    H313510   1.650   3.576  11.838 -0.1206 -1.3323 -1.7776
  919MPD2     N13511   1.258   3.455  11.642  0.1341 -0.4113 -0.4048
  919MPD2    H513512   1.286   3.533  11.582 -1.0921 -1.6563 -2.5765
  919MPD2    N113513   1.446   3.203  12.005  0.0502  0.1515  0.4869
  919MPD2    H713514   1.359   3.153  11.991  0.9738 -1.2352 -0.2604
  920MPD2     C13515   1.171   3.685  10.696  0.4442  0.3216  0.4310
  920MPD2    C113516   1.080   3.586  10.705  0.3903 -0.2434 -0.0997
  920MPD2    C213517   1.046   3.530  10.823  0.3285 -0.1718  0.3517
  920MPD2    C313518   1.116   3.579  10.929 -0.3001 -0.3000  0.6071
  920MPD2    C413519   1.202   3.686  10.927  0.3501 -0.2768 -0.7509
  920MPD2    C513520   1.239   3.738  10.806 -0.0878  0.8431 -0.3369
  920MPD2     H13521   0.968   3.454  10.824 -0.3680  0.5170 -1.3431
  920MPD2    H113522   1.241   3.726  11.020 -0.5136 -1.9694  0.3343
  920MPD2    H213523   1.193   3.720  10.596 -0.9901 -1.7049 -0.6006
  920MPD2    H313524   1.309   3.821  10.802 -1.0929  1.7031 -0.2021
  920MPD2     N13525   1.084   3.516  11.052  0.2640  0.1644 -0.0409
  920MPD2    H513526   1.016   3.441  11.051  0.3968  0.0012  1.8901
  920MPD2    N113527   1.030   3.522  10.587 -0.0317  0.0327 -0.3398
  920MPD2    H713528   0.989   3.429  10.594 -0.9223  0.5158  1.0571
  921MPD2     C13529   1.936   2.541  17.040 -0.6646 -0.2176  0.2183
  921MPD2    C113530   2.003   2.423  17.048  0.5053 -0.1099  0.3102
  921MPD2    C213531   1.934   2.312  16.998  0.0047 -0.2153  0.0426
  921MPD2    C313532   1.810   2.318  16.961  0.1936 -0.3725 -0.6381
  921MPD2    C413533   1.732   2.430  16.971  0.5768  0.0514  0.1986
  921MPD2    C513534   1.805   2.544  17.003  0.3441  0.1222 -0.0411
  921MPD2     H13535   1.987   2.222  16.970 -1.4434 -1.5394  1.5276
  921MPD2    H113536   1.625   2.428  16.956  0.4909 -0.5499  0.9296
  921MPD2    H213537   1.991   2.633  17.058 -4.2547  1.1122  4.5842
  921MPD2    H313538   1.756   2.641  17.002 -0.2830 -0.2128 -1.1381
  921MPD2     N13539   1.743   2.204  16.915 -0.2485 -0.0375 -0.5926
  921MPD2    H513540   1.649   2.219  16.880 -1.0288 -0.8114  1.1928
  921MPD2    N113541   2.141   2.422  17.066 -0.0077 -0.1992  0.7550
  921MPD2    H713542   2.193   2.509  17.068  1.1327 -0.8259 -0.7159
  922MPD2     C13543   2.191   4.069   0.162  0.3111  0.1221  0.2972
  922MPD2    C113544   2.214   4.185   0.093  0.3828 -0.4047 -0.9369
  922MPD2    C213545   2.179   4.196  17.707  0.5853  0.7056 -0.0728
  922MPD2    C313546   2.100   4.106  17.643  0.0150  0.2556 -0.4496
  922MPD2    C413547   2.073   3.991  17.714  0.1602  0.1900  0.9431
  922MPD2    C513548   2.127   3.973   0.094  0.4124  0.2498  0.3452
  922MPD2     H13549   2.217   4.278  17.648 -0.8287  1.3548 -0.0831
  922MPD2    H113550   2.018   3.908  17.671 -0.9378  0.7000  1.3502
  922MPD2    H213551   2.235   4.036   0.255 -0.8747 -2.1669  0.0408
  922MPD2    H313552   2.107   3.878   0.141  2.1480 -1.1632 -1.7521
  922MPD2     N13553   2.071   4.121  17.509  0.0327  0.0259  0.5383
  922MPD2    H513554   2.089   4.214  17.471  0.5437  0.2980  1.4561
  922MPD2    N113555   2.293   4.288   0.143  0.0749 -0.5082  0.4502
  922MPD2    H713556   2.309   4.367   0.081  1.4694  0.7853  2.4998
  923MPD2     C13557   0.001   2.253   8.860  0.5305  1.4507  0.7558
  923MPD2    C113558   4.644   2.278   8.960  0.2598 -0.2897  0.2855
  923MPD2    C213559   4.690   2.310   9.088 -0.7986 -1.2998  0.5863
  923MPD2    C313560   0.090   2.316   9.112 -0.5290 -0.1125  0.3576
  923MPD2    C413561   0.178   2.273   9.009  0.7451  0.0241 -0.0506
  923MPD2    C513562   0.133   2.245   8.885  0.4903 -0.5240 -1.0256
  923MPD2     H13563   4.610   2.334   9.157  0.0462  2.7130  0.2022
  923MPD2    H113564   0.285   2.268   9.023  0.6650  0.3246  0.6588
  923MPD2    H213565   4.716   2.234   8.756  0.1599  2.6563  0.6062
  923MPD2    H313566   0.195   2.204   8.806 -0.1321  0.4358 -2.0061
  923MPD2     N13567   0.143   2.324   9.246 -1.1700 -0.2742 -0.8793
  923MPD2    H513568   0.243   2.314   9.257 -1.2810 -1.3562 -0.8218
  923MPD2    N113569   4.507   2.265   8.926  0.2643 -0.1710  0.3798
  923MPD2    H713570   4.475   2.266   8.830  0.1753 -0.9801  0.3966
  924MPD2     C13571   4.195   0.196  16.191 -0.1838  0.2311  0.0931
  924MPD2    C113572   4.156   0.268  16.299 -0.5932  0.2708  0.3574
  924MPD2    C213573   4.130   0.403  16.288 -0.0490  0.3570 -0.0116
  924MPD2    C313574   4.134   0.462  16.161  0.3794 -0.2253  0.4352
  924MPD2    C413575   4.179   0.393  16.053  0.2056 -0.3293  0.3576
  924MPD2    C513576   4.217   0.262  16.075 -0.3751  0.1283  0.2790
  924MPD2     H13577   4.095   0.456  16.376  2.3813 -2.3786  2.6318
  924MPD2    H113578   4.181   0.441  15.955 -2.7158 -0.4587  0.2543
  924MPD2    H213579   4.226   0.093  16.201 -0.1773  0.4920  2.7562
  924MPD2    H313580   4.270   0.204  16.000 -1.3295  1.0652 -1.1123
  924MPD2     N13581   4.098   0.600  16.153  0.0024  0.4772 -0.3191
  924MPD2    H513582   4.108   0.643  16.062  0.1143 -1.2174 -1.1066
  924MPD2    N113583   4.135   0.198  16.418 -0.6893 -0.1032  0.1290
  924MPD2    H713584   4.194   0.116  16.424  1.3249  1.2955 -0.6610
  925MPD2     C13585   2.188   2.545  14.719 -0.2033  0.5050  0.6307
  925MPD2    C113586   2.308   2.485  14.678  0.7618  0.9817  0.1761
  925MPD2    C213587   2.345   2.369  14.739  0.0292 -0.0669  0.8052
  925MPD2    C313588   2.266   2.307  14.834 -0.1473 -0.5063  0.3231
  925MPD2    C413589   2.151   2.372  14.872  0.2585 -0.4529 -0.5280
  925MPD2    C513590   2.110   2.492  14.814 -0.0783 -0.2943 -0.3316
  925MPD2     H13591   2.434   2.320  14.701 -0.5850 -0.4476 -0.1176
  925MPD2    H113592   2.095   2.325  14.951 -0.6601 -0.5249 -1.2231
  925MPD2    H213593   2.153   2.633  14.666 -1.1243 -1.0519 -1.3292
  925MPD2    H313594   2.017   2.537  14.847  0.6224  1.7077 -1.0511
  925MPD2     N13595   2.307   2.176  14.876 -0.5958  0.4416 -0.1741
  925MPD2    H513596   2.386   2.137  14.826  0.8872  0.2213  2.3729
  925MPD2    N113597   2.370   2.539  14.565 -0.1279 -0.3378  0.5566
  925MPD2    H713598   2.325   2.622  14.529  1.0225  1.1569  2.5506
  926MPD2     C13599   1.538   0.690  14.246 -0.0386  0.2687  0.7344
  926MPD2    C113600   1.502   0.608  14.140 -0.4140 -0.0982 -0.3418
  926MPD2    C213601   1.570   0.615  14.017 -0.4693  0.4205 -0.7557
  926MPD2    C313602   1.666   0.706  14.003  0.3663 -0.1737 -0.6408
  926MPD2    C413603   1.707   0.781  14.112 -0.0730 -0.1904  0.0128
  926MPD2    C513604   1.651   0.764  14.232 -0.0008  0.3947 -0.0172
  926MPD2     H13605   1.531   0.559  13.933  0.4406 -2.5440  0.8036
  926MPD2    H113606   1.793   0.846  14.116  0.1324 -0.4334 -0.3682
  926MPD2    H213607   1.499   0.671  14.345 -0.3224  0.5609  0.6811
  926MPD2    H313608   1.687   0.814  14.321 -1.5511 -0.8712  1.3151
  926MPD2     N13609   1.725   0.743  13.879  0.5147  0.4789  0.2820
  926MPD2    H513610   1.811   0.798  13.880  1.5257 -1.1079  0.3649
  926MPD2    N113611   1.395   0.520  14.152  0.1893  0.4913  0.1281
  926MPD2    H713612   1.369   0.466  14.069  2.9196  1.0168 -1.0529
  927MPD2     C13613   2.118   2.652   0.739  0.3850  0.7798 -0.0838
  927MPD2    C113614   1.983   2.633   0.763  0.2430 -0.3052 -0.2882
  927MPD2    C213615   1.897   2.701   0.680 -0.1067  0.6588 -0.0687
  927MPD2    C313616   1.944   2.794   0.586  0.4851 -0.4573 -0.8002
  927MPD2    C413617   2.078   2.830   0.583 -0.0524  0.6154 -0.1544
  927MPD2    C513618   2.163   2.749   0.651 -0.1359 -0.7828 -0.8060
  927MPD2     H13619   1.796   2.662   0.688  0.2354  0.4396  3.1770
  927MPD2    H113620   2.125   2.898   0.513  0.8023  0.6866  0.4960
  927MPD2    H213621   2.201   2.602   0.788  0.1828  2.0274  1.5153
  927MPD2    H313622   2.268   2.779   0.655 -0.8774  1.6500  0.7811
  927MPD2     N13623   1.863   2.845   0.479 -0.4530  0.1069  0.1660
  927MPD2    H513624   1.911   2.898   0.406 -2.3982 -0.6531 -1.6665
  927MPD2    N113625   1.945   2.552   0.870  0.2917 -0.0888  0.5443
  927MPD2    H713626   2.021   2.505   0.918  1.0257  1.4554  0.9237
  928MPD2     C13627   4.251   1.078   1.171  0.8034  0.6679  0.3576
  928MPD2    C113628   4.298   1.209   1.135 -0.5067 -0.1769  0.1294
  928MPD2    C213629   4.337   1.242   1.003  0.0595  0.6271 -0.4591
  928MPD2    C313630   4.330   1.148   0.903 -0.8073 -0.3260  0.0861
  928MPD2    C413631   4.272   1.025   0.932  0.1037 -0.7105 -0.0060
  928MPD2    C513632   4.232   0.998   1.063  0.3961 -0.3229 -0.2221
  928MPD2     H13633   4.370   1.343   0.978 -0.4573  0.8637 -0.2010
  928MPD2    H113634   4.268   0.943   0.861 -0.7886 -0.2855 -0.4411
  928MPD2    H213635   4.223   1.047   1.271  1.0509 -1.2868 -0.1893
  928MPD2    H313636   4.187   0.901   1.081 -0.2623 -0.5159 -2.8428
  928MPD2     N13637   4.377   1.175   0.775  0.2777  0.4421  0.1991
  928MPD2    H513638   4.363   1.092   0.718  1.0531  1.4707 -1.4980
  928MPD2    N113639   4.328   1.297   1.242 -0.0396  0.3588 -0.1944
  928MPD2    H713640   4.348   1.248   1.329 -3.2873 -1.4213 -0.4402
  929MPD2     C13641   4.546   2.102   9.677 -0.5041 -0.0597 -0.3497
  929MPD2    C113642   4.433   2.169   9.722  0.4646  0.2981 -0.5151
  929MPD2    C213643   4.356   2.246   9.631 -0.4113  0.0634  0.1964
  929MPD2    C313644   4.390   2.253   9.492 -0.6936 -0.2761 -0.1506
  929MPD2    C413645   4.510   2.201   9.458 -0.0173  0.3835 -0.3211
  929MPD2    C513646   4.588   2.126   9.551 -0.2339  0.0291  0.3499
  929MPD2     H13647   4.253   2.264   9.661 -0.1645  1.5378  0.1416
  929MPD2    H113648   4.542   2.188   9.356  2.0157 -3.5262  0.8025
  929MPD2    H213649   4.608   2.047   9.747  0.0064 -1.5235 -1.9340
  929MPD2    H313650   4.677   2.075   9.516 -0.6333  0.4272 -1.2313
  929MPD2     N13651   4.320   2.331   9.393  0.0752  0.3166  0.0577
  929MPD2    H513652   4.370   2.331   9.305  0.0642  0.9271  0.0482
  929MPD2    N113653   4.392   2.109   9.844 -0.0086  0.2207  0.3086
  929MPD2    H713654   4.459   2.057   9.900  2.7188  0.4736 -2.7458
  930MPD2     C13655   1.105   4.164  13.946 -0.3133  0.0169 -0.0839
  930MPD2    C113656   1.211   4.109  13.881  0.1639 -0.0947 -0.1393
  930MPD2    C213657   1.195   3.990  13.809  0.0059  0.4148 -1.0730
  930MPD2    C313658   1.067   3.949  13.798 -0.2962 -0.3383 -0.7795
  930MPD2    C413659   0.959   4.009  13.861 -0.2280  0.1380 -0.3014
  930MPD2    C513660   0.982   4.118  13.935  0.0005  0.3794 -0.5860
  930MPD2     H13661   1.281   3.934  13.774 -1.3642 -1.5515 -1.2909
  930MPD2    H113662   0.862   3.962  13.873  0.6794 -1.5649  0.3403
  930MPD2    H213663   1.119   4.258  13.998 -0.2850  1.8655 -3.4267
  930MPD2    H313664   0.901   4.174  13.981  0.1170  0.2406 -0.2130
  930MPD2     N13665   1.028   3.826  13.739 -0.1319 -0.2955 -0.1798
  930MPD2    H513666   0.928   3.813  13.740 -0.3534  1.3556 -1.2035
  930MPD2    N113667   1.337   4.163  13.903  0.5433 -0.2162 -0.1000
  930MPD2    H713668   1.356   4.221  13.984 -0.7642  0.9351 -0.6124
  931MPD2     C13669   1.992   1.912   0.751  0.2787 -1.2359  0.2763
  931MPD2    C113670   1.884   1.939   0.836  0.2682 -0.2924 -0.1428
  931MPD2    C213671   1.787   1.840   0.857 -0.7469 -0.9013 -0.6585
  931MPD2    C313672   1.786   1.723   0.783  0.5014  0.4703  0.1397
  931MPD2    C413673   1.879   1.703   0.684 -0.3966 -0.2916 -0.3910
  931MPD2    C513674   1.980   1.799   0.675  0.0181  0.1398 -0.0316
  931MPD2     H13675   1.696   1.877   0.903  0.1176  1.1502 -0.5850
  931MPD2    H113676   1.883   1.616   0.620  1.2305 -0.5299  0.0377
  931MPD2    H213677   2.075   1.981   0.742 -2.0425  1.2448 -2.1614
  931MPD2    H313678   2.062   1.775   0.608  2.0097  0.2982  2.3730
  931MPD2     N13679   1.676   1.635   0.786  0.4642 -0.1254  0.7877
  931MPD2    H513680   1.679   1.565   0.712  1.2781 -0.4389  1.1175
  931MPD2    N113681   1.912   2.047   0.923 -0.1023  0.7032  1.0259
  931MPD2    H713682   1.991   2.107   0.904  1.4141 -1.1354  1.5150
  932MPD2     C13683   3.130   2.132  11.407 -0.1020  0.8227 -0.3901
  932MPD2    C113684   3.239   2.180  11.472 -0.3264 -0.0915 -0.3770
  932MPD2    C213685   3.317   2.107  11.556  0.1076  0.7202  0.0303
  932MPD2    C313686   3.307   1.966  11.558  0.4413 -0.3295  0.3417
  932MPD2    C413687   3.203   1.915  11.487  0.5972 -0.3677  0.1887
  932MPD2    C513688   3.117   1.995  11.421  0.5923  0.3331 -0.1096
  932MPD2     H13689   3.401   2.145  11.612 -0.1859  2.2080 -0.5525
  932MPD2    H113690   3.190   1.809  11.472 -1.0473 -0.1286 -0.0354
  932MPD2    H213691   3.066   2.189  11.339  0.1089 -1.0365 -2.1380
  932MPD2    H313692   3.042   1.953  11.356 -0.4810  0.5840  0.9616
  932MPD2     N13693   3.385   1.882  11.639  0.3413  0.1267 -0.4637
  932MPD2    H513694   3.367   1.783  11.640  2.4810 -0.2700 -0.6064
  932MPD2    N113695   3.269   2.314  11.468 -0.5138  0.3407  0.2132
  932MPD2    H713696   3.338   2.346  11.534 -1.6073  0.5545  1.2576
  933MPD2     C13697   4.349   2.047   1.749  0.2660 -0.3009 -0.1306
  933MPD2    C113698   4.361   2.031   1.614  0.0982 -0.1458 -0.2177
  933MPD2    C213699   4.330   2.140   1.534  0.7388 -0.2023 -0.4474
  933MPD2    C313700   4.290   2.262   1.592  0.6795  0.8976  0.8187
  933MPD2    C413701   4.281   2.283   1.730 -0.2354 -0.2750  0.9423
  933MPD2    C513702   4.316   2.170   1.812  0.5953 -0.2180  0.7308
  933MPD2     H13703   4.364   2.137   1.431 -0.8928 -2.4222 -0.9235
  933MPD2    H113704   4.249   2.377   1.772 -3.0100  0.0096 -1.8628
  933MPD2    H213705   4.371   1.964   1.816 -1.7554 -0.0356  0.8761
  933MPD2    H313706   4.309   2.171   1.920  0.4099  3.0786  0.6627
  933MPD2     N13707   4.258   2.383   1.510 -0.0470  0.5112 -0.0626
  933MPD2    H513708   4.238   2.469   1.560  0.3637  0.0046  0.9664
  933MPD2    N113709   4.401   1.899   1.574 -0.7954  0.9435 -0.2644
  933MPD2    H713710   4.441   1.833   1.640 -1.3087 -0.8930 -1.7820
  934MPD2     C13711   0.687   3.945   1.807  0.7194 -0.6166 -0.0093
  934MPD2    C113712   0.698   3.899   1.682 -0.1160  0.3098 -0.1980
  934MPD2    C213713   0.620   3.788   1.647  0.7231 -0.5717  0.0084
  934MPD2    C313714   0.542   3.721   1.738  0.6672 -0.2546  0.2018
  934MPD2    C413715   0.529   3.773   1.865 -0.7554 -0.2135  0.0665
  934MPD2    C513716   0.606   3.884   1.897 -0.0579  0.9112 -0.5642
  934MPD2     H13717   0.622   3.756   1.544 -0.8659  1.1313 -0.5456
  934MPD2    H113718   0.453   3.739   1.934 -0.1645 -1.7954 -0.0600
  934MPD2    H213719   0.744   4.033   1.835 -0.3714  0.1424 -0.1945
  934MPD2    H313720   0.604   3.925   1.998 -0.3607  0.6591 -0.4678
  934MPD2     N13721   0.473   3.601   1.703 -0.1570 -0.2510 -0.4682
  934MPD2    H513722   0.393   3.566   1.755 -0.2896 -2.0070 -1.8742
  934MPD2    N113723   0.780   3.963   1.584  0.0595  0.4856  0.2921
  934MPD2    H713724   0.774   3.928   1.489 -3.8314  1.4757  0.1858
  935MPD2     C13725   0.665   2.943   0.960  1.0736 -0.1261  0.4484
  935MPD2    C113726   0.548   2.903   1.017 -0.0977 -0.3426 -0.3754
  935MPD2    C213727   0.486   2.983   1.105 -0.6092 -0.0935 -0.7642
  935MPD2    C313728   0.554   3.086   1.167 -0.5940 -0.4196 -0.2323
  935MPD2    C413729   0.673   3.121   1.110 -0.0080  0.3257  0.0760
  935MPD2    C513730   0.726   3.052   1.007 -0.6859  0.2446 -0.0800
  935MPD2     H13731   0.391   2.945   1.141 -0.2524 -1.6157 -1.4202
  935MPD2    H113732   0.713   3.217   1.140  3.6231 -0.0917 -3.5028
  935MPD2    H213733   0.708   2.890   0.875  3.0282 -1.2952  2.1551
  935MPD2    H313734   0.817   3.087   0.960 -0.2134 -0.2331  0.4790
  935MPD2     N13735   0.502   3.164   1.267  0.6773 -0.0678  0.2113
  935MPD2    H513736   0.553   3.250   1.287  1.3296 -0.5146  0.4552
  935MPD2    N113737   0.477   2.798   0.965 -0.1199 -0.3378  0.1971
  935MPD2    H713738   0.378   2.794   0.984 -0.4240 -3.0882 -1.9908
  936MPD2     C13739   4.020   0.513  13.265  0.4123 -0.0272  0.7825
  936MPD2    C113740   3.944   0.559  13.155 -0.8681  0.0577  0.3110
  936MPD2    C213741   3.998   0.661  13.087 -0.4082  0.1165  0.4585
  936MPD2    C313742   4.122   0.710  13.106  0.3119 -0.0445 -0.3627
  936MPD2    C413743   4.197   0.651  13.203 -0.0305 -0.2753  0.7921
  936MPD2    C513744   4.143   0.560  13.287  0.5766  0.6013 -0.0908
  936MPD2     H13745   3.935   0.717  13.018 -0.9283  0.8589  1.5399
  936MPD2    H113746   4.296   0.689  13.226  0.2729 -0.6006  0.0393
  936MPD2    H213747   3.974   0.445  13.335  1.4294 -0.6158  0.8916
  936MPD2    H313748   4.200   0.529  13.374  2.2933 -1.0332 -1.7967
  936MPD2     N13749   4.163   0.814  13.012 -0.1332  0.5198  0.3225
  936MPD2    H513750   4.087   0.845  12.952 -0.5948  1.0710  1.1796
  936MPD2    N113751   3.811   0.532  13.126  0.3959  0.2483 -0.5314
  936MPD2    H713752   3.771   0.578  13.044 -0.9908  0.8755  0.5006
  937MPD2     C13753   1.946   2.599  12.145 -0.0223 -0.2116 -0.2764
  937MPD2    C113754   1.865   2.639  12.051 -0.2188  0.2103  0.0065
  937MPD2    C213755   1.909   2.634  11.916  0.4777 -0.1305  0.5793
  937MPD2    C313756   2.024   2.568  11.872  0.0243 -0.3844  0.5958
  937MPD2    C413757   2.099   2.513  11.977 -0.2903  0.2392  0.5364
  937MPD2    C513758   2.065   2.534  12.107  0.0926  0.4577 -0.2455
  937MPD2     H13759   1.848   2.683  11.841 -1.5960 -1.5318  1.3685
  937MPD2    H113760   2.198   2.470  11.964  0.3883  1.6662  0.9330
  937MPD2    H213761   1.923   2.600  12.251  1.1763  1.7109 -0.0359
  937MPD2    H313762   2.129   2.489  12.183  2.1377 -3.0159 -4.0223
  937MPD2     N13763   2.060   2.567  11.735  1.1302  0.3277 -0.0241
  937MPD2    H513764   1.985   2.588  11.670  1.4341  0.7009 -0.2549
  937MPD2    N113765   1.757   2.723  12.073  0.6180 -0.2073  0.2293
  937MPD2    H713766   1.729   2.790  12.003 -0.2669  0.3454  1.1075
  938MPD2     C13767   4.556   2.638   1.023 -0.2584  0.2185  0.6591
  938MPD2    C113768   4.568   2.748   1.103 -0.8235  0.7057  0.2614
  938MPD2    C213769   4.598   2.735   1.232  0.0268 -0.0595 -0.0872
  938MPD2    C313770   4.627   2.614   1.294 -0.0133  1.5299  0.6571
  938MPD2    C413771   4.615   2.502   1.222 -0.1777  0.1754  0.8416
  938MPD2    C513772   4.582   2.513   1.084 -0.5161 -0.7451 -0.8238
  938MPD2     H13773   4.592   2.832   1.280 -1.2135 -0.8396  1.3212
  938MPD2    H113774   4.643   2.408   1.267  2.0556  0.4058 -0.0325
  938MPD2    H213775   4.533   2.634   0.918 -0.2671 -0.0953  0.6732
  938MPD2    H313776   4.582   2.424   1.023  2.5927 -1.4989  0.3074
  938MPD2     N13777   4.679   2.610   1.424  0.2238 -0.5865  0.1672
  938MPD2    H513778   4.689   2.519   1.468 -0.4387 -1.0973 -0.7556
  938MPD2    N113779   4.564   2.876   1.043 -0.6248  0.1708  0.0107
  938MPD2    H713780   4.575   2.951   1.110 -1.4769  0.5799 -0.3146
  939MPD2     C13781   4.381   0.000   0.792  0.0710  0.5392  0.4617
  939MPD2    C113782   4.456   4.616   0.782 -0.0153 -0.5854  0.0935
  939MPD2    C213783   4.496   4.583   0.650 -0.1382  0.0470 -0.2632
  939MPD2    C313784   4.443   4.648   0.540  0.1742  0.1167 -0.0145
  939MPD2    C413785   4.359   0.019   0.560 -0.4537 -0.0600  0.2259
  939MPD2    C513786   4.339   0.070   0.685  0.6835  0.6353  0.2841
  939MPD2     H13787   4.563   4.502   0.621 -1.0300 -0.9490  0.4608
  939MPD2    H113788   4.327   0.082   0.478 -3.2714 -0.5747  0.9254
  939MPD2    H213789   4.357   0.045   0.888  0.3964 -1.1844  1.3468
  939MPD2    H313790   4.281   0.160   0.697 -1.5555 -1.1388  2.9645
  939MPD2     N13791   4.490   4.613   0.412 -0.7699  0.2464 -0.4434
  939MPD2    H513792   4.572   4.555   0.398 -2.1444 -1.7189 -0.3666
  939MPD2    N113793   4.493   4.551   0.901  0.0007 -0.5878 -0.4341
  939MPD2    H713794   4.467   4.601   0.985 -0.0368 -1.2611 -0.0458
  940MPD2     C13795   4.506   1.547  13.150  0.5176 -0.8397 -0.1517
  940MPD2    C113796   4.489   1.412  13.186  0.3375  0.7680  0.6879
  940MPD2    C213797   4.571   1.313  13.126  0.0300 -0.0456 -0.2972
  940MPD2    C313798   4.670   1.356  13.033 -0.1341 -0.3495 -0.1011
  940MPD2    C413799   4.667   1.488  12.991 -0.2689  0.2572  0.0264
  940MPD2    C513800   4.592   1.585  13.054 -0.0034  0.0556 -0.4824
  940MPD2     H13801   4.559   1.212  13.163  0.4083 -0.8748 -2.4196
  940MPD2    H113802   4.735   1.530  12.918  1.3280 -2.7582 -0.2379
  940MPD2    H213803   4.443   1.619  13.200 -2.3187 -2.4114 -1.4152
  940MPD2    H313804   4.605   1.691  13.035 -0.6488  0.3318  0.6240
  940MPD2     N13805   0.027   1.263  12.974  0.6090  0.2038  0.1576
  940MPD2    H513806   0.089   1.299  12.902  0.0825 -0.9353 -0.8736
  940MPD2    N113807   4.394   1.353  13.276  0.4303 -0.0879  0.6909
  940MPD2    H713808   4.390   1.252  13.281 -1.8999 -0.1129 -1.8511
  941MPD2     C13809   3.258   0.591   9.861  0.6801 -0.2210  0.2828
  941MPD2    C113810   3.315   0.506   9.950  1.0125  0.6868 -0.6813
  941MPD2    C213811   3.238   0.412  10.014 -0.6513  0.1897 -0.5584
  941MPD2    C313812   3.109   0.393   9.982  0.6272  0.7568  0.0062
  941MPD2    C413813   3.054   0.479   9.889  0.0240 -0.0069 -0.1096
  941MPD2    C513814   3.126   0.582   9.838  0.2354  0.0555  0.3172
  941MPD2     H13815   3.298   0.357  10.086 -0.7667  0.0244 -0.5894
  941MPD2    H113816   2.947   0.473   9.871 -0.3522  0.5663  1.9876
  941MPD2    H213817   3.306   0.678   9.818  1.8899 -1.3132 -0.5606
  941MPD2    H313818   3.084   0.648   9.763  0.0032 -1.0186 -0.5031
  941MPD2     N13819   3.028   0.291  10.045  0.4271  0.2600  0.1556
  941MPD2    H513820   2.936   0.285  10.003 -1.1563  1.5775  3.4422
  941MPD2    N113821   3.452   0.512   9.988 -0.1914 -0.1495 -0.4292
  941MPD2    H713822   3.488   0.440  10.050  1.9167  1.9660  0.8226
  942MPD2     C13823   3.890   2.102   8.639  0.2758  1.1987  0.6022
  942MPD2    C113824   3.906   2.017   8.745 -0.8636  0.9217 -0.0964
  942MPD2    C213825   4.034   1.969   8.784 -0.0971  0.3532 -0.3314
  942MPD2    C313826   4.146   2.023   8.724  0.1444  0.2791 -0.2654
  942MPD2    C413827   4.129   2.105   8.610 -0.3696  0.1524  0.3452
  942MPD2    C513828   4.004   2.144   8.569 -0.0760  0.3311  0.1046
  942MPD2     H13829   4.029   1.889   8.857 -0.4595  1.0123  0.3607
  942MPD2    H113830   4.219   2.123   8.552  0.0486  1.6070  1.4405
  942MPD2    H213831   3.796   2.135   8.595 -1.6635 -2.3490  2.0691
  942MPD2    H313832   3.995   2.224   8.497  1.6057  2.3934  2.2337
  942MPD2     N13833   4.278   1.988   8.755  0.0033  0.1393  0.2357
  942MPD2    H513834   4.347   2.015   8.685 -2.0534  1.9685 -1.0656
  942MPD2    N113835   3.799   1.970   8.827  0.0257  0.2910  0.3833
  942MPD2    H713836   3.816   1.894   8.893  0.5362  0.2871  0.2410
  943MPD2     C13837   1.620   3.425   9.271 -0.2065 -0.2375  0.3875
  943MPD2    C113838   1.657   3.437   9.404  0.9052 -0.1956 -0.7369
  943MPD2    C213839   1.762   3.521   9.443  0.3019 -0.1182 -1.0250
  943MPD2    C313840   1.818   3.599   9.334 -0.6615  0.5297 -0.2261
  943MPD2    C413841   1.770   3.597   9.201 -0.5629 -0.1643  0.1520
  943MPD2    C513842   1.681   3.498   9.170  0.2823  0.6510  0.1171
  943MPD2     H13843   1.805   3.532   9.542  0.1811 -2.3597 -0.7103
  943MPD2    H113844   1.824   3.652   9.125  0.3705  0.8563  1.5449
  943MPD2    H213845   1.544   3.356   9.239 -0.4779 -1.2774  3.2088
  943MPD2    H313846   1.644   3.483   9.069  2.2498 -0.4684 -0.4429
  943MPD2     N13847   1.927   3.681   9.359  0.2847  0.3164  0.1628
  943MPD2    H513848   1.979   3.709   9.276 -0.6125  1.6254  0.0365
  943MPD2    N113849   1.589   3.360   9.502 -0.0226 -0.4873  0.2178
  943MPD2    H713850   1.526   3.290   9.463  1.2335 -1.0965 -0.6889
  944MPD2     C13851   1.973   4.536  10.734 -0.5668 -0.0074 -0.4182
  944MPD2    C113852   1.909   4.497  10.854 -0.4431  0.1075 -0.3210
  944MPD2    C213853   1.915   4.587  10.963  0.0817 -0.3627 -0.1405
  944MPD2    C313854   1.992   4.700  10.949 -0.4589  0.0223  0.0227
  944MPD2    C413855   2.057   4.732  10.831 -0.3182  0.1691  0.4153
  944MPD2    C513856   2.030   4.657  10.721 -0.2187  0.3812  0.1039
  944MPD2     H13857   1.847   4.560  11.043  1.9961 -0.3709  1.4743
  944MPD2    H113858   2.111   0.090  10.822  3.1048 -1.6392  2.2389
  944MPD2    H213859   1.960   4.475  10.645  2.3013 -0.1190 -0.7440
  944MPD2    H313860   2.078   4.676  10.626 -0.7023  1.0288 -0.0092
  944MPD2     N13861   2.018   0.046  11.061 -0.0742  0.0914 -0.2415
  944MPD2    H513862   2.080   0.127  11.054  0.0152  0.1183  0.9734
  944MPD2    N113863   1.863   4.367  10.869 -0.7764  0.4648 -0.9709
  944MPD2    H713864   1.876   4.307  10.787  3.5733  0.6981 -0.4636
    1TMC1    C113865   4.641   0.178  14.564 -0.3930 -1.1150 -0.1358
    1TMC1    C213866   4.566   0.207  14.450 -0.5610 -0.1436  0.1911
    1TMC1    C313867   4.524   0.110  14.363 -0.9491  0.7538  0.5523
    1TMC1    C413868   4.674   0.048  14.592 -0.7469 -0.2368  0.4074
    1TMC1    C513869   4.632   4.688  14.500  0.2379 -0.5883 -0.2012
    1TMC1    C613870   4.555   4.713  14.391  0.0113  0.0308 -0.3171
    1TMC1     C13871   4.698   0.278  14.650  0.0375 -0.5499  0.2692
    1TMC1     O13872   0.048   0.241  14.728 -0.3661 -0.4345  0.2842
    1TMC1     H13873   4.548   0.311  14.427  1.2954 -0.1474 -1.2953
    1TMC1    H113874   0.010   0.024  14.669 -0.6976 -0.8648  0.1647
    1TMC1    H213875   4.539   4.630  14.323  1.3763 -1.0375  0.6452
    1TMC1    C713876   4.667   4.551  14.530  0.2182  0.5136 -0.9774
    1TMC1    C813877   4.474   0.159  14.231  0.5176  0.4777  0.8387
    1TMC1    O113878   4.670   4.465  14.441 -0.8456  0.6042 -0.8809
    1TMC1    O213879   4.511   0.271  14.197  0.0327 -0.2760 -0.0647
    1TMC1    O313880   4.667   4.527  14.665 -0.0807  0.3712  0.5323
    1TMC1    H313881   4.661   4.604  14.725  1.0160  2.5242 -2.1054
    1TMC1    O513882   4.478   0.052  14.145 -0.6305 -0.1366 -0.1195
    1TMC1    H513883   4.433   4.708  14.179 -0.0637 -1.3046 -2.1502
    2MPD2     C13884   0.106   0.767  14.715  0.4859  0.0830 -0.1140
    2MPD2    C113885   4.719   0.764  14.647  0.4131  0.7556 -0.0236
    2MPD2    C213886   4.661   0.644  14.619 -0.2605  0.0838  0.0905
    2MPD2    C313887   4.719   0.527  14.649  0.8255 -0.2467  0.5708
    2MPD2    C413888   0.102   0.528  14.714  0.3298 -0.3339 -0.1393
    2MPD2    C513889   0.154   0.646  14.758  0.1303  0.5670 -0.2449
    2MPD2     H13890   4.571   0.649  14.558 -0.2444  0.5014  0.0985
    2MPD2    H113891   0.159   0.438  14.733  0.9850 -0.1754 -1.3374
    2MPD2    H213892   0.163   0.854  14.744 -0.3723  0.2495  1.0777
    2MPD2    H313893   0.243   0.635  14.818 -0.5823 -1.0231  0.5306
    2MPD2     N13894   4.663   0.404  14.608  0.7115  1.0559 -0.0027
    2MPD2    H513895   4.580   0.417  14.551  0.8097  0.0330 -0.3714
    2MPD2    N113896   4.657   0.891  14.614  0.4138 -0.5660 -0.2946
    2MPD2    H713897   4.718   0.971  14.620 -0.4343  0.0424  0.2930
    3TMC2    C113898   4.493   1.038  14.527  0.2724 -0.2249 -0.7451
    3TMC2    C213899   4.357   1.062  14.505 -0.3033  0.2851  0.0902
    3TMC2    C313900   4.332   1.181  14.444 -0.3049 -0.3601 -0.4887
    3TMC2    C413901   4.593   1.124  14.498 -1.1818 -0.3034  0.1573
    3TMC2    C513902   4.559   1.234  14.434 -0.1201 -0.3340 -0.2497
    3TMC2    C613903   4.429   1.265  14.401  0.1333 -0.5017 -0.3925
    3TMC2     C13904   4.523   0.904  14.578  0.0647 -0.1880  0.0315
    3TMC2     O13905   4.433   0.828  14.601  0.6591  0.1526  0.2103
    3TMC2     H13906   4.281   1.002  14.554  0.4112 -0.5150  0.2208
    3TMC2    H113907   4.694   1.087  14.485 -0.9284  0.2515  0.5284
    3TMC2    H213908   4.416   1.371  14.383  0.9392 -0.4738 -0.8213
    3TMC2    C713909   4.669   1.290  14.356  0.0835  0.7752  0.7460
    3TMC2    C813910   4.200   1.237  14.474  0.0113  0.0952 -0.5024
    3TMC2    O113911   0.043   1.288  14.412  0.0147 -0.1040 -0.1365
    3TMC2    O213912   4.135   1.198  14.570  0.2560  0.1747  0.5596
    3TMC2    O513913   4.185   1.356  14.397  0.0841  0.0643 -0.1794
    3TMC2    H513914   4.235   1.344  14.313 -0.2444 -0.4608 -0.2998
    4TMC2    C113915   4.353   1.810  13.591  0.4537 -0.1384  0.0852
    4TMC2    C213916   4.427   1.806  13.473  0.0740  0.1307 -0.4092
    4TMC2    C313917   4.564   1.783  13.488  0.8488  0.4400  0.4301
    4TMC2    C413918   4.398   1.746  13.703 -0.0378 -0.7765  0.1124
    4TMC2    C513919   4.532   1.718  13.709 -0.0315 -0.3268 -0.1471
    4TMC2    C613920   4.618   1.742  13.606  0.0245  0.4043  0.4910
    4TMC2     C13921   4.211   1.833  13.581 -0.0135  0.5599  0.4595
    4TMC2     O13922   4.171   1.906  13.670  0.5466  0.5621  0.0585
    4TMC2     H13923   4.395   1.853  13.380  0.0262 -1.5340 -1.2320
    4TMC2    H113924   4.336   1.739  13.791  0.1653  3.7848  0.6296
    4TMC2    H213925   4.724   1.748  13.629 -0.2853 -0.7043  2.1809
    4TMC2    C713926   4.578   1.668  13.835  0.2144  0.6330 -0.2077
    4TMC2    C813927   4.643   1.786  13.366  0.1734 -0.7361 -0.1184
    4TMC2    O113928   4.507   1.686  13.932 -0.2231  0.4018  0.9550
    4TMC2    O213929   4.620   1.856  13.270 -0.4297 -0.1641  0.0140
    4TMC2    O513930   0.001   1.683  13.373 -0.5302  0.2328  0.5735
    4TMC2    H513931   0.004   1.645  13.464  0.8862  0.1949  0.5068
    5MPD2     C13932   3.746   1.739  13.379 -0.3291 -0.5126  0.5636
    5MPD2    C113933   3.832   1.660  13.315  0.0142 -0.1587  0.2892
    5MPD2    C213934   3.967   1.661  13.357  0.6255 -0.0605  0.0353
    5MPD2    C313935   4.012   1.747  13.458 -0.0951 -0.5402 -0.0524
    5MPD2    C413936   3.914   1.817  13.524 -0.8255 -0.2290 -0.3116
    5MPD2    C513937   3.788   1.818  13.477 -0.4424  0.6968 -0.7263
    5MPD2     H13938   4.044   1.593  13.322  1.8691  1.2970  0.1709
    5MPD2    H113939   3.937   1.894  13.597 -2.1773  0.7171 -0.8729
    5MPD2    H213940   3.641   1.744  13.352  0.6516  0.1353 -3.1699
    5MPD2    H313941   3.716   1.879  13.529 -0.7591 -0.9747  0.7798
    5MPD2     N13942   4.151   1.763  13.483 -0.2127  0.4041  0.0010
    5MPD2    H513943   4.216   1.700  13.437 -0.9342 -0.2491 -0.1190
    5MPD2    N113944   3.778   1.581  13.213 -0.1381 -0.1394 -0.3118
    5MPD2    H713945   3.680   1.589  13.189  0.4520  0.7819 -2.4409
    6MPD1     C13946   3.618   2.619  13.865  0.6718  0.9655 -0.3100
    6MPD1    C113947   3.702   2.629  13.758  0.3082 -0.7121 -0.8442
    6MPD1    C213948   3.661   2.596  13.632  0.1878 -0.8083 -0.1871
    6MPD1    C313949   3.532   2.549  13.615 -0.1550  0.7521  0.2362
    6MPD1    C413950   3.450   2.531  13.718  0.0355  0.1170 -0.1798
    6MPD1    C513951   3.486   2.572  13.847  0.7732  0.0535 -0.6592
    6MPD1     H13952   3.725   2.619  13.547 -0.5658  0.9513 -0.2816
    6MPD1    H113953   3.355   2.486  13.694  0.4704  0.1298 -1.9865
    6MPD1    H213954   3.645   2.650  13.965  4.1322 -0.2429 -0.8850
    6MPD1    H313955   3.420   2.555  13.931  3.2592  1.3554  1.5541
    6MPD1     N13956   3.488   2.515  13.483 -0.1463 -0.1193  0.2853
    6MPD1    H513957   3.409   2.451  13.474  1.8450 -2.4565 -0.8530
    6MPD1    N113958   3.816   2.712  13.778 -0.2228  0.2105  0.0784
    6MPD1    H613959   3.852   2.716  13.873 -2.4428 -0.2561  0.9449
    6MPD1    H713960   3.897   2.694  13.719  0.1902 -1.9436  1.3002
    7MPD2     C13961   3.105   1.962  13.058 -0.4650 -0.3269 -0.8290
    7MPD2    C113962   3.233   1.957  13.114  0.5912  0.0584 -0.7911
    7MPD2    C213963   3.314   1.841  13.100  0.1137  0.4521 -0.3668
    7MPD2    C313964   3.273   1.736  13.020 -0.4231  0.1954  0.0143
    7MPD2    C413965   3.146   1.750  12.956 -1.1966 -0.4407  0.2744
    7MPD2    C513966   3.065   1.853  12.982  0.2336  0.2115  0.2400
    7MPD2     H13967   3.409   1.844  13.153 -0.2921 -1.6947  0.4477
    7MPD2    H113968   3.095   1.672  12.900  0.7458 -1.6449  0.1389
    7MPD2    H213969   3.028   2.038  13.069 -0.9428 -1.1411  1.5291
    7MPD2    H313970   2.970   1.863  12.932  0.2665 -0.9077 -0.0530
    7MPD2     N13971   3.343   1.619  12.992  0.4279  0.0460 -0.1854
    7MPD2    H513972   3.298   1.555  12.926 -1.8766  1.6704 -0.1895
    7MPD2    N113973   3.305   2.069  13.164 -0.0047 -0.0081 -0.0828
    7MPD2    H713974   3.400   2.057  13.198 -0.1006 -1.6938 -0.4043
    8TMC3    C113975   3.527   1.471  12.996  0.6744 -0.9041  0.1071
    8TMC3    C213976   3.626   1.428  13.077 -0.4650 -0.2735  0.2004
    8TMC3    C313977   3.758   1.425  13.040 -0.0957  0.2523  0.4525
    8TMC3    C413978   3.560   1.514  12.871  0.1957 -0.1969  0.2351
    8TMC3    C513979   3.697   1.508  12.833  0.1247  0.1353  0.4853
    8TMC3    C613980   3.796   1.474  12.919 -0.5673 -0.3593  0.4118
    8TMC3     C13981   3.455   1.582  13.061 -0.0279 -0.5012  0.0946
    8TMC3     O13982   3.505   1.640  13.155 -0.4757  0.4416  0.1759
    8TMC3     H13983   3.604   1.401  13.179  1.9475 -1.2515  0.4469
    8TMC3    H113984   3.485   1.537  12.795  2.7777  0.8260 -2.0042
    8TMC3    H213985   3.899   1.503  12.906 -0.5564 -1.6275 -2.3825
    8TMC3    C713986   3.736   1.619  12.752  0.6715 -0.6346  0.4070
    8TMC3    C813987   3.849   1.487  13.134 -0.1909  0.3603  0.2715
    8TMC3    O113988   3.844   1.613  12.700  0.1707 -0.2688 -0.2838
    8TMC3    O213989   3.968   1.452  13.131 -0.3870 -0.2243 -0.1513
    9TMC3    C113990   3.507   2.452  13.253 -0.3318  0.3071 -0.3250
    9TMC3    C213991   3.574   2.448  13.136 -0.2383 -1.0958  0.1208
    9TMC3    C313992   3.522   2.378  13.031 -0.1398  0.6078  0.6710
    9TMC3    C413993   3.396   2.372  13.279 -0.4026 -0.7759 -0.0017
    9TMC3    C513994   3.353   2.293  13.172  0.2523 -0.3231  0.0522
    9TMC3    C613995   3.411   2.300  13.049  0.5368 -0.3092 -0.2095
    9TMC3     C13996   3.564   2.522  13.365  0.0939 -0.7462 -0.6085
    9TMC3     O13997   3.680   2.568  13.340  0.0946 -0.1227  0.3151
    9TMC3     H13998   3.672   2.491  13.115 -1.1143  0.2599 -1.2145
    9TMC3    H113999   3.346   2.354  13.373 -1.7390  0.4125 -0.4882
    9TMC3    H214000   3.371   2.253  12.960 -2.3746  2.0659 -0.1553
    9TMC3    C714001   3.252   2.194  13.185  0.7531 -0.1338 -0.7358
    9TMC3    C814002   3.607   2.324  12.931  0.1082  0.0338 -0.2286
    9TMC3    O114003   3.134   2.223  13.193 -0.9914 -0.1711  0.9088
    9TMC3    O214004   3.692   2.399  12.878  0.2570 -1.1590 -0.8926
   10MPD2     C14005   3.794   1.910  12.676  0.2068  0.2805 -0.1595
   10MPD2    C114006   3.699   1.867  12.772 -0.4039  0.3681  0.2970
   10MPD2    C214007   3.635   1.964  12.846  0.0237 -0.1960  0.4552
   10MPD2    C314008   3.664   2.097  12.830  0.3594  0.3575  0.3974
   10MPD2    C414009   3.742   2.134  12.726 -0.5942  0.2226 -0.2530
   10MPD2    C514010   3.806   2.046  12.646  0.2950  0.4536  0.1969
   10MPD2     H14011   3.549   1.949  12.911 -0.2277  2.7833  0.8199
   10MPD2    H114012   3.754   2.240  12.706  1.3199 -0.1791 -1.1917
   10MPD2    H214013   3.852   1.842  12.614  2.4124  0.3080  1.8367
   10MPD2    H314014   3.867   2.077  12.562  1.1744  0.8215  0.9749
   10MPD2     N14015   3.596   2.187  12.916  0.9077  0.2409  0.2581
   10MPD2    H514016   3.543   2.150  12.995  3.5359 -0.7770  1.5339
   10MPD2    N114017   3.663   1.732  12.794  0.0157 -0.4714 -0.2173
   10MPD2    H714018   3.591   1.722  12.865 -0.2544  2.2372 -0.1103
   11MPD2     C14019   0.112   1.335  14.120 -0.1661  0.6098  0.5283
   11MPD2    C114020   4.723   1.391  14.134 -0.0224 -0.0468  0.1503
   11MPD2    C214021   4.671   1.492  14.045 -0.0915  0.6135 -0.1161
   11MPD2    C314022   0.013   1.517  13.933  0.3898 -0.4831  0.5485
   11MPD2    C414023   0.138   1.464  13.927  0.1773 -0.1650  0.0927
   11MPD2    C514024   0.189   1.379  14.021 -0.0049 -0.6967 -0.2862
   11MPD2     H14025   4.570   1.527  14.066  0.1962  1.0741  0.5017
   11MPD2    H114026   0.202   1.490  13.843 -0.1745  3.4337  0.9126
   11MPD2    H214027   0.165   1.270  14.188  0.2851 -1.4414 -1.7983
   11MPD2    H314028   0.291   1.342  14.009  0.2311  0.5983 -2.4055
   11MPD2     N14029   4.700   1.602  13.830  0.0410  0.0892  0.2904
   11MPD2    H514030   0.018   1.609  13.744  0.1020 -0.6028  0.2652
   11MPD2    N114031   4.636   1.353  14.242 -0.8987 -0.1770  0.4736
   11MPD2    H714032   4.537   1.369  14.230 -0.8915  1.7081  2.9825
    1MPD1     C14033   2.239   2.842  17.035  0.7023 -0.5220  0.3017
    1MPD1    C114034   2.294   2.733  17.102  0.3642 -0.5413 -0.0421
    1MPD1    C214035   2.390   2.659  17.043 -0.1905 -0.2562 -0.5706
    1MPD1    C314036   2.441   2.695  16.925  0.4570  0.2262 -0.3638
    1MPD1    C414037   2.399   2.814  16.867 -0.0107  0.5789 -0.3456
    1MPD1    C514038   2.295   2.881  16.918 -0.3186 -0.4502 -0.0668
    1MPD1     H14039   2.414   2.563  17.087  3.0271 -0.0504 -1.8967
    1MPD1    H114040   2.437   2.843  16.769 -1.9727  1.8001 -0.7299
    1MPD1    H214041   2.156   2.900  17.073  1.5003  0.3702  0.6822
    1MPD1    H314042   2.257   2.959  16.853  0.4038  0.1976  0.2880
    1MPD1     N14043   2.524   2.616  16.849 -0.1782  0.1591 -0.4050
    1MPD1    H514044   2.548   2.650  16.756 -1.8449 -0.1868 -0.9610
    1MPD1    N114045   2.227   2.691  17.215 -0.4749  0.3323 -0.1577
    1MPD1    H614046   2.188   2.765  17.274  2.2277  1.7082 -0.1062
    1MPD1    H714047   2.279   2.621  17.267 -0.5085 -1.0245 -1.9552
    2MPD1     C14048   3.186   1.747  16.833  0.1546  0.2588  0.0683
    2MPD1    C114049   3.177   1.783  16.699 -0.9014 -0.0454  0.2699
    2MPD1    C214050   3.119   1.908  16.674  0.5071  0.0987 -0.1958
    2MPD1    C314051   3.033   1.972  16.767  0.2293 -0.5595 -0.1904
    2MPD1    C414052   3.036   1.916  16.894  0.2484 -0.0610  0.3383
    2MPD1    C514053   3.113   1.808  16.922  0.0667 -0.0277 -0.3611
    2MPD1     H14054   3.113   1.924  16.567 -1.0501 -2.2776 -0.4597
    2MPD1    H114055   2.975   1.951  16.977 -0.5747 -0.1467 -0.2311
    2MPD1    H214056   3.257   1.671  16.862  1.1166  0.7152 -1.0806
    2MPD1    H314057   3.111   1.766  17.022 -1.7716  1.5571  0.2768
    2MPD1     N14058   2.967   2.096  16.732 -0.1078  0.0833 -0.3281
    2MPD1    H514059   2.984   2.136  16.640 -0.1809  2.2195  0.5657
    2MPD1    N114060   3.270   1.728  16.604  0.4878 -0.0767 -0.5180
    2MPD1    H614061   3.227   1.731  16.512 -1.3432  0.7163  0.3649
    2MPD1    H714062   3.280   1.628  16.620  0.6548 -0.1890 -1.3361
    3TMC3    C114063   2.841   2.290  16.757  0.2966  0.4247 -0.3058
    3TMC3    C214064   2.794   2.280  16.628 -0.2319  0.3281  0.3840
    3TMC3    C314065   2.697   2.360  16.579  0.1815  0.2733  0.4103
    3TMC3    C414066   2.785   2.377  16.847 -0.2851  0.0987  0.1501
    3TMC3    C514067   2.687   2.460  16.794  0.3318 -0.4827  0.0402
    3TMC3    C614068   2.643   2.458  16.666 -0.2545  0.1771  0.2081
    3TMC3     C14069   2.910   2.182  16.820 -0.8207 -0.5913  0.4842
    3TMC3     O14070   2.900   2.167  16.940  0.2301 -0.3346  0.3535
    3TMC3     H14071   2.822   2.202  16.558 -2.7745  0.7125 -1.0531
    3TMC3    H114072   2.794   2.361  16.954 -0.2202  1.6503  0.3793
    3TMC3    H214073   2.554   2.514  16.638 -0.1978 -0.0352 -0.3843
    3TMC3    C714074   2.599   2.515  16.895  0.0355 -0.5686  0.4067
    3TMC3    C814075   2.678   2.387  16.439 -0.3578  0.3636 -0.8790
    3TMC3    O114076   2.607   2.474  17.010 -0.4553 -0.6385 -0.1854
    3TMC3    O214077   2.567   2.429  16.407  0.2907 -0.1458  0.4538
    4MPD1     C14078   2.886   2.508  15.992  0.2374  0.5017  0.4808
    4MPD1    C114079   2.982   2.446  16.068 -0.3504 -0.0896 -0.3888
    4MPD1    C214080   2.952   2.400  16.191 -0.8831  0.0508 -0.5096
    4MPD1    C314081   2.821   2.389  16.237  0.3737  0.2144  0.1826
    4MPD1    C414082   2.725   2.434  16.153 -0.2049 -0.4090 -0.0103
    4MPD1    C514083   2.755   2.499  16.035  0.4081  0.3208 -0.5076
    4MPD1     H14084   3.018   2.363  16.269 -0.6829 -2.6763 -1.9832
    4MPD1    H114085   2.622   2.438  16.187 -0.0514  2.0997  0.1771
    4MPD1    H214086   2.915   2.563  15.904 -0.5690  0.2737  0.0765
    4MPD1    H314087   2.681   2.552  15.976  0.3746 -3.2609 -3.7145
    4MPD1     N14088   2.790   2.369  16.371  0.2014  0.2568 -0.4791
    4MPD1    H514089   2.870   2.332  16.422 -1.8556  0.2270  2.7905
    4MPD1    N114090   3.117   2.462  16.029  0.5583 -0.5356  0.0871
    4MPD1    H614091   3.178   2.408  16.089  2.3881  0.9184 -0.4884
    4MPD1    H714092   3.141   2.454  15.930 -2.3714  0.4531 -0.7348
    1TCq1    O114093   3.706   2.220  12.307 -0.4568 -0.5733 -0.6520
    1TCq1    C114094   3.733   2.337  12.369  0.2073  0.4701 -0.5776
    1TCq1    O214095   3.677   2.366  12.475  0.3646  0.4337  0.9492
    1TCq1    C214096   3.745   2.433  12.260  0.4673 -0.1573 -0.4181
    1TCq1    C314097   3.661   2.539  12.271 -0.1626 -0.2289 -0.5111
    1TCq1    C414098   3.645   2.625  12.167  0.0426 -0.2061 -0.9851
    1TCq1    C514099   3.698   2.584  12.042  0.1322 -0.2812 -0.1218
    1TCq1    C614100   3.778   2.478  12.036 -0.1388  0.2442  0.4287
    1TCq1    C714101   3.812   2.406  12.148  0.1664 -0.1401 -1.2906
    1TCq1    C814102   3.861   2.471  11.917  0.2698  0.1790  0.6998
    1TCq1    O414103   3.881   2.578  11.860  0.4944  0.3644  0.3310
    1TCq1    C914104   3.526   2.709  12.155  0.1758 -0.5243 -0.5352
    1TCq1    O514105   3.440   2.689  12.242  0.0836 -0.1939 -0.1896
    1TCq1    O614106   3.510   2.763  12.046 -0.0373  0.1935  0.1147
    1TCq1    H114107   3.764   2.227  12.229 -0.4249  1.5046 -0.4265
    1TCq1    H214108   3.601   2.544  12.361  1.0494  1.5968  0.2015
    1TCq1    H314109   3.683   2.635  11.947  0.1997  1.1663  0.6365
    1TCq1    H414110   3.891   2.333  12.165  0.1849  0.1496 -0.1055
    2MPD1     C14111   4.223   2.251  11.640  0.7572  0.1773 -0.2009
    2MPD1    C114112   4.133   2.152  11.672  0.2190  0.2990 -0.1023
    2MPD1    C214113   4.032   2.188  11.756 -0.2553 -0.1144 -0.5750
    2MPD1    C314114   4.018   2.317  11.803  0.4435 -0.1717  0.4575
    2MPD1    C414115   4.101   2.417  11.757  1.0894  0.4272 -0.2536
    2MPD1    C514116   4.207   2.380  11.680 -0.3524  0.5294 -0.0739
    2MPD1     H14117   3.961   2.110  11.781  1.3461 -1.3952  0.0649
    2MPD1    H114118   4.098   2.522  11.782  4.0057 -0.2753  3.0406
    2MPD1    H214119   4.314   2.226  11.588  0.6528 -0.8147  0.0905
    2MPD1    H314120   4.282   2.451  11.646 -0.0873 -0.8298 -2.2992
    2MPD1     N14121   3.915   2.347  11.898  0.1541  0.0641 -0.6130
    2MPD1    H514122   3.861   2.271  11.937 -1.0883  0.9691 -0.5709
    2MPD1    N114123   4.158   2.024  11.625 -0.5382  0.1922 -0.2937
    2MPD1    H614124   4.076   1.967  11.604 -1.2817  1.8136 -1.8746
    2MPD1    H714125   4.212   2.021  11.538 -2.2504  0.4988 -1.3818
    1TMC1    C114126   1.156   0.318   1.349 -0.2589  0.1140 -0.1040
    1TMC1    C214127   1.282   0.296   1.294  0.5910 -0.1118  0.0676
    1TMC1    C314128   1.282   0.286   1.160  0.5353 -0.4268  0.9175
    1TMC1    C414129   1.043   0.314   1.270 -0.2727 -0.2414 -0.3505
    1TMC1    C514130   1.053   0.287   1.137 -0.1024  0.4593  0.3365
    1TMC1    C614131   1.174   0.287   1.077 -0.7742  0.0459  0.5250
    1TMC1     C14132   1.149   0.352   1.483  0.6273 -0.3044 -0.7439
    1TMC1     O14133   1.056   0.421   1.519 -0.0896  0.2422  0.4243
    1TMC1     H14134   1.376   0.296   1.349  1.1250 -1.2912 -0.8425
    1TMC1    H114135   0.952   0.325   1.329 -0.1845  2.2889 -0.6706
    1TMC1    H214136   1.191   0.285   0.970  1.0247  0.2595  0.8026
    1TMC1    C714137   0.936   0.309   1.054  0.0041  0.4345  0.0250
    1TMC1    C814138   1.412   0.325   1.106  0.2115 -0.1146 -0.5571
    1TMC1    O114139   0.944   0.345   0.937  0.6154 -0.2481  0.4619
    1TMC1    O214140   1.485   0.407   1.159  0.7745 -0.3022 -0.5633
    1TMC1    O314141   0.828   0.244   1.104  0.2451 -0.0488 -0.6523
    1TMC1    H314142   0.828   0.249   1.202 -0.2205  1.5723 -0.7243
    1TMC1    O514143   1.447   0.218   1.024  0.1942 -0.3644  0.3791
    1TMC1    H514144   1.374   0.159   0.995  0.5844 -1.2990  1.2900
    2MPD1     C14145   1.331   0.376   1.968  0.1008  0.5126  0.0425
    2MPD1    C114146   1.425   0.306   1.889  0.4141 -0.1165 -0.3378
    2MPD1    C214147   1.395   0.284   1.757 -0.2723 -0.6100 -0.7004
    2MPD1    C314148   1.285   0.340   1.696  0.3936  0.2944 -0.2968
    2MPD1    C414149   1.207   0.419   1.775  0.2905  0.1016 -1.1136
    2MPD1    C514150   1.233   0.437   1.906 -0.1021 -0.4940  0.6907
    2MPD1     H14151   1.461   0.213   1.708  0.0741  0.5258 -1.8739
    2MPD1    H114152   1.132   0.482   1.729 -0.3844  0.2032  0.1319
    2MPD1    H214153   1.329   0.382   2.076  1.3101 -0.2802  0.1111
    2MPD1    H314154   1.173   0.508   1.963 -2.4418 -3.3109  1.7236
    2MPD1     N14155   1.261   0.314   1.556  0.1783  0.2971  0.4091
    2MPD1    H514156   1.330   0.250   1.517 -0.1420  0.2291 -0.0454
    2MPD1    N114157   1.514   0.219   1.948  0.1741  0.6171  0.1852
    2MPD1    H614158   1.541   0.260   2.037  0.1798  0.1972  0.3766
    2MPD1    H714159   1.595   0.201   1.888 -0.3772 -2.8849  0.5413
    1MPD1     C14160   0.041   2.687  12.022 -0.0993  0.2050  1.1241
    1MPD1    C114161   0.148   2.755  11.971  0.1118 -0.0812 -0.1093
    1MPD1    C214162   0.261   2.762  12.053  0.2317  0.1779  0.1406
    1MPD1    C314163   0.269   2.700  12.178  0.5447 -0.5647 -0.3969
    1MPD1    C414164   0.160   2.632  12.227 -0.8954  0.2702 -0.3311
    1MPD1    C514165   0.043   2.640  12.147 -0.4908  0.0187  0.3630
    1MPD1     H14166   0.352   2.815  12.029 -0.8314  1.1664 -1.7520
    1MPD1    H114167   0.161   2.562  12.309  0.3875  1.2571  0.5045
    1MPD1    H214168   4.687   2.675  11.963 -0.1376  0.9948  1.0217
    1MPD1    H314169   4.697   2.577  12.177 -1.4919  2.2363  2.3116
    1MPD1     N14170   0.387   2.734  12.259  0.1831 -0.2564  0.5975
    1MPD1    H514171   0.461   2.791  12.220 -0.4059 -0.7305 -1.2200
    1MPD1    N114172   0.152   2.797  11.836  0.0916  0.8787  0.5122
    1MPD1    H614173   0.210   2.878  11.820  1.5649 -0.5116 -1.2499
    1MPD1    H714174   0.059   2.816  11.799  0.2501  0.3433 -0.1621
    2MPD1     C14175   2.193   1.918  11.272  0.5958  0.3715 -0.8551
    2MPD1    C114176   2.166   1.844  11.157 -0.3542  0.0498 -0.6143
    2MPD1    C214177   2.033   1.828  11.119  0.5941 -0.5674 -0.4612
    2MPD1    C314178   1.940   1.912  11.181  0.0130 -0.5068  0.2379
    2MPD1    C414179   1.967   1.985  11.294  0.2890 -0.4815 -0.1135
    2MPD1    C514180   2.094   1.976  11.344  0.2477 -0.2972  0.2595
    2MPD1     H14181   2.009   1.760  11.039 -1.1623 -1.3637  0.7505
    2MPD1    H114182   1.889   2.046  11.338  0.0036  0.4738 -1.9464
    2MPD1    H214183   2.292   1.927  11.316 -0.0391  1.1719  0.4099
    2MPD1    H314184   2.106   2.022  11.441 -0.2149  1.0459 -0.3256
    2MPD1     N14185   1.805   1.922  11.138 -0.4798  0.2653 -0.3429
    2MPD1    H514186   1.740   1.981  11.188 -0.7986 -0.4294  0.0572
    2MPD1    N114187   2.274   1.773  11.096 -0.2471 -0.3434 -0.0061
    2MPD1    H614188   2.364   1.820  11.093 -1.4570  2.0271  0.5036
    2MPD1    H714189   2.253   1.757  10.997 -0.0470 -0.7340  0.0178
    3MPD1     C14190   1.501   1.998  10.248 -0.7002 -0.7576  0.3032
    3MPD1    C114191   1.472   1.881  10.315 -0.3206 -0.0762 -0.0365
    3MPD1    C214192   1.462   1.880  10.455  1.0370 -0.1594  0.0298
    3MPD1    C314193   1.459   1.995  10.525  0.2894  0.4375  0.1587
    3MPD1    C414194   1.486   2.119  10.454 -0.1286  0.6565 -0.3915
    3MPD1    C514195   1.496   2.115  10.315 -0.5873 -0.1515  0.5888
    3MPD1     H14196   1.459   1.781  10.501 -3.3717  0.6972  1.6066
    3MPD1    H114197   1.487   2.212  10.511  0.7063  0.5677 -0.2661
    3MPD1    H214198   1.546   1.997  10.149 -2.1185  2.5200 -0.3852
    3MPD1    H314199   1.528   2.211  10.277  1.2777 -0.4442  1.4297
    3MPD1     N14200   1.446   1.986  10.661 -0.1234 -0.7176  0.8106
    3MPD1    H514201   1.425   1.892  10.695  0.0894 -1.8358 -2.1434
    3MPD1    N114202   1.504   1.763  10.249  0.1438  0.5669  0.3773
    3MPD1    H614203   1.476   1.772  10.151 -1.1621 -1.2951  0.5778
    3MPD1    H714204   1.446   1.695  10.298  0.1611  1.1442  1.1941
    4MPD2     C14205   1.038   2.903  12.149 -0.1987 -0.1861 -0.2840
    4MPD2    C114206   1.020   2.787  12.223  0.5744  0.0009 -1.0950
    4MPD2    C214207   1.083   2.667  12.189 -0.2495  0.1679 -0.1323
    4MPD2    C314208   1.176   2.658  12.089 -0.3488 -0.1316 -0.4630
    4MPD2    C414209   1.196   2.770  12.010  0.5123  0.3622  0.6065
    4MPD2    C514210   1.133   2.891  12.042  0.6615  0.1602  0.3474
    4MPD2     H14211   1.053   2.576  12.240  0.9791 -1.4015 -2.2161
    4MPD2    H114212   1.256   2.779  11.920 -0.7564  0.4491 -0.2224
    4MPD2    H214213   0.990   2.999  12.167  0.6688  0.2267 -0.1862
    4MPD2    H314214   1.151   2.978  11.980  0.5610  0.6168  0.9633
    4MPD2     N14215   1.236   2.539  12.049 -0.1566  0.2065  0.0339
    4MPD2    H514216   1.304   2.538  11.973 -1.7689 -0.4943 -1.4111
    4MPD2    N114217   0.931   2.788  12.331 -0.0003 -0.9691  0.0829
    4MPD2    H714218   0.924   2.706  12.391  1.2597  0.5867  2.3198
    5TMC3    C114219   0.732   2.811  12.440 -0.2237  0.8998  0.3142
    5TMC3    C214220   0.603   2.802  12.395  0.1510 -0.4844 -0.0141
    5TMC3    C314221   0.539   2.691  12.426 -1.1349  0.1039 -1.0529
    5TMC3    C414222   0.791   2.703  12.512  0.2352  0.3224  0.3692
    5TMC3    C514223   0.723   2.587  12.530  0.2690  0.4245 -0.6675
    5TMC3    C614224   0.598   2.583  12.485 -0.2692  0.1631 -0.6481
    5TMC3     C14225   0.820   2.870  12.343  0.4562  0.2482  0.2702
    5TMC3     O14226   0.770   2.959  12.274  0.1389 -0.0175  0.9698
    5TMC3     H14227   0.568   2.885  12.334  0.3591 -0.3415  0.0631
    5TMC3    H114228   0.889   2.714  12.556  0.7999  0.9891 -1.0424
    5TMC3    H214229   0.548   2.488  12.499 -0.7436  0.5014 -0.0624
    5TMC3    C714230   0.806   2.478  12.494 -0.1572 -0.7616  0.6390
    5TMC3    C814231   0.403   2.685  12.384  0.4751  0.3441 -0.1387
    5TMC3    O114232   0.918   2.513  12.457  0.0261 -0.1932  0.0795
    5TMC3    O214233   0.326   2.608  12.445  0.1587  0.2012  0.2359
    6TMC3    C114234   1.614   1.877  11.016  0.3706 -0.2948 -0.0374
    6TMC3    C214235   1.577   1.927  10.888  0.1936  0.4374 -0.3657
    6TMC3    C314236   1.480   2.021  10.886 -0.3341  0.8707  0.1371
    6TMC3    C414237   1.545   1.926  11.124 -0.1685 -0.0998 -0.0466
    6TMC3    C514238   1.431   1.999  11.110 -0.9552 -0.1834  0.0055
    6TMC3    C614239   1.402   2.056  10.988 -0.2353 -0.8083 -0.3117
    6TMC3     C14240   1.763   1.866  11.020  0.8601 -0.1254 -0.7294
    6TMC3     O14241   1.816   1.826  10.919  0.4049 -0.1070 -0.0529
    6TMC3     H14242   1.646   1.922  10.804 -0.6963 -1.3651 -0.9901
    6TMC3    H114243   1.574   1.884  11.220  0.4476  1.8103  0.5901
    6TMC3    H214244   1.318   2.120  10.963  1.9515  1.3878 -2.0063
    6TMC3    C714245   1.368   2.043  11.235 -1.0811  0.1397  0.4724
    6TMC3    C814246   1.449   2.084  10.758  0.0889 -0.0665 -0.5568
    6TMC3    O114247   1.435   2.016  11.336 -0.3046  0.1864  0.1795
    6TMC3    O214248   1.415   2.203  10.747  0.2532 -0.0332 -0.3616
    7MPD2     C14249   0.901   2.001  12.336 -0.0754 -0.1294  0.0516
    7MPD2    C114250   0.984   2.110  12.333 -0.0479  0.0273 -0.0840
    7MPD2    C214251   0.934   2.230  12.391 -0.4419 -0.3062 -0.2247
    7MPD2    C314252   0.808   2.236  12.453 -0.9365 -1.3124 -0.9079
    7MPD2    C414253   0.735   2.118  12.461  0.1069  0.5354 -0.6184
    7MPD2    C514254   0.794   2.002  12.415  0.5229  0.2823 -0.5728
    7MPD2     H14255   0.988   2.322  12.373 -3.6070  2.0468  2.3626
    7MPD2    H114256   0.645   2.116  12.522  1.0204 -1.8106  0.6611
    7MPD2    H214257   0.936   1.910  12.289  1.2817  0.7723 -0.6871
    7MPD2    H314258   0.745   1.905  12.420  1.2202 -0.0149  0.4999
    7MPD2     N14259   0.752   2.354  12.498  0.5811 -0.3589  0.2671
    7MPD2    H514260   0.653   2.344  12.520 -0.2284  0.8694 -2.8061
    7MPD2    N114261   1.109   2.118  12.267  0.7311 -0.2840  0.1667
    7MPD2    H714262   1.149   2.211  12.277 -1.1545  0.4674  0.7076
    8TMC3    C114263   1.276   2.074  12.109  0.2830 -0.8154  0.4021
    8TMC3    C214264   1.268   2.049  11.977 -0.2678 -0.3714 -1.0910
    8TMC3    C314265   1.246   2.159  11.896 -0.6167 -0.5412 -0.2247
    8TMC3    C414266   1.309   2.203  12.145 -0.0215  0.4671 -0.2486
    8TMC3    C514267   1.310   2.310  12.060 -0.6001 -0.6391  0.6830
    8TMC3    C614268   1.273   2.293  11.931 -0.0795 -0.2565 -0.5534
    8TMC3     C14269   1.163   2.026  12.186  1.0862  0.1958  0.5965
    8TMC3     O14270   1.135   1.907  12.179  0.3693  0.3594  0.2402
    8TMC3     H14271   1.243   1.948  11.947 -0.5417 -0.5623 -0.2262
    8TMC3    H114272   1.343   2.218  12.246  0.0865  1.7989 -0.4767
    8TMC3    H214273   1.266   2.377  11.863 -1.6795  0.6509  0.7553
    8TMC3    C714274   1.245   2.423  12.126 -0.6100 -0.5323 -0.6129
    8TMC3    C814275   1.248   2.142  11.754 -0.2681  0.0221 -0.3576
    8TMC3    O114276   1.207   2.408  12.244  0.8025  0.7407  0.3205
    8TMC3    O214277   1.308   2.040  11.718 -0.1841  0.4994 -0.0277
    9MPD2     C14278   1.011   2.290  11.516  0.6237 -0.1831  0.3304
    9MPD2    C114279   1.125   2.221  11.553 -0.5109 -0.5529 -0.0574
    9MPD2    C214280   1.209   2.161  11.460 -0.7398  0.1025 -0.0269
    9MPD2    C314281   1.177   2.175  11.328  0.0899 -0.4318  0.6081
    9MPD2    C414282   1.050   2.231  11.290  0.4825 -0.0337  0.2340
    9MPD2    C514283   0.980   2.305  11.381  0.6862  0.4895 -1.4494
    9MPD2     H14284   1.299   2.112  11.496 -1.4547 -0.1965  1.3599
    9MPD2    H114285   1.027   2.236  11.185 -1.5461  2.2671  0.7948
    9MPD2    H214286   0.964   2.356  11.588 -0.4496 -1.5852  0.9058
    9MPD2    H314287   0.887   2.350  11.349 -0.0245  0.0115 -0.0415
    9MPD2     N14288   1.251   2.114  11.224 -0.3941  0.2957  0.1400
    9MPD2    H514289   1.214   2.113  11.130  0.3742  1.1541 -0.1732
    9MPD2    N114290   1.158   2.227  11.691 -0.3260 -0.0488  0.2830
    9MPD2    H714291   1.101   2.286  11.751  0.6572  0.2911  0.8921
    1MPD1     C14292   0.317   0.904  16.854 -0.4321 -0.1254 -0.4747
    1MPD1    C114293   0.448   0.864  16.827  0.1906  0.2752  0.1726
    1MPD1    C214294   0.479   0.841  16.692 -0.1670  0.5624  0.2202
    1MPD1    C314295   0.389   0.856  16.591  0.0121  0.3613 -0.8004
    1MPD1    C414296   0.265   0.896  16.623 -0.1117  0.2575  0.4437
    1MPD1    C514297   0.225   0.914  16.754  0.1095 -0.4409  0.7304
    1MPD1     H14298   0.586   0.827  16.679 -0.2505  0.2559 -0.1400
    1MPD1    H114299   0.203   0.917  16.537  0.8329  2.4907  0.2878
    1MPD1    H214300   0.283   0.924  16.955  0.8893  1.6399 -0.3581
    1MPD1    H314301   0.121   0.932  16.778 -0.2954  0.1793 -1.4967
    1MPD1     N14302   0.439   0.843  16.459  0.1033  0.4745 -0.3220
    1MPD1    H514303   0.536   0.812  16.458 -0.3292 -0.9562  1.1871
    1MPD1    N114304   0.551   0.872  16.925  0.3150 -0.4555 -0.3938
    1MPD1    H614305   0.525   0.833  17.016  0.7939  0.4636  0.1480
    1MPD1    H714306   0.641   0.830  16.905 -0.8876 -2.5453 -1.3702
    2TMC2    C114307   0.429   0.833  15.995 -0.9231  0.2937 -0.8124
    2TMC2    C214308   0.474   0.702  15.997 -0.1307 -0.3086 -0.1113
    2TMC2    C314309   0.502   0.640  16.115 -0.0407 -0.2757  0.6256
    2TMC2    C414310   0.408   0.904  16.108 -0.3830  0.5161  0.4506
    2TMC2    C514311   0.440   0.839  16.222 -0.0152  0.1029 -0.1617
    2TMC2    C614312   0.478   0.707  16.229  0.0878  0.4431  0.2809
    2TMC2     C14313   0.406   0.899  15.865 -0.5499 -0.8212 -0.6564
    2TMC2     O14314   0.420   0.834  15.765 -0.9298  0.6015 -0.0185
    2TMC2     H14315   0.517   0.658  15.907 -3.1312 -2.7107 -0.3832
    2TMC2    H114316   0.371   1.006  16.106 -1.2729  0.1621 -0.9728
    2TMC2    H214317   0.509   0.657  16.319  0.7460  0.2807 -0.0379
    2TMC2    C714318   0.375   0.879  16.344 -0.4057 -0.2850  0.5370
    2TMC2    C814319   0.547   0.501  16.120  0.8328  0.5903  0.1744
    2TMC2    O114320   0.277   0.948  16.325  0.3518  0.2485 -0.0629
    2TMC2    O214321   0.514   0.420  16.030 -0.1389  0.1724  0.1160
    2TMC2    O514322   0.607   0.460  16.229  0.2178 -0.3874  0.7951
    2TMC2    H514323   0.625   0.533  16.292 -0.7865  0.2271  0.3504
    3MPD1     C14324   0.226   1.262  15.552 -0.0737 -0.2509 -0.5676
    3MPD1    C114325   0.228   1.314  15.680  0.0265 -0.1094 -0.2172
    3MPD1    C214326   0.271   1.240  15.786 -0.4326  0.1262  0.7370
    3MPD1    C314327   0.311   1.106  15.768  0.4392 -0.4042  0.1704
    3MPD1    C414328   0.315   1.064  15.635  0.8305  0.3019 -0.2126
    3MPD1    C514329   0.271   1.134  15.536 -0.8479 -0.4143  0.6253
    3MPD1     H14330   0.278   1.271  15.890  1.5528 -1.2811  1.0200
    3MPD1    H114331   0.350   0.966  15.604 -1.1461  0.2701 -2.3604
    3MPD1    H214332   0.200   1.323  15.467  0.1316 -0.1284 -0.5430
    3MPD1    H314333   0.281   1.093  15.437 -0.6604  2.2989 -0.4829
    3MPD1     N14334   0.363   1.037  15.872 -1.2108 -0.0940  0.0772
    3MPD1    H514335   0.356   1.079  15.964  0.5497  2.3662 -0.9086
    3MPD1    N114336   0.160   1.437  15.691  0.4131  0.2566 -0.0437
    3MPD1    H614337   0.192   1.497  15.766  0.6463  1.1085 -0.8198
    3MPD1    H714338   0.170   1.490  15.604 -1.5097 -0.7984 -0.9121
    1TMC1    C114339   3.245   0.155  12.753  0.1855 -0.3266  0.5964
    1TMC1    C214340   3.195   0.068  12.855  0.0174  0.0578 -0.1316
    1TMC1    C314341   3.060   0.063  12.856 -0.2807 -0.4273 -0.7321
    1TMC1    C414342   3.166   0.220  12.662 -0.1954  0.2894  1.0108
    1TMC1    C514343   3.029   0.209  12.674 -0.3959  0.3976  0.0263
    1TMC1    C614344   2.980   0.135  12.777  0.2465 -0.3811 -0.1577
    1TMC1     C14345   3.391   0.172  12.748  0.2809 -0.1973  0.2559
    1TMC1     O14346   3.436   0.209  12.642 -0.9283  0.3094 -0.1168
    1TMC1     H14347   3.260   0.005  12.915 -1.3504  0.8656  2.2105
    1TMC1    H114348   3.223   0.286  12.597 -0.3969  1.2989  1.8419
    1TMC1    H214349   2.873   0.128  12.798  0.6560  0.6865  2.2796
    1TMC1    C714350   2.947   0.275  12.576 -0.0755  0.1668  0.5382
    1TMC1    C814351   2.993   4.731  12.963 -0.7327  0.0905  0.3594
    1TMC1    O114352   2.826   0.295  12.596  0.3448 -0.2122 -0.6753
    1TMC1    O214353   2.891   4.670  12.934 -0.0149  0.0237 -0.2343
    1TMC1    O314354   3.002   0.269  12.456  0.4587  0.3405  0.2243
    1TMC1    H314355   3.087   0.220  12.449  1.2682  1.9246 -1.0350
    1TMC1    O514356   3.088   4.688  13.052 -0.2300 -0.1802  0.8592
    1TMC1    H514357   3.165   0.013  13.056  2.0598 -2.6980 -3.1225
    2MPD2     C14358   3.670   0.090  12.764 -0.5049 -0.0613  0.1781
    2MPD2    C114359   3.600   0.132  12.871 -0.5367 -0.6986  0.1789
    2MPD2    C214360   3.663   0.135  12.994  0.5441  0.7240 -0.3843
    2MPD2    C314361   3.797   0.117  13.005  0.9013  0.5086 -0.1713
    2MPD2    C414362   3.868   0.081  12.893 -0.5814  0.1945  0.1218
    2MPD2    C514363   3.805   0.063  12.772 -0.3920 -0.1026  0.0965
    2MPD2     H14364   3.610   0.177  13.079 -0.6497 -3.4978  0.9724
    2MPD2    H114365   3.976   0.065  12.898 -0.3630  1.6074  0.0470
    2MPD2    H214366   3.626   0.071  12.667 -0.8008  0.9588  0.1102
    2MPD2    H314367   3.860   0.015  12.692  1.6591  1.4613  0.5798
    2MPD2     N14368   3.854   0.139  13.135  1.0876 -0.2637 -0.0040
    2MPD2    H514369   3.789   0.170  13.207  2.4124  1.2862  0.5054
    2MPD2    N114370   3.457   0.154  12.866  0.0015  0.7889  0.2162
    2MPD2    H714371   3.407   0.149  12.954 -0.7188  0.5015 -0.2160
    3TCq1    O114372   3.903   0.126  13.707 -0.4339 -0.4865 -0.1644
    3TCq1    C114373   3.837   0.200  13.616 -0.2697  0.3882 -0.2426
    3TCq1    O214374   3.772   0.295  13.660  0.4936  0.7669 -0.1732
    3TCq1    C214375   3.939   0.199  13.517  0.3763  1.0837  0.1848
    3TCq1    C314376   4.059   0.242  13.554 -0.1949  0.0680 -0.6471
    3TCq1    C414377   4.167   0.227  13.468 -0.3661  0.4345  0.1406
    3TCq1    C514378   4.138   0.177  13.346 -0.1753  0.3421  0.7122
    3TCq1    C614379   4.009   0.149  13.310 -0.2050 -0.4942  0.2995
    3TCq1    C714380   3.906   0.160  13.393 -0.0926 -0.0840 -0.4075
    3TCq1    C814381   3.983   0.114  13.170 -0.3429  0.1930 -0.1981
    3TCq1    O414382   4.077   0.076  13.102 -0.3152  0.1809  0.3523
    3TCq1    C914383   4.301   0.247  13.518  0.3343  0.7051  0.3260
    3TCq1    O514384   4.317   0.272  13.645 -0.0097 -0.0692  0.2454
    3TCq1    O614385   4.391   0.232  13.433  0.2503 -0.3380  0.4187
    3TCq1    H114386   3.945   0.046  13.669  1.0886  0.4140 -0.3611
    3TCq1    H214387   4.080   0.282  13.653  0.9247 -0.9296 -0.4727
    3TCq1    H314388   4.222   0.159  13.279 -1.3332 -0.7116 -0.4533
    3TCq1    H414389   3.803   0.133  13.373 -0.5345  1.9340 -0.8820
    1MPD2     C14390   3.091   1.260  14.855 -0.3915 -0.1647 -0.1002
    1MPD2    C114391   2.956   1.294  14.825  0.5215 -1.1571  0.3216
    1MPD2    C214392   2.860   1.254  14.912 -0.0346 -0.3263  0.0463
    1MPD2    C314393   2.892   1.165  15.014  0.0212 -0.0900 -0.1082
    1MPD2    C414394   3.025   1.129  15.034  0.5490 -0.5182 -0.6402
    1MPD2    C514395   3.121   1.180  14.953 -0.0630  0.0340 -0.2473
    1MPD2     H14396   2.758   1.290  14.911  0.5756  1.3423 -1.3029
    1MPD2    H114397   3.054   1.061  15.113 -0.5481 -0.1407  0.0923
    1MPD2    H214398   3.161   1.307  14.786  1.4599 -1.7868  0.6768
    1MPD2    H314399   3.228   1.162  14.961 -0.2109 -0.0342  1.6119
    1MPD2     N14400   2.790   1.111  15.093  0.2709 -0.0451  0.3755
    1MPD2    H514401   2.815   1.051  15.171 -0.4568 -1.0543 -0.1698
    1MPD2    N114402   2.932   1.398  14.727  0.5965 -0.0898 -0.3934
    1MPD2    H714403   3.012   1.448  14.690  1.6609 -0.2437  1.6895
    2TMC3    C114404   2.802   1.579  14.643  1.1147  0.3178 -0.0252
    2TMC3    C214405   2.704   1.632  14.716 -0.3932  0.6421  0.2132
    2TMC3    C314406   2.615   1.702  14.649  0.2667 -0.4255  0.5238
    2TMC3    C414407   2.795   1.586  14.504  0.8882  0.3941 -0.3498
    2TMC3    C514408   2.705   1.664  14.440 -0.2621  0.1745  0.3541
    2TMC3    C614409   2.608   1.727  14.515  0.5919  0.9276  0.2795
    2TMC3     C14410   2.807   1.442  14.685 -0.4693  0.3411  0.1188
    2TMC3     O14411   2.701   1.400  14.720 -0.5527  0.7176 -0.6186
    2TMC3     H14412   2.695   1.623  14.824  0.0241  1.9323  0.3566
    2TMC3    H114413   2.864   1.524  14.447  2.5157  2.6397 -0.8384
    2TMC3    H214414   2.529   1.789  14.474  0.9794  0.7374 -0.7608
    2TMC3    C714415   2.676   1.649  14.301  0.3768  0.0302 -0.4006
    2TMC3    C814416   2.478   1.670  14.693 -0.4937 -0.4410 -0.4546
    2TMC3    O114417   2.708   1.544  14.250 -0.1364 -0.2928 -0.1781
    2TMC3    O214418   2.380   1.738  14.658  0.0779 -0.6469 -0.4484
    3TCq1    O114419   2.607   2.551  13.407 -0.5871 -1.2280  0.5589
    3TCq1    C114420   2.556   2.430  13.421  0.0183 -0.4105  0.7387
    3TCq1    O214421   2.475   2.378  13.341 -0.4629 -0.8931 -0.1629
    3TCq1    C214422   2.589   2.386  13.554 -0.2685  0.2959 -0.1577
    3TCq1    C314423   2.621   2.472  13.655 -0.1942  0.0396  0.3309
    3TCq1    C414424   2.658   2.416  13.773  0.4361 -0.6253 -0.1409
    3TCq1    C514425   2.652   2.283  13.794 -0.5551  0.3971 -0.6983
    3TCq1    C614426   2.619   2.202  13.691 -0.4078 -0.5478  0.1462
    3TCq1    C714427   2.583   2.254  13.570  0.3720 -0.0166 -0.4097
    3TCq1    C814428   2.587   2.064  13.714  0.5713  0.2693 -0.5254
    3TCq1    O414429   2.565   1.985  13.621  0.1995  0.1226 -0.4245
    3TCq1    C914430   2.697   2.497  13.887 -0.5322 -0.9976 -0.5852
    3TCq1    O514431   2.709   2.627  13.865 -0.1142  0.1578 -0.1110
    3TCq1    O614432   2.694   2.446  14.000  0.3017 -0.1663 -0.1558
    3TCq1    H114433   2.704   2.545  13.423 -0.2549  0.1113 -0.8739
    3TCq1    H214434   2.645   2.576  13.635  1.5801 -0.2077  1.1886
    3TCq1    H314435   2.696   2.248  13.887  1.0327  0.6192 -1.3735
    3TCq1    H414436   2.567   2.193  13.482  1.1667  0.8647 -1.1665
    4MPD2     C14437   2.501   1.806  13.850  1.2789 -0.7210 -0.2540
    4MPD2    C114438   2.559   1.917  13.913  0.5057  0.3587 -0.3924
    4MPD2    C214439   2.597   1.899  14.045 -0.1223  0.3933 -0.1751
    4MPD2    C314440   2.589   1.780  14.111 -0.1502 -0.1089 -0.1003
    4MPD2    C414441   2.531   1.675  14.046  0.8331  0.4994 -1.2781
    4MPD2    C514442   2.480   1.689  13.920 -0.1200  0.1351 -0.7536
    4MPD2     H14443   2.643   1.980  14.100  1.8492 -0.4392 -0.5770
    4MPD2    H114444   2.512   1.578  14.091 -1.5698  2.1723  1.2756
    4MPD2    H214445   2.493   1.808  13.742 -1.9532  1.3870 -0.0069
    4MPD2    H314446   2.442   1.603  13.867 -0.7136  0.6491 -1.1640
    4MPD2     N14447   2.634   1.766  14.243 -0.1352 -0.2811 -0.3953
    4MPD2    H514448   2.650   1.853  14.292  0.7911  0.2959 -1.7099
    4MPD2    N114449   2.595   2.034  13.844  0.6910 -0.1872  0.2174
    4MPD2    H714450   2.637   2.103  13.906  0.3990 -0.4903  0.7576
    5TMC2    C114451   2.328   1.024  15.152 -0.4410 -0.4532 -0.3844
    5TMC2    C214452   2.323   1.058  15.280  0.0131 -0.1271  0.1133
    5TMC2    C314453   2.442   1.076  15.344 -0.6261 -0.2225 -0.6790
    5TMC2    C414454   2.445   1.005  15.089  0.2023 -0.3436  0.0117
    5TMC2    C514455   2.564   1.020  15.152 -0.0965 -0.0967  0.2469
    5TMC2    C614456   2.561   1.058  15.280 -0.4599 -0.1010 -0.7084
    5TMC2     C14457   2.232   1.109  15.078  0.0163  0.2787  0.0166
    5TMC2     O14458   2.116   1.114  15.111  0.5295 -0.5650  0.2153
    5TMC2     H14459   2.230   1.080  15.330 -1.3877  1.6002 -3.2729
    5TMC2    H114460   2.453   0.984  14.983 -0.3116  0.7659 -0.2346
    5TMC2    H214461   2.657   1.073  15.327 -0.1083  1.7600 -2.0683
    5TMC2    C714462   2.653   1.103  15.065  0.1490  0.5616  0.1896
    5TMC2    C814463   2.429   1.105  15.484  0.6109 -0.1375 -0.6087
    5TMC2    O114464   2.588   1.158  14.975  0.1965 -0.2950 -0.1170
    5TMC2    O214465   2.322   1.137  15.531 -0.1145  0.1634 -0.8062
    5TMC2    O514466   2.553   1.132  15.534 -0.0758  0.0190 -0.0782
    5TMC2    H514467   2.554   1.151  15.631 -0.2089  3.3606 -0.7504
    6MPD2     C14468   2.229   1.551  14.832 -0.2647  0.3577  0.4745
    6MPD2    C114469   2.356   1.500  14.827  0.9163 -0.9120 -0.1983
    6MPD2    C214470   2.376   1.384  14.891 -0.0330 -0.2028 -0.4173
    6MPD2    C314471   2.276   1.312  14.945 -0.0794 -0.3556 -0.9480
    6MPD2    C414472   2.142   1.362  14.943 -0.0060 -0.6527  0.7259
    6MPD2    C514473   2.121   1.479  14.878 -0.0003 -0.6387  0.0624
    6MPD2     H14474   2.472   1.334  14.891 -0.8051 -1.6862 -1.6257
    6MPD2    H114475   2.060   1.298  14.975 -1.3732 -0.1111 -1.6858
    6MPD2    H214476   2.216   1.647  14.785  1.0152  0.8475  1.1088
    6MPD2    H314477   2.017   1.505  14.867  0.0217 -0.5729  0.0033
    6MPD2     N14478   2.314   1.191  14.999 -0.9708  0.2592  0.2684
    6MPD2    H514479   2.412   1.164  15.005 -1.4135 -1.8627 -2.0831
    6MPD2    N114480   2.471   1.557  14.771 -0.2213  0.3026  0.6753
    6MPD2    H714481   2.558   1.508  14.787  1.1311  1.9403 -1.5844
  945NH4     N114482   1.468   2.369   7.414 -0.2051  0.3479 -0.2789
  945NH4     H214483   1.419   2.452   7.454 -1.6186  0.6672 -2.6654
  945NH4     H314484   1.412   2.350   7.328  0.5921 -1.6237 -0.3637
  945NH4     H414485   1.461   2.291   7.482  0.5649 -1.6866 -2.5410
  945NH4     H514486   1.567   2.383   7.385  0.1435  0.5992  1.0334
  946SOD     NA14487   2.954   2.559   3.746  0.2094 -0.0848  0.2655
  947SOD     NA14488   4.487   0.223  13.763  0.3939 -0.0057  0.0169
  948SOD     NA14489   2.873   2.736  12.501 -0.3570  0.2161  0.4383
  949SOD     NA14490   1.093   2.403  16.602  0.5565 -0.1299  0.2124
  950SOD     NA14491   2.027   4.337   1.522  0.4614  0.3122 -0.2532
  951SOD     NA14492   1.468   0.859  10.673 -0.6896 -0.0822 -0.2054
  952SOD     NA14493   3.574   2.459  10.908  0.0515  0.0399 -0.1603
  953SOL     OW14494   3.971   4.222  13.227  0.1028  0.2198 -0.1456
  953SOL    HW114495   3.896   4.260  13.271  1.9086  1.0458  2.1842
  953SOL    HW214496   3.972   4.127  13.243 -1.6205  0.5557  1.8710
  954SOL     OW14497   3.348   0.354   8.240 -0.1112  0.2601  0.5404
  954SOL    HW114498   3.280   0.311   8.189  0.1089 -2.8081  2.8301
  954SOL    HW214499   3.428   0.359   8.188  0.7449  0.3458  1.8627
  955SOL     OW14500   0.771   2.332   7.467  0.0137 -0.3434 -0.4191
  955SOL    HW114501   0.851   2.290   7.499 -0.5779 -0.4537  0.9522
  955SOL    HW214502   0.720   2.254   7.444  1.6491 -1.9418  1.3241
  956SOL     OW14503   0.287   3.408  17.418 -0.1667 -0.2370  0.1938
  956SOL    HW114504   0.308   3.500  17.438 -1.7480 -0.3186  2.2507
  956SOL    HW214505   0.231   3.386  17.492  0.2093  0.4826  0.6927
  957SOL     OW14506   1.768   3.365   5.665  0.2351  0.3400 -0.7857
  957SOL    HW114507   1.768   3.460   5.677 -0.0675  0.6018 -2.8543
  957SOL    HW214508   1.677   3.343   5.646  0.1956 -1.3025  1.3482
  958SOL     OW14509   1.198   3.832  15.084  0.4163 -0.3522  0.1020
  958SOL    HW114510   1.231   3.756  15.036  0.2342  0.2961 -1.0377
  958SOL    HW214511   1.119   3.797  15.124  0.6769 -5.3983 -3.7632
  959SOL     OW14512   3.922   2.739   4.209 -0.0901 -0.0322  0.1939
  959SOL    HW114513   3.917   2.644   4.217 -0.3093 -0.1282 -1.0886
  959SOL    HW214514   3.995   2.745   4.147 -0.9572 -0.1933 -0.8404
  960SOL     OW14515   2.653   3.568   1.366  0.1044 -0.3991 -0.0492
  960SOL    HW114516   2.622   3.532   1.449  0.3082  2.0588  1.1062
  960SOL    HW214517   2.636   3.658   1.394 -0.7406 -0.8532  0.8866
  961SOL     OW14518   0.054   1.770  16.875 -0.8206 -0.3875  0.2825
  961SOL    HW114519   0.106   1.842  16.839 -2.7726  1.6589  1.5207
  961SOL    HW214520   4.714   1.822  16.903 -1.4972 -1.1053 -0.2502
  962SOL     OW14521   0.048   2.238   4.519  0.1318  0.0897  0.4910
  962SOL    HW114522   0.119   2.266   4.460  1.1357  1.3672  2.3047
  962SOL    HW214523   4.706   2.281   4.485  0.5476  0.0236 -0.5647
  963SOL     OW14524   3.672   2.410   2.176  0.6523  0.5260 -0.2189
  963SOL    HW114525   3.624   2.427   2.094  3.2567 -1.6635 -2.1887
  963SOL    HW214526   3.695   2.496   2.209 -0.5331 -0.0107  2.0422
  964SOL     OW14527   0.384   4.414   8.101 -0.0881 -0.0681 -0.4547
  964SOL    HW114528   0.337   4.473   8.159 -0.2616 -1.1814  0.5427
  964SOL    HW214529   0.398   4.471   8.026 -0.5139  1.3782  0.5562
  965SOL     OW14530   4.247   4.215  13.330  0.2495  0.5511 -0.0328
  965SOL    HW114531   4.154   4.222  13.310  0.8838  1.8521 -2.4682
  965SOL    HW214532   4.278   4.297  13.291 -0.0244  1.0669  0.8328
  966SOL     OW14533   0.167   3.179  15.884  0.6778 -0.5901 -0.0077
  966SOL    HW114534   0.091   3.136  15.923 -1.5326 -1.8491 -5.7226
  966SOL    HW214535   0.245   3.151  15.932  0.2637 -1.4608  0.1557
  967SOL     OW14536   0.055   3.751   6.743 -0.3506 -0.3000 -0.1866
  967SOL    HW114537   0.113   3.820   6.711 -0.1441 -0.0611  0.7150
  967SOL    HW214538   0.113   3.713   6.809  0.8134  1.8522  0.0033
  968SOL     OW14539   0.814   1.822   8.541 -0.2995  0.2712 -0.2921
  968SOL    HW114540   0.739   1.766   8.520  0.0562 -1.0912  2.0125
  968SOL    HW214541   0.813   1.819   8.637 -1.5446 -1.7740 -0.3869
  969SOL     OW14542   0.944   1.206   4.893 -0.2313  0.5704 -0.1668
  969SOL    HW114543   0.865   1.232   4.942  0.0381  0.3954  0.3549
  969SOL    HW214544   1.014   1.223   4.955 -1.4615  2.5894  0.6832
  970SOL     OW14545   0.715   0.715   5.346 -0.2628  0.0692  0.1958
  970SOL    HW114546   0.779   0.680   5.284 -0.8520 -0.6662  0.0167
  970SOL    HW214547   0.773   0.763   5.405  0.4644  0.8319 -1.1339
  971SOL     OW14548   4.407   3.963   7.263 -0.8151 -0.7466  0.0513
  971SOL    HW114549   4.431   3.891   7.322 -1.1317  0.4571  1.6361
  971SOL    HW214550   4.356   4.009   7.329 -0.3413  0.0516 -0.1424
  972SOL     OW14551   3.386   4.269   3.571 -0.3750  0.6453 -0.4158
  972SOL    HW114552   3.405   4.362   3.581  0.8423  0.2540  0.9460
  972SOL    HW214553   3.324   4.266   3.498  0.4918  0.4486 -1.1427
  973SOL     OW14554   2.896   0.825   7.066 -0.2647  0.0757 -0.5966
  973SOL    HW114555   2.810   0.812   7.106  1.0863 -2.2509  1.4806
  973SOL    HW214556   2.946   0.753   7.104 -0.2137 -0.8715 -2.4641
  974SOL     OW14557   3.854   1.314   8.700 -0.1766 -0.1208  0.2268
  974SOL    HW114558   3.936   1.281   8.737  1.6128  2.1105 -1.7515
  974SOL    HW214559   3.783   1.281   8.755  0.1136 -1.3378 -0.1396
  975SOL     OW14560   1.040   1.312  14.804  0.2606  0.3356 -0.7196
  975SOL    HW114561   1.094   1.286  14.879 -1.0224  0.8385  0.3632
  975SOL    HW214562   1.041   1.406  14.820 -2.2411  0.6776 -2.5904
  976SOL     OW14563   0.577   0.814   8.485 -0.1810  0.2210 -0.0376
  976SOL    HW114564   0.621   0.893   8.454  0.0477  0.1640  0.1421
  976SOL    HW214565   0.490   0.836   8.516  0.1531  0.2786  0.8481
  977SOL     OW14566   3.155   3.119   4.434 -0.3317 -0.1447 -0.5387
  977SOL    HW114567   3.075   3.087   4.477 -0.0493  0.6240  0.5588
  977SOL    HW214568   3.130   3.205   4.401  2.3276  0.6120 -0.5337
  978SOL     OW14569   3.241   2.366   2.675  0.3134  0.3415 -0.6174
  978SOL    HW114570   3.161   2.331   2.636  1.3192 -0.4287 -2.0086
  978SOL    HW214571   3.222   2.332   2.762  0.8963  0.4914 -0.4292
  979SOL     OW14572   4.511   3.085   2.880 -0.6255  0.1767  0.2735
  979SOL    HW114573   4.605   3.106   2.876 -0.7542  0.7769  0.4385
  979SOL    HW214574   4.510   3.083   2.976 -1.8204 -2.7486  0.1995
  980SOL     OW14575   4.283   0.692   0.466  0.0961  0.0624 -0.3014
  980SOL    HW114576   4.196   0.717   0.496  0.7295  1.2255  0.5283
  980SOL    HW214577   4.323   0.679   0.552 -0.2466 -0.4259 -0.2109
  981SOL     OW14578   0.882   1.452   7.521 -0.4169  0.2920  0.8678
  981SOL    HW114579   0.825   1.522   7.551 -0.7055  0.6531 -0.5357
  981SOL    HW214580   0.938   1.447   7.599 -1.1875 -1.0081  1.3383
  982SOL     OW14581   1.153   2.720  16.106 -0.2752  0.0545  0.5792
  982SOL    HW114582   1.111   2.645  16.065  2.2961 -0.5211 -0.9846
  982SOL    HW214583   1.244   2.694  16.095  0.0164  1.2857  0.0429
  983SOL     OW14584   1.317   1.649   7.507 -0.4079 -0.1070 -0.0064
  983SOL    HW114585   1.251   1.646   7.437 -1.5223  1.5603  0.9783
  983SOL    HW214586   1.400   1.632   7.463 -1.0233  1.2305 -1.6594
  984SOL     OW14587   0.547   4.573   2.794 -0.4567 -0.4625 -0.4844
  984SOL    HW114588   0.462   4.534   2.815  0.6091 -2.9124 -0.6026
  984SOL    HW214589   0.523   4.665   2.798 -1.1794 -0.6380 -0.7490
  985SOL     OW14590   0.804   4.539   8.318  0.1710 -0.6800 -0.3954
  985SOL    HW114591   0.753   4.609   8.358  1.8128  0.8493 -0.9997
  985SOL    HW214592   0.768   4.526   8.230 -1.9669  0.6861  0.2758
  986SOL     OW14593   3.706   0.533  14.234  0.2483 -0.3533 -0.3140
  986SOL    HW114594   3.719   0.566  14.144  1.4402 -2.6171 -0.9605
  986SOL    HW214595   3.731   0.442  14.223 -0.4102 -0.7696  1.7439
  987SOL     OW14596   1.139   2.600   3.297  0.2356  0.1919 -0.4009
  987SOL    HW114597   1.110   2.509   3.294 -2.3340  1.0129 -0.1135
  987SOL    HW214598   1.232   2.600   3.272  0.3556 -0.0093  0.0464
  988SOL     OW14599   3.950   1.330   3.271 -0.3487 -0.3070  0.5056
  988SOL    HW114600   3.871   1.379   3.248 -0.3104 -1.4402 -1.9371
  988SOL    HW214601   3.992   1.398   3.325  0.7130 -0.3116 -0.3226
  989SOL     OW14602   0.670   0.585  16.497  0.0770 -0.5161  0.1131
  989SOL    HW114603   0.615   0.520  16.539 -0.6586  1.0748  1.6039
  989SOL    HW214604   0.740   0.524  16.474 -1.3663 -1.2022 -2.4035
  990SOL     OW14605   4.160   2.931   3.628  0.2096  0.2292 -0.3603
  990SOL    HW114606   4.114   2.857   3.588 -0.2479  0.2766  0.0704
  990SOL    HW214607   4.091   2.997   3.629  0.8027  0.8635 -1.5134
  991SOL     OW14608   3.668   3.874   2.804 -0.4167  0.4570 -0.4211
  991SOL    HW114609   3.632   3.959   2.779 -1.3722  0.8239  2.1639
  991SOL    HW214610   3.751   3.907   2.837 -0.4302 -0.0206  0.0931
  992SOL     OW14611   0.332   3.875   4.506  0.5336 -0.0475 -0.2998
  992SOL    HW114612   0.369   3.889   4.593  1.8152 -1.1772 -0.6564
  992SOL    HW214613   0.414   3.844   4.467  0.5772 -1.3516  0.8165
  993SOL     OW14614   4.639   2.872   3.968 -0.5555 -0.9130  0.0993
  993SOL    HW114615   4.629   2.782   3.936  1.4480 -1.7926  1.9724
  993SOL    HW214616   4.594   2.918   3.897  2.2527  1.7102  0.0104
  994SOL     OW14617   3.206   4.390  17.158  0.3251  0.1893 -0.3027
  994SOL    HW114618   3.134   4.353  17.106 -1.5969 -1.2597  3.3752
  994SOL    HW214619   3.182   4.482  17.165 -0.2437 -0.0130  0.5049
  995SOL     OW14620   0.243   3.963  16.179  0.3621  0.2683  0.1055
  995SOL    HW114621   0.223   3.886  16.126  0.1045  0.1639  0.3525
  995SOL    HW214622   0.311   4.007  16.128  2.1356 -0.4758  1.8534
  996SOL     OW14623   4.302   1.774   8.507 -0.0368  0.4926 -0.3420
  996SOL    HW114624   4.218   1.788   8.551 -1.3349  0.0311 -2.7435
  996SOL    HW214625   4.298   1.683   8.478 -0.9198  0.3497  0.2097
  997SOL     OW14626   3.145   1.441   5.762  0.5580 -0.1213 -0.9797
  997SOL    HW114627   3.218   1.396   5.720  0.1742 -0.2133 -1.5495
  997SOL    HW214628   3.081   1.370   5.769 -0.6415  0.8088 -2.4261
  998SOL     OW14629   3.000   1.812   4.173 -0.1274  0.7798  0.2413
  998SOL    HW114630   3.057   1.760   4.116  0.9039  2.1771 -0.0007
  998SOL    HW214631   3.046   1.791   4.254 -1.2196  1.6264  1.0736
  999SOL     OW14632   0.180   1.217   4.403  0.3149  0.7609  0.1136
  999SOL    HW114633   0.136   1.137   4.434  0.6238  0.7307  0.4728
  999SOL    HW214634   0.240   1.247   4.471 -2.0129  1.5664  1.8334
 1000SOL     OW14635   4.220   4.540   4.242 -0.2460 -0.3200  0.7192
 1000SOL    HW114636   4.247   4.562   4.331 -1.6240 -0.1157  1.0875
 1000SOL    HW214637   4.243   4.449   4.225 -0.9986 -0.5723  1.0458
 1001SOL     OW14638   0.384   4.435   2.066 -0.0280 -0.3533 -0.4432
 1001SOL    HW114639   0.452   4.374   2.034  1.1131 -0.1635  1.6742
 1001SOL    HW214640   0.441   4.506   2.094 -0.5413  0.1182 -0.5880
 1002SOL     OW14641   1.005   2.205   6.855  0.7384 -0.5735  0.2072
 1002SOL    HW114642   0.929   2.168   6.809 -0.2551  1.7568 -0.0539
 1002SOL    HW214643   1.073   2.213   6.788 -0.1472  0.1854 -0.6031
 1003SOL     OW14644   4.626   3.530   5.164  0.0820 -0.0813 -0.2846
 1003SOL    HW114645   4.692   3.574   5.110 -0.1265  0.4528 -0.1123
 1003SOL    HW214646   4.639   3.444   5.126 -1.4042 -0.4358 -0.0080
 1004SOL     OW14647   4.615   2.172   2.887 -0.0380  0.6272 -0.7950
 1004SOL    HW114648   4.649   2.093   2.845  1.2563 -0.6009  2.5304
 1004SOL    HW214649   4.526   2.171   2.851  0.9651 -1.8509 -3.2932
 1005SOL     OW14650   1.961   4.055   8.776 -0.0822 -0.5383  0.3877
 1005SOL    HW114651   2.008   4.022   8.699 -4.1956  0.8627 -2.7139
 1005SOL    HW214652   1.923   3.973   8.809 -1.8048  0.0331 -0.1696
 1006SOL     OW14653   3.411   4.732   7.312 -0.1666  0.5084  0.0051
 1006SOL    HW114654   3.321   4.731   7.345 -0.4891 -0.1078 -0.8973
 1006SOL    HW214655   3.464   0.012   7.390  2.7865 -0.2249 -1.8673
 1007SOL     OW14656   0.046   3.693   9.561 -0.2721 -0.1398 -0.1616
 1007SOL    HW114657   4.691   3.667   9.578 -0.9839  1.7714 -1.0587
 1007SOL    HW214658   0.043   3.784   9.592 -0.4330  0.5174 -2.1081
 1008SOL     OW14659   3.789   4.623   9.118 -0.0037  0.2136 -0.1529
 1008SOL    HW114660   3.711   4.580   9.154 -0.2797  1.3916  0.6813
 1008SOL    HW214661   3.842   4.550   9.089  0.4828  1.0936 -1.4811
 1009SOL     OW14662   1.272   1.828   2.370 -0.1985  0.1609  0.2101
 1009SOL    HW114663   1.295   1.769   2.298  2.0734  0.1732  0.8960
 1009SOL    HW214664   1.340   1.804   2.434  0.0615  0.6078  0.0998
 1010SOL     OW14665   3.785   2.124  12.049  0.0953 -0.4986 -0.0231
 1010SOL    HW114666   3.743   2.060  12.106 -1.1583  1.7718  1.6169
 1010SOL    HW214667   3.833   2.071  11.985 -0.3050 -0.6161 -0.2273
 1011SOL     OW14668   4.672   4.394   6.859 -0.2957  0.7797 -0.5533
 1011SOL    HW114669   4.729   4.379   6.934 -1.7876 -1.2358  0.1626
 1011SOL    HW214670   4.655   4.486   6.875 -1.5846  0.7291 -1.5963
 1012SOL     OW14671   1.349   3.654   8.379 -0.3244  0.1977  0.2677
 1012SOL    HW114672   1.384   3.579   8.427 -0.2640 -0.8301 -1.3970
 1012SOL    HW214673   1.411   3.650   8.306 -0.6176 -0.6429  0.0663
 1013SOL     OW14674   1.261   3.765   5.508  0.3136  0.1127  0.1015
 1013SOL    HW114675   1.270   3.855   5.537 -4.2526  0.9180 -0.9519
 1013SOL    HW214676   1.256   3.716   5.590  0.6703  1.1398  0.7313
 1014SOL     OW14677   0.527   4.025   0.324 -0.1586  0.2366 -0.0509
 1014SOL    HW114678   0.433   4.037   0.328 -0.2337  0.2938 -2.0448
 1014SOL    HW214679   0.541   4.007   0.231 -3.2734 -2.7994  0.0653
 1015SOL     OW14680   2.384   3.700  13.136 -0.2616  0.0941  0.1443
 1015SOL    HW114681   2.298   3.659  13.123  0.2475 -1.4152  1.4908
 1015SOL    HW214682   2.428   3.660  13.061 -0.5141 -0.0268  0.0599
 1016SOL     OW14683   3.380   1.135   8.034 -0.3532 -0.0078 -0.5626
 1016SOL    HW114684   3.401   1.168   7.946  1.6232 -0.2713 -0.2044
 1016SOL    HW214685   3.458   1.081   8.043  0.6073  1.0640 -2.3460
 1017SOL     OW14686   4.134   4.146   6.004  0.0902  0.0687  0.0130
 1017SOL    HW114687   4.083   4.203   6.062 -1.8780 -0.5712 -1.0968
 1017SOL    HW214688   4.150   4.068   6.056 -1.7100  0.2935  0.9125
 1018SOL     OW14689   2.203   3.171   7.789  0.2572 -0.1895 -0.6168
 1018SOL    HW114690   2.265   3.110   7.830  1.1828  1.8031  0.9110
 1018SOL    HW214691   2.119   3.139   7.822 -0.4205 -0.2915 -2.4348
 1019SOL     OW14692   4.189   2.338  15.618  0.6694  0.1588 -0.1921
 1019SOL    HW114693   4.161   2.254  15.654  0.5435 -0.4565 -1.7023
 1019SOL    HW214694   4.108   2.390  15.620  0.3827 -0.1684 -2.2790
 1020SOL     OW14695   2.203   2.773   6.007 -0.4324  0.0188  0.2256
 1020SOL    HW114696   2.176   2.859   5.975  1.1044 -0.1233 -1.4615
 1020SOL    HW214697   2.198   2.719   5.928  3.3969  1.1058 -0.7739
 1021SOL     OW14698   2.573   3.061   2.377  0.0153 -0.4761 -0.0829
 1021SOL    HW114699   2.656   3.028   2.410  0.6572 -0.7459 -1.9549
 1021SOL    HW214700   2.521   2.981   2.368 -0.0123 -0.7603  2.6128
 1022SOL     OW14701   3.014   2.194   2.656 -0.6537  0.2584  0.7463
 1022SOL    HW114702   2.980   2.107   2.676 -1.8879  0.9319  1.6511
 1022SOL    HW214703   2.947   2.219   2.592  0.8717  4.0633  0.6106
 1023SOL     OW14704   1.997   4.519   3.391  0.2872  0.1534 -0.2411
 1023SOL    HW114705   1.978   4.490   3.302  1.0176  0.5035 -0.5084
 1023SOL    HW214706   1.916   4.567   3.410 -1.5041 -3.5261  1.4234
 1024SOL     OW14707   3.483   0.402   2.241 -0.0951  0.3565  0.0141
 1024SOL    HW114708   3.412   0.376   2.299 -0.7666 -2.2911 -1.9957
 1024SOL    HW214709   3.452   0.483   2.200 -1.2688 -1.0287 -1.8624
 1025SOL     OW14710   4.628   3.360   4.349  0.1183  0.0157 -0.1958
 1025SOL    HW114711   4.668   3.445   4.368  0.7344 -0.6577  1.5407
 1025SOL    HW214712   4.698   3.308   4.309  1.2197  1.0253  0.4010
 1026SOL     OW14713   1.924   0.367   9.239 -0.1333  0.0834 -0.1135
 1026SOL    HW114714   1.886   0.446   9.276  0.1123 -0.6434  1.7182
 1026SOL    HW214715   1.852   0.305   9.255  1.3314 -1.5426  0.2511
 1027SOL     OW14716   3.755   3.257   5.872 -0.3612  0.7091  0.1026
 1027SOL    HW114717   3.661   3.264   5.887 -0.5722  0.9731 -1.4158
 1027SOL    HW214718   3.773   3.209   5.953 -1.0320 -0.8592 -0.6825
 1028SOL     OW14719   1.702   4.423  11.504 -0.4747  0.3864 -0.1936
 1028SOL    HW114720   1.786   4.457  11.476  0.0938  0.9464  2.2257
 1028SOL    HW214721   1.659   4.452  11.424  0.8448  1.1369 -0.6214
 1029SOL     OW14722   1.313   4.396   3.070  0.0282  0.6663 -0.2932
 1029SOL    HW114723   1.271   4.454   3.005 -1.9897  0.3942  0.7716
 1029SOL    HW214724   1.382   4.362   3.013 -0.4466  0.0027 -0.4685
 1030SOL     OW14725   0.270   1.302  15.203  0.1012 -0.0171  0.2398
 1030SOL    HW114726   0.318   1.350  15.271 -0.5461  3.6008 -1.8480
 1030SOL    HW214727   0.332   1.231  15.188  0.1067 -0.2956  1.5082
 1031SOL     OW14728   2.792   1.798   1.903  0.6832  0.3845  0.1635
 1031SOL    HW114729   2.753   1.882   1.878  1.0033  1.2484  2.6183
 1031SOL    HW214730   2.856   1.798   1.831  1.0897  0.8931  0.5253
 1032SOL     OW14731   4.120   4.564  15.075  0.8777 -0.3339 -0.2853
 1032SOL    HW114732   4.212   4.584  15.063  1.3063 -3.1010 -1.7420
 1032SOL    HW214733   4.114   4.513  15.156  1.2974 -1.2063 -0.8092
 1033SOL     OW14734   4.078   2.806  10.663 -0.1855 -0.5417 -0.1596
 1033SOL    HW114735   4.168   2.830  10.686 -0.5022 -0.4112  0.9764
 1033SOL    HW214736   4.045   2.895  10.673 -0.4546 -0.6221 -0.3420
 1034SOL     OW14737   0.325   4.049   5.935  0.5071 -0.6154 -0.4328
 1034SOL    HW114738   0.258   4.068   5.869  0.3188 -0.5106 -0.2134
 1034SOL    HW214739   0.278   4.025   6.015  1.4117 -0.5077  0.1306
 1035SOL     OW14740   4.584   0.348   6.540  0.7423 -0.4403 -0.3849
 1035SOL    HW114741   4.590   0.336   6.634 -0.2900  1.0834 -0.1146
 1035SOL    HW214742   4.645   0.283   6.505 -0.7939 -2.2033  0.2539
 1036SOL     OW14743   0.627   3.102  10.581  0.4278 -0.1999  0.3704
 1036SOL    HW114744   0.539   3.064  10.572  0.5136 -0.8731  2.3937
 1036SOL    HW214745   0.624   3.182  10.528 -2.2507 -0.1856  0.5485
 1037SOL     OW14746   2.888   0.350   3.543 -0.2513  0.1361  0.0062
 1037SOL    HW114747   2.897   0.273   3.599 -0.1581  0.3155  0.2404
 1037SOL    HW214748   2.885   0.415   3.614 -1.1838  0.2170 -0.1087
 1038SOL     OW14749   3.111   1.588   1.680 -0.1550 -0.0515  0.1773
 1038SOL    HW114750   3.044   1.650   1.710 -2.0234 -2.5596  1.2048
 1038SOL    HW214751   3.072   1.510   1.720 -0.7876 -0.0631 -0.4555
 1039SOL     OW14752   0.186   0.442   8.381  0.3574  0.1678 -0.0708
 1039SOL    HW114753   0.215   0.527   8.347 -0.4155  1.3987  2.3724
 1039SOL    HW214754   0.248   0.376   8.351 -0.8252 -1.3721  0.8978
 1040SOL     OW14755   2.722   1.680   7.774 -0.3252  0.1479  0.1893
 1040SOL    HW114756   2.644   1.735   7.776  0.2016  0.8889  0.1103
 1040SOL    HW214757   2.794   1.734   7.744 -0.4893  0.0770 -0.3346
 1041SOL     OW14758   2.560   2.217   5.707 -0.2850 -0.5309 -0.0266
 1041SOL    HW114759   2.575   2.194   5.615  1.1401  0.7652 -0.1258
 1041SOL    HW214760   2.485   2.161   5.725 -2.0341  1.6245 -0.7257
 1042SOL     OW14761   4.625   2.720   6.392  0.4178  0.4030  0.1784
 1042SOL    HW114762   4.619   2.708   6.297 -3.5820 -1.6498  0.6886
 1042SOL    HW214763   4.622   2.815   6.394  0.2298  0.3917  0.4445
 1043SOL     OW14764   3.700   4.004   1.307 -0.1921 -0.1470 -0.2616
 1043SOL    HW114765   3.620   3.961   1.336 -0.7497 -0.4615 -2.2669
 1043SOL    HW214766   3.693   4.074   1.372 -2.4576 -0.4001 -0.2394
 1044SOL     OW14767   1.605   3.080   2.801  0.2962  0.0220 -0.3324
 1044SOL    HW114768   1.591   3.170   2.773  0.6767 -0.1687 -1.1158
 1044SOL    HW214769   1.515   3.060   2.827  0.9525  0.9111  2.6000
 1045SOL     OW14770   0.830   1.271   9.024  0.3893 -0.2829  0.1896
 1045SOL    HW114771   0.767   1.328   8.980 -0.0129 -0.1010  1.0009
 1045SOL    HW214772   0.781   1.188   9.027 -3.2527  1.8556  0.0095
 1046SOL     OW14773   0.440   2.871  11.116  0.0570 -0.4741  0.2360
 1046SOL    HW114774   0.351   2.845  11.140 -0.4877  0.4374 -0.8317
 1046SOL    HW214775   0.421   2.954  11.072 -0.5795 -0.7299  0.0400
 1047SOL     OW14776   4.507   0.853   8.783 -0.3666  0.0627  0.5904
 1047SOL    HW114777   4.552   0.786   8.833 -1.3503 -0.5634  0.6375
 1047SOL    HW214778   4.548   0.846   8.697 -1.2283 -2.0617  0.3722
 1048SOL     OW14779   1.476   3.756   7.633 -0.1750 -0.1778 -0.2362
 1048SOL    HW114780   1.567   3.778   7.650 -1.8388  5.3049  1.6672
 1048SOL    HW214781   1.479   3.663   7.611 -0.3736 -0.1031 -0.5819
 1049SOL     OW14782   0.302   3.683  12.002 -0.2564  0.3725 -0.1200
 1049SOL    HW114783   0.387   3.728  12.002  1.1206 -2.2082 -1.6949
 1049SOL    HW214784   0.270   3.741  11.934 -0.8813 -1.0626 -1.0477
 1050SOL     OW14785   3.137   3.667  13.320  0.4156  0.0738 -0.5787
 1050SOL    HW114786   3.053   3.646  13.280 -0.4787  0.1319  1.2706
 1050SOL    HW214787   3.192   3.680  13.243  0.7898 -2.1377 -0.6989
 1051SOL     OW14788   2.014   2.995   4.680  0.0692 -0.3001 -0.1243
 1051SOL    HW114789   1.943   3.022   4.739  0.1560 -0.6842  0.1591
 1051SOL    HW214790   2.058   3.080   4.682  1.0163 -0.7784 -1.3494
 1052SOL     OW14791   1.442   2.793   4.484  0.6689 -0.6064  0.0763
 1052SOL    HW114792   1.444   2.868   4.424 -2.0075 -0.4464  0.1848
 1052SOL    HW214793   1.512   2.734   4.460 -0.7143 -1.8620 -0.8930
 1053SOL     OW14794   3.745   0.015  16.537 -0.1780  0.5754  0.7631
 1053SOL    HW114795   3.816   4.732  16.599 -0.3933 -1.4770  0.3750
 1053SOL    HW214796   3.779   4.716  16.455  0.8862  2.8039  0.2358
 1054SOL     OW14797   4.291   2.614   6.198  0.6066 -0.3853 -0.0220
 1054SOL    HW114798   4.312   2.705   6.180  4.5468 -0.8707  2.1110
 1054SOL    HW214799   4.196   2.619   6.186  0.6434 -0.0258 -0.1541
 1055SOL     OW14800   2.022   0.196   6.771  0.7343 -0.2747 -0.3774
 1055SOL    HW114801   2.013   0.105   6.800 -3.5953  0.3604  0.3738
 1055SOL    HW214802   2.114   0.217   6.782  0.0364  1.8351  1.3826
 1056SOL     OW14803   2.365   2.939  11.300  0.2734 -0.3503 -0.5947
 1056SOL    HW114804   2.400   2.914  11.386  0.6312  1.5143 -0.1958
 1056SOL    HW214805   2.371   2.856  11.253 -0.3705 -0.3237 -0.7167
 1057SOL     OW14806   2.358   3.281  15.125  0.4352 -0.3160  0.0286
 1057SOL    HW114807   2.423   3.210  15.124 -1.3376 -1.9582  0.1378
 1057SOL    HW214808   2.277   3.248  15.084  0.3192  0.8225 -0.6340
 1058SOL     OW14809   2.673   4.512  15.422 -0.7892 -0.1356  0.0884
 1058SOL    HW114810   2.721   4.461  15.488  2.1896  0.3471 -1.6903
 1058SOL    HW214811   2.643   4.439  15.367  0.2086 -0.1514 -0.4290
 1059SOL     OW14812   0.611   3.972  11.303  0.2521  0.8820 -0.2219
 1059SOL    HW114813   0.611   4.023  11.222 -1.4073  0.7254 -0.3372
 1059SOL    HW214814   0.656   3.892  11.279 -0.1320  0.6899 -0.3040
 1060SOL     OW14815   0.687   0.132   4.960  0.5005  0.4537  0.3085
 1060SOL    HW114816   0.691   0.211   5.015 -0.3279 -0.9040  2.3095
 1060SOL    HW214817   0.722   0.161   4.876  0.2910 -0.8647 -0.2296
 1061SOL     OW14818   2.645   1.261  17.024  0.1785 -0.5664  0.8060
 1061SOL    HW114819   2.566   1.268  17.077 -1.0916  0.1083 -1.1825
 1061SOL    HW214820   2.642   1.322  16.950 -1.5473 -2.4512 -0.6697
 1062SOL     OW14821   3.512   3.906   0.979  0.4383 -0.3436  0.3050
 1062SOL    HW114822   3.592   3.854   0.986 -0.4498 -1.4765  2.0694
 1062SOL    HW214823   3.448   3.839   0.954 -0.6223  0.9141 -0.3553
 1063SOL     OW14824   3.298   0.500  16.777 -0.2057  0.2782  0.4898
 1063SOL    HW114825   3.203   0.490  16.771  0.0657 -0.9623 -1.3583
 1063SOL    HW214826   3.326   0.443  16.706 -0.0845  1.9769 -0.8203
 1064SOL     OW14827   0.381   3.173   9.896 -0.1612 -0.3391 -0.2156
 1064SOL    HW114828   0.422   3.176   9.982 -1.9254 -0.4608  0.6236
 1064SOL    HW214829   0.299   3.141   9.934 -0.1840 -1.8924 -1.5871
 1065SOL     OW14830   3.956   2.381   2.275  0.0813 -0.5328 -0.0902
 1065SOL    HW114831   3.942   2.413   2.364 -0.4964 -0.4377 -0.2186
 1065SOL    HW214832   3.868   2.354   2.250 -0.5364  1.0741  0.3339
 1066SOL     OW14833   2.087   2.764   8.793 -0.0924  0.2645  0.0424
 1066SOL    HW114834   2.155   2.714   8.747 -0.6717 -1.0010  0.5544
 1066SOL    HW214835   2.080   2.708   8.870  0.5364 -2.3253 -1.7899
 1067SOL     OW14836   3.994   4.090  13.564 -0.3394 -0.1290 -0.2289
 1067SOL    HW114837   4.024   4.025  13.628 -1.4821 -0.4563 -0.0274
 1067SOL    HW214838   3.939   4.034  13.510 -1.7251 -0.8023  1.8816
 1068SOL     OW14839   4.576   2.720   8.672 -0.0179  0.5093  0.4393
 1068SOL    HW114840   4.606   2.810   8.661 -1.1882  0.8007 -0.4503
 1068SOL    HW214841   4.487   2.732   8.639 -0.1864 -0.9712  0.3214
 1069SOL     OW14842   3.968   1.406   2.905  1.0282 -0.3571  0.1515
 1069SOL    HW114843   3.931   1.475   2.851  0.0023 -1.2492 -0.2891
 1069SOL    HW214844   3.964   1.337   2.838  0.2529 -0.2125  0.0440
 1070SOL     OW14845   1.026   4.073   4.783  0.2706 -0.0106 -0.2699
 1070SOL    HW114846   1.004   4.110   4.868  0.3856 -2.7666  0.9838
 1070SOL    HW214847   1.008   4.137   4.714  0.5642 -0.0771 -0.4081
 1071SOL     OW14848   3.543   0.677   9.265  0.0737 -0.1011  0.4930
 1071SOL    HW114849   3.528   0.752   9.207  1.9200  1.1318  1.5984
 1071SOL    HW214850   3.603   0.713   9.331 -0.3119  1.5207 -0.0440
 1072SOL     OW14851   4.511   0.600   3.769 -0.0334 -0.1150 -0.0591
 1072SOL    HW114852   4.495   0.533   3.836 -0.7649 -2.0293 -2.1480
 1072SOL    HW214853   4.560   0.550   3.703 -0.7574 -1.0919  0.1350
 1073SOL     OW14854   1.735   0.380   7.943  0.1477 -0.0191  0.1911
 1073SOL    HW114855   1.679   0.323   7.890  0.6131  0.5932 -0.9662
 1073SOL    HW214856   1.711   0.370   8.035 -0.3274 -2.0644 -0.1523
 1074SOL     OW14857   2.135   2.615   6.477  0.7512  0.3448  0.6801
 1074SOL    HW114858   2.131   2.698   6.431  0.3033 -0.1897 -0.2503
 1074SOL    HW214859   2.109   2.638   6.566  0.0968 -1.3192  0.9248
 1075SOL     OW14860   3.597   0.674   2.913  0.3549 -0.0798 -0.7151
 1075SOL    HW114861   3.514   0.686   2.866 -0.8434 -0.9312  1.1585
 1075SOL    HW214862   3.580   0.714   2.998  0.2001  1.6558 -1.5674
 1076SOL     OW14863   4.587   4.428   4.405 -0.0334  0.0112  0.0763
 1076SOL    HW114864   4.498   4.414   4.437 -0.0562 -0.9769 -0.4120
 1076SOL    HW214865   4.643   4.394   4.475 -0.2823  0.3451  0.4345
 1077SOL     OW14866   0.114   0.210   8.164  0.6643 -0.0720 -0.2222
 1077SOL    HW114867   0.049   0.199   8.233  1.7209  1.5775  1.0472
 1077SOL    HW214868   0.198   0.204   8.209  0.9012  1.9070 -0.3865
 1078SOL     OW14869   4.653   1.302   6.120  0.2214  0.0288  0.2045
 1078SOL    HW114870   4.704   1.366   6.169 -1.0000  0.1792  1.3003
 1078SOL    HW214871   4.612   1.260   6.196  0.4832 -0.9185 -0.1783
 1079SOL     OW14872   1.129   4.139  11.880 -0.2003  0.1216 -0.4435
 1079SOL    HW114873   1.065   4.161  11.948 -0.6723 -1.2497 -0.4455
 1079SOL    HW214874   1.152   4.049  11.903 -1.1182  0.4499  1.7798
 1080SOL     OW14875   2.890   2.785  15.813  0.8374 -0.0399  0.4613
 1080SOL    HW114876   2.907   2.876  15.789 -0.4883 -0.2315 -1.1646
 1080SOL    HW214877   2.801   2.792  15.848  0.6154  1.1497 -0.3827
 1081SOL     OW14878   0.880   2.351  12.088 -0.3059  0.5297 -0.7826
 1081SOL    HW114879   0.889   2.338  12.183  0.6204  0.3780 -0.8900
 1081SOL    HW214880   0.822   2.426  12.098  0.0756  0.5106  1.6167
 1082SOL     OW14881   1.105   0.905   2.211 -0.3690 -0.1563  0.3324
 1082SOL    HW114882   1.057   0.848   2.271  0.7762  0.1050  1.4874
 1082SOL    HW214883   1.059   0.988   2.224  1.5769  0.8305  0.7707
 1083SOL     OW14884   2.003   2.001   6.369  0.0556  0.1799  0.4743
 1083SOL    HW114885   1.983   2.067   6.303  0.0157  0.9008  1.2043
 1083SOL    HW214886   1.933   2.018   6.432  0.0891 -1.7613  1.0221
 1084SOL     OW14887   3.576   1.129  15.232  0.1118  0.1870  0.4553
 1084SOL    HW114888   3.608   1.127  15.142  1.0809  1.4412  0.7779
 1084SOL    HW214889   3.481   1.135  15.221  0.0950  0.5507  0.8168
 1085SOL     OW14890   1.007   2.407  11.863  0.0321 -0.1472  0.3736
 1085SOL    HW114891   0.962   2.366  11.937 -0.6025  1.5001  0.9151
 1085SOL    HW214892   0.987   2.500  11.876 -0.7631 -0.1212 -1.0175
 1086SOL     OW14893   2.398   4.689  10.928 -0.3195 -0.1350 -0.1735
 1086SOL    HW114894   2.343   4.735  10.992 -1.2510  0.5637 -1.4462
 1086SOL    HW214895   2.458   4.650  10.991  0.1966  1.4862  0.3409
 1087SOL     OW14896   0.499   0.998   9.630  0.1240 -0.6389  0.7905
 1087SOL    HW114897   0.542   1.051   9.563 -0.3186 -0.0910  0.9342
 1087SOL    HW214898   0.559   0.930   9.659  2.3840  1.0819  0.1261
 1088SOL     OW14899   1.749   2.480  10.501  0.1542  0.8568  0.7520
 1088SOL    HW114900   1.752   2.385  10.506 -1.4347  0.8292  1.1097
 1088SOL    HW214901   1.666   2.494  10.455  1.5373  1.0751 -1.6852
 1089SOL     OW14902   0.759   1.714   2.896 -0.3815  0.6638  0.0148
 1089SOL    HW114903   0.816   1.688   2.969  2.6871 -2.8712 -3.5990
 1089SOL    HW214904   0.761   1.632   2.846  2.1359 -0.9145  2.6926
 1090SOL     OW14905   0.676   0.579   8.807  0.6454 -0.0740  0.2451
 1090SOL    HW114906   0.723   0.597   8.726  1.7239  2.2122  1.3757
 1090SOL    HW214907   0.619   0.655   8.810  1.6832  0.7152 -0.1579
 1091SOL     OW14908   3.125   2.987   3.290 -0.4870  0.4104 -0.3330
 1091SOL    HW114909   3.125   2.966   3.383  0.5065 -1.5671 -0.7972
 1091SOL    HW214910   3.219   3.003   3.278 -0.2698  0.6050  1.6439
 1092SOL     OW14911   3.776   0.474   6.566 -0.0146 -0.5169  0.3737
 1092SOL    HW114912   3.769   0.565   6.537  0.2485 -0.4481  0.5299
 1092SOL    HW214913   3.791   0.440   6.477  1.0779  0.4976  0.1697
 1093SOL     OW14914   2.981   2.466   6.540 -0.0384  0.4662 -0.4549
 1093SOL    HW114915   3.029   2.394   6.498 -0.1963  0.1945 -0.1723
 1093SOL    HW214916   3.030   2.544   6.514 -1.7657  1.7990  0.2267
 1094SOL     OW14917   2.505   4.643   3.453 -0.5639  0.0232  0.3669
 1094SOL    HW114918   2.412   4.643   3.476 -1.1032  1.8695 -1.7409
 1094SOL    HW214919   2.556   4.668   3.530  0.2150 -0.2996 -0.0459
 1095SOL     OW14920   4.421   3.219  10.797 -0.6390 -0.5916  0.0747
 1095SOL    HW114921   4.418   3.220  10.892  0.5521 -0.2440  0.1087
 1095SOL    HW214922   4.353   3.280  10.770 -2.2281 -1.5580  1.9770
 1096SOL     OW14923   4.046   0.371   4.076 -0.3519  0.4648  0.1906
 1096SOL    HW114924   4.132   0.330   4.068  0.0058  1.3944 -0.7874
 1096SOL    HW214925   4.059   0.440   4.011 -1.8262  1.3879  0.8851
 1097SOL     OW14926   2.657   4.254   3.508 -0.2702  0.0434 -0.1376
 1097SOL    HW114927   2.644   4.159   3.515  0.1923 -0.0120 -0.0209
 1097SOL    HW214928   2.574   4.284   3.545 -0.0645 -0.4685  0.7422
 1098SOL     OW14929   0.608   2.762   7.945 -0.1057 -0.0542 -0.1148
 1098SOL    HW114930   0.542   2.693   7.951 -0.3811  0.3657  1.7150
 1098SOL    HW214931   0.554   2.823   7.894 -1.1756 -0.6452  0.3164
 1099SOL     OW14932   0.913   3.863   5.447 -0.3724 -0.4320  0.8205
 1099SOL    HW114933   0.945   3.817   5.525  1.6660  1.4480  1.1124
 1099SOL    HW214934   0.818   3.862   5.457 -0.5530  1.0055 -0.7686
 1100SOL     OW14935   0.764   4.239  10.905  0.5398 -0.3825 -0.0259
 1100SOL    HW114936   0.678   4.214  10.870  0.6867  0.2346 -0.8447
 1100SOL    HW214937   0.767   4.214  10.997  0.5117  1.8753  0.5901
 1101SOL     OW14938   3.253   0.927   3.967 -0.4744 -0.1855 -0.2660
 1101SOL    HW114939   3.168   0.965   3.946 -0.7729 -1.1540 -0.8292
 1101SOL    HW214940   3.298   0.922   3.882 -2.4985 -2.0835 -1.2307
 1102SOL     OW14941   0.312   2.844   3.232  0.1241  0.5542 -0.7155
 1102SOL    HW114942   0.243   2.899   3.267 -0.4392 -1.2607  1.0339
 1102SOL    HW214943   0.372   2.837   3.307 -0.4526  0.1797 -0.2912
 1103SOL     OW14944   3.686   3.503   3.638  0.3682  0.4244 -0.2049
 1103SOL    HW114945   3.738   3.471   3.711  1.0767 -1.5770 -1.6051
 1103SOL    HW214946   3.758   3.542   3.589 -0.7936  2.4055 -0.3525
 1104SOL     OW14947   1.277   4.314   4.777 -0.2310 -0.0883  0.1331
 1104SOL    HW114948   1.187   4.339   4.798  0.0302  0.4787  0.5750
 1104SOL    HW214949   1.298   4.248   4.843 -0.3985 -1.7735 -1.5019
 1105SOL     OW14950   0.631   2.401   6.732  0.0171 -0.1208 -0.5528
 1105SOL    HW114951   0.678   2.483   6.717  1.0596 -1.0796 -2.5730
 1105SOL    HW214952   0.541   2.421   6.705 -0.9254 -2.3912  0.8593
 1106SOL     OW14953   2.898   3.541   3.960 -0.2506  0.2470  0.9568
 1106SOL    HW114954   2.839   3.499   3.897 -1.9144  3.2334  0.5623
 1106SOL    HW214955   2.894   3.478   4.032 -0.7337 -2.1683 -1.1768
 1107SOL     OW14956   3.466   0.839   5.852  0.2198 -0.1307  0.0104
 1107SOL    HW114957   3.485   0.849   5.946  0.1553  0.3942 -0.0340
 1107SOL    HW214958   3.470   0.746   5.832 -2.6820 -0.0755 -0.7596
 1108SOL     OW14959   0.619   0.657   5.723 -0.1327  0.1705  0.0306
 1108SOL    HW114960   0.553   0.722   5.749  1.3038  1.6047  0.0382
 1108SOL    HW214961   0.563   0.586   5.691 -2.3564  1.5198  0.9019
 1109SOL     OW14962   2.175   0.774   3.804  0.5394 -0.2683  0.2230
 1109SOL    HW114963   2.093   0.763   3.755  1.4502  1.1833 -1.6249
 1109SOL    HW214964   2.232   0.804   3.734  0.4641 -0.9964 -0.1509
 1110SOL     OW14965   0.659   1.271  13.974 -0.2850  0.6367 -0.3540
 1110SOL    HW114966   0.638   1.265  14.067 -1.1505  0.3593 -0.5719
 1110SOL    HW214967   0.571   1.275  13.937 -0.4978 -1.1987 -0.0449
 1111SOL     OW14968   3.303   2.724   3.534  0.3468  0.0395  0.2541
 1111SOL    HW114969   3.229   2.675   3.571 -0.2183  2.1504  1.9363
 1111SOL    HW214970   3.377   2.669   3.559 -0.7247 -0.5115  2.2222
 1112SOL     OW14971   3.484   1.719   9.477  0.3803 -0.2660 -0.4873
 1112SOL    HW114972   3.418   1.764   9.424 -1.6756 -0.6381  1.7641
 1112SOL    HW214973   3.548   1.686   9.414 -0.5089 -2.4048 -0.2720
 1113SOL     OW14974   2.765   4.627   9.537 -0.2349  0.2497 -0.4331
 1113SOL    HW114975   2.794   4.661   9.453 -1.4927 -0.8876 -1.3284
 1113SOL    HW214976   2.805   4.689   9.597  0.6918 -0.2637 -0.5162
 1114SOL     OW14977   0.649   3.713   3.513  0.4242 -0.0561  0.1207
 1114SOL    HW114978   0.742   3.737   3.511 -0.0213  1.5534 -1.1218
 1114SOL    HW214979   0.604   3.794   3.537  1.7756 -0.2300  3.2280
 1115SOL     OW14980   1.442   0.103   8.370 -0.0240  0.1584 -0.1297
 1115SOL    HW114981   1.376   0.166   8.400 -0.3822  0.1280 -0.8431
 1115SOL    HW214982   1.498   0.104   8.448 -1.9015  1.0180  1.2099
 1116SOL     OW14983   2.732   2.070   1.807 -0.0242 -0.1919  0.7861
 1116SOL    HW114984   2.752   2.080   1.714  1.7759  0.7048  1.2587
 1116SOL    HW214985   2.654   2.124   1.818 -0.1636 -0.3658  0.6469
 1117SOL     OW14986   0.640   3.178   8.847 -0.1968  0.6143 -0.1011
 1117SOL    HW114987   0.572   3.145   8.905  0.5845 -1.1998 -0.2355
 1117SOL    HW214988   0.600   3.265   8.841  2.1707  1.7192  0.2700
 1118SOL     OW14989   0.215   4.346  12.449  0.3410  0.2175 -0.1770
 1118SOL    HW114990   0.163   4.374  12.374 -0.4210 -1.2598 -0.1906
 1118SOL    HW214991   0.226   4.252  12.433 -1.4470 -0.2257  1.3211
 1119SOL     OW14992   3.284   0.089   4.336 -0.3053 -0.4591  0.5982
 1119SOL    HW114993   3.273   0.042   4.419  0.6588 -1.1019  0.3687
 1119SOL    HW214994   3.321   0.169   4.371 -0.0412 -0.6337  0.7164
 1120SOL     OW14995   2.637   1.767   1.481 -0.1487 -0.3256  0.3681
 1120SOL    HW114996   2.718   1.785   1.434 -1.4311  1.8631 -1.0104
 1120SOL    HW214997   2.663   1.699   1.543  0.3278 -1.5439 -1.1656
 1121SOL     OW14998   3.046   2.854  10.903  0.2795 -0.4798  0.0855
 1121SOL    HW114999   3.105   2.780  10.886  0.6915 -0.2014  0.2889
 1121SOL    HW215000   3.042   2.862  10.998 -1.2728  1.2577 -0.1127
 1122SOL     OW15001   4.506   3.753   5.770  0.1577  0.7697  0.2440
 1122SOL    HW115002   4.546   3.835   5.742 -0.2970 -0.4749 -4.0253
 1122SOL    HW215003   4.575   3.712   5.823  1.5444 -0.9616 -2.9399
 1123SOL     OW15004   3.906   3.826   9.486  0.3043 -0.1240  1.1055
 1123SOL    HW115005   3.988   3.803   9.529  1.3242  0.1801 -0.6528
 1123SOL    HW215006   3.917   3.780   9.402 -1.8961 -2.1838  1.9274
 1124SOL     OW15007   0.096   3.402  17.218  0.4270 -0.4357 -0.0181
 1124SOL    HW115008   0.136   3.483  17.187 -0.1568 -0.2748 -0.3339
 1124SOL    HW215009   0.161   3.392  17.288 -0.0169  0.8539  0.5839
 1125SOL     OW15010   4.484   1.272   4.445  0.3966  0.0484 -0.1860
 1125SOL    HW115011   4.539   1.256   4.521  0.5002  1.3986  0.0266
 1125SOL    HW215012   4.412   1.313   4.493 -0.3488 -0.1744 -1.1117
 1126SOL     OW15013   3.935   1.263   7.685 -0.4095 -0.1654 -0.9212
 1126SOL    HW115014   3.849   1.306   7.681 -0.6794 -0.8187 -1.9354
 1126SOL    HW215015   3.966   1.302   7.767 -0.2519  1.5934 -1.8209
 1127SOL     OW15016   4.433   0.754   7.736  0.3636  0.1224 -0.6414
 1127SOL    HW115017   4.426   0.849   7.724  0.9953  0.3567  0.8399
 1127SOL    HW215018   4.352   0.745   7.786  0.5192  0.7195 -0.2871
 1128SOL     OW15019   3.408   2.507   2.501  0.2100  0.1434  0.5886
 1128SOL    HW115020   3.448   2.437   2.450  1.0918 -0.6295  2.3303
 1128SOL    HW215021   3.360   2.451   2.562 -1.6739  0.1754 -0.8912
 1129SOL     OW15022   1.632   2.425   3.650 -0.5346 -0.4343  0.3521
 1129SOL    HW115023   1.595   2.398   3.734  0.7501  0.0463  1.0771
 1129SOL    HW215024   1.554   2.453   3.601 -0.4751 -1.3952 -0.2965
 1130SOL     OW15025   3.280   3.077   8.742 -0.0897 -0.5400 -0.3076
 1130SOL    HW115026   3.286   3.091   8.648  1.5803 -0.6950 -0.2275
 1130SOL    HW215027   3.204   3.019   8.744  1.6677 -2.9191 -2.4897
 1131SOL     OW15028   1.637   2.232   5.547 -0.3454  0.3190 -0.5123
 1131SOL    HW115029   1.650   2.137   5.548 -0.4785  0.3138  2.2983
 1131SOL    HW215030   1.669   2.263   5.462  1.2546  1.8187  0.6261
 1132SOL     OW15031   1.548   4.025   7.511 -0.0670  0.1173 -0.3143
 1132SOL    HW115032   1.528   3.932   7.520 -1.4890  0.6138  1.9181
 1132SOL    HW215033   1.608   4.030   7.437  0.8951 -0.8358  0.4135
 1133SOL     OW15034   1.520   2.034   0.210 -0.2435  0.2440  0.2354
 1133SOL    HW115035   1.502   2.125   0.188 -0.5385 -0.0759 -0.8544
 1133SOL    HW215036   1.608   2.046   0.246 -0.9183  0.2338  1.8731
 1134SOL     OW15037   0.821   2.072   6.721  0.6043  0.0977 -0.0327
 1134SOL    HW115038   0.872   2.045   6.644  0.5951  0.9946 -0.3575
 1134SOL    HW215039   0.752   2.127   6.681  1.0912  0.2287 -0.6968
 1135SOL     OW15040   3.206   3.991  10.897  0.7225 -0.4197  0.7719
 1135SOL    HW115041   3.173   4.004  10.986  0.8244 -4.3546  1.3970
 1135SOL    HW215042   3.287   4.042  10.899  0.8121 -0.5107 -0.2674
 1136SOL     OW15043   4.735   2.289   6.099  0.0486 -0.7444 -0.2007
 1136SOL    HW115044   0.015   2.222   6.033 -0.6745 -1.0619 -0.0610
 1136SOL    HW215045   4.659   2.328   6.057 -0.4179 -2.2730 -0.7591
 1137SOL     OW15046   3.571   1.346  14.092  0.0170 -0.3994  0.0303
 1137SOL    HW115047   3.534   1.294  14.162 -1.7345  1.2097  0.3104
 1137SOL    HW215048   3.502   1.396  14.048  0.5050  0.3079  0.0661
 1138SOL     OW15049   3.615   3.878  15.948 -0.5311 -0.2353  0.1245
 1138SOL    HW115050   3.631   3.849  16.038  1.4581  0.3510 -0.0294
 1138SOL    HW215051   3.652   3.803  15.902  1.0636  1.2233 -0.9674
 1139SOL     OW15052   1.967   1.731   2.060  0.2586 -0.7439  0.3651
 1139SOL    HW115053   2.004   1.672   1.994  0.6606 -0.3864  0.2730
 1139SOL    HW215054   1.913   1.793   2.011 -1.7929 -1.4201  1.7665
 1140SOL     OW15055   4.025   1.915   3.467  0.1091  0.4948 -0.6369
 1140SOL    HW115056   4.096   1.910   3.531 -0.6196 -1.8515 -0.0331
 1140SOL    HW215057   3.991   1.827   3.480 -1.7677  1.0237 -1.9353
 1141SOL     OW15058   0.783   3.663   7.394  0.1323 -0.0095 -0.1732
 1141SOL    HW115059   0.814   3.753   7.404  0.4080  0.3412 -4.1917
 1141SOL    HW215060   0.846   3.634   7.328  0.1441 -1.1264  0.3396
 1142SOL     OW15061   2.055   4.057  12.035 -0.3856 -0.0127 -0.4408
 1142SOL    HW115062   2.120   4.126  12.049  0.8867 -1.2729 -0.1673
 1142SOL    HW215063   1.990   4.104  11.983 -1.0394 -1.2551 -0.7260
 1143SOL     OW15064   4.702   3.249  17.046 -0.4634  0.5662  0.5580
 1143SOL    HW115065   0.020   3.301  17.105  0.0552  0.8248 -0.1523
 1143SOL    HW215066   0.008   3.274  16.964  1.8695 -0.1648  1.5710
 1144SOL     OW15067   3.847   3.089   4.813 -0.4730  0.3164  0.3768
 1144SOL    HW115068   3.773   3.077   4.753 -0.2580  1.3073 -0.0794
 1144SOL    HW215069   3.801   3.103   4.896 -1.8776 -0.5327 -0.2453
 1145SOL     OW15070   2.188   2.963   5.621  0.1736 -0.1758  0.3554
 1145SOL    HW115071   2.280   2.953   5.645  0.4771 -1.2312 -1.2757
 1145SOL    HW215072   2.165   2.879   5.581  0.6157  0.3958 -1.0919
 1146SOL     OW15073   2.029   1.316   3.319  0.5845 -0.0038  0.8668
 1146SOL    HW115074   2.061   1.314   3.229  1.3405 -0.0052  1.1396
 1146SOL    HW215075   2.065   1.397   3.355  1.3716  0.6406 -1.3858
 1147SOL     OW15076   1.992   3.044  17.145  0.1993  0.0285  0.6718
 1147SOL    HW115077   2.001   3.048  17.050  3.4202 -0.8430  0.9166
 1147SOL    HW215078   1.930   2.973  17.159 -0.3739  0.0925 -1.5892
 1148SOL     OW15079   0.779   0.093   5.620  0.4180 -0.1699 -0.1121
 1148SOL    HW115080   0.832   0.051   5.687 -1.1067 -0.4141  0.9505
 1148SOL    HW215081   0.793   0.053   5.534  0.9522  2.3539 -1.2039
 1149SOL     OW15082   0.260   0.810   4.360  0.1799 -0.1081  0.2676
 1149SOL    HW115083   0.213   0.893   4.365  1.3473  0.4371  2.2417
 1149SOL    HW215084   0.312   0.814   4.440  1.1693 -1.8391 -0.2939
 1150SOL     OW15085   0.770   0.359   5.364  0.0839  0.5655 -0.3247
 1150SOL    HW115086   0.779   0.423   5.434  0.9784 -0.2611  0.3149
 1150SOL    HW215087   0.850   0.362   5.312 -1.1560 -0.0023 -2.3009
 1151SOL     OW15088   4.509   4.049   9.960  0.3148  0.2018  0.1262
 1151SOL    HW115089   4.543   4.131   9.994  1.3197 -0.0433 -0.2838
 1151SOL    HW215090   4.548   3.985  10.020  1.3637  0.7331  0.0134
 1152SOL     OW15091   1.575   3.343   2.722 -0.0245 -0.2136  0.0909
 1152SOL    HW115092   1.524   3.307   2.650  1.5463 -0.5815 -0.8457
 1152SOL    HW215093   1.519   3.416   2.750 -0.3228 -1.1400  1.8654
 1153SOL     OW15094   0.143   4.075   9.708 -0.2882 -0.0844 -0.3937
 1153SOL    HW115095   0.219   4.024   9.737  0.6715  0.4373 -2.0212
 1153SOL    HW215096   0.076   4.008   9.694  0.6111 -1.1683  0.4489
 1154SOL     OW15097   3.991   1.649   8.364 -0.2910  0.1179 -0.1365
 1154SOL    HW115098   3.907   1.603   8.363 -0.2232 -0.0412  2.1404
 1154SOL    HW215099   4.022   1.630   8.452 -1.6950 -0.1839  0.2995
 1155SOL     OW15100   3.268   1.726   0.730  0.2298  0.0624 -0.4493
 1155SOL    HW115101   3.205   1.655   0.720  0.0164  0.3895 -1.4215
 1155SOL    HW215102   3.287   1.714   0.823  0.0813 -0.3573 -0.4725
 1156SOL     OW15103   2.188   3.674   7.297  0.1293  0.1578  0.2168
 1156SOL    HW115104   2.164   3.586   7.267 -0.1214  0.0881  0.6211
 1156SOL    HW215105   2.280   3.674   7.272 -0.5095  2.4712 -2.1829
 1157SOL     OW15106   3.768   2.658  15.527 -0.2770 -0.2285  0.4350
 1157SOL    HW115107   3.773   2.754  15.527 -0.0818 -0.2372 -0.5355
 1157SOL    HW215108   3.682   2.648  15.567 -0.9272 -0.9484 -1.1489
 1158SOL     OW15109   1.023   1.759  11.154  0.2357 -0.3799 -0.3292
 1158SOL    HW115110   1.049   1.767  11.245 -1.5331 -1.0537  0.2216
 1158SOL    HW215111   0.993   1.668  11.151 -1.3205  0.1499 -0.6936
 1159SOL     OW15112   1.885   0.974   4.332 -0.2519  0.0405 -0.2960
 1159SOL    HW115113   1.844   0.914   4.395  1.7155  0.4827  1.4127
 1159SOL    HW215114   1.910   1.051   4.383 -1.0091  0.2968 -0.3110
 1160SOL     OW15115   4.443   2.487   0.504 -0.0480 -0.7341 -0.3068
 1160SOL    HW115116   4.373   2.421   0.494 -0.1929 -1.0903  2.9313
 1160SOL    HW215117   4.399   2.543   0.568 -0.3971 -0.8651 -0.4298
 1161SOL     OW15118   0.515   2.361   6.985 -0.1043  0.0253  0.9273
 1161SOL    HW115119   0.595   2.406   7.015 -0.6145  1.9427 -0.5806
 1161SOL    HW215120   0.520   2.390   6.894  2.6887  0.4046  1.1826
 1162SOL     OW15121   1.010   3.438  13.457  0.2462 -0.1292  0.1445
 1162SOL    HW115122   0.947   3.503  13.427  0.8570 -0.8937 -2.7621
 1162SOL    HW215123   1.032   3.477  13.542  0.0197 -0.0257  0.1555
 1163SOL     OW15124   2.522   2.077   6.501 -0.1948  0.4748  0.4118
 1163SOL    HW115125   2.551   2.067   6.592  2.8613 -2.1173 -0.8562
 1163SOL    HW215126   2.428   2.077   6.518 -0.7592  1.0465 -2.7062
 1164SOL     OW15127   0.877   3.787   4.430  0.7945  0.1847  0.1992
 1164SOL    HW115128   0.854   3.784   4.338  1.4736  1.0604 -0.0049
 1164SOL    HW215129   0.929   3.866   4.445  1.4268 -0.3600  0.8795
 1165SOL     OW15130   1.255   3.190   6.185  0.7676  0.5690  0.4478
 1165SOL    HW115131   1.350   3.192   6.190  0.8905  1.1380 -2.4050
 1165SOL    HW215132   1.247   3.127   6.113 -1.3351 -1.5009  2.4445
 1166SOL     OW15133   1.394   2.857   6.677  0.3143 -0.1240  0.3839
 1166SOL    HW115134   1.398   2.880   6.770 -0.9308 -0.3241  0.4858
 1166SOL    HW215135   1.300   2.869   6.664  0.3153  1.3647  1.8015
 1167SOL     OW15136   2.715   1.653  12.267  0.2637  0.2056  0.6386
 1167SOL    HW115137   2.629   1.696  12.269 -0.4095 -1.1798  1.7634
 1167SOL    HW215138   2.708   1.582  12.203  0.3214 -0.7792  1.7274
 1168SOL     OW15139   3.806   4.089   3.177 -0.6408  0.4260 -0.3322
 1168SOL    HW115140   3.767   4.174   3.196  0.4598  0.5496  1.3596
 1168SOL    HW215141   3.893   4.094   3.218 -2.2858  1.6490  3.0547
 1169SOL     OW15142   2.074   0.794   5.399  0.5114 -0.1550  0.0835
 1169SOL    HW115143   2.026   0.716   5.371  0.7732 -0.4600  0.4932
 1169SOL    HW215144   2.162   0.758   5.402  0.1100 -1.0762  0.6249
 1170SOL     OW15145   2.815   4.088   7.738 -0.0986  0.5525 -0.0073
 1170SOL    HW115146   2.734   4.081   7.686 -0.0836  0.7594 -0.0597
 1170SOL    HW215147   2.880   4.083   7.668  0.4920 -0.5985  0.6335
 1171SOL     OW15148   2.072   2.095   9.124  0.2584 -0.3203  0.3517
 1171SOL    HW115149   2.127   2.044   9.064  0.4761  1.0185 -0.6020
 1171SOL    HW215150   2.134   2.163   9.152  0.5648 -0.0376 -1.0276
 1172SOL     OW15151   3.215   3.144  16.442  0.4077 -0.0619 -0.0577
 1172SOL    HW115152   3.168   3.089  16.379 -0.9884  1.6664 -0.5458
 1172SOL    HW215153   3.285   3.176  16.385 -1.1320  0.0415 -1.9211
 1173SOL     OW15154   0.197   0.594  15.738 -0.1111 -0.1077 -0.5098
 1173SOL    HW115155   0.168   0.684  15.753  2.2650  0.3805  1.2526
 1173SOL    HW215156   0.280   0.580  15.784 -2.0272  2.7009  3.7729
 1174SOL     OW15157   1.355   2.646   7.986  0.1016 -0.1674 -0.4099
 1174SOL    HW115158   1.266   2.635   7.954  0.2818  0.5367 -1.1542
 1174SOL    HW215159   1.353   2.736   8.017  0.4890  0.3332 -1.8501
 1175SOL     OW15160   0.585   1.817   4.889  0.0347  0.2236 -0.3519
 1175SOL    HW115161   0.514   1.752   4.892 -1.1892  1.5105 -1.9171
 1175SOL    HW215162   0.536   1.898   4.902 -0.1707  0.1397 -0.5906
 1176SOL     OW15163   2.397   0.801  13.962  0.6254 -0.3302  0.3937
 1176SOL    HW115164   2.326   0.752  14.003 -1.4517  1.1431 -1.4406
 1176SOL    HW215165   2.403   0.743  13.886 -1.0957  2.1095 -1.5905
 1177SOL     OW15166   3.916   2.909   3.836  0.2588  0.2556  0.2148
 1177SOL    HW115167   3.843   2.848   3.849  0.6502  0.1282  1.8644
 1177SOL    HW215168   3.960   2.907   3.921  0.8993 -1.8263 -0.1553
 1178SOL     OW15169   1.414   2.018   2.728  0.5447  0.4001 -0.7504
 1178SOL    HW115170   1.408   2.097   2.782 -0.6231 -1.0104  1.2027
 1178SOL    HW215171   1.475   1.979   2.792  0.7017  1.9082  0.0180
 1179SOL     OW15172   0.225   3.499   8.529  0.6154 -0.1089  0.0928
 1179SOL    HW115173   0.241   3.443   8.605 -3.5448  0.5684  1.4529
 1179SOL    HW215174   0.130   3.510   8.534  0.7031  0.0288  1.5395
 1180SOL     OW15175   1.578   0.326   2.248 -0.1898 -0.0107 -0.2868
 1180SOL    HW115176   1.545   0.305   2.336  0.2710 -2.1967 -0.6296
 1180SOL    HW215177   1.573   0.421   2.259 -0.7905 -0.3263  2.2515
 1181SOL     OW15178   2.479   0.579  11.901  0.3549  0.1864 -0.0337
 1181SOL    HW115179   2.436   0.493  11.895  1.5266 -0.2284 -2.2466
 1181SOL    HW215180   2.511   0.576  11.991 -0.9475 -1.6189  0.3789
 1182SOL     OW15181   3.608   2.255  11.829 -0.0012  0.0264 -0.5088
 1182SOL    HW115182   3.588   2.172  11.787  1.8446  0.0297 -1.4285
 1182SOL    HW215183   3.578   2.231  11.917  2.3646 -0.4351  0.1876
 1183SOL     OW15184   0.324   3.225   0.060 -0.3058 -0.3416 -0.0138
 1183SOL    HW115185   0.375   3.163   0.112  0.8711  0.7886  0.1902
 1183SOL    HW215186   0.391   3.291   0.040  0.0718  0.2992  3.2715
 1184SOL     OW15187   0.757   0.135  13.603  0.3238  0.3029 -0.6104
 1184SOL    HW115188   0.739   0.201  13.670  0.4988 -0.4883  0.2105
 1184SOL    HW215189   0.704   0.168  13.530 -2.3018 -0.9207  0.7511
 1185SOL     OW15190   1.233   0.095   3.335 -0.1335 -0.3410  0.2862
 1185SOL    HW115191   1.241   0.036   3.410  2.9098 -2.0415 -1.3592
 1185SOL    HW215192   1.202   0.026   3.276  0.6137 -0.9613  0.6208
 1186SOL     OW15193   0.850   1.001  16.240  0.0903 -0.1708  0.0070
 1186SOL    HW115194   0.811   1.070  16.188 -2.0488 -1.9080 -0.6849
 1186SOL    HW215195   0.799   1.008  16.321 -1.5972 -0.8098 -1.0014
 1187SOL     OW15196   3.973   2.744  15.718 -0.5195 -0.9754  0.1527
 1187SOL    HW115197   3.930   2.684  15.658  1.1448 -1.4699 -0.5609
 1187SOL    HW215198   3.952   2.828  15.678 -0.6018 -1.4012 -0.6929
 1188SOL     OW15199   3.201   1.507  15.580  0.0429  0.2009  0.4773
 1188SOL    HW115200   3.114   1.470  15.566 -0.3905  0.1252  3.3861
 1188SOL    HW215201   3.260   1.456  15.525 -1.3266  0.0551 -0.8658
 1189SOL     OW15202   0.060   0.860   7.379  0.2922  0.4423 -0.8505
 1189SOL    HW115203   4.717   0.829   7.422 -0.2336  1.4833 -1.0663
 1189SOL    HW215204   0.122   0.794   7.409 -0.2220  0.2686 -0.1614
 1190SOL     OW15205   2.049   2.807  11.152 -0.9501  0.0075 -0.8738
 1190SOL    HW115206   2.096   2.875  11.104  0.8712 -1.6425 -1.4280
 1190SOL    HW215207   2.109   2.780  11.222 -1.1343 -0.7504 -1.0061
 1191SOL     OW15208   3.731   1.523   1.540  0.4941  0.1777  0.6139
 1191SOL    HW115209   3.764   1.459   1.602 -0.1969 -0.1294  0.6638
 1191SOL    HW215210   3.748   1.602   1.592  1.2481  1.0511 -0.9598
 1192SOL     OW15211   4.336   1.431  14.166 -0.5560  0.4386  1.0683
 1192SOL    HW115212   4.311   1.391  14.083 -1.1518  1.8546  0.5737
 1192SOL    HW215213   4.306   1.520  14.147 -2.7533  0.1407  3.0054
 1193SOL     OW15214   0.129   3.077   1.133 -0.2760  0.1220  0.3446
 1193SOL    HW115215   0.061   3.055   1.196 -0.3923  0.1128  0.2157
 1193SOL    HW215216   0.196   3.085   1.201 -1.6930 -0.3416  1.8062
 1194SOL     OW15217   3.159   2.594  10.985 -0.1167 -0.2575  0.4057
 1194SOL    HW115218   3.247   2.578  11.019  0.0870 -1.3728 -0.6540
 1194SOL    HW215219   3.162   2.524  10.921  0.4532  0.1889 -0.0491
 1195SOL     OW15220   4.534   1.405   3.833 -0.1662 -0.0640 -0.2107
 1195SOL    HW115221   4.546   1.370   3.745 -0.7702 -1.0662  0.1070
 1195SOL    HW215222   4.573   1.340   3.891 -2.2540 -0.5472  0.6820
 1196SOL     OW15223   3.868   0.053   8.460 -0.3496  0.2420 -0.3392
 1196SOL    HW115224   3.840   4.702   8.484  2.4393 -0.3502  0.7808
 1196SOL    HW215225   3.890   0.045   8.367 -0.9953  0.5610 -0.5165
 1197SOL     OW15226   1.559   0.374  11.404 -0.2250 -0.0796  0.0174
 1197SOL    HW115227   1.601   0.385  11.489 -0.1489  1.0665 -0.1801
 1197SOL    HW215228   1.555   0.278  11.397 -0.0358 -0.2202  1.6621
 1198SOL     OW15229   1.310   1.839   5.641 -1.0394  0.3912  1.0231
 1198SOL    HW115230   1.313   1.895   5.719  1.0145  0.2080  1.0758
 1198SOL    HW215231   1.239   1.784   5.673 -0.8919 -0.7648 -0.6060
 1199SOL     OW15232   2.261   3.923  15.333 -0.0813  0.1384  0.6208
 1199SOL    HW115233   2.214   4.006  15.337 -0.7359 -0.1716 -0.7453
 1199SOL    HW215234   2.311   3.924  15.415  0.5262  0.1390  0.2559
 1200SOL     OW15235   0.306   3.675  17.275 -0.1734  0.2830  0.5340
 1200SOL    HW115236   0.234   3.656  17.214 -2.3471  2.5290  2.4386
 1200SOL    HW215237   0.276   3.758  17.312 -1.1375  0.4274 -0.5631
 1201SOL     OW15238   3.128   1.074   5.981  0.1160  0.3142 -0.2875
 1201SOL    HW115239   3.120   1.093   6.074  0.4478 -1.6570  0.1419
 1201SOL    HW215240   3.054   1.117   5.937 -0.8402  0.9504  1.9262
 1202SOL     OW15241   0.739   3.734  11.348  0.0322  0.4026 -0.4593
 1202SOL    HW115242   0.814   3.793  11.342 -0.6984  1.3203 -0.5868
 1202SOL    HW215243   0.732   3.712  11.441 -1.7286 -0.8932 -0.9082
 1203SOL     OW15244   1.060   2.709   3.852  0.1630  0.2839 -0.3128
 1203SOL    HW115245   1.030   2.797   3.877 -1.2343 -0.8488  2.0151
 1203SOL    HW215246   1.091   2.732   3.764  1.2321 -0.3473 -0.0882
 1204SOL     OW15247   4.133   0.286   3.564 -0.1969  0.0258  0.3931
 1204SOL    HW115248   4.075   0.243   3.501  0.7597 -3.0687  1.6131
 1204SOL    HW215249   4.176   0.357   3.517 -0.1510 -0.2820 -0.0245
 1205SOL     OW15250   2.175   3.598   5.279  0.4862 -0.2578  0.1661
 1205SOL    HW115251   2.246   3.612   5.216 -0.4179 -0.4207 -0.8753
 1205SOL    HW215252   2.162   3.680   5.327  0.7882  0.4651 -0.9795
 1206SOL     OW15253   0.035   1.467   5.842  0.1603  0.5507 -0.3370
 1206SOL    HW115254   0.013   1.374   5.840 -1.0004  0.8234 -0.2725
 1206SOL    HW215255   0.106   1.471   5.777 -0.0676  0.2521 -0.6039
 1207SOL     OW15256   1.656   0.172   4.686  0.2346  0.3184  0.0085
 1207SOL    HW115257   1.649   0.210   4.598 -1.5606  1.4017  0.6091
 1207SOL    HW215258   1.685   0.084   4.663 -1.7001  0.1499 -1.7886
 1208SOL     OW15259   0.440   3.273   6.293  0.2922 -0.1506  0.9790
 1208SOL    HW115260   0.370   3.303   6.351 -0.3769  1.0745 -0.4656
 1208SOL    HW215261   0.514   3.319   6.333 -0.4026  1.7445  0.0629
 1209SOL     OW15262   0.360   2.910   7.847 -0.2827  0.2506 -0.3880
 1209SOL    HW115263   0.313   2.900   7.930  0.6009 -0.6649  0.0083
 1209SOL    HW215264   0.284   2.888   7.794 -0.5314 -1.3133  0.6086
 1210SOL     OW15265   3.736   4.545   8.467 -0.1596  0.4076 -0.3835
 1210SOL    HW115266   3.727   4.469   8.409 -0.8109 -1.8866  2.6683
 1210SOL    HW215267   3.822   4.524   8.503 -0.0102  0.9802 -0.4057
 1211SOL     OW15268   4.674   4.228   9.315 -0.1697 -0.3583  0.0646
 1211SOL    HW115269   0.004   4.276   9.266 -0.3721 -0.1547 -0.0095
 1211SOL    HW215270   4.646   4.298   9.374 -1.1783 -1.1032  0.4767
 1212SOL     OW15271   1.977   0.837   4.630  0.0280 -0.1508 -0.0398
 1212SOL    HW115272   1.910   0.898   4.662 -0.2718 -0.0759 -0.8063
 1212SOL    HW215273   1.963   0.753   4.675 -1.4211  0.1476  0.0807
 1213SOL     OW15274   1.700   3.276  11.384  0.9528  0.0272  0.2811
 1213SOL    HW115275   1.682   3.241  11.471 -1.7627 -0.5388 -0.5134
 1213SOL    HW215276   1.780   3.327  11.398  0.1203  1.4314 -0.0702
 1214SOL     OW15277   4.613   4.361   0.430  0.2095  0.2347  0.1801
 1214SOL    HW115278   4.542   4.299   0.449  0.8465 -0.3728  0.5632
 1214SOL    HW215279   4.685   4.308   0.396  0.7215  0.7588  0.4576
 1215SOL     OW15280   3.523   2.937   4.963  0.6225  0.0404  0.0185
 1215SOL    HW115281   3.504   3.016   4.913  1.0137 -0.5509 -1.0688
 1215SOL    HW215282   3.458   2.883   4.918  0.4519 -0.5691  0.9886
 1216SOL     OW15283   4.376   4.236   8.672 -0.2014  0.6217 -0.4646
 1216SOL    HW115284   4.453   4.286   8.697 -0.4887 -0.0089  1.7037
 1216SOL    HW215285   4.319   4.310   8.694  0.1183  0.8174 -0.2863
 1217SOL     OW15286   3.196   3.141   6.329 -0.3492 -0.0378 -0.7480
 1217SOL    HW115287   3.175   3.235   6.324  0.7852  0.2333 -0.3794
 1217SOL    HW215288   3.288   3.142   6.303 -0.1015 -0.8990  0.0926
 1218SOL     OW15289   2.907   0.807   2.345 -0.0727 -0.1473 -0.5691
 1218SOL    HW115290   2.997   0.786   2.366 -0.4110 -2.0390 -0.9990
 1218SOL    HW215291   2.875   0.735   2.291  0.4410 -0.6433 -0.1980
 1219SOL     OW15292   3.131   2.078   5.622 -0.5649  0.3910  0.2317
 1219SOL    HW115293   3.170   1.993   5.603  0.9090  0.9617  0.6583
 1219SOL    HW215294   3.220   2.107   5.644 -0.4171  1.5411 -1.9282
 1220SOL     OW15295   0.307   0.401   9.971  0.4673  0.0072  0.3319
 1220SOL    HW115296   0.217   0.412  10.003  0.1625 -1.5712 -0.0044
 1220SOL    HW215297   0.353   0.401  10.056  1.3377  1.1920 -0.1398
 1221SOL     OW15298   3.572   0.498   5.592 -0.3237  0.3915  0.2114
 1221SOL    HW115299   3.480   0.503   5.615 -0.6379  1.4523 -1.2357
 1221SOL    HW215300   3.607   0.545   5.668  0.0748 -0.6504  0.6751
 1222SOL     OW15301   2.039   2.755   6.705 -0.6679 -0.3655 -0.3103
 1222SOL    HW115302   1.976   2.767   6.776  0.3091 -3.8174  1.1311
 1222SOL    HW215303   2.080   2.840   6.688 -0.9443 -0.0692  0.5038
 1223SOL     OW15304   3.870   0.503  13.893 -0.1625  0.3726 -0.3052
 1223SOL    HW115305   3.792   0.529  13.941 -1.5034 -3.2105 -0.5286
 1223SOL    HW215306   3.937   0.514  13.960 -1.3949  1.1749  0.7892
 1224SOL     OW15307   4.250   2.267   5.212  0.3828 -0.1140  0.0602
 1224SOL    HW115308   4.233   2.357   5.240 -1.6784 -0.8715  1.1947
 1224SOL    HW215309   4.299   2.283   5.132  0.9859  1.1808  0.6884
 1225SOL     OW15310   1.959   2.480   9.493  0.2717  0.1794 -1.0226
 1225SOL    HW115311   1.893   2.546   9.514 -0.5272  0.5102 -4.6181
 1225SOL    HW215312   1.965   2.432   9.576  0.0266 -2.3986 -2.4893
 1226SOL     OW15313   4.413   3.672   8.332  0.0984 -0.4701  0.3851
 1226SOL    HW115314   4.463   3.591   8.326  0.9108 -0.0681  1.7221
 1226SOL    HW215315   4.434   3.716   8.415  1.3406 -0.6653  0.1845
 1227SOL     OW15316   2.370   0.685  11.660  0.2687  0.0489 -0.0817
 1227SOL    HW115317   2.428   0.677  11.736  0.4054 -1.1693 -0.3051
 1227SOL    HW215318   2.413   0.756  11.613 -0.9721  0.4380 -0.6309
 1228SOL     OW15319   0.637   4.329  14.794 -0.0163 -0.6868 -0.3785
 1228SOL    HW115320   0.585   4.282  14.859 -2.1869  0.4416 -1.2744
 1228SOL    HW215321   0.729   4.327  14.818  0.1119  0.9346 -0.7165
 1229SOL     OW15322   2.335   1.480   2.657  0.1683 -0.2294  0.0160
 1229SOL    HW115323   2.381   1.562   2.638  0.1990 -0.3642 -0.4880
 1229SOL    HW215324   2.247   1.511   2.673  0.0675  0.1110 -1.1847
 1230SOL     OW15325   4.390   3.914   7.800  0.0113  0.1244  0.2391
 1230SOL    HW115326   4.352   3.986   7.750 -0.1315  1.0162  1.6291
 1230SOL    HW215327   4.467   3.945   7.847 -0.5405  1.2150  0.4247
 1231SOL     OW15328   0.794   1.553   4.227  0.3567  0.4153 -0.0640
 1231SOL    HW115329   0.866   1.497   4.256  0.9450 -0.1788 -2.6697
 1231SOL    HW215330   0.731   1.491   4.191  1.9477 -1.1615 -0.1260
 1232SOL     OW15331   2.155   0.096   8.277 -0.3437  0.5339  0.1377
 1232SOL    HW115332   2.138   0.140   8.194 -1.6518  0.8083  0.5535
 1232SOL    HW215333   2.066   0.065   8.295 -1.0364  2.5035  0.1789
 1233SOL     OW15334   2.868   2.256  14.058  0.9648  0.2085 -0.6083
 1233SOL    HW115335   2.903   2.254  13.969 -2.0692  3.3163 -1.8793
 1233SOL    HW215336   2.810   2.330  14.043 -0.3341 -0.7846 -0.4727
 1234SOL     OW15337   1.925   2.871  16.876 -0.1202 -0.9065  0.8206
 1234SOL    HW115338   1.979   2.945  16.850  0.6357 -2.0717 -0.9336
 1234SOL    HW215339   1.838   2.911  16.869  0.3972 -0.0704 -0.8432
 1235SOL     OW15340   2.630   3.743  16.946  0.1946  0.6332  0.2365
 1235SOL    HW115341   2.629   3.695  16.864 -0.0462 -0.4632  0.8789
 1235SOL    HW215342   2.563   3.685  16.984 -1.5279  2.2372 -0.3121
 1236SOL     OW15343   3.099   1.078  16.614 -0.0682  0.3312  0.1390
 1236SOL    HW115344   3.047   1.159  16.616  1.7895  1.5374  0.1887
 1236SOL    HW215345   3.179   1.109  16.657  0.1847  0.3653 -0.3642
 1237SOL     OW15346   1.427   2.991   8.533  0.0219 -0.0227  0.0261
 1237SOL    HW115347   1.453   2.967   8.622  1.3834  2.0321  0.1868
 1237SOL    HW215348   1.394   2.905   8.504  2.3328 -0.1030 -2.3659
 1238SOL     OW15349   0.209   4.600   7.293 -0.1127  0.4152  0.0705
 1238SOL    HW115350   0.234   4.508   7.301 -1.8848  0.1762  2.8854
 1238SOL    HW215351   0.139   4.617   7.356  0.4062  0.2202  0.7034
 1239SOL     OW15352   3.361   0.058   5.272  0.3828  0.0639 -0.1127
 1239SOL    HW115353   3.295   0.062   5.202 -1.0328  1.0222  1.2973
 1239SOL    HW215354   3.426   0.119   5.236  0.6492  0.4846  1.0727
 1240SOL     OW15355   1.003   2.303   2.428  0.0475 -0.3526 -0.3256
 1240SOL    HW115356   1.007   2.273   2.337  1.1839  1.5938 -0.9378
 1240SOL    HW215357   1.086   2.266   2.458  0.2176 -0.2302 -0.6424
 1241SOL     OW15358   1.446   0.293   6.488 -0.4490  0.2522 -0.3254
 1241SOL    HW115359   1.423   0.206   6.521 -0.1445  0.1997 -0.2570
 1241SOL    HW215360   1.508   0.269   6.419 -0.3266 -0.5471  0.0652
 1242SOL     OW15361   3.988   4.055  15.294 -0.3207  0.3498 -0.3034
 1242SOL    HW115362   4.013   4.075  15.384 -1.7408  1.7394 -0.2149
 1242SOL    HW215363   4.066   4.007  15.266 -0.5702 -0.0781 -0.2726
 1243SOL     OW15364   1.071   2.346   8.998 -0.2479  0.7848  0.2736
 1243SOL    HW115365   1.010   2.275   9.017  1.6969 -0.8067  0.5508
 1243SOL    HW215366   1.057   2.367   8.906 -0.1062 -1.1791 -0.1962
 1244SOL     OW15367   0.288   3.030   9.656  0.4596 -0.4385  0.0765
 1244SOL    HW115368   0.312   3.105   9.711  0.3215 -0.8938  0.7629
 1244SOL    HW215369   0.252   2.972   9.724 -0.0846 -2.0211 -1.5727
 1245SOL     OW15370   0.910   0.415   8.521  0.7691 -0.1044 -0.1995
 1245SOL    HW115371   0.857   0.490   8.546  4.5763  2.2118  0.8806
 1245SOL    HW215372   0.973   0.397   8.591 -0.0075 -0.0809  0.4929
 1246SOL     OW15373   2.331   1.683  13.022 -0.1969  0.1482  0.5449
 1246SOL    HW115374   2.347   1.683  13.116 -1.1311  1.9746  0.7113
 1246SOL    HW215375   2.261   1.749  13.017 -0.2940  0.0026 -0.0882
 1247SOL     OW15376   3.055   3.657  15.680 -0.7236  0.1166  0.5311
 1247SOL    HW115377   3.095   3.651  15.593  0.4618 -1.4692  1.1812
 1247SOL    HW215378   3.121   3.597  15.715 -0.2459  0.7932  0.7844
 1248SOL     OW15379   3.689   4.531  14.350  1.1019  0.0456  0.4428
 1248SOL    HW115380   3.624   4.551  14.283  2.3134  1.0638 -0.4172
 1248SOL    HW215381   3.767   4.564  14.307  1.7253  0.4448  1.8644
 1249SOL     OW15382   4.015   2.394   7.597 -0.9356 -0.5197  0.3785
 1249SOL    HW115383   4.045   2.304   7.584  1.2990  0.5988 -2.2386
 1249SOL    HW215384   3.938   2.403   7.541 -0.8592  0.0586  0.3715
 1250SOL     OW15385   1.615   2.664   5.433  0.4425  0.2536 -0.0239
 1250SOL    HW115386   1.541   2.686   5.376  1.1889  1.3041 -0.5848
 1250SOL    HW215387   1.567   2.620   5.503  1.9470 -1.5802 -0.1322
 1251SOL     OW15388   4.618   4.236  10.390 -0.0416  0.5363 -0.1836
 1251SOL    HW115389   4.524   4.250  10.381 -0.0562  1.3175  1.1467
 1251SOL    HW215390   4.624   4.218  10.484  3.1122  3.3407  0.1569
 1252SOL     OW15391   2.084   0.952   4.951  0.2577 -0.3717  0.6720
 1252SOL    HW115392   2.030   0.881   4.985  1.5327 -1.9678 -0.6473
 1252SOL    HW215393   2.059   1.028   5.003  0.2948  0.1589 -0.0840
 1253SOL     OW15394   2.829   1.597   1.234 -0.4732 -0.1497  0.4129
 1253SOL    HW115395   2.742   1.564   1.214  0.1275 -1.6099  0.2594
 1253SOL    HW215396   2.821   1.594   1.329 -1.4437 -1.3903  0.2855
 1254SOL     OW15397   1.515   2.504   9.057 -0.6173  0.2812 -0.3413
 1254SOL    HW115398   1.505   2.511   9.152  1.1509  0.5087 -0.1668
 1254SOL    HW215399   1.555   2.418   9.043  1.9057  0.9739  2.6909
 1255SOL     OW15400   3.403   3.811   9.068  0.5711  0.1651  0.0247
 1255SOL    HW115401   3.402   3.820   9.163  0.9277  0.7713 -0.0285
 1255SOL    HW215402   3.457   3.885   9.039  1.0722  0.7619  2.4977
 1256SOL     OW15403   0.400   0.573   8.966  0.5515 -0.5556 -0.4891
 1256SOL    HW115404   0.363   0.655   8.933  2.4221  0.6653  0.4338
 1256SOL    HW215405   0.495   0.583   8.967  0.3236  1.4730  0.6500
 1257SOL     OW15406   0.925   1.561   0.349  0.4698 -0.1114  0.3795
 1257SOL    HW115407   1.009   1.564   0.394  1.9550  2.1085 -2.4926
 1257SOL    HW215408   0.870   1.504   0.403 -1.9076 -0.7678 -2.7271
 1258SOL     OW15409   2.599   1.409   1.925 -0.1149  0.1927 -0.7244
 1258SOL    HW115410   2.510   1.440   1.946 -1.0309 -2.6671 -0.4534
 1258SOL    HW215411   2.653   1.446   1.995 -1.0460 -1.8530  1.0874
 1259SOL     OW15412   3.087   1.292   2.575  0.5070 -0.4403 -0.6444
 1259SOL    HW115413   3.178   1.303   2.546 -0.2571 -0.6643 -3.0417
 1259SOL    HW215414   3.064   1.210   2.533 -0.8740 -2.1601  3.4202
 1260SOL     OW15415   0.200   4.490   2.290  0.0638 -0.2331  0.7328
 1260SOL    HW115416   0.224   4.457   2.204 -2.2214  0.1112 -0.0525
 1260SOL    HW215417   0.239   4.576   2.305 -0.4490  0.2443 -0.6830
 1261SOL     OW15418   4.732   3.342   2.307 -0.1889 -0.3568  0.2588
 1261SOL    HW115419   4.640   3.334   2.280 -0.1094  1.1081 -0.4185
 1261SOL    HW215420   0.034   3.326   2.220  0.1883 -1.1823  0.5826
 1262SOL     OW15421   3.129   3.598   7.748  0.2896 -0.1569 -0.1669
 1262SOL    HW115422   3.072   3.569   7.677  1.7161 -0.0866 -1.3449
 1262SOL    HW215423   3.220   3.576   7.727  0.2682  1.3204 -1.8259
 1263SOL     OW15424   2.778   4.290   8.217  0.2404  0.3908  0.1812
 1263SOL    HW115425   2.832   4.212   8.200 -0.2651  0.3090 -1.0478
 1263SOL    HW215426   2.703   4.249   8.260  0.4241 -0.9897 -0.8197
 1264SOL     OW15427   4.245   4.209  11.844 -0.1227 -0.1585  0.5567
 1264SOL    HW115428   4.328   4.194  11.799 -1.0096 -0.9337 -0.7918
 1264SOL    HW215429   4.248   4.301  11.872  0.2661 -0.4928  1.6276
 1265SOL     OW15430   4.114   2.205   2.873  0.9610 -0.0519  0.0038
 1265SOL    HW115431   4.043   2.152   2.909  0.5094  0.9693  0.6129
 1265SOL    HW215432   4.127   2.284   2.926  1.7858  0.1781 -0.5358
 1266SOL     OW15433   2.381   4.617   9.182 -0.2862 -0.2517  0.2871
 1266SOL    HW115434   2.307   4.678   9.177 -1.2835 -1.3604  1.4043
 1266SOL    HW215435   2.347   4.530   9.160 -0.4359 -0.0835 -0.1493
 1267SOL     OW15436   3.412   4.585  16.503 -0.2648 -0.2589  0.3003
 1267SOL    HW115437   3.470   4.516  16.470 -1.2496 -1.1719  0.4749
 1267SOL    HW215438   3.329   4.543  16.483 -0.4270 -0.6058  1.6836
 1268SOL     OW15439   4.578   1.460   8.093  0.9341 -0.6234 -0.3796
 1268SOL    HW115440   4.672   1.452   8.111  0.7748  0.0769  0.7710
 1268SOL    HW215441   4.555   1.534   8.149 -1.4318  0.1940 -2.4127
 1269SOL     OW15442   1.328   0.802  10.088 -0.4369  0.1606  0.3138
 1269SOL    HW115443   1.234   0.799  10.069  0.0732 -0.6285 -2.0978
 1269SOL    HW215444   1.327   0.783  10.182 -1.8343 -0.2908  0.2079
 1270SOL     OW15445   0.094   3.829   7.666 -0.3803  0.5150  0.0866
 1270SOL    HW115446   0.037   3.772   7.718  0.0053  0.4791  0.4729
 1270SOL    HW215447   0.159   3.842   7.735  1.4364 -0.7875 -1.3925
 1271SOL     OW15448   0.475   3.805  16.086 -0.2786  0.5346  0.3067
 1271SOL    HW115449   0.502   3.811  16.177 -2.3265 -1.5198  1.0476
 1271SOL    HW215450   0.549   3.755  16.050 -0.3242  2.3064 -2.2379
 1272SOL     OW15451   3.062   1.350  12.480 -0.5267  0.8501 -0.4361
 1272SOL    HW115452   2.976   1.352  12.523 -1.0301 -0.2181 -1.3951
 1272SOL    HW215453   3.073   1.436  12.440 -0.8624  0.0120 -2.3317
 1273SOL     OW15454   4.279   1.343  16.306 -0.6051  0.0738  0.1799
 1273SOL    HW115455   4.193   1.333  16.266  1.0975 -0.1278 -3.3975
 1273SOL    HW215456   4.271   1.293  16.388 -0.8686 -1.3282 -0.6902
 1274SOL     OW15457   3.547   0.312   8.654 -0.1591 -0.6190 -0.2208
 1274SOL    HW115458   3.499   0.306   8.737 -0.8863 -0.0475 -0.6057
 1274SOL    HW215459   3.482   0.356   8.599 -1.1654  1.4414  2.5771
 1275SOL     OW15460   0.282   4.532  13.306  0.2801 -0.1980 -0.1549
 1275SOL    HW115461   0.309   4.466  13.242 -1.4074 -1.5831  0.5686
 1275SOL    HW215462   0.340   4.523  13.381 -0.4052  0.5097  0.4676
 1276SOL     OW15463   1.018   3.000  14.488  0.4040  0.0319 -0.2150
 1276SOL    HW115464   1.067   2.942  14.546 -0.8972  0.3431  1.1846
 1276SOL    HW215465   1.060   2.973  14.406 -0.0342 -2.0540  0.2459
 1277SOL     OW15466   2.377   2.512  15.479  0.3307  0.4252  0.2378
 1277SOL    HW115467   2.439   2.490  15.410 -0.0692  1.5716 -0.4769
 1277SOL    HW215468   2.325   2.584  15.444 -0.9916 -0.6074  0.0902
 1278SOL     OW15469   1.379   2.837   6.116  0.2357 -0.3114  0.0281
 1278SOL    HW115470   1.466   2.868   6.092  1.1006 -1.3202  1.9094
 1278SOL    HW215471   1.326   2.908   6.080 -0.6289  0.1459  2.2439
 1279SOL     OW15472   2.513   3.989   2.306 -0.2415 -0.3056 -0.2645
 1279SOL    HW115473   2.547   3.920   2.363  0.1350  1.0885  1.1822
 1279SOL    HW215474   2.463   4.045   2.365 -1.3014 -0.2392 -1.2409
 1280SOL     OW15475   3.170   2.779   8.260  0.1369 -0.4317 -0.0567
 1280SOL    HW115476   3.078   2.805   8.263  0.4148  0.8778 -2.6044
 1280SOL    HW215477   3.189   2.817   8.345 -0.1578  0.2449 -0.2948
 1281SOL     OW15478   0.348   0.208   8.330 -0.2167  0.4380 -0.4078
 1281SOL    HW115479   0.434   0.202   8.287  0.4341  2.6865  0.6091
 1281SOL    HW215480   0.377   0.185   8.418  2.5197 -2.4473 -2.0320
 1282SOL     OW15481   0.788   3.778   5.880 -0.0781 -0.1732  0.0451
 1282SOL    HW115482   0.845   3.752   5.953 -1.3035  0.5590  1.2680
 1282SOL    HW215483   0.734   3.845   5.922 -1.0782 -0.4831 -0.7647
 1283SOL     OW15484   1.598   4.179   4.933  0.7574  0.5524  0.1953
 1283SOL    HW115485   1.607   4.259   4.881 -0.0086  0.8032  0.4434
 1283SOL    HW215486   1.617   4.112   4.868 -1.5223  1.9650 -1.8957
 1284SOL     OW15487   3.274   1.431  15.836  0.1892  0.2746 -0.4467
 1284SOL    HW115488   3.236   1.452  15.751 -0.1766 -0.3824 -0.4485
 1284SOL    HW215489   3.312   1.518  15.849  0.0179  0.4760 -1.2985
 1285SOL     OW15490   1.022   3.574  11.990 -0.3034 -0.4707 -0.0781
 1285SOL    HW115491   1.073   3.560  12.069 -0.9196 -2.0316  0.0465
 1285SOL    HW215492   0.976   3.490  11.985  0.4773 -0.9143  0.1266
 1286SOL     OW15493   0.028   3.644  15.040  0.5108  0.0390 -0.9564
 1286SOL    HW115494   0.022   3.561  14.993 -1.3115  0.4387 -1.4466
 1286SOL    HW215495   4.683   3.685  15.010  1.0217  0.7947 -1.3260
 1287SOL     OW15496   1.649   3.341   6.819  0.2961  0.2153  0.9881
 1287SOL    HW115497   1.583   3.341   6.889  0.0455  2.2172  0.7540
 1287SOL    HW215498   1.635   3.432   6.792  3.3796  0.6519  0.9145
 1288SOL     OW15499   1.869   4.137  11.872  0.2008 -0.3847  0.5580
 1288SOL    HW115500   1.800   4.200  11.849  0.8139  0.3173  0.6296
 1288SOL    HW215501   1.846   4.059  11.822  1.9959 -0.3434 -0.3187
 1289SOL     OW15502   4.354   2.036   8.379 -0.6333  0.0568 -0.0355
 1289SOL    HW115503   4.290   2.082   8.324 -1.0243  0.9004  1.1228
 1289SOL    HW215504   4.322   1.949   8.401  1.7755 -1.7806 -3.9055
 1290SOL     OW15505   0.172   1.933   6.522  0.8288 -0.3720 -0.1883
 1290SOL    HW115506   0.117   1.855   6.532  1.5552 -0.9851 -0.9370
 1290SOL    HW215507   0.111   2.004   6.540 -0.5035 -1.4579 -0.4896
 1291SOL     OW15508   1.222   1.006   6.551  0.9674  0.2205  0.0534
 1291SOL    HW115509   1.236   0.975   6.640 -0.5289  0.0827  0.2440
 1291SOL    HW215510   1.305   0.993   6.505 -0.2941  0.7754 -2.3743
 1292SOL     OW15511   0.519   1.363  12.761 -0.0172  0.1784  0.2794
 1292SOL    HW115512   0.597   1.313  12.737 -0.2493 -1.4890  2.9448
 1292SOL    HW215513   0.537   1.383  12.853  0.7839  0.9320 -0.0516
 1293SOL     OW15514   1.219   1.826   8.356 -0.7313 -0.0114 -0.5487
 1293SOL    HW115515   1.128   1.849   8.337 -0.5626  1.3403  0.2822
 1293SOL    HW215516   1.260   1.895   8.409 -0.8027  0.2017 -0.7677
 1294SOL     OW15517   2.222   3.664   8.799 -0.7606  0.3097 -0.3639
 1294SOL    HW115518   2.228   3.586   8.854 -1.8170  1.3502  1.2073
 1294SOL    HW215519   2.250   3.737   8.853 -0.5100  1.6589 -2.2945
 1295SOL     OW15520   3.595   0.855   3.251 -0.6313  0.1623  0.3651
 1295SOL    HW115521   3.511   0.886   3.216  0.1625 -1.4556 -2.9325
 1295SOL    HW215522   3.648   0.902   3.187 -1.3479 -0.2815 -0.5631
 1296SOL     OW15523   0.872   1.465   1.769  0.3283 -0.0538 -0.2368
 1296SOL    HW115524   0.794   1.518   1.751  1.6014  1.9354  0.1962
 1296SOL    HW215525   0.860   1.402   1.698 -1.4045 -0.8148  0.7061
 1297SOL     OW15526   3.972   1.103   9.312 -0.0565 -0.0172  0.0626
 1297SOL    HW115527   4.017   1.066   9.235  0.6166 -1.2927  1.0602
 1297SOL    HW215528   3.892   1.051   9.319 -0.0373 -0.1784 -0.8720
 1298SOL     OW15529   2.869   3.794   0.632 -0.0463 -0.7329  0.3239
 1298SOL    HW115530   2.810   3.870   0.633 -0.3184 -0.9550  1.2909
 1298SOL    HW215531   2.921   3.817   0.556  0.3120 -1.4656  0.3479
 1299SOL     OW15532   1.900   2.829   2.407 -0.0740 -0.4987  0.0576
 1299SOL    HW115533   1.959   2.853   2.478  1.2185  1.4037 -1.6309
 1299SOL    HW215534   1.819   2.839   2.456 -0.2818  0.7676 -0.5329
 1300SOL     OW15535   2.091   0.930  12.955  0.1099 -0.1657 -0.0816
 1300SOL    HW115536   2.155   1.001  12.949 -0.0251 -0.0317  0.0626
 1300SOL    HW215537   2.137   0.847  12.940 -2.0075 -1.2325 -0.7221
 1301SOL     OW15538   4.570   3.817   8.988 -0.5567  0.0945 -0.6376
 1301SOL    HW115539   4.493   3.813   9.044  0.5249 -1.7173  0.7002
 1301SOL    HW215540   4.539   3.757   8.921 -0.3859  0.3569 -0.9546
 1302SOL     OW15541   1.498   1.900   6.284  0.3727  0.4583 -0.1153
 1302SOL    HW115542   1.515   1.856   6.201 -1.5113 -3.3185  1.4942
 1302SOL    HW215543   1.425   1.847   6.316  0.2655  1.3512  1.1462
 1303SOL     OW15544   1.112   3.005   0.432  0.2375  0.3955  0.8289
 1303SOL    HW115545   1.146   3.081   0.385  2.9025 -0.4305  1.4411
 1303SOL    HW215546   1.151   2.941   0.373  2.3689  2.8240 -0.3802
 1304SOL     OW15547   1.572   2.350   2.946  0.0829  0.1608 -0.0532
 1304SOL    HW115548   1.646   2.304   2.986 -0.3868 -0.2215  0.3770
 1304SOL    HW215549   1.616   2.404   2.880  1.1969 -1.4721 -0.6449
 1305SOL     OW15550   4.233   0.442  11.101 -1.0386  0.6446  0.0095
 1305SOL    HW115551   4.145   0.476  11.118 -1.7769 -1.3782  0.2283
 1305SOL    HW215552   4.282   0.479  11.174  0.2314  1.2676 -1.1603
 1306SOL     OW15553   1.435   2.446   0.726 -0.4276  0.0077 -0.3839
 1306SOL    HW115554   1.515   2.438   0.675 -0.1944  1.3082 -0.2130
 1306SOL    HW215555   1.369   2.444   0.656 -1.6855  0.7387  0.7952
 1307SOL     OW15556   3.704   4.313   6.714  0.0953 -0.1031 -0.5680
 1307SOL    HW115557   3.632   4.329   6.653 -1.0377  0.4587  0.9107
 1307SOL    HW215558   3.670   4.366   6.786  0.7488 -0.8344  0.2747
 1308SOL     OW15559   1.042   2.685   8.868 -0.3018 -0.4779 -0.0202
 1308SOL    HW115560   1.098   2.630   8.923  0.1898  0.5286  0.4824
 1308SOL    HW215561   1.054   2.768   8.913  2.5023 -0.3609 -0.9696
 1309SOL     OW15562   4.593   2.215  15.650  0.9261  0.0373 -0.8283
 1309SOL    HW115563   4.568   2.229  15.742 -0.9635 -3.2036 -0.8378
 1309SOL    HW215564   4.677   2.177  15.674  0.4752 -0.1624  0.4766
 1310SOL     OW15565   4.028   3.510   3.331 -0.0290  0.5242  0.3989
 1310SOL    HW115566   4.088   3.566   3.380  0.3305 -0.4380  1.0466
 1310SOL    HW215567   3.949   3.529   3.380  1.6114  3.0353  2.0533
 1311SOL     OW15568   1.205   3.174   3.361  0.0879  0.2376  0.2085
 1311SOL    HW115569   1.266   3.239   3.325  0.5717 -0.2870  0.0816
 1311SOL    HW215570   1.181   3.215   3.444  0.9298 -1.7269  1.4075
 1312SOL     OW15571   1.720   2.407   2.729  0.4967 -0.2191  0.1533
 1312SOL    HW115572   1.715   2.477   2.664 -0.8849  0.7682  1.3156
 1312SOL    HW215573   1.775   2.344   2.683 -0.5991 -2.1927  1.5610
 1313SOL     OW15574   3.329   2.153   6.493  0.0034 -0.4505 -0.5160
 1313SOL    HW115575   3.407   2.137   6.439 -0.0555 -0.3596 -0.6267
 1313SOL    HW215576   3.362   2.236   6.528 -3.8803  1.0109 -0.3197
 1314SOL     OW15577   2.844   3.233   8.726 -0.7079  0.1523 -0.3678
 1314SOL    HW115578   2.808   3.250   8.813 -1.7805  0.8156 -0.9427
 1314SOL    HW215579   2.865   3.322   8.699 -1.6365  0.9722  1.6655
 1315SOL     OW15580   0.678   3.102  15.524 -0.1496  0.1166  0.1404
 1315SOL    HW115581   0.644   3.124  15.437  0.1005  1.0199  0.2655
 1315SOL    HW215582   0.756   3.157  15.517 -0.7259  0.8874 -0.2740
 1316SOL     OW15583   2.423   3.525   4.501 -0.2882  0.6653  0.1137
 1316SOL    HW115584   2.486   3.562   4.439  0.0837 -3.1964 -1.7766
 1316SOL    HW215585   2.481   3.498   4.572  1.2996 -1.8228 -2.1380
 1317SOL     OW15586   0.283   0.863   3.229  0.0066  0.8125 -0.1206
 1317SOL    HW115587   0.352   0.909   3.277 -1.0216  0.6180  1.5293
 1317SOL    HW215588   0.222   0.848   3.301 -0.5937  1.5457 -0.4738
 1318SOL     OW15589   3.071   2.235   6.434  0.2257 -0.1520  0.7311
 1318SOL    HW115590   3.152   2.203   6.473  0.3930  0.1487  0.6340
 1318SOL    HW215591   3.012   2.186   6.491  1.5161 -2.2027  0.3058
 1319SOL     OW15592   1.438   3.953   1.456 -0.1947  0.2803  0.3449
 1319SOL    HW115593   1.390   3.870   1.458 -0.0210  0.1797  0.3413
 1319SOL    HW215594   1.454   3.962   1.550  0.6114  0.4219  0.1927
 1320SOL     OW15595   4.513   0.861   4.512 -0.3772 -0.2467  0.0147
 1320SOL    HW115596   4.462   0.843   4.591 -2.1443 -0.8977 -1.2808
 1320SOL    HW215597   4.447   0.903   4.457 -0.6405 -1.8691 -0.9230
 1321SOL     OW15598   2.633   4.269   6.661 -0.3635  0.6214  0.0509
 1321SOL    HW115599   2.656   4.222   6.580  2.4100  1.1601  0.5362
 1321SOL    HW215600   2.676   4.354   6.647 -0.2802  0.5416 -0.1814
 1322SOL     OW15601   4.707   1.454  17.459  0.6474 -0.1805 -0.5343
 1322SOL    HW115602   4.615   1.429  17.467  0.2592  1.1901 -0.7949
 1322SOL    HW215603   4.716   1.456  17.364 -0.7067  0.7538 -0.6360
 1323SOL     OW15604   2.888   2.831   4.734  0.2287  0.5991 -1.2139
 1323SOL    HW115605   2.898   2.867   4.822 -0.9557 -1.1694 -0.3582
 1323SOL    HW215606   2.809   2.778   4.747  0.9929  0.1954  1.5946
 1324SOL     OW15607   3.711   0.779   3.950  0.2333  0.1779  0.4738
 1324SOL    HW115608   3.776   0.721   3.911 -0.7502 -0.9205  0.4375
 1324SOL    HW215609   3.729   0.771   4.044 -0.4390 -0.9243  0.5192
 1325SOL     OW15610   2.698   3.141  15.389 -0.0306  0.1496 -0.1865
 1325SOL    HW115611   2.702   3.205  15.459 -0.0135 -1.7479  1.5337
 1325SOL    HW215612   2.773   3.085  15.407  0.6505  1.5307  1.2291
 1326SOL     OW15613   4.109   0.945  11.336 -0.2718 -0.5261 -0.0644
 1326SOL    HW115614   4.076   0.980  11.418 -0.9229 -1.7042  0.1728
 1326SOL    HW215615   4.028   0.924  11.289 -1.3070  0.6265  1.2211
 1327SOL     OW15616   0.719   0.679   2.826  0.2976  0.8553 -0.1510
 1327SOL    HW115617   0.670   0.622   2.886  2.8697  0.0010  1.1391
 1327SOL    HW215618   0.804   0.687   2.868  0.4142  1.2436 -0.4622
 1328SOL     OW15619   1.831   2.845  17.134  0.0887  0.6575 -0.5513
 1328SOL    HW115620   1.867   2.794  17.061  0.8088  0.0242  0.2404
 1328SOL    HW215621   1.786   2.780  17.189  1.1779  1.4324  1.2530
 1329SOL     OW15622   4.726   1.316   9.483 -0.2527 -0.0478 -0.1503
 1329SOL    HW115623   4.634   1.342   9.481 -0.1512  0.4381  1.5000
 1329SOL    HW215624   4.718   1.230   9.442  0.3816 -1.6092  3.0054
 1330SOL     OW15625   0.038   2.708   3.063 -0.2104  0.2217  0.1311
 1330SOL    HW115626   4.681   2.688   3.053  0.1610 -2.3104  1.7365
 1330SOL    HW215627   0.075   2.624   3.089  0.1522  0.7450  1.2791
 1331SOL     OW15628   3.959   0.227   3.359  0.1957 -0.0309 -0.0164
 1331SOL    HW115629   4.000   0.308   3.329 -2.4047  0.7640 -1.4144
 1331SOL    HW215630   3.969   0.171   3.282 -1.1689 -0.5400  0.1668
 1332SOL     OW15631   4.098   4.023  10.702  0.5553  0.3976 -0.0430
 1332SOL    HW115632   4.108   4.083  10.776 -0.7302  2.2390 -1.3552
 1332SOL    HW215633   4.073   4.087  10.635 -0.4361 -0.2292 -0.2745
 1333SOL     OW15634   2.210   0.370   7.388 -0.5620  0.0918 -0.4232
 1333SOL    HW115635   2.244   0.283   7.369  1.4214  0.9600 -0.7844
 1333SOL    HW215636   2.153   0.400   7.317 -1.1368 -0.5091 -0.2221
 1334SOL     OW15637   1.669   3.821   2.645  0.1447  0.6569  0.0994
 1334SOL    HW115638   1.689   3.885   2.712  1.7088  0.8018 -0.5004
 1334SOL    HW215639   1.592   3.787   2.691  0.0380  1.6381  0.6328
 1335SOL     OW15640   0.073   0.398  13.604 -0.0615 -0.3438  0.2298
 1335SOL    HW115641   0.028   0.315  13.587  0.9417 -0.6589 -0.8949
 1335SOL    HW215642   0.004   0.436  13.658 -0.2041  0.7027 -0.6978
 1336SOL     OW15643   2.825   2.285   4.643  0.2643 -0.0368  0.1827
 1336SOL    HW115644   2.773   2.322   4.572  0.8439  1.9725  0.8197
 1336SOL    HW215645   2.753   2.237   4.684 -0.9369  1.3590 -0.3010
 1337SOL     OW15646   2.599   0.457   1.791 -0.0007  0.1024  0.0548
 1337SOL    HW115647   2.566   0.494   1.709  2.7456  0.5108 -0.8668
 1337SOL    HW215648   2.524   0.450   1.849 -1.0355 -0.2215 -1.3152
 1338SOL     OW15649   2.863   3.620   1.642 -0.5398 -0.5840 -0.6183
 1338SOL    HW115650   2.775   3.617   1.605 -0.7800 -0.4927 -0.0617
 1338SOL    HW215651   2.903   3.566   1.574  0.9273  1.1146 -1.1099
 1339SOL     OW15652   3.682   0.105  17.635  0.4372 -0.0024 -0.2720
 1339SOL    HW115653   3.653   0.195  17.648 -0.7323 -0.4702  0.3493
 1339SOL    HW215654   3.715   0.112  17.545 -0.1521 -3.1762 -0.7442
 1340SOL     OW15655   1.629   4.689   9.041  0.3298  0.1282  0.4009
 1340SOL    HW115656   1.690   0.010   8.993  1.0127  0.1842  1.3515
 1340SOL    HW215657   1.668   4.605   9.015  0.0708  0.5831 -1.4737
 1341SOL     OW15658   2.305   0.084  14.387  0.0059 -0.2366 -0.0324
 1341SOL    HW115659   2.257   0.047  14.313 -2.1116  1.3855  0.5296
 1341SOL    HW215660   2.244   0.141  14.433 -1.1136 -1.5231  0.0640
 1342SOL     OW15661   4.137   0.636   2.705 -0.5654 -0.6523 -0.4457
 1342SOL    HW115662   4.210   0.576   2.687  0.0373  0.0716 -0.4225
 1342SOL    HW215663   4.172   0.699   2.641 -0.7988 -0.3739 -0.2986
 1343SOL     OW15664   4.295   3.436  10.692 -0.3987 -1.1094  0.4023
 1343SOL    HW115665   4.224   3.395  10.741  0.1797 -2.6785 -0.0940
 1343SOL    HW215666   4.241   3.493  10.637  0.4327 -1.5057 -0.8341
 1344SOL     OW15667   3.103   4.408   2.558 -0.1952 -0.2421 -0.2924
 1344SOL    HW115668   3.193   4.394   2.586  0.1033  0.7962 -0.7185
 1344SOL    HW215669   3.059   4.341   2.610  1.7854 -0.0246  1.6420
 1345SOL     OW15670   2.036   3.543   7.835 -0.6140  0.4130  0.3884
 1345SOL    HW115671   2.090   3.617   7.861  0.6594  0.0313 -1.1561
 1345SOL    HW215672   1.957   3.553   7.889 -0.2062  1.0363  0.8676
 1346SOL     OW15673   1.377   2.625   8.273  0.0667 -0.3803  0.0396
 1346SOL    HW115674   1.307   2.569   8.240  0.8442 -0.6310 -1.1528
 1346SOL    HW215675   1.415   2.664   8.195 -0.4644 -1.9214 -0.9816
 1347SOL     OW15676   1.386   0.643   6.199 -0.8780 -0.1947  0.4329
 1347SOL    HW115677   1.473   0.625   6.232 -1.0943 -0.9509  0.5737
 1347SOL    HW215678   1.369   0.726   6.244 -0.6626  0.4318 -0.6176
 1348SOL     OW15679   2.827   4.100  14.660 -0.1302 -0.5581  0.2496
 1348SOL    HW115680   2.742   4.061  14.682 -0.1901 -0.6719 -0.1793
 1348SOL    HW215681   2.795   4.149  14.584 -0.3638 -0.0629  0.6733
 1349SOL     OW15682   4.642   0.348   4.161 -1.1596 -0.3816 -0.2574
 1349SOL    HW115683   4.572   0.404   4.194 -0.8479 -0.2761  0.2262
 1349SOL    HW215684   4.688   0.326   4.242 -0.6766 -1.5017 -0.8325
 1350SOL     OW15685   0.154   4.423   4.714  0.1989 -0.3122 -0.1637
 1350SOL    HW115686   0.082   4.486   4.716 -0.7764 -1.4078 -0.0814
 1350SOL    HW215687   0.105   4.354   4.668  1.5325  0.2155 -2.3785
 1351SOL     OW15688   2.990   2.731  12.290  0.2038  0.6191 -0.3856
 1351SOL    HW115689   3.025   2.789  12.222 -0.4692  0.5564 -0.7865
 1351SOL    HW215690   2.936   2.666  12.244  1.9699 -0.4228 -0.9530
 1352SOL     OW15691   0.688   3.957  10.377  0.1776 -0.7567 -0.2258
 1352SOL    HW115692   0.728   3.954  10.291  1.0078 -1.2304  0.1763
 1352SOL    HW215693   0.768   3.979  10.425  0.1669  0.4459 -0.7741
 1353SOL     OW15694   1.681   2.181  11.209 -0.3213 -0.6048  0.7958
 1353SOL    HW115695   1.756   2.240  11.200 -0.4849 -0.5786 -0.3070
 1353SOL    HW215696   1.606   2.237  11.230  0.1628  0.7301 -1.0568
 1354SOL     OW15697   3.183   1.170   8.388  0.2993 -0.4911  0.3135
 1354SOL    HW115698   3.266   1.205   8.422  0.0919 -0.6343  0.9656
 1354SOL    HW215699   3.178   1.212   8.302 -0.0059  0.3567  0.7440
 1355SOL     OW15700   2.803   3.026   6.435 -0.2588 -0.8648 -0.4263
 1355SOL    HW115701   2.845   2.947   6.402 -1.6616 -2.2406  1.1297
 1355SOL    HW215702   2.735   3.034   6.369 -0.5445 -0.8177 -0.1240
 1356SOL     OW15703   1.278   2.699   9.606 -0.0291 -0.5532  0.2953
 1356SOL    HW115704   1.226   2.631   9.649 -0.5178 -0.6776 -0.5067
 1356SOL    HW215705   1.261   2.773   9.665 -0.6377 -1.3437  1.1167
 1357SOL     OW15706   2.765   2.642   3.637  0.1737 -0.6320 -0.2030
 1357SOL    HW115707   2.750   2.706   3.568 -1.8307 -2.3825 -1.3647
 1357SOL    HW215708   2.675   2.640   3.668 -0.0268 -1.2261 -0.8301
 1358SOL     OW15709   4.051   0.491  17.279  0.0435 -0.0821 -0.3386
 1358SOL    HW115710   4.122   0.481  17.216  0.6522  0.4839  0.2457
 1358SOL    HW215711   3.975   0.459  17.231  1.2023 -0.5658 -1.8471
 1359SOL     OW15712   1.577   3.059   2.494  0.4279 -0.0744 -0.6139
 1359SOL    HW115713   1.531   3.001   2.433 -2.1924  0.9479  0.3894
 1359SOL    HW215714   1.502   3.107   2.528  0.4263 -0.7831  0.3957
 1360SOL     OW15715   1.324   1.764   9.272  0.4954  0.2062 -0.2824
 1360SOL    HW115716   1.406   1.783   9.227  0.6583 -1.1814 -0.5619
 1360SOL    HW215717   1.285   1.848   9.251 -0.6164 -0.5333 -1.1577
 1361SOL     OW15718   3.735   3.239   6.366  0.0975 -0.1217  0.1035
 1361SOL    HW115719   3.822   3.230   6.327 -0.1913  0.1735 -0.6212
 1361SOL    HW215720   3.745   3.316   6.422  0.1522 -0.5925  0.7382
 1362SOL     OW15721   3.835   0.120   2.489 -0.5760 -0.8720  0.2172
 1362SOL    HW115722   3.796   0.197   2.447  1.9353 -0.9536 -2.2760
 1362SOL    HW215723   3.922   0.109   2.450 -1.2237 -1.9659 -0.9291
 1363SOL     OW15724   3.813   3.624   7.252  0.5014 -0.5160  0.4131
 1363SOL    HW115725   3.793   3.700   7.307 -0.6896  0.0837 -0.8531
 1363SOL    HW215726   3.836   3.560   7.320 -1.0948 -0.6903  0.8049
 1364SOL     OW15727   0.519   0.452   2.611 -0.1012 -0.5465  0.4619
 1364SOL    HW115728   0.440   0.417   2.569  0.1143  0.5662 -0.8692
 1364SOL    HW215729   0.471   0.513   2.667 -1.5100  1.4304 -2.8982
 1365SOL     OW15730   1.562   1.199  12.357  0.1162 -0.4999  0.2023
 1365SOL    HW115731   1.569   1.270  12.420 -3.3530 -0.0663  0.0629
 1365SOL    HW215732   1.652   1.191  12.325 -0.4403 -2.5794 -0.8886
 1366SOL     OW15733   4.695   2.288   8.380  1.0223 -0.3875 -0.1862
 1366SOL    HW115734   4.648   2.336   8.448 -0.9236 -2.3246 -0.1466
 1366SOL    HW215735   0.030   2.244   8.427  1.6295  0.6433 -0.1433
 1367SOL     OW15736   2.443   3.678   2.426  0.2273  0.7396  0.5168
 1367SOL    HW115737   2.412   3.653   2.513 -2.7612 -1.9913 -1.3519
 1367SOL    HW215738   2.537   3.659   2.424  0.1659  0.7036 -1.7717
 1368SOL     OW15739   3.592   2.366   9.949  0.1250 -0.2169 -0.2169
 1368SOL    HW115740   3.668   2.330   9.994  0.0301  0.3205  0.3698
 1368SOL    HW215741   3.619   2.353   9.858 -0.0248 -0.2352 -0.2591
 1369SOL     OW15742   1.255   3.951   0.004 -0.3221  0.1618  0.1380
 1369SOL    HW115743   1.344   3.968  17.717 -0.4091 -0.0978 -0.2564
 1369SOL    HW215744   1.207   4.023  17.709  0.1313 -0.2448 -1.1579
 1370SOL     OW15745   0.693   3.051  13.025 -0.3444 -0.5745 -0.0885
 1370SOL    HW115746   0.610   3.099  13.019  0.1954  0.7227  2.8191
 1370SOL    HW215747   0.659   2.961  13.026  0.5447 -0.9150 -3.0092
 1371SOL     OW15748   1.127   4.116   8.392 -0.3984  0.4951  0.0262
 1371SOL    HW115749   1.079   4.197   8.375 -0.1566  0.8569  1.0741
 1371SOL    HW215750   1.057   4.067   8.436 -1.6866  1.3560 -1.0630
 1372SOL     OW15751   0.876   0.489  16.363 -0.3553  0.3540 -0.4266
 1372SOL    HW115752   0.969   0.504  16.346 -0.4063 -1.3303 -2.0678
 1372SOL    HW215753   0.874   0.397  16.338  1.0526  0.0122  0.7409
 1373SOL     OW15754   0.556   4.137   8.447  0.2492  0.3039  0.5705
 1373SOL    HW115755   0.490   4.189   8.401  1.3624  0.5833 -0.7265
 1373SOL    HW215756   0.500   4.067   8.481  1.8398 -1.8241 -1.1230
 1374SOL     OW15757   3.628   4.022   4.088  0.0170  0.0716 -0.1942
 1374SOL    HW115758   3.591   3.962   4.022  0.4642  1.2724 -1.5314
 1374SOL    HW215759   3.627   4.107   4.046 -0.7160  1.7185  3.1624
 1375SOL     OW15760   1.666   1.301   7.094  0.3154  0.1045 -1.0640
 1375SOL    HW115761   1.582   1.298   7.139  0.2995 -1.7436 -1.2182
 1375SOL    HW215762   1.678   1.390   7.059 -2.0917  0.8798  0.1054
 1376SOL     OW15763   1.817   0.036   3.031  0.1480  0.0954  0.2500
 1376SOL    HW115764   1.860   0.121   3.039 -1.8719  1.2468 -1.1395
 1376SOL    HW215765   1.733   0.041   3.076 -0.1312  3.5655 -0.6633
 1377SOL     OW15766   0.248   0.448   5.899 -0.0684 -0.0605  0.1822
 1377SOL    HW115767   0.157   0.477   5.900 -0.4366 -1.2871  2.4793
 1377SOL    HW215768   0.287   0.499   5.828 -0.4724  1.0943  0.7788
 1378SOL     OW15769   1.694   2.631  15.384 -0.4458  0.0957  0.0268
 1378SOL    HW115770   1.650   2.612  15.467  4.8731 -1.1822  2.5303
 1378SOL    HW215771   1.691   2.553  15.329  1.3452 -0.0657  0.1803
 1379SOL     OW15772   3.106   2.851   2.168  0.1983  0.4298  0.5805
 1379SOL    HW115773   3.189   2.806   2.181 -0.8029 -1.5222  0.3070
 1379SOL    HW215774   3.118   2.873   2.075 -2.9585 -0.8927 -0.1566
 1380SOL     OW15775   3.605   1.335   1.759  0.3851 -0.0005  0.3225
 1380SOL    HW115776   3.608   1.239   1.759 -1.9525 -0.0596  1.3803
 1380SOL    HW215777   3.531   1.355   1.702 -2.6820 -2.3298  3.4702
 1381SOL     OW15778   2.202   3.343   8.212  0.6544 -0.3512  0.1824
 1381SOL    HW115779   2.274   3.387   8.168 -0.5145 -0.5582 -1.9170
 1381SOL    HW215780   2.130   3.383   8.162 -0.0295 -1.8801 -0.0542
 1382SOL     OW15781   1.713   4.313   2.783 -0.1679  0.0008  0.0742
 1382SOL    HW115782   1.789   4.285   2.835 -0.2324 -2.3598 -1.1112
 1382SOL    HW215783   1.737   4.404   2.764  0.6651 -0.3659 -0.6659
 1383SOL     OW15784   0.744   0.122   3.147  0.5118 -0.4360 -0.0489
 1383SOL    HW115785   0.720   0.076   3.227 -0.5059  0.9505  0.4487
 1383SOL    HW215786   0.818   0.171   3.184 -0.8944  0.6824  1.2710
 1384SOL     OW15787   1.241   1.972  14.460 -0.3479 -0.1504 -0.1408
 1384SOL    HW115788   1.286   2.041  14.412 -2.5332  0.0969 -1.8558
 1384SOL    HW215789   1.247   1.899  14.399 -2.8167 -0.0288 -0.5139
 1385SOL     OW15790   0.589   0.515   3.392 -0.4077 -0.1036 -0.1193
 1385SOL    HW115791   0.673   0.549   3.362 -0.6444  1.5348  1.0666
 1385SOL    HW215792   0.585   0.436   3.339  1.1352  0.3640 -0.9170
 1386SOL     OW15793   2.903   2.074   6.605 -0.7868 -0.0350  0.1402
 1386SOL    HW115794   2.895   1.994   6.552  0.4926 -0.3418  0.4198
 1386SOL    HW215795   2.812   2.102   6.609 -1.1765 -1.0167 -1.7781
 1387SOL     OW15796   1.812   2.727   4.747  0.8225  0.3476 -0.1036
 1387SOL    HW115797   1.796   2.649   4.801 -1.5448  2.6503  2.5035
 1387SOL    HW215798   1.901   2.747   4.778  0.8384  1.3229 -0.7841
 1388SOL     OW15799   1.370   4.032   6.391 -0.7895 -0.0052  0.0500
 1388SOL    HW115800   1.417   3.967   6.339 -0.5450  0.8293 -0.7743
 1388SOL    HW215801   1.397   4.006   6.478 -0.3744 -0.7876 -0.3138
 1389SOL     OW15802   2.598   2.317   1.083  0.2975  0.5140  0.2778
 1389SOL    HW115803   2.600   2.223   1.099  0.4015  0.5494  0.4652
 1389SOL    HW215804   2.643   2.355   1.158 -1.6493  0.7712  1.3138
 1390SOL     OW15805   4.414   2.186   2.513  0.4225  0.4196 -0.1645
 1390SOL    HW115806   4.390   2.273   2.544  0.8187  1.1376 -1.8752
 1390SOL    HW215807   4.479   2.161   2.578  0.0232  2.1624  0.9087
 1391SOL     OW15808   3.086   0.621   5.843 -0.2013  0.9067  0.5318
 1391SOL    HW115809   3.027   0.696   5.836 -0.2735  0.6601 -1.4472
 1391SOL    HW215810   3.021   0.555   5.868 -1.0461  1.3939 -0.3675
 1392SOL     OW15811   4.469   3.981  17.308 -0.2939  0.1140  0.1009
 1392SOL    HW115812   4.464   3.989  17.213 -1.1232  0.7279  0.2030
 1392SOL    HW215813   4.559   3.949  17.320 -0.2991  1.0369  2.3955
 1393SOL     OW15814   3.776   1.981   5.238 -0.3393 -0.5088  0.1065
 1393SOL    HW115815   3.851   1.989   5.297  0.1249 -1.1298 -0.3903
 1393SOL    HW215816   3.783   1.888   5.214 -0.4918 -0.5630  0.2687
 1394SOL     OW15817   3.472   3.455   1.978  0.7258 -0.4250  0.2769
 1394SOL    HW115818   3.499   3.533   1.930 -0.8717  0.6169  1.0556
 1394SOL    HW215819   3.394   3.436   1.926  2.9671 -0.1849 -3.1916
 1395SOL     OW15820   2.574   0.620   5.330  0.2260  0.3009  0.5722
 1395SOL    HW115821   2.622   0.698   5.358  1.3128  0.3361 -1.4325
 1395SOL    HW215822   2.606   0.551   5.388 -3.1666 -0.8436  1.0806
 1396SOL     OW15823   1.102   0.799  10.466 -0.4931  0.7301 -0.0979
 1396SOL    HW115824   1.156   0.764  10.536 -0.0204  0.7569 -0.4454
 1396SOL    HW215825   1.039   0.845  10.521 -1.6065 -2.6976  1.4904
 1397SOL     OW15826   2.448   2.983   4.022 -0.1723 -0.1461  0.1171
 1397SOL    HW115827   2.391   3.009   3.950 -2.6375 -3.0888  1.0187
 1397SOL    HW215828   2.403   2.996   4.106  1.8234 -2.0875  1.4906
 1398SOL     OW15829   1.857   2.975   5.824 -0.1373  0.2490 -0.2408
 1398SOL    HW115830   1.930   3.013   5.872  0.4846 -1.6404  0.3461
 1398SOL    HW215831   1.862   2.886   5.861  3.3262  0.6253  0.1881
 1399SOL     OW15832   4.114   3.152   8.646  0.0060  1.0026  0.0243
 1399SOL    HW115833   4.176   3.137   8.575  0.3041  3.1966 -0.1594
 1399SOL    HW215834   4.034   3.168   8.596 -1.7968 -0.1809  2.4720
 1400SOL     OW15835   0.204   0.339   9.475  0.0845  0.6028 -0.0517
 1400SOL    HW115836   0.203   0.318   9.568  0.9645  1.3489  0.1195
 1400SOL    HW215837   0.112   0.365   9.469  0.6359  2.5248 -0.0004
 1401SOL     OW15838   0.007   4.487  13.709 -0.4758  0.3063 -0.1050
 1401SOL    HW115839   0.073   4.534  13.659 -1.3107  0.9768 -0.5787
 1401SOL    HW215840   4.672   4.551  13.703 -0.1501  0.7725  0.9361
 1402SOL     OW15841   2.764   1.138   4.109  0.5879 -0.2919 -0.2106
 1402SOL    HW115842   2.739   1.155   4.200 -2.1350  1.6259 -1.3139
 1402SOL    HW215843   2.809   1.056   4.130 -0.5195 -1.2147 -1.4117
 1403SOL     OW15844   1.278   1.884   7.176 -0.2354  0.3352  0.0001
 1403SOL    HW115845   1.229   1.802   7.183 -1.3387  0.9883 -0.0604
 1403SOL    HW215846   1.235   1.948   7.232 -1.5857  0.6982 -1.4464
 1404SOL     OW15847   0.990   1.128   8.523 -0.5565 -0.6445 -0.1269
 1404SOL    HW115848   0.995   1.211   8.476 -1.7201 -0.7389 -0.4153
 1404SOL    HW215849   1.067   1.129   8.580  0.3506  1.6442 -1.3934
 1405SOL     OW15850   3.513   1.320   2.202  0.5006  0.3795 -0.2767
 1405SOL    HW115851   3.450   1.392   2.193  0.3560  0.4411  1.2296
 1405SOL    HW215852   3.576   1.354   2.139  0.9401  0.1833  0.0524
 1406SOL     OW15853   3.944   0.378   9.086 -0.2710  0.1237 -0.1205
 1406SOL    HW115854   3.879   0.382   9.016  0.6345 -0.0133 -0.9721
 1406SOL    HW215855   3.927   0.460   9.132 -1.2008  0.2840 -0.7525
 1407SOL     OW15856   0.072   4.095  11.008 -0.1142 -1.1610  0.1823
 1407SOL    HW115857   0.080   4.008  10.968 -1.4767 -0.7147 -1.0342
 1407SOL    HW215858   0.153   4.133  10.977  0.7081 -3.3852 -0.4034
 1408SOL     OW15859   0.291   1.323   3.631  0.0614  0.1134 -0.3548
 1408SOL    HW115860   0.269   1.411   3.602  1.8291  1.2775  1.8180
 1408SOL    HW215861   0.226   1.301   3.697  1.1117 -0.2091  0.5840
 1409SOL     OW15862   2.926   1.468   7.922 -0.0109  0.1838 -1.0838
 1409SOL    HW115863   2.965   1.461   7.835  0.1868 -0.1552 -0.9704
 1409SOL    HW215864   2.857   1.531   7.904 -0.8619 -0.3982  0.1335
 1410SOL     OW15865   1.705   0.726   4.748 -0.1131 -0.5747 -0.2200
 1410SOL    HW115866   1.700   0.641   4.704 -0.0701 -1.2193  1.0187
 1410SOL    HW215867   1.787   0.715   4.795 -0.7594  1.5142  1.3720
 1411SOL     OW15868   4.538   0.619  15.424  0.5415 -0.0778  0.0357
 1411SOL    HW115869   4.559   0.701  15.381  1.2799 -0.1580  0.2491
 1411SOL    HW215870   4.621   0.609  15.469  0.2205  1.9151  1.0224
 1412SOL     OW15871   0.621   4.182   2.719  0.2817 -0.8821  0.7914
 1412SOL    HW115872   0.548   4.239   2.745  0.8743  1.4846 -2.7742
 1412SOL    HW215873   0.634   4.211   2.629 -0.8800 -1.1896  0.5118
 1413SOL     OW15874   4.438   1.934   3.722 -0.3573 -0.1104  0.1706
 1413SOL    HW115875   4.514   1.991   3.714 -0.9034  0.4209 -1.1291
 1413SOL    HW215876   4.369   1.986   3.680  0.1306 -0.8074 -1.4803
 1414SOL     OW15877   1.673   0.866   5.829 -0.0559 -0.4474 -0.0354
 1414SOL    HW115878   1.701   0.881   5.919 -0.5358 -0.8886  0.1869
 1414SOL    HW215879   1.639   0.777   5.838 -0.1706 -0.3269  0.6890
 1415SOL     OW15880   1.315   0.999   7.132 -0.0887  0.0125  0.1393
 1415SOL    HW115881   1.299   1.065   7.199  2.3531  2.3428 -1.5683
 1415SOL    HW215882   1.233   0.950   7.125 -1.3029  2.1882 -0.5628
 1416SOL     OW15883   1.454   2.718   3.706  0.1500 -0.6454  0.2641
 1416SOL    HW115884   1.434   2.679   3.791 -1.3634  0.0732  0.2479
 1416SOL    HW215885   1.427   2.648   3.647  1.2959 -1.5271  0.7863
 1417SOL     OW15886   0.907   2.774   8.641  0.4431  0.2164  0.2874
 1417SOL    HW115887   0.984   2.776   8.698  0.8820  1.5245 -0.3489
 1417SOL    HW215888   0.851   2.819   8.704  1.2381 -0.2043  1.3079
 1418SOL     OW15889   2.070   2.996   6.595  0.0334  0.2626  0.2481
 1418SOL    HW115890   2.015   3.041   6.659 -2.5750  0.4960 -2.1534
 1418SOL    HW215891   2.152   3.044   6.594 -0.0153  0.3461  0.2870
 1419SOL     OW15892   0.400   0.663   6.727 -0.2127  0.1241 -0.0191
 1419SOL    HW115893   0.360   0.576   6.724 -0.5870  0.2729  0.6780
 1419SOL    HW215894   0.445   0.665   6.643  0.4983  0.8199  0.3799
 1420SOL     OW15895   3.152   1.638   2.971 -0.1576 -0.6670  0.4451
 1420SOL    HW115896   3.119   1.625   3.060 -2.4521  0.5452 -0.2471
 1420SOL    HW215897   3.085   1.589   2.923 -1.2394  0.8003  0.4766
 1421SOL     OW15898   4.095   2.821   7.765  0.1740 -0.1091  0.4016
 1421SOL    HW115899   4.090   2.892   7.702  1.6678  0.0557  0.4576
 1421SOL    HW215900   4.116   2.877   7.840  0.0245  0.8024 -0.2352
 1422SOL     OW15901   2.637   4.043   6.886 -0.1003  0.1703  0.4547
 1422SOL    HW115902   2.634   4.099   6.964  1.5734 -2.7128  2.5647
 1422SOL    HW215903   2.585   4.103   6.833  0.6194 -0.6096 -1.1089
 1423SOL     OW15904   2.688   3.614   2.383 -0.2062 -0.8805 -0.0072
 1423SOL    HW115905   2.751   3.572   2.442  0.4083  1.7405  1.1700
 1423SOL    HW215906   2.666   3.533   2.335 -1.9842 -0.0023 -0.6732
 1424SOL     OW15907   1.207   0.790   7.940 -0.5081  0.1540 -0.3436
 1424SOL    HW115908   1.199   0.694   7.947  1.9844  0.0526  1.1706
 1424SOL    HW215909   1.270   0.808   7.871  1.3846 -1.5252  0.9498
 1425SOL     OW15910   3.595   1.050   5.683  0.5029 -0.2343  0.2183
 1425SOL    HW115911   3.566   0.991   5.613  1.4535  0.6443 -0.9256
 1425SOL    HW215912   3.577   0.998   5.761 -0.6507 -0.5124 -0.2371
 1426SOL     OW15913   0.107   2.144  13.575 -0.1647 -0.5080  0.3257
 1426SOL    HW115914   0.137   2.061  13.540  1.2971  0.4605 -0.7525
 1426SOL    HW215915   0.123   2.209  13.506 -0.7705  1.5674  2.1357
 1427SOL     OW15916   1.268   2.985   8.857  0.0379  0.4128 -0.4953
 1427SOL    HW115917   1.185   2.980   8.809 -0.3976  0.7073  0.2181
 1427SOL    HW215918   1.331   2.975   8.786  1.3196 -0.5016  0.7831
 1428SOL     OW15919   4.044   1.524   5.154 -0.0337 -0.0544 -0.0264
 1428SOL    HW115920   4.006   1.482   5.077 -1.7538  0.0367  0.7768
 1428SOL    HW215921   4.106   1.457   5.184  0.7970 -0.0527 -1.7261
 1429SOL     OW15922   3.753   2.369   8.323 -0.1070  0.2478 -0.1620
 1429SOL    HW115923   3.704   2.445   8.289  1.0976  1.6648  1.2789
 1429SOL    HW215924   3.835   2.410   8.349  0.1361 -0.4903  0.2244
 1430SOL     OW15925   1.162   2.204   8.563 -0.3401  0.1242 -0.1358
 1430SOL    HW115926   1.129   2.294   8.556 -0.6664  0.1098  1.2607
 1430SOL    HW215927   1.205   2.193   8.479 -0.4397  0.6864 -0.2651
 1431SOL     OW15928   0.486   3.561  16.494 -0.4677  0.4015 -0.0243
 1431SOL    HW115929   0.426   3.633  16.476 -0.1920  0.6771  0.1648
 1431SOL    HW215930   0.545   3.578  16.421 -0.6297 -0.7251 -0.4286
 1432SOL     OW15931   4.193   0.924   0.116  0.0187 -0.8154 -0.4078
 1432SOL    HW115932   4.261   0.925   0.184 -0.8772 -1.9515  0.4997
 1432SOL    HW215933   4.123   0.895   0.173 -0.9791  0.2507 -1.0930
 1433SOL     OW15934   4.239   3.813  17.248  0.0932 -0.2907  0.0113
 1433SOL    HW115935   4.294   3.776  17.179 -0.6955  0.4887 -1.0489
 1433SOL    HW215936   4.310   3.834  17.309  0.1287  1.7142 -0.7237
 1434SOL     OW15937   0.637   2.813   4.416  0.0450  0.2798 -0.0834
 1434SOL    HW115938   0.542   2.823   4.428  0.0449 -0.8287  0.7752
 1434SOL    HW215939   0.664   2.873   4.346 -0.3867 -2.3185 -2.4618
 1435SOL     OW15940   0.727   0.915   2.983 -0.4542 -0.1724 -0.0616
 1435SOL    HW115941   0.704   0.855   2.912 -2.4418  1.8006 -1.0958
 1435SOL    HW215942   0.655   0.894   3.043  1.0071 -1.3816  1.2621
 1436SOL     OW15943   1.003   4.224   3.152 -0.0415  0.4250  0.1244
 1436SOL    HW115944   1.034   4.311   3.177  0.0757  0.5092 -0.3049
 1436SOL    HW215945   0.969   4.236   3.063 -0.8582  0.4924  0.4520
 1437SOL     OW15946   4.276   4.103   2.292 -0.4561 -0.1012 -0.4911
 1437SOL    HW115947   4.314   4.020   2.319  2.1725  0.6572 -1.8229
 1437SOL    HW215948   4.232   4.136   2.370 -0.9816  0.4210 -1.0065
 1438SOL     OW15949   2.097   2.523   0.023  0.0797  0.1942  0.2343
 1438SOL    HW115950   2.161   2.512   0.094  0.8406  1.7731 -0.1962
 1438SOL    HW215951   2.146   2.558  17.692  0.4447  1.1148  0.8982
 1439SOL     OW15952   3.951   3.205  11.368  0.2160 -0.3008  0.8145
 1439SOL    HW115953   3.861   3.216  11.399 -0.6627  0.7947 -2.1906
 1439SOL    HW215954   4.000   3.191  11.449  0.9044  0.9731  0.6150
 1440SOL     OW15955   0.291   1.188   4.839 -0.3015  0.1028  0.1236
 1440SOL    HW115956   0.348   1.204   4.764  1.6998 -1.7363  1.2817
 1440SOL    HW215957   0.239   1.269   4.840  1.1259  1.0294 -1.1064
 1441SOL     OW15958   1.345   4.373  14.721  0.0577 -0.2804  0.0880
 1441SOL    HW115959   1.274   4.326  14.677  0.0559 -0.8832  0.7282
 1441SOL    HW215960   1.408   4.301  14.716 -0.7008 -0.9977  0.7576
 1442SOL     OW15961   0.072   1.015   6.908 -0.1842  0.0502  0.1760
 1442SOL    HW115962   0.084   0.923   6.883 -1.2588 -0.4143  1.3259
 1442SOL    HW215963   0.005   1.005   6.976 -2.1157 -0.6934 -1.8207
 1443SOL     OW15964   4.240   4.558   4.969  0.2167  0.2299 -0.6103
 1443SOL    HW115965   4.277   4.533   4.885 -1.2228  0.0830 -1.1953
 1443SOL    HW215966   4.317   4.582   5.021  0.2989 -1.1227 -0.1002
 1444SOL     OW15967   0.007   0.603   9.274  0.6029  0.2693  0.5382
 1444SOL    HW115968   4.709   0.556   9.198  0.0004 -2.2803  2.3919
 1444SOL    HW215969   4.671   0.605   9.337  1.8764 -0.8346  2.0532
 1445SOL     OW15970   2.030   2.035   1.903  0.3067 -1.2155 -0.1833
 1445SOL    HW115971   1.989   2.094   1.839  1.1348  1.5606  1.8643
 1445SOL    HW215972   2.095   1.993   1.846  1.6756 -0.1847  0.6259
 1446SOL     OW15973   2.489   1.669   4.093 -0.3789  0.0705  0.6593
 1446SOL    HW115974   2.519   1.578   4.091 -0.5854 -0.0694  3.9359
 1446SOL    HW215975   2.561   1.723   4.060 -1.7219  0.2771 -1.9321
 1447SOL     OW15976   4.398   4.736   6.885 -0.1145 -0.3906  0.6892
 1447SOL    HW115977   4.333   0.030   6.948  1.0555  1.0358  1.2139
 1447SOL    HW215978   4.361   0.022   6.800 -1.3846  0.4831  1.4892
 1448SOL     OW15979   1.090   1.961   0.963  0.2085 -0.2379 -0.2807
 1448SOL    HW115980   1.026   1.956   0.891  0.1457  3.3358 -0.4921
 1448SOL    HW215981   1.126   1.873   0.952  1.5892  0.5946 -2.5502
 1449SOL     OW15982   1.949   4.708   8.745 -0.7523  0.0121  0.4864
 1449SOL    HW115983   1.975   4.639   8.808 -0.6549  0.1261  0.5718
 1449SOL    HW215984   1.872   4.667   8.706 -1.0056  0.2540  0.7337
 1450SOL     OW15985   0.941   1.440   2.683  0.4528  0.7989 -0.4735
 1450SOL    HW115986   0.950   1.387   2.604 -3.5477  2.9728 -2.3818
 1450SOL    HW215987   0.955   1.529   2.650  1.7880  0.9674  0.5487
 1451SOL     OW15988   0.078   3.734  15.594 -0.2675  0.0233  0.0530
 1451SOL    HW115989   0.069   3.774  15.507 -2.4011  0.4570  0.4650
 1451SOL    HW215990   0.027   3.656  15.575  2.0023 -1.4052 -0.1564
 1452SOL     OW15991   2.449   1.822   9.054 -0.1431  0.9038  0.4895
 1452SOL    HW115992   2.432   1.822   9.148 -0.8678  1.7842  0.3666
 1452SOL    HW215993   2.526   1.767   9.041 -0.4015  0.3967  1.1298
 1453SOL     OW15994   3.048   1.585   7.257 -0.2992 -0.3158 -0.0189
 1453SOL    HW115995   3.047   1.495   7.291  1.1007  0.3782  1.8133
 1453SOL    HW215996   3.134   1.597   7.217  0.0273  0.0859  0.8287
 1454SOL     OW15997   0.850   0.278   6.742 -0.1198 -0.0215  0.3967
 1454SOL    HW115998   0.910   0.203   6.736  0.7846  0.7041  0.2752
 1454SOL    HW215999   0.816   0.266   6.653 -0.2121  0.0395  0.4245
 1455SOL     OW16000   3.534   2.219   5.023 -0.1319  0.1712  0.7828
 1455SOL    HW116001   3.486   2.296   5.051 -0.5218 -0.6348  2.3116
 1455SOL    HW216002   3.473   2.176   4.963 -0.5064  1.2289  0.4133
 1456SOL     OW16003   0.654   2.894   8.753  0.0881  0.1025  0.0069
 1456SOL    HW116004   0.648   2.909   8.658  0.7118  0.5017  0.0273
 1456SOL    HW216005   0.652   2.986   8.780  0.5408  0.6584 -1.8406
 1457SOL     OW16006   2.587   4.553   5.908  0.1155 -0.6462  0.2459
 1457SOL    HW116007   2.626   4.615   5.970 -0.9504  1.4655 -1.2131
 1457SOL    HW216008   2.494   4.570   5.918  0.3534  0.0784  1.2104
 1458SOL     OW16009   1.762   1.609  11.195  0.0595 -0.2702 -0.2916
 1458SOL    HW116010   1.784   1.594  11.287  1.0120 -2.0133 -0.7968
 1458SOL    HW216011   1.839   1.588  11.143  2.1419 -0.1956  2.7831
 1459SOL     OW16012   3.707   1.268  15.423  0.1820  0.1525 -0.0197
 1459SOL    HW116013   3.668   1.225  15.348 -2.8160  1.0891  1.0279
 1459SOL    HW216014   3.788   1.296  15.379 -0.0367  1.3221  0.3155
 1460SOL     OW16015   4.071   0.143   2.720 -0.1766  0.0751  0.2698
 1460SOL    HW116016   3.977   0.129   2.710 -0.1758 -0.6931  1.2758
 1460SOL    HW216017   4.091   0.075   2.785  0.8312  0.1544  0.0320
 1461SOL     OW16018   0.858   0.554   7.288  0.1152  0.1535 -0.0279
 1461SOL    HW116019   0.889   0.504   7.364  0.3757 -0.9252 -0.8411
 1461SOL    HW216020   0.910   0.509   7.222 -0.8654 -1.7505  0.4764
 1462SOL     OW16021   3.048   2.920   8.721 -0.3481  0.4350  0.2154
 1462SOL    HW116022   3.026   2.844   8.775  1.2335 -0.4486 -0.3751
 1462SOL    HW216023   3.064   2.871   8.641 -1.0409  0.4451  0.0726
 1463SOL     OW16024   0.283   3.872   7.844 -0.3399  0.3231 -0.2841
 1463SOL    HW116025   0.345   3.889   7.915  1.4267 -2.4809 -1.1790
 1463SOL    HW216026   0.252   3.963   7.839 -0.3356  0.2664 -1.2909
 1464SOL     OW16027   1.741   0.388  10.598  0.1168 -0.1668 -0.5838
 1464SOL    HW116028   1.710   0.406  10.510  1.8792  2.6811 -0.6183
 1464SOL    HW216029   1.729   0.293  10.610 -1.7657  0.0830 -0.5236
 1465SOL     OW16030   4.451   3.354  12.420  0.3741 -0.2454 -0.8294
 1465SOL    HW116031   4.396   3.284  12.386 -1.4680  0.7737  0.0747
 1465SOL    HW216032   4.415   3.420  12.361 -1.8864 -3.4058 -2.9934
 1466SOL     OW16033   0.295   3.208  15.405  0.3327 -0.3602 -0.2822
 1466SOL    HW116034   0.206   3.245  15.403  0.8394  0.8886  0.3262
 1466SOL    HW216035   0.315   3.200  15.498 -1.2741  0.4814  0.1470
 1467SOL     OW16036   3.978   4.014   8.842 -0.3720 -0.0168 -0.2589
 1467SOL    HW116037   4.038   4.089   8.850 -1.3295  0.6669  0.3958
 1467SOL    HW216038   3.942   4.032   8.755 -2.3593 -1.2938  0.3099
 1468SOL     OW16039   1.958   0.886   0.806  0.2625 -0.6478 -0.4757
 1468SOL    HW116040   1.986   0.951   0.742 -2.0810 -0.5489 -1.4215
 1468SOL    HW216041   2.021   0.819   0.782  1.9092 -0.4327  3.3245
 1469SOL     OW16042   4.549   2.182   7.170  0.4987  0.4190  0.3857
 1469SOL    HW116043   4.458   2.184   7.141  1.1225  0.1468 -1.5419
 1469SOL    HW216044   4.546   2.111   7.234  2.6188  1.4870  1.6779
 1470SOL     OW16045   3.148   1.153   5.350  0.4903  0.3114 -0.1784
 1470SOL    HW116046   3.067   1.202   5.340 -0.3036 -0.3341  3.1512
 1470SOL    HW216047   3.175   1.164   5.441 -0.0832  0.3618 -0.0165
 1471SOL     OW16048   2.149   2.470   9.008  0.5533  0.2447 -0.0877
 1471SOL    HW116049   2.132   2.431   8.921 -0.6885  1.2948 -0.3176
 1471SOL    HW216050   2.243   2.488   9.008  1.1808 -3.0362 -0.6863
 1472SOL     OW16051   3.211   4.263   6.646  0.0838 -0.7399  0.3507
 1472SOL    HW116052   3.139   4.210   6.680  0.6959 -3.3575 -2.3608
 1472SOL    HW216053   3.267   4.275   6.722 -0.3182 -1.1052  0.7039
 1473SOL     OW16054   2.388   0.272   5.295  0.3677  0.0762  1.2165
 1473SOL    HW116055   2.369   0.198   5.237  1.0443  1.9271 -1.3698
 1473SOL    HW216056   2.341   0.241   5.372 -0.8546 -1.3781 -0.1250
 1474SOL     OW16057   0.935   3.338   2.232 -0.0522 -0.6915  0.5063
 1474SOL    HW116058   0.949   3.285   2.154 -0.3210 -0.2746  0.1723
 1474SOL    HW216059   0.884   3.412   2.199 -0.0079 -2.1030 -2.7461
 1475SOL     OW16060   2.981   1.515   3.445  0.0067  0.5342 -0.3139
 1475SOL    HW116061   2.892   1.518   3.481  0.2022 -0.1097  0.2173
 1475SOL    HW216062   3.013   1.425   3.450  1.4075  1.0846  0.4432
 1476SOL     OW16063   2.021   0.212   2.411 -0.4173  0.3986  0.4587
 1476SOL    HW116064   2.085   0.178   2.474 -0.1715 -0.4705 -0.2588
 1476SOL    HW216065   1.980   0.269   2.476  0.3554 -0.0030  1.3038
 1477SOL     OW16066   2.035   1.976  15.669 -0.8783  0.0409  0.2597
 1477SOL    HW116067   2.057   2.042  15.603  1.2155 -2.3404 -1.4240
 1477SOL    HW216068   2.043   1.903  15.608 -0.1505  0.9791 -0.7871
 1478SOL     OW16069   0.325   0.541   3.276  0.2980  0.0480 -0.1047
 1478SOL    HW116070   0.393   0.606   3.262  0.0509  0.1052 -1.0064
 1478SOL    HW216071   0.369   0.456   3.274  0.4838  0.2564 -4.3458
 1479SOL     OW16072   2.118   1.180   5.709  0.2963 -0.5694 -0.1947
 1479SOL    HW116073   2.117   1.235   5.631  0.9424  0.5352  0.5763
 1479SOL    HW216074   2.052   1.226   5.761  3.0215  1.2376  1.6611
 1480SOL     OW16075   4.499   2.962   9.734 -0.2325  0.0735  0.0682
 1480SOL    HW116076   4.517   3.001   9.649  3.0470  2.0290  1.6553
 1480SOL    HW216077   4.531   3.027   9.797  1.3092 -0.3693 -0.2553
 1481SOL     OW16078   0.077   1.420  11.549  0.3117  0.1294  0.0550
 1481SOL    HW116079   0.076   1.499  11.497 -0.8564  2.4865  3.6371
 1481SOL    HW216080   0.040   1.444  11.634 -0.8108 -0.2200 -0.3390
 1482SOL     OW16081   1.098   0.021  16.353  0.5192  0.0360 -0.4830
 1482SOL    HW116082   1.193   0.036  16.349  0.3640  0.9750 -0.7444
 1482SOL    HW216083   1.062   0.110  16.345  2.2276  0.8491  0.7096
 1483SOL     OW16084   4.426   0.605   9.967 -0.5048  0.3157  0.1010
 1483SOL    HW116085   4.491   0.577   9.902  0.5904  1.4968  0.6750
 1483SOL    HW216086   4.490   0.600  10.038 -0.5538  0.3632  0.1473
 1484SOL     OW16087   0.664   0.787   9.729  0.0620 -0.1801  0.5801
 1484SOL    HW116088   0.671   0.713   9.789 -0.4573 -0.7449 -0.0555
 1484SOL    HW216089   0.668   0.863   9.787  1.2382  2.3587 -2.7630
 1485SOL     OW16090   0.695   2.111  17.522 -0.2628  0.3595 -0.5541
 1485SOL    HW116091   0.750   2.167  17.468  0.4634  1.0196  0.8594
 1485SOL    HW216092   0.752   2.038  17.546 -0.0919  1.4790  2.5591
 1486SOL     OW16093   0.273   0.466   1.444  0.2865 -0.0633  0.6029
 1486SOL    HW116094   0.292   0.439   1.354  0.9284 -2.1777  1.3686
 1486SOL    HW216095   0.353   0.435   1.485 -0.4314 -2.5810  0.0955
 1487SOL     OW16096   2.313   4.600   5.951  0.0355  0.5385  0.3028
 1487SOL    HW116097   2.256   4.569   5.880 -1.4360  1.8101  0.9343
 1487SOL    HW216098   2.274   4.687   5.962 -1.6102  0.0172 -1.3025
 1488SOL     OW16099   3.754   4.320   5.697  0.2825 -0.6230  0.2662
 1488SOL    HW116100   3.805   4.328   5.616  1.1773 -1.1617  0.7745
 1488SOL    HW216101   3.829   4.282   5.744  1.4602  0.6073 -0.6334
 1489SOL     OW16102   4.098   1.567   3.287  0.0419 -0.1028  0.0167
 1489SOL    HW116103   4.031   1.607   3.342 -1.2538 -3.0660  0.5863
 1489SOL    HW216104   4.173   1.573   3.348 -0.2477 -1.4008  0.4884
 1490SOL     OW16105   3.014   3.281   9.291  0.9750  0.4569 -0.2834
 1490SOL    HW116106   2.961   3.203   9.308  1.1303  0.0498 -1.6842
 1490SOL    HW216107   2.995   3.292   9.198 -2.5838  1.8980  0.5751
 1491SOL     OW16108   0.148   0.464   7.608  0.1454  0.2563  0.0846
 1491SOL    HW116109   0.199   0.389   7.637 -0.9785 -0.2313  0.8356
 1491SOL    HW216110   0.084   0.410   7.561 -0.4906 -0.8779  2.2352
 1492SOL     OW16111   4.607   4.503  10.284  0.0115 -0.0810  0.1925
 1492SOL    HW116112   4.635   4.433  10.344 -0.0257 -0.5695 -0.3585
 1492SOL    HW216113   4.557   4.571  10.330  0.2349  0.9490 -1.1075
 1493SOL     OW16114   2.561   3.333  14.821 -0.3601  0.4934  0.0809
 1493SOL    HW116115   2.591   3.243  14.831 -1.8734  0.1286  1.3074
 1493SOL    HW216116   2.480   3.336  14.872 -0.8403 -0.4116 -0.6530
 1494SOL     OW16117   0.826   2.688   5.255  0.1940  0.3587  0.8141
 1494SOL    HW116118   0.751   2.689   5.194 -0.4386 -1.2055  1.5737
 1494SOL    HW216119   0.787   2.638   5.327 -0.1416 -0.4495  0.0704
 1495SOL     OW16120   3.543   3.068  11.710  0.4100  0.4036  0.7453
 1495SOL    HW116121   3.578   3.033  11.792 -0.1987 -2.2196 -0.1245
 1495SOL    HW216122   3.494   2.992  11.679  1.4110 -0.1080  0.4257
 1496SOL     OW16123   2.166   1.697  15.603  0.3954  0.1749 -0.0833
 1496SOL    HW116124   2.076   1.703  15.571 -0.8539  2.1045  3.7955
 1496SOL    HW216125   2.209   1.748  15.534  2.3024 -2.3753 -0.7533
 1497SOL     OW16126   3.791   4.363   6.107  0.1422  0.6601  0.2874
 1497SOL    HW116127   3.797   4.450   6.068 -1.5348  0.2628 -0.8707
 1497SOL    HW216128   3.876   4.355   6.149  0.3077  2.0261  0.2149
 1498SOL     OW16129   3.275   0.839   6.131 -0.1041 -0.2318  0.4159
 1498SOL    HW116130   3.223   0.918   6.139  2.7511  1.5753  1.1483
 1498SOL    HW216131   3.205   0.774   6.133  0.4468 -0.8459  0.0096
 1499SOL     OW16132   0.275   4.473   9.713  0.1189 -0.0816 -0.1174
 1499SOL    HW116133   0.242   4.412   9.647 -0.1741  0.2413 -0.2734
 1499SOL    HW216134   0.267   4.417   9.790  2.4844  0.0899  0.2310
 1500SOL     OW16135   2.721   3.420   7.526  0.0589  0.3592  0.2588
 1500SOL    HW116136   2.699   3.352   7.462 -0.1239  1.1910 -0.5582
 1500SOL    HW216137   2.644   3.474   7.506 -1.9426 -1.7598  2.1775
 1501SOL     OW16138   1.908   3.775   8.855 -0.2266  0.2663  0.3481
 1501SOL    HW116139   1.834   3.769   8.796 -0.4933 -0.2181  0.7279
 1501SOL    HW216140   1.947   3.688   8.848 -2.4098 -0.8183  1.5523
 1502SOL     OW16141   2.478   0.256   4.550 -0.1869 -0.0286  0.3389
 1502SOL    HW116142   2.474   0.351   4.545 -1.6554 -0.2338 -2.2690
 1502SOL    HW216143   2.565   0.226   4.524 -0.3385  0.6643 -0.9539
 1503SOL     OW16144   0.504   0.443   9.478 -0.5502  0.2730  0.3159
 1503SOL    HW116145   0.429   0.463   9.423  0.1992  0.2546 -0.7155
 1503SOL    HW216146   0.484   0.358   9.518 -0.0640  0.4903  1.0241
 1504SOL     OW16147   0.172   2.288  14.864 -0.1800 -0.0307  0.0781
 1504SOL    HW116148   0.143   2.278  14.773 -0.8481  1.0250  0.1816
 1504SOL    HW216149   0.090   2.298  14.911 -1.1529  0.8361 -1.7996
 1505SOL     OW16150   3.488   0.019   4.938  0.4045 -0.0969 -0.0118
 1505SOL    HW116151   3.506   4.706   4.858  3.7336  0.6417  0.2550
 1505SOL    HW216152   3.397   0.047   4.930  0.2594 -0.8179 -0.8477
 1506SOL     OW16153   3.318   4.210   2.457 -0.5810 -0.4822 -0.1738
 1506SOL    HW116154   3.225   4.193   2.437 -0.4669  1.0784 -2.0138
 1506SOL    HW216155   3.322   4.142   2.525 -0.2302 -0.4942 -0.2104
 1507SOL     OW16156   2.227   4.271   1.611  0.4211  0.0492  0.1460
 1507SOL    HW116157   2.243   4.198   1.670 -1.2331 -0.3768  0.0562
 1507SOL    HW216158   2.315   4.285   1.575  0.2499 -2.4314 -1.2372
 1508SOL     OW16159   1.086   2.020   4.200  0.3724 -0.5024  0.2669
 1508SOL    HW116160   1.012   1.959   4.195  0.0967 -0.2090  0.7320
 1508SOL    HW216161   1.069   2.069   4.281 -2.4443 -0.7011 -0.2051
 1509SOL     OW16162   1.782   4.640   2.804  0.2060  0.4588 -0.2209
 1509SOL    HW116163   1.815   4.670   2.889 -1.6329 -1.3223  1.1057
 1509SOL    HW216164   1.866   4.637   2.758  0.2339 -1.4018 -0.0492
 1510SOL     OW16165   0.653   3.435   1.264  0.0103  0.1277  0.6158
 1510SOL    HW116166   0.694   3.504   1.211 -0.0145  1.6501  2.5882
 1510SOL    HW216167   0.640   3.483   1.346 -1.0344  1.0346 -0.0866
 1511SOL     OW16168   0.852   2.210   8.718 -0.2561  0.2996 -0.2982
 1511SOL    HW116169   0.789   2.175   8.654  0.4919  0.2920 -1.0235
 1511SOL    HW216170   0.843   2.303   8.700  1.8188  0.1463 -2.1390
 1512SOL     OW16171   2.433   1.273   6.183 -0.1680  0.0042 -0.2032
 1512SOL    HW116172   2.364   1.307   6.240  0.2491  1.2172 -0.4284
 1512SOL    HW216173   2.392   1.289   6.099 -0.9611  1.1785  0.4139
 1513SOL     OW16174   0.338   2.357  12.977 -0.0446 -0.3789 -0.4063
 1513SOL    HW116175   0.304   2.286  13.031  1.3775  0.1955  1.2340
 1513SOL    HW216176   0.422   2.317  12.957  0.3620  0.6488 -0.7406
 1514SOL     OW16177   1.322   3.055  16.722 -0.1046  0.3793 -0.0624
 1514SOL    HW116178   1.240   3.078  16.679  1.0180  0.3351 -2.2397
 1514SOL    HW216179   1.374   3.130  16.694 -0.1233  0.0340 -1.0373
 1515SOL     OW16180   2.950   2.619  15.297  0.0504  0.4005  0.1829
 1515SOL    HW116181   3.022   2.638  15.237  1.2608 -1.5030  1.0424
 1515SOL    HW216182   2.981   2.651  15.382  1.3316  4.4540 -1.8178
 1516SOL     OW16183   3.995   0.817   0.663  0.2097  0.3346  0.2238
 1516SOL    HW116184   3.996   0.878   0.589  1.6493  0.5597  0.4386
 1516SOL    HW216185   3.965   0.876   0.732 -0.6014  0.1459  0.0319
 1517SOL     OW16186   2.365   4.187  17.093 -0.5841 -0.1659  0.1743
 1517SOL    HW116187   2.457   4.204  17.111 -0.9281  1.4883  0.3979
 1517SOL    HW216188   2.355   4.092  17.088  0.0582 -0.2156 -0.1506
 1518SOL     OW16189   0.707   3.430  16.696  0.1691  0.2388  0.0602
 1518SOL    HW116190   0.631   3.372  16.695 -1.1268  1.9427  0.3371
 1518SOL    HW216191   0.674   3.497  16.636 -0.4238  0.7830  0.9949
 1519SOL     OW16192   3.471   1.136   3.365  0.4699  0.5483  0.7650
 1519SOL    HW116193   3.512   1.216   3.330  0.8718  0.4493  1.0112
 1519SOL    HW216194   3.550   1.089   3.392 -0.6177 -0.8654  1.4589
 1520SOL     OW16195   4.683   3.848  13.663 -0.1817 -0.4268  0.0333
 1520SOL    HW116196   4.723   3.927  13.626  0.3692  0.1569  1.8485
 1520SOL    HW216197   4.595   3.885  13.675 -0.3487 -0.9236  0.3432
 1521SOL     OW16198   0.911   4.256   9.420 -0.0269 -0.6658 -0.0696
 1521SOL    HW116199   0.831   4.206   9.438  0.6527 -1.0542  1.9359
 1521SOL    HW216200   0.912   4.245   9.325  1.8161  2.7176 -0.4373
 1522SOL     OW16201   3.214   0.315  11.738  1.0147 -0.0275  0.0986
 1522SOL    HW116202   3.280   0.318  11.807 -0.4715  1.1741  1.4856
 1522SOL    HW216203   3.180   0.225  11.731 -1.8212  1.1555 -1.5543
 1523SOL     OW16204   1.045   2.332   4.243 -0.3165 -0.0517 -1.0582
 1523SOL    HW116205   1.134   2.345   4.278 -0.1304 -1.5628 -0.9769
 1523SOL    HW216206   1.022   2.424   4.233 -1.5895 -0.2759 -0.2212
 1524SOL     OW16207   2.963   2.691   3.014 -0.1825  0.4104 -0.0589
 1524SOL    HW116208   2.937   2.619   2.956 -0.9898  0.1564  0.6120
 1524SOL    HW216209   2.882   2.721   3.055  1.4851  3.4006  1.0659
 1525SOL     OW16210   3.007   2.174  12.726  0.4633  0.3502  0.0458
 1525SOL    HW116211   3.099   2.194  12.746  0.2644  0.0270  1.2599
 1525SOL    HW216212   3.018   2.095  12.673  2.8401  2.0086 -1.9404
 1526SOL     OW16213   0.462   3.712   9.297  0.6351 -0.5145  0.4887
 1526SOL    HW116214   0.525   3.723   9.226 -0.9860 -0.7979 -1.0007
 1526SOL    HW216215   0.475   3.617   9.295  2.4676 -0.2743  1.3896
 1527SOL     OW16216   2.419   0.689   5.050 -0.1790 -0.0114  0.1126
 1527SOL    HW116217   2.355   0.643   4.994 -1.4447  0.8649  0.8449
 1527SOL    HW216218   2.452   0.617   5.104  1.0648  1.2468  1.0042
 1528SOL     OW16219   1.765   2.052   3.518 -0.0185  0.0156  0.4495
 1528SOL    HW116220   1.786   1.974   3.570  0.8485  0.2009  0.3702
 1528SOL    HW216221   1.843   2.055   3.464 -0.8105 -0.9698 -0.7518
 1529SOL     OW16222   0.198   0.119   1.301 -0.1766  0.6724  0.3180
 1529SOL    HW116223   0.232   0.116   1.212 -1.2541  1.3231 -0.1180
 1529SOL    HW216224   0.122   0.061   1.290  1.1288 -0.7939 -0.9436
 1530SOL     OW16225   3.359   1.794   7.624  0.1498  0.4410 -0.4348
 1530SOL    HW116226   3.435   1.781   7.567  0.6437  3.7446 -0.5673
 1530SOL    HW216227   3.291   1.776   7.559  1.0171 -2.8843 -0.4312
 1531SOL     OW16228   2.110   0.011  12.946 -0.1911 -0.4143 -0.0917
 1531SOL    HW116229   2.079   4.659  12.968 -1.6000 -0.0154 -0.5060
 1531SOL    HW216230   2.116   0.044  13.036  0.4345 -4.5798  1.4007
 1532SOL     OW16231   1.249   3.447   7.666 -0.3301 -0.8738  0.1715
 1532SOL    HW116232   1.211   3.530   7.696 -1.0453 -1.2770  0.3977
 1532SOL    HW216233   1.247   3.461   7.571 -0.2128  1.1590  0.4596
 1533SOL     OW16234   3.238   2.395  14.756  0.2287 -0.1462 -0.4497
 1533SOL    HW116235   3.188   2.476  14.773  1.2247  0.1393  1.1264
 1533SOL    HW216236   3.170   2.339  14.718 -0.9174  1.6503 -1.1010
 1534SOL     OW16237   0.624   1.488   3.643 -0.0557  0.2311 -0.2541
 1534SOL    HW116238   0.579   1.424   3.588  1.6097  0.1644 -1.5391
 1534SOL    HW216239   0.636   1.566   3.589 -0.2386  0.1242 -0.4452
 1535SOL     OW16240   2.456   2.559  12.067  0.0791  0.2647 -0.3725
 1535SOL    HW116241   2.450   2.523  12.155  0.9281 -0.5634 -0.6493
 1535SOL    HW216242   2.448   2.652  12.088 -0.8353  0.1517 -0.2391
 1536SOL     OW16243   3.595   3.851  15.165  0.1746 -0.5481 -0.4843
 1536SOL    HW116244   3.689   3.867  15.150  0.1194  2.8806  2.7668
 1536SOL    HW216245   3.577   3.829  15.073  2.6304 -1.2512 -0.8078
 1537SOL     OW16246   2.062   2.741   2.894 -0.2323 -0.5090  0.3971
 1537SOL    HW116247   2.119   2.774   2.963 -0.3122  0.0368  0.2023
 1537SOL    HW216248   2.084   2.648   2.885 -0.1762 -0.3732 -0.8845
 1538SOL     OW16249   1.241   0.766  17.652  0.2941  0.0125  0.0423
 1538SOL    HW116250   1.317   0.823  17.660 -0.0757  0.6623 -1.0872
 1538SOL    HW216251   1.229   0.760  17.557  1.5749 -1.3924 -0.0196
 1539SOL     OW16252   0.763   1.087   4.132 -0.1240  0.1152  0.2508
 1539SOL    HW116253   0.748   1.051   4.044 -1.1912 -2.1401  1.3504
 1539SOL    HW216254   0.698   1.042   4.186 -0.8095  1.5843  0.6255
 1540SOL     OW16255   3.888   0.484   1.713 -0.0930 -0.2084 -0.1416
 1540SOL    HW116256   3.872   0.501   1.806 -1.8819 -1.9330 -0.1425
 1540SOL    HW216257   3.819   0.421   1.694  0.7672 -1.0223 -0.5585
 1541SOL     OW16258   0.762   1.122  16.806  0.0551 -0.1470  0.0526
 1541SOL    HW116259   0.674   1.084  16.808 -0.7758  1.7600 -0.2969
 1541SOL    HW216260   0.767   1.143  16.899 -1.7724  0.0700  0.1152
 1542SOL     OW16261   3.556   4.552  16.166 -0.0978  0.0346 -0.2089
 1542SOL    HW116262   3.542   4.639  16.128  0.0280  0.5911  1.0179
 1542SOL    HW216263   3.465   4.525  16.154  0.7532 -2.5714 -0.7599
 1543SOL     OW16264   0.667   3.326   7.548 -0.3430 -0.0912 -0.6211
 1543SOL    HW116265   0.652   3.384   7.474 -2.1401  2.1168  1.5014
 1543SOL    HW216266   0.703   3.248   7.505  0.0692 -1.2155  1.7620
 1544SOL     OW16267   1.040   0.049   8.716  0.4599  0.1183  0.2024
 1544SOL    HW116268   1.131   0.079   8.723  0.0559  0.8408  2.2576
 1544SOL    HW216269   1.019   0.048   8.809  0.6402  0.1366  0.2439
 1545SOL     OW16270   2.183   0.493  11.747 -0.7520 -0.2742 -0.1849
 1545SOL    HW116271   2.118   0.558  11.774 -0.6022 -0.0183 -0.4439
 1545SOL    HW216272   2.255   0.548  11.717 -2.3608  0.5106 -2.6520
 1546SOL     OW16273   1.021   3.419   2.869 -0.4728  0.1338 -0.1078
 1546SOL    HW116274   0.928   3.400   2.870 -0.4353 -0.1132 -0.8112
 1546SOL    HW216275   1.024   3.495   2.927 -0.8901  0.5609 -0.6511
 1547SOL     OW16276   4.663   2.057   4.348 -0.5487  0.1793 -0.0716
 1547SOL    HW116277   4.693   2.134   4.396 -0.8357  0.2967 -0.0803
 1547SOL    HW216278   4.571   2.084   4.339 -1.1580 -2.0852 -0.6265
 1548SOL     OW16279   3.352   1.567   0.962  0.2769  0.6065  0.1043
 1548SOL    HW116280   3.417   1.498   0.978 -0.5928 -0.2837 -0.2137
 1548SOL    HW216281   3.276   1.513   0.939 -0.9241  1.8861  1.0593
 1549SOL     OW16282   2.242   3.684   4.709 -0.3867 -0.0336  0.3033
 1549SOL    HW116283   2.179   3.614   4.723 -0.1981 -0.3261 -0.2922
 1549SOL    HW216284   2.314   3.634   4.669  0.3061 -0.4924  2.0957
 1550SOL     OW16285   0.359   1.337   6.819  0.1525  0.3761 -0.3546
 1550SOL    HW116286   0.265   1.326   6.832  0.2302  1.0084  0.7740
 1550SOL    HW216287   0.383   1.253   6.781  1.4403  1.1941 -1.3619
 1551SOL     OW16288   2.705   3.941   8.208  0.1636 -0.2933 -0.0577
 1551SOL    HW116289   2.689   3.848   8.220  1.8872 -0.5628  0.2530
 1551SOL    HW216290   2.686   3.959   8.116  2.3639 -0.8149 -0.6057
 1552SOL     OW16291   0.736   3.152  11.736  0.2120  0.3617  0.1869
 1552SOL    HW116292   0.753   3.196  11.652 -0.8032 -0.8150 -0.6294
 1552SOL    HW216293   0.642   3.153  11.749  0.3110  0.1195  0.9226
 1553SOL     OW16294   0.729   3.807   2.492 -0.1413  0.4265 -0.1626
 1553SOL    HW116295   0.754   3.742   2.557 -0.5396 -0.7595 -1.2074
 1553SOL    HW216296   0.661   3.855   2.538 -0.4403 -0.5372  0.3916
 1554SOL     OW16297   2.083   4.466  14.147 -0.0195  0.0741 -0.1234
 1554SOL    HW116298   2.076   4.560  14.134 -2.5940 -0.4283 -2.2973
 1554SOL    HW216299   1.994   4.431  14.138  0.5517 -1.1397 -1.1262
 1555SOL     OW16300   4.371   2.705  10.831 -0.5858 -0.7456 -0.3728
 1555SOL    HW116301   4.465   2.722  10.825 -0.5717  0.4410  3.3035
 1555SOL    HW216302   4.355   2.655  10.751 -0.5617  0.7939 -1.3513
 1556SOL     OW16303   4.559   2.216   3.926  0.1921 -0.1218  0.0040
 1556SOL    HW116304   4.474   2.178   3.947  0.8756 -0.3065  2.3795
 1556SOL    HW216305   4.603   2.150   3.872 -2.3468 -1.5614 -0.3191
 1557SOL     OW16306   2.797   2.878   7.256 -0.7536 -0.2148 -0.2005
 1557SOL    HW116307   2.852   2.829   7.194  0.3092  1.4749 -0.5784
 1557SOL    HW216308   2.738   2.811   7.291 -0.2887 -0.5448 -0.0391
 1558SOL     OW16309   1.779   0.883  11.568  0.3239  0.5466  0.1365
 1558SOL    HW116310   1.831   0.804  11.578  0.1957  0.5164  0.5417
 1558SOL    HW216311   1.695   0.840  11.558  0.8186 -0.1305 -1.2204
 1559SOL     OW16312   4.093   3.679   8.463  0.1747 -0.1990  0.0571
 1559SOL    HW116313   3.999   3.659   8.452  0.0359  1.1974 -1.3717
 1559SOL    HW216314   4.106   3.748   8.397  1.9859  1.5182  2.2133
 1560SOL     OW16315   2.305   0.786   5.934 -0.0589 -0.0234 -0.1400
 1560SOL    HW116316   2.227   0.836   5.909 -0.6406 -0.6539  0.4113
 1560SOL    HW216317   2.320   0.737   5.853  0.0717 -2.1310  1.1498
 1561SOL     OW16318   3.016   4.282   9.412 -0.3267 -0.3205  0.0040
 1561SOL    HW116319   2.927   4.311   9.391  0.0524  2.7545  2.7534
 1561SOL    HW216320   2.996   4.188   9.415  0.3259 -0.4825 -0.9256
 1562SOL     OW16321   4.442   3.038   4.680 -0.2289 -0.0571 -0.0609
 1562SOL    HW116322   4.458   2.986   4.758  0.6739  1.5987  0.8541
 1562SOL    HW216323   4.490   3.117   4.707  1.2154 -1.4190  1.3151
 1563SOL     OW16324   1.905   0.181   1.578  0.0280  0.2738 -0.2918
 1563SOL    HW116325   1.919   0.119   1.507  0.6647  0.2478 -0.1462
 1563SOL    HW216326   1.993   0.214   1.594 -0.3038  1.6637 -1.2930
 1564SOL     OW16327   3.824   2.021   4.703  0.8683 -0.3290  0.4587
 1564SOL    HW116328   3.856   1.941   4.744  1.1608 -0.7512 -0.5850
 1564SOL    HW216329   3.883   2.080   4.750  0.9837 -0.0728 -0.0062
 1565SOL     OW16330   1.277   0.235  16.289  0.5183  0.1184  0.5240
 1565SOL    HW116331   1.228   0.252  16.209 -0.6202  1.3275  1.4771
 1565SOL    HW216332   1.240   0.299  16.349 -2.2417  0.8789 -2.0232
 1566SOL     OW16333   0.926   2.386   2.674  0.0920 -0.1001 -0.3495
 1566SOL    HW116334   0.905   2.306   2.722  0.7124  0.2027  0.4366
 1566SOL    HW216335   0.936   2.363   2.582  2.6916 -1.4817  0.2610
 1567SOL     OW16336   4.670   0.406   7.473  0.0470  0.5387 -0.0263
 1567SOL    HW116337   4.648   0.488   7.519  0.9816 -0.6493  2.5361
 1567SOL    HW216338   4.668   0.439   7.383 -0.8764 -0.2307 -0.2843
 1568SOL     OW16339   0.621   4.612   4.162  0.2696 -0.2968 -0.4518
 1568SOL    HW116340   0.696   4.671   4.161  0.0820 -0.0752 -1.1353
 1568SOL    HW216341   0.634   4.573   4.249 -0.8788 -1.3927 -0.7572
 1569SOL     OW16342   1.519   3.435   4.339  0.4106 -0.0646 -0.4771
 1569SOL    HW116343   1.526   3.381   4.261  0.6750 -0.6351 -0.0559
 1569SOL    HW216344   1.496   3.371   4.406 -0.5237  1.5017  0.7220
 1570SOL     OW16345   1.707   2.165   1.563  0.0946 -0.1671 -0.4777
 1570SOL    HW116346   1.648   2.173   1.488  2.9189 -1.3243 -2.8187
 1570SOL    HW216347   1.778   2.227   1.555  1.5683 -1.5514  1.7988
 1571SOL     OW16348   1.986   2.398   6.402 -0.2088  0.0639  0.0825
 1571SOL    HW116349   1.903   2.443   6.413  0.1296  0.8621 -0.6120
 1571SOL    HW216350   2.043   2.471   6.425 -0.3037  0.4395 -0.8648
 1572SOL     OW16351   3.573   0.503   4.330  0.3604 -0.0721 -0.1196
 1572SOL    HW116352   3.663   0.533   4.322 -0.0177  1.0254 -0.3394
 1572SOL    HW216353   3.526   0.584   4.353  1.8783  0.2050  1.9138
 1573SOL     OW16354   0.431   3.226   3.706  0.0551 -0.0556  0.1386
 1573SOL    HW116355   0.508   3.252   3.656 -0.3232 -0.2572 -0.5600
 1573SOL    HW216356   0.438   3.275   3.788 -2.1839 -0.9102  0.8624
 1574SOL     OW16357   0.991   4.282   9.928  0.0964  0.6078 -0.0994
 1574SOL    HW116358   0.930   4.319   9.864 -0.6204 -0.3453  0.0367
 1574SOL    HW216359   1.067   4.331   9.896 -0.0742  0.4603 -0.7292
 1575SOL     OW16360   3.324   4.317   6.886 -0.1409  0.1999  0.1143
 1575SOL    HW116361   3.271   4.340   6.962 -1.7765 -0.9017 -0.7120
 1575SOL    HW216362   3.357   4.397   6.844 -1.5428  0.8220  0.1849
 1576SOL     OW16363   2.531   1.468  10.394 -0.0175  0.1481  0.1173
 1576SOL    HW116364   2.572   1.399  10.343 -1.1312 -0.1180 -0.4090
 1576SOL    HW216365   2.607   1.524  10.410  1.3726 -1.0186 -2.4563
 1577SOL     OW16366   1.986   4.491   8.901  0.0876 -0.6381  1.2408
 1577SOL    HW116367   1.941   4.431   8.842  0.6599 -1.0299  1.2029
 1577SOL    HW216368   2.051   4.445   8.955  1.0694 -0.7042  0.0235
 1578SOL     OW16369   4.542   1.199   7.774  0.3931 -0.5622  0.0406
 1578SOL    HW116370   4.551   1.294   7.782  0.5329 -0.3840 -2.1944
 1578SOL    HW216371   4.548   1.189   7.679 -3.4926  1.6541 -0.4249
 1579SOL     OW16372   4.207   3.506   7.654 -0.6516 -0.3564 -0.2010
 1579SOL    HW116373   4.292   3.544   7.676 -1.1441  2.0148 -2.3542
 1579SOL    HW216374   4.181   3.574   7.591 -0.4002 -3.4023 -3.6281
 1580SOL     OW16375   3.770   1.434   3.090  0.2468 -0.2994  0.3492
 1580SOL    HW116376   3.738   1.519   3.059 -1.9789 -0.4900  2.1208
 1580SOL    HW216377   3.844   1.417   3.032  1.1013 -0.0366  1.3752
 1581SOL     OW16378   3.134   4.686   8.726 -0.0767  0.6133  0.1347
 1581SOL    HW116379   3.041   4.671   8.743 -0.1631  0.3413 -0.5400
 1581SOL    HW216380   3.136   4.630   8.647  0.4270 -2.0089  2.0010
 1582SOL     OW16381   0.122   0.701   6.053 -0.1491 -0.5411 -0.2613
 1582SOL    HW116382   0.064   0.637   6.013  0.9803 -2.6426  1.5202
 1582SOL    HW216383   0.067   0.776   6.078 -0.7823 -0.6081 -1.4629
 1583SOL     OW16384   3.379   4.010   2.082 -0.2579 -0.2632 -0.2419
 1583SOL    HW116385   3.310   4.031   2.020  0.1374 -0.3597 -0.7149
 1583SOL    HW216386   3.406   4.098   2.108 -0.8789  0.2541 -1.3751
 1584SOL     OW16387   3.631   0.908   5.299 -0.0805  0.0267 -0.1093
 1584SOL    HW116388   3.679   0.829   5.326 -0.6034  0.0148  0.7925
 1584SOL    HW216389   3.557   0.913   5.360 -1.4855  1.8075 -1.9763
 1585SOL     OW16390   0.926   4.564  10.724 -0.3007 -0.4721  0.1856
 1585SOL    HW116391   0.942   4.470  10.738  0.4753 -0.6188 -1.7328
 1585SOL    HW216392   0.974   4.587  10.645  0.3275 -1.6011  0.2407
 1586SOL     OW16393   0.792   4.497   2.870  0.1335  0.3953 -0.6654
 1586SOL    HW116394   0.698   4.489   2.853  0.5860  1.2550 -3.4963
 1586SOL    HW216395   0.785   4.590   2.893  0.5350  0.3401 -0.3269
 1587SOL     OW16396   2.818   3.830   7.237  0.1538  0.3814 -0.2407
 1587SOL    HW116397   2.742   3.888   7.232 -0.8049 -0.8357 -0.0163
 1587SOL    HW216398   2.805   3.795   7.325  2.3917 -0.1053 -0.1053
 1588SOL     OW16399   1.538   3.964   8.687  0.1438  0.5300 -0.1296
 1588SOL    HW116400   1.540   4.056   8.715  0.3438  0.2830  0.6747
 1588SOL    HW216401   1.464   3.934   8.739  1.6499 -2.2295  0.4153
 1589SOL     OW16402   1.702   2.173  15.145 -0.2359  0.3112 -0.0185
 1589SOL    HW116403   1.660   2.102  15.097 -1.6953  0.7661  0.6067
 1589SOL    HW216404   1.755   2.126  15.209 -0.9715 -0.2457  0.1686
 1590SOL     OW16405   0.055   1.868   3.186 -0.0870 -0.1434  0.3903
 1590SOL    HW116406   4.705   1.827   3.186  1.0429 -2.5133 -0.9154
 1590SOL    HW216407   0.040   1.919   3.266  2.1829  0.9325  0.1321
 1591SOL     OW16408   2.388   1.758   7.112 -0.1257 -0.0303 -0.0118
 1591SOL    HW116409   2.477   1.750   7.078 -0.1314 -0.8367  0.1639
 1591SOL    HW216410   2.350   1.821   7.051 -1.1512 -0.0100  0.6421
 1592SOL     OW16411   1.223   2.670   4.383 -0.2373 -0.2270  0.5313
 1592SOL    HW116412   1.302   2.657   4.436  1.0285 -2.2622 -1.8329
 1592SOL    HW216413   1.262   2.686   4.297 -1.8945 -1.7566 -0.5026
 1593SOL     OW16414   2.083   1.794   2.867 -0.4116 -0.5442  0.2834
 1593SOL    HW116415   2.160   1.738   2.854  0.4341  0.2126  2.0218
 1593SOL    HW216416   2.117   1.883   2.867 -0.4578 -0.5283 -0.0337
 1594SOL     OW16417   2.318   2.574   2.547  0.3816 -0.3344 -0.2290
 1594SOL    HW116418   2.285   2.538   2.629  0.8430  2.0976  0.9994
 1594SOL    HW216419   2.280   2.661   2.557 -0.4115 -0.8433  1.2126
 1595SOL     OW16420   1.999   4.550   4.670 -0.4325  0.3624  1.0305
 1595SOL    HW116421   2.057   4.532   4.595 -0.3827  0.6687  0.9964
 1595SOL    HW216422   2.031   4.631   4.709 -1.2105  1.4292 -0.5460
 1596SOL     OW16423   3.340   3.921  13.216  0.4561  0.3303  0.6308
 1596SOL    HW116424   3.307   3.874  13.140 -0.4035  0.4144  0.9496
 1596SOL    HW216425   3.260   3.933  13.269 -0.4575  0.5866 -0.8111
 1597SOL     OW16426   1.542   1.648   8.993 -0.5007 -0.4886 -0.0733
 1597SOL    HW116427   1.450   1.647   9.017 -0.6044 -1.1584 -0.4932
 1597SOL    HW216428   1.564   1.555   8.985  4.0720  0.4452  1.7568
 1598SOL     OW16429   2.841   3.907   4.717 -0.6439  0.4529  0.7995
 1598SOL    HW116430   2.892   3.954   4.651  0.5536  1.4852  2.4672
 1598SOL    HW216431   2.844   3.981   4.778 -0.2154  1.8365 -0.9080
 1599SOL     OW16432   2.714   1.271   8.831  0.0468  0.7188 -0.3127
 1599SOL    HW116433   2.708   1.252   8.737 -0.0516 -0.9691  0.0300
 1599SOL    HW216434   2.636   1.222   8.857  0.9275 -0.4242  0.1670
 1600SOL     OW16435   4.418   3.165   5.351 -0.1087  0.1226 -0.5189
 1600SOL    HW116436   4.442   3.097   5.415  1.1544  1.4266  0.4014
 1600SOL    HW216437   4.366   3.223   5.407  1.6451  0.5620  0.6582
 1601SOL     OW16438   3.637   2.621  17.737  0.2775  0.1559  0.4121
 1601SOL    HW116439   3.631   2.609   0.088  0.0203  1.0240  0.5042
 1601SOL    HW216440   3.549   2.659  17.730 -0.3931 -1.1853  1.5162
 1602SOL     OW16441   1.514   1.602  17.410 -0.1037  0.6901  0.3519
 1602SOL    HW116442   1.471   1.528  17.453 -1.4429  1.8344  0.9619
 1602SOL    HW216443   1.586   1.610  17.472 -1.0370  1.9736  1.2429
 1603SOL     OW16444   2.459   2.092   7.761  0.5081 -0.0830 -0.1379
 1603SOL    HW116445   2.460   2.119   7.852  0.1573 -1.3164  0.2354
 1603SOL    HW216446   2.454   1.997   7.772 -1.4881  0.3384  2.5428
 1604SOL     OW16447   3.064   1.349   0.289  0.0073  0.4522  0.3875
 1604SOL    HW116448   3.070   1.358   0.385  1.0172  0.4310  0.3280
 1604SOL    HW216449   3.148   1.384   0.262  0.3880  1.0412  2.3493
 1605SOL     OW16450   4.469   3.003   8.814 -0.3845 -0.4114 -0.6262
 1605SOL    HW116451   4.428   3.017   8.900  2.6309  0.1328  0.7473
 1605SOL    HW216452   4.428   2.920   8.793  0.5155 -0.6057 -1.6114
 1606SOL     OW16453   4.632   0.530   5.643  0.0763 -0.1751 -0.3437
 1606SOL    HW116454   4.547   0.509   5.604  1.0635 -0.2201 -2.4717
 1606SOL    HW216455   4.655   0.612   5.600  0.1410  1.4742  2.8067
 1607SOL     OW16456   0.524   2.317   7.646  0.1444  0.2688 -0.2093
 1607SOL    HW116457   0.562   2.271   7.571  0.6186  1.2765 -0.5920
 1607SOL    HW216458   0.502   2.402   7.609  0.4670 -0.3602 -1.8678
 1608SOL     OW16459   3.011   0.678   1.815  0.3950  0.0288 -0.3525
 1608SOL    HW116460   2.989   0.634   1.733 -1.5597 -0.3634  0.3992
 1608SOL    HW216461   2.950   0.637   1.875 -0.8098  0.7788 -1.0636
 1609SOL     OW16462   1.664   2.333   7.726  0.8296  0.2099  0.3792
 1609SOL    HW116463   1.707   2.298   7.804 -0.0785 -0.4397  0.5886
 1609SOL    HW216464   1.590   2.373   7.771 -0.4506  0.1587 -1.6988
 1610SOL     OW16465   2.205   1.633   5.817  0.2908  0.0212  0.0506
 1610SOL    HW116466   2.276   1.624   5.754  0.0899 -0.8353 -0.0532
 1610SOL    HW216467   2.162   1.715   5.791 -0.8211 -0.2346  1.0552
 1611SOL     OW16468   4.414   4.586   9.212 -0.0363  0.2902 -0.5690
 1611SOL    HW116469   4.398   4.644   9.137  0.7677  1.1566 -0.0739
 1611SOL    HW216470   4.509   4.574   9.211 -0.2911 -1.6468  0.3545
 1612SOL     OW16471   0.011   1.361   2.431  0.0612  0.0967  0.1515
 1612SOL    HW116472   4.709   1.432   2.483 -2.1034  0.9851 -2.6862
 1612SOL    HW216473   0.052   1.306   2.497  1.0083 -1.0338 -1.3790
 1613SOL     OW16474   4.187   2.590   1.700  0.2542 -0.4380  0.2073
 1613SOL    HW116475   4.257   2.611   1.763 -0.3197  2.9373 -0.2821
 1613SOL    HW216476   4.122   2.658   1.716  0.0650 -0.8298  1.1010
 1614SOL     OW16477   4.628   2.670   6.130  0.2827  0.2524  0.3779
 1614SOL    HW116478   4.539   2.704   6.118  0.5763  0.4579 -1.2255
 1614SOL    HW216479   4.651   2.670   6.037  1.1393 -1.7497  0.5913
 1615SOL     OW16480   4.182   0.557   3.833 -0.1772 -0.3869  0.5425
 1615SOL    HW116481   4.260   0.515   3.868 -0.7949 -0.2815  2.0478
 1615SOL    HW216482   4.211   0.606   3.756 -2.5540 -2.0087 -1.3803
 1616SOL     OW16483   0.987   2.397  13.614  0.1166  0.0068 -0.7091
 1616SOL    HW116484   0.931   2.471  13.637 -0.2682 -0.0717 -1.3886
 1616SOL    HW216485   1.072   2.429  13.644 -0.5927  2.3612 -1.2070
 1617SOL     OW16486   3.859   0.015   0.335  0.4181 -0.1513 -0.5935
 1617SOL    HW116487   3.908   0.020   0.253 -0.8951  0.4639 -1.3460
 1617SOL    HW216488   3.929   4.708   0.384  0.5332 -1.2388 -1.7144
 1618SOL     OW16489   4.109   2.777   2.241  0.7086  0.5889  0.6017
 1618SOL    HW116490   4.077   2.827   2.316  0.4192  1.5807 -0.1816
 1618SOL    HW216491   4.038   2.761   2.179  0.8848  0.4778  0.4298
 1619SOL     OW16492   0.914   0.533   8.124 -1.1573 -0.2223 -0.0735
 1619SOL    HW116493   0.953   0.528   8.037  1.9205 -0.6632  1.3301
 1619SOL    HW216494   0.834   0.586   8.122  0.2236  1.8461 -0.1067
 1620SOL     OW16495   0.352   3.981  14.597  0.2061  0.8053  0.4459
 1620SOL    HW116496   0.356   3.888  14.620  0.6823  1.0097  1.1718
 1620SOL    HW216497   0.275   3.992  14.541 -1.8730 -0.1687  3.0547
 1621SOL     OW16498   1.227   3.209   8.260  0.1160  0.6391  0.3734
 1621SOL    HW116499   1.163   3.255   8.207 -0.6348  1.4885  2.0256
 1621SOL    HW216500   1.293   3.278   8.271 -0.4307  0.8989  2.1266
 1622SOL     OW16501   0.672   1.976   3.899 -0.3768  0.3358  0.0647
 1622SOL    HW116502   0.709   1.909   3.957 -0.7259  1.1537  1.2495
 1622SOL    HW216503   0.731   2.051   3.911  2.3220 -2.0039  1.2768
 1623SOL     OW16504   0.766   4.377  14.162  0.1658  0.4501 -0.1987
 1623SOL    HW116505   0.676   4.349  14.182  0.1129  0.8584  0.1466
 1623SOL    HW216506   0.750   4.423  14.079 -2.1972 -0.3415 -0.1877
 1624SOL     OW16507   2.500   3.289  10.056  0.1127  0.3487 -0.0384
 1624SOL    HW116508   2.427   3.325  10.006 -2.7506 -2.8511  1.8520
 1624SOL    HW216509   2.552   3.236   9.995 -2.3953  0.2841 -2.1331
 1625SOL     OW16510   2.637   4.221   7.103  0.5165 -0.4169  0.5169
 1625SOL    HW116511   2.652   4.153   7.168 -0.5971 -0.7299  0.4481
 1625SOL    HW216512   2.542   4.236   7.103  0.5736 -0.0569 -1.6541
 1626SOL     OW16513   3.545   0.909   2.728  0.2677  0.3912 -0.0131
 1626SOL    HW116514   3.594   0.877   2.652  0.0015  0.8214 -0.3669
 1626SOL    HW216515   3.590   0.989   2.756 -0.2816  0.9792 -0.8215
 1627SOL     OW16516   3.223   4.302   4.497 -0.0769  0.2453  0.2242
 1627SOL    HW116517   3.246   4.219   4.540 -0.3573 -0.7005 -1.4299
 1627SOL    HW216518   3.127   4.304   4.502 -0.2912 -0.8551 -3.5162
 1628SOL     OW16519   0.394   1.066   6.750  0.3693  0.5729  0.2796
 1628SOL    HW116520   0.460   1.014   6.796 -0.6185 -1.6487 -0.8052
 1628SOL    HW216521   0.348   0.993   6.709  0.3403  1.2080 -0.8404
 1629SOL     OW16522   1.570   4.589  13.057 -0.6555  0.3580  0.1437
 1629SOL    HW116523   1.563   4.633  13.141 -1.2386 -1.1200  0.8597
 1629SOL    HW216524   1.535   4.656  12.998 -0.2216  0.2562 -0.2357
 1630SOL     OW16525   4.270   2.231  16.249 -0.4971 -0.0105 -0.3327
 1630SOL    HW116526   4.300   2.142  16.234 -0.0757 -0.0624  0.8217
 1630SOL    HW216527   4.176   2.223  16.265 -0.7794 -0.0947 -2.0028
 1631SOL     OW16528   4.261   1.768   3.859 -0.1468  0.6847 -0.1248
 1631SOL    HW116529   4.278   1.789   3.951  0.5965 -2.8884  0.5451
 1631SOL    HW216530   4.287   1.853   3.823  0.6676  0.8666  0.8825
 1632SOL     OW16531   3.943   2.207   0.563 -0.2331  0.4881 -1.1085
 1632SOL    HW116532   3.993   2.135   0.524 -1.3819 -0.7072 -0.3599
 1632SOL    HW216533   3.891   2.152   0.622  2.5016  0.1173  0.9583
 1633SOL     OW16534   2.119   1.396   4.837 -0.2225 -0.0812 -0.3854
 1633SOL    HW116535   2.205   1.406   4.877  1.6598 -0.6983 -4.2390
 1633SOL    HW216536   2.091   1.331   4.901  0.7636  1.1317  1.2989
 1634SOL     OW16537   2.363   1.742  17.224  0.4214  0.3861  0.0009
 1634SOL    HW116538   2.286   1.797  17.239  1.1317  0.9301  1.6256
 1634SOL    HW216539   2.423   1.784  17.285  0.9457 -0.1233 -0.1648
 1635SOL     OW16540   2.907   3.002   4.505  0.2565 -0.0519  0.3990
 1635SOL    HW116541   2.902   2.926   4.563 -0.4414 -0.7362 -0.5614
 1635SOL    HW216542   2.839   3.054   4.546  1.9519  0.7812  2.1676
 1636SOL     OW16543   3.973   1.587  10.711  0.3945  0.2377 -0.0134
 1636SOL    HW116544   4.066   1.566  10.712  0.3391  0.1680  3.1542
 1636SOL    HW216545   3.965   1.584  10.806  0.2385  1.7801  0.0342
 1637SOL     OW16546   1.148   0.539   7.900  0.0657  0.5667  0.4385
 1637SOL    HW116547   1.178   0.569   7.814 -0.1500  1.0158  0.5172
 1637SOL    HW216548   1.104   0.457   7.879  0.4057  0.6262 -0.5170
 1638SOL     OW16549   3.630   0.141   0.308 -0.3990 -0.4782  0.0630
 1638SOL    HW116550   3.658   0.222   0.265  1.1330 -0.7739  0.4992
 1638SOL    HW216551   3.714   0.109   0.340 -1.3997 -0.7278  2.4550
 1639SOL     OW16552   0.153   3.008   9.960  0.0846  0.3308  0.2101
 1639SOL    HW116553   0.087   3.076   9.973 -0.6847  0.0003 -1.9713
 1639SOL    HW216554   0.090   2.936   9.955  0.7086 -0.3776  2.3758
 1640SOL     OW16555   2.317   2.223   4.848  0.0328 -0.0445  0.1827
 1640SOL    HW116556   2.347   2.146   4.800 -1.7270  0.5541 -1.8679
 1640SOL    HW216557   2.340   2.300   4.795 -0.8900  0.0735 -0.0403
 1641SOL     OW16558   2.283   1.601  10.848  0.1855  0.0667  0.5545
 1641SOL    HW116559   2.339   1.545  10.793  0.5436  0.6007  0.3766
 1641SOL    HW216560   2.308   1.574  10.937  2.5265 -1.7393 -0.6237
 1642SOL     OW16561   0.053   0.694   8.097 -0.1290  0.7366  0.5245
 1642SOL    HW116562   4.733   0.617   8.095 -0.1349  0.7748 -0.8444
 1642SOL    HW216563   0.122   0.677   8.033  1.0432 -0.3671  2.0955
 1643SOL     OW16564   2.544   2.580  15.187 -0.3623 -0.0513 -0.2768
 1643SOL    HW116565   2.609   2.533  15.239 -1.0614 -1.0912 -0.3517
 1643SOL    HW216566   2.504   2.502  15.149  0.4968 -0.4245 -0.4102
 1644SOL     OW16567   1.317   0.196   6.200 -0.3800  0.3946  0.0009
 1644SOL    HW116568   1.253   0.138   6.161  0.5781 -0.3630 -0.4495
 1644SOL    HW216569   1.280   0.284   6.192  0.1660  0.5098 -1.2846
 1645SOL     OW16570   2.614   3.318   1.751 -0.1720  0.2245  0.1246
 1645SOL    HW116571   2.707   3.304   1.732 -0.1980  0.8605 -0.4660
 1645SOL    HW216572   2.610   3.283   1.840  0.2794  1.7969  0.7761
 1646SOL     OW16573   2.192   0.629   9.800  0.7440 -0.1347  0.3174
 1646SOL    HW116574   2.274   0.672   9.778  0.3153  1.1174  1.1508
 1646SOL    HW216575   2.149   0.700   9.847 -2.0383 -2.0326  0.6260
 1647SOL     OW16576   0.307   4.261  14.405  0.1743  0.1788 -0.1198
 1647SOL    HW116577   0.288   4.172  14.435 -2.0418  0.3073 -1.1241
 1647SOL    HW216578   0.311   4.307  14.488  1.2488  1.5985 -0.9654
 1648SOL     OW16579   4.304   4.041   3.203 -0.2291  0.1213  0.0577
 1648SOL    HW116580   4.362   3.994   3.144  0.4545 -0.1343  0.9238
 1648SOL    HW216581   4.332   4.131   3.189 -1.5163  0.6501  0.8693
 1649SOL     OW16582   2.220   1.681   4.194  0.0536 -0.1634 -0.1757
 1649SOL    HW116583   2.286   1.698   4.127  1.4578 -0.7757  1.0680
 1649SOL    HW216584   2.251   1.741   4.261  0.2941  1.4350 -1.7149
 1650SOL     OW16585   3.988   3.123   6.753  0.6927  0.1792 -0.5260
 1650SOL    HW116586   3.930   3.073   6.696 -0.6286  0.9549  0.1352
 1650SOL    HW216587   4.054   3.164   6.698  0.2112 -0.3980 -1.5454
 1651SOL     OW16588   2.595   4.647   2.441 -0.0359  0.3150  0.4085
 1651SOL    HW116589   2.671   4.701   2.420 -0.7153  0.0374 -2.7937
 1651SOL    HW216590   2.633   4.560   2.428 -0.7608  0.3382 -1.9382
 1652SOL     OW16591   4.554   3.252   4.789 -0.0872  0.1067  0.4149
 1652SOL    HW116592   4.544   3.245   4.884  1.6249  1.1301  0.6669
 1652SOL    HW216593   4.646   3.276   4.775  0.1157 -0.8715  0.0265
 1653SOL     OW16594   1.739   2.721   8.170 -0.3877 -0.1836  0.2239
 1653SOL    HW116595   1.711   2.629   8.166 -0.5777 -0.1283  0.3306
 1653SOL    HW216596   1.651   2.751   8.147  0.2574  0.8736 -0.8203
 1654SOL     OW16597   3.930   2.709   8.903 -0.0458  0.5079  0.2921
 1654SOL    HW116598   4.012   2.729   8.858 -0.4853 -1.3112 -1.3183
 1654SOL    HW216599   3.961   2.681   8.989 -2.1898  0.5623  1.0911
 1655SOL     OW16600   0.939   3.367   6.300  0.6220 -0.0608  0.0511
 1655SOL    HW116601   0.865   3.416   6.264  2.2527  1.7856 -0.8190
 1655SOL    HW216602   1.010   3.380   6.237  0.8089  1.3235  0.5422
 1656SOL     OW16603   4.605   1.345   3.124  0.3103 -0.6117  0.0462
 1656SOL    HW116604   4.537   1.375   3.184 -1.8775 -1.5212 -2.0063
 1656SOL    HW216605   4.621   1.258   3.160  1.9569 -0.7889 -1.1160
 1657SOL     OW16606   1.032   0.227   3.425  0.1489 -0.0845 -0.0088
 1657SOL    HW116607   1.107   0.191   3.378  0.7885 -0.8968  1.6334
 1657SOL    HW216608   0.986   0.268   3.352 -0.4679 -0.0814  0.3788
 1658SOL     OW16609   4.039   1.772   7.623  0.4859 -0.1425 -0.8999
 1658SOL    HW116610   4.122   1.730   7.602  0.4097 -1.2904  1.1212
 1658SOL    HW216611   4.054   1.828   7.699 -0.4538 -0.2731 -0.6182
 1659SOL     OW16612   3.802   4.723   4.698 -0.1246  0.8266 -0.0660
 1659SOL    HW116613   3.723   0.026   4.662 -0.3090  0.4477 -0.0723
 1659SOL    HW216614   3.837   0.059   4.750 -1.9405  0.4034  1.7612
 1660SOL     OW16615   0.641   1.392   8.147 -0.3992  0.6467  0.4868
 1660SOL    HW116616   0.630   1.465   8.087  1.6952  0.8572  0.3816
 1660SOL    HW216617   0.713   1.421   8.202 -0.8124  1.1384  0.7661
 1661SOL     OW16618   2.042   4.132  10.056  0.5670 -0.0815  0.0365
 1661SOL    HW116619   2.086   4.151  10.139  0.6072  1.4778 -0.3439
 1661SOL    HW216620   2.026   4.221  10.027 -0.1407 -0.3866 -0.4957
 1662SOL     OW16621   2.966   3.225   7.859  0.2937  0.2459  0.6785
 1662SOL    HW116622   2.934   3.141   7.889  0.1036 -0.3929 -1.3062
 1662SOL    HW216623   3.024   3.265   7.924 -0.7231  1.8307  0.6163
 1663SOL     OW16624   4.143   1.042  15.117 -0.2894  0.4667 -0.0586
 1663SOL    HW116625   4.140   1.137  15.107  3.4992  0.6745  0.8956
 1663SOL    HW216626   4.183   1.011  15.036  1.3603 -1.2469  1.4031
 1664SOL     OW16627   1.572   1.203   2.237  0.6440 -0.4789 -0.6055
 1664SOL    HW116628   1.483   1.219   2.269  1.2702 -1.5475  1.6811
 1664SOL    HW216629   1.626   1.173   2.311  0.8491  2.5722  0.4602
 1665SOL     OW16630   4.250   4.408  16.283  0.2672 -0.1670  0.0576
 1665SOL    HW116631   4.206   4.326  16.307  1.2109 -0.3581  1.1645
 1665SOL    HW216632   4.317   4.370  16.226 -0.6437  0.2399 -1.2833
 1666SOL     OW16633   2.199   2.362   5.130 -0.1621 -0.1845  0.2221
 1666SOL    HW116634   2.197   2.267   5.120 -2.1425 -0.1761  0.5016
 1666SOL    HW216635   2.281   2.384   5.086  0.3387 -2.9059 -0.2027
 1667SOL     OW16636   4.691   4.172   4.984 -0.4777 -0.0215  0.0006
 1667SOL    HW116637   4.639   4.250   4.967  1.3825  1.0443 -0.8553
 1667SOL    HW216638   4.685   4.135   4.896  1.2880 -1.8263  0.6347
 1668SOL     OW16639   1.702   2.050   7.371  0.1033  0.0279  0.0922
 1668SOL    HW116640   1.652   2.053   7.290  0.5411  2.3180 -0.0966
 1668SOL    HW216641   1.637   2.087   7.431  0.9145 -0.4794  1.3014
 1669SOL     OW16642   4.371   0.758  17.486  0.0265 -0.2469 -0.3449
 1669SOL    HW116643   4.420   0.726  17.562 -0.3423  1.5114  0.6082
 1669SOL    HW216644   4.290   0.796  17.519 -0.5957 -1.7075 -0.1576
 1670SOL     OW16645   2.571   0.050   8.582  0.0271  0.5850  0.0379
 1670SOL    HW116646   2.524   0.112   8.638 -1.4297 -0.6465  0.1924
 1670SOL    HW216647   2.621   4.736   8.646  0.4596 -1.7599 -2.1892
 1671SOL     OW16648   0.265   1.652   7.825  0.0001  0.1635 -0.0594
 1671SOL    HW116649   0.187   1.699   7.794  0.5807  0.2851 -1.3089
 1671SOL    HW216650   0.323   1.721   7.856 -1.1623  0.9944  0.2715
 1672SOL     OW16651   2.409   1.395  16.856  0.0413 -0.0084 -0.4990
 1672SOL    HW116652   2.419   1.464  16.922 -2.3521 -0.9604  0.8478
 1672SOL    HW216653   2.316   1.402  16.837 -0.0077 -1.2844 -0.7583
 1673SOL     OW16654   1.692   0.851  16.202  0.1763 -0.2118  0.4394
 1673SOL    HW116655   1.655   0.803  16.129  0.5051 -1.9389  1.4095
 1673SOL    HW216656   1.781   0.858  16.168  0.4062 -0.3096  1.0050
 1674SOL     OW16657   4.544   2.376   8.003 -0.3747  0.3449 -0.8922
 1674SOL    HW116658   4.473   2.322   8.039 -0.2131  0.0796 -0.9736
 1674SOL    HW216659   4.579   2.324   7.931 -0.1538 -0.4903 -0.1820
 1675SOL     OW16660   3.697   1.489   2.590 -0.1208 -0.1811 -0.0715
 1675SOL    HW116661   3.647   1.570   2.582  0.7862  0.4734  0.8325
 1675SOL    HW216662   3.784   1.515   2.623 -0.8010 -0.3606  1.8866
 1676SOL     OW16663   2.597   1.676   4.395 -0.1837  0.1078  0.0857
 1676SOL    HW116664   2.672   1.716   4.351  0.2124 -0.1591  0.5257
 1676SOL    HW216665   2.528   1.736   4.364  0.1072  1.1344  1.4114
 1677SOL     OW16666   2.056   2.554   0.398 -0.4902 -0.2483 -0.4462
 1677SOL    HW116667   2.130   2.608   0.427  0.6721 -0.8421 -2.2407
 1677SOL    HW216668   2.091   2.467   0.378  0.9233  0.4349 -1.0136
 1678SOL     OW16669   1.133   2.416   3.622 -0.0935 -0.2177 -0.0487
 1678SOL    HW116670   1.068   2.471   3.578 -1.9566 -1.9364  0.5291
 1678SOL    HW216671   1.098   2.437   3.708 -0.5378 -0.6081 -0.1315
 1679SOL     OW16672   4.236   1.602   5.434  0.5099 -0.2130 -0.4329
 1679SOL    HW116673   4.264   1.593   5.343  2.5850  0.6385  0.1272
 1679SOL    HW216674   4.145   1.631   5.423  0.8484  0.7613 -0.6476
 1680SOL     OW16675   0.173   1.000   5.056  0.4304  0.1247 -0.1222
 1680SOL    HW116676   0.179   1.086   5.015  1.6733 -0.1143 -0.4243
 1680SOL    HW216677   0.079   0.998   5.077  0.8768 -0.4769  1.7803
 1681SOL     OW16678   0.732   2.983   5.822  0.1357  0.3556  0.4169
 1681SOL    HW116679   0.692   2.958   5.906  0.6314  0.5733  0.7168
 1681SOL    HW216680   0.825   2.963   5.835  0.2487  0.7635  0.2517
 1682SOL     OW16681   2.022   3.846  11.834 -0.1144  0.7438  0.5744
 1682SOL    HW116682   1.930   3.871  11.844 -1.0718 -2.3389 -0.3572
 1682SOL    HW216683   2.025   3.768  11.890 -1.2420 -0.0677 -0.5101
 1683SOL     OW16684   4.301   1.635  12.511  0.1623  0.0392  0.0476
 1683SOL    HW116685   4.225   1.591  12.549  0.4047 -0.0797  0.3966
 1683SOL    HW216686   4.264   1.722  12.502 -0.4050 -0.3441 -1.4293
 1684SOL     OW16687   4.409   3.869  11.927 -0.1887  0.2189 -0.1696
 1684SOL    HW116688   4.460   3.816  11.988  0.6374  1.1046 -0.0863
 1684SOL    HW216689   4.456   3.952  11.939  2.0181 -1.1343  0.6691
 1685SOL     OW16690   1.762   4.433  13.283 -0.2528 -0.1507  0.1903
 1685SOL    HW116691   1.694   4.377  13.244  0.3907 -0.9834  0.2683
 1685SOL    HW216692   1.785   4.371  13.352  0.1837 -0.2982 -0.0854
 1686SOL     OW16693   1.705   2.475  17.590  0.5510  0.1087 -0.0369
 1686SOL    HW116694   1.704   2.409  17.521 -2.5464  0.8105 -0.6359
 1686SOL    HW216695   1.683   2.419  17.664 -1.3260  1.4226  0.3810
 1687SOL     OW16696   0.628   4.040   6.805 -0.2238  0.4954  0.1859
 1687SOL    HW116697   0.539   4.016   6.778  0.5390  0.7948 -2.5809
 1687SOL    HW216698   0.609   4.109   6.869 -1.7506  0.5382 -0.3145
 1688SOL     OW16699   4.334   2.630   2.359  0.4493 -0.1304  0.5910
 1688SOL    HW116700   4.361   2.585   2.279  1.2891 -1.4060  1.5936
 1688SOL    HW216701   4.258   2.679   2.327  0.5163 -0.6682 -0.3741
 1689SOL     OW16702   4.436   1.048   5.973 -0.1589 -0.5516  0.0249
 1689SOL    HW116703   4.426   1.103   6.050 -0.2516  2.1551 -1.9282
 1689SOL    HW216704   4.386   1.087   5.901 -1.9676 -2.1115  0.4477
 1690SOL     OW16705   0.146   3.020   3.884 -0.7521 -0.4853  0.6060
 1690SOL    HW116706   0.127   2.960   3.812 -1.0974  0.3818 -0.0191
 1690SOL    HW216707   0.075   2.985   3.938 -1.9697  0.4828 -0.3863
 1691SOL     OW16708   3.996   2.639   5.372  0.3389  0.2829 -0.1575
 1691SOL    HW116709   4.048   2.717   5.351 -2.6421  2.1524 -0.5763
 1691SOL    HW216710   3.941   2.622   5.296  0.2568  0.6992 -0.1896
 1692SOL     OW16711   2.918   2.627   2.274 -0.5525  0.0139 -0.2476
 1692SOL    HW116712   2.952   2.666   2.355  0.9054 -1.7265 -0.0133
 1692SOL    HW216713   2.993   2.656   2.221  1.1464  0.6299  2.5325
 1693SOL     OW16714   1.603   3.841   3.563 -0.9022 -0.1179  0.6540
 1693SOL    HW116715   1.542   3.772   3.589 -2.2401  0.4303 -1.0750
 1693SOL    HW216716   1.533   3.903   3.546 -0.6862 -0.6900 -2.2910
 1694SOL     OW16717   2.122   2.816   6.266 -0.3305  0.0932 -0.2335
 1694SOL    HW116718   2.150   2.813   6.174 -0.3622  0.1123 -0.2438
 1694SOL    HW216719   2.171   2.893   6.293  0.9570 -0.6898 -0.3539
 1695SOL     OW16720   4.118   0.549   2.072  0.7118 -0.1238  0.1724
 1695SOL    HW116721   4.169   0.629   2.068  2.6706 -1.2969  1.9120
 1695SOL    HW216722   4.142   0.506   2.154 -2.4628 -1.3315  0.4709
 1696SOL     OW16723   2.996   0.516   4.021  0.1242  0.4338 -0.4941
 1696SOL    HW116724   3.045   0.590   4.058 -0.2218 -0.4888  1.8170
 1696SOL    HW216725   3.059   0.491   3.953  0.9287 -1.9446  1.1557
 1697SOL     OW16726   3.948   4.253   4.059 -0.5161 -0.5185 -0.1849
 1697SOL    HW116727   4.040   4.228   4.062  0.3200  2.3391 -1.7487
 1697SOL    HW216728   3.905   4.170   4.076 -3.5503  0.9927 -0.4391
 1698SOL     OW16729   1.882   2.856   6.430  0.4464  0.0498  0.1019
 1698SOL    HW116730   1.921   2.908   6.500  1.1481 -1.9235  1.1922
 1698SOL    HW216731   1.957   2.847   6.371  0.8014  0.2661  0.5183
 1699SOL     OW16732   2.461   3.559   6.540 -0.0417 -0.4445  0.0248
 1699SOL    HW116733   2.454   3.510   6.458  0.7839  0.0476 -0.3364
 1699SOL    HW216734   2.555   3.574   6.532 -0.1432  0.8418  1.3152
 1700SOL     OW16735   1.742   2.631   3.342 -0.1391  0.4441 -0.0434
 1700SOL    HW116736   1.668   2.659   3.289 -0.1457 -0.7699 -0.6774
 1700SOL    HW216737   1.779   2.558   3.292 -0.3845 -0.3442  0.9195
 1701SOL     OW16738   0.781   2.503  14.411 -0.0100  0.5024  0.8923
 1701SOL    HW116739   0.814   2.415  14.433  0.6659  0.3790 -0.5883
 1701SOL    HW216740   0.837   2.521  14.336 -1.4111 -1.1642 -0.5537
 1702SOL     OW16741   0.107   4.686  13.896  0.2765  0.1923  0.8838
 1702SOL    HW116742   0.193   4.688  13.854  0.2339 -2.5743  0.7181
 1702SOL    HW216743   0.070   4.614  13.846  1.3570  1.2826 -1.4616
 1703SOL     OW16744   2.480   3.204   1.509  0.0788  0.1584  0.0249
 1703SOL    HW116745   2.541   3.215   1.582 -1.8383  2.4272  1.2895
 1703SOL    HW216746   2.399   3.201   1.560 -0.6970  0.9234 -1.1671
 1704SOL     OW16747   3.177   4.014   4.853  0.0843 -0.4465 -0.2239
 1704SOL    HW116748   3.195   4.061   4.934  0.3722  2.7515 -2.1300
 1704SOL    HW216749   3.254   4.020   4.796  0.7450 -1.0111  0.6181
 1705SOL     OW16750   0.926   3.583   0.365 -0.6614  0.0983 -0.4379
 1705SOL    HW116751   0.850   3.638   0.383 -0.4708 -0.4186  1.9606
 1705SOL    HW216752   0.908   3.508   0.423  1.0967 -1.2074 -1.5831
 1706SOL     OW16753   1.031   3.559   2.606 -0.5591  0.3530  0.5070
 1706SOL    HW116754   0.948   3.599   2.630  0.6645  2.9233  0.4038
 1706SOL    HW216755   1.060   3.511   2.684 -0.7090 -0.4804  0.0609
 1707SOL     OW16756   2.786   2.749   5.332  0.2343 -0.2897  0.3453
 1707SOL    HW116757   2.813   2.659   5.348  1.1919  0.4386  3.0061
 1707SOL    HW216758   2.861   2.807   5.348  0.7869 -0.6246 -1.0997
 1708SOL     OW16759   4.227   2.460  17.408  0.3712 -0.1850 -0.1648
 1708SOL    HW116760   4.203   2.399  17.339  1.6170 -0.6646 -0.1638
 1708SOL    HW216761   4.271   2.401  17.469  0.9565  0.6019  0.1827
 1709SOL     OW16762   4.381   1.228   8.368 -0.3227  0.0537  0.2282
 1709SOL    HW116763   4.388   1.251   8.276 -1.7397 -1.2439 -0.1891
 1709SOL    HW216764   4.288   1.243   8.386 -0.9598 -0.8272 -2.4231
 1710SOL     OW16765   1.486   2.347  11.274  0.3148  0.1410 -0.2984
 1710SOL    HW116766   1.391   2.358  11.270  0.3644  1.4655  2.3873
 1710SOL    HW216767   1.510   2.426  11.225  0.9496  0.5279  0.6404
 1711SOL     OW16768   1.197   1.698   3.009  0.2319 -0.4172  0.5575
 1711SOL    HW116769   1.277   1.710   3.059  0.5054  0.5128 -0.1122
 1711SOL    HW216770   1.221   1.642   2.935 -1.0107 -0.7168  0.3661
 1712SOL     OW16771   1.717   2.090   0.608  0.7771  0.4293 -0.5234
 1712SOL    HW116772   1.750   2.032   0.677 -0.0593  0.6113  0.0335
 1712SOL    HW216773   1.645   2.139   0.649 -0.4297 -2.6351  1.0934
 1713SOL     OW16774   4.661   3.762  15.844 -0.3599 -0.3370 -0.2266
 1713SOL    HW116775   4.718   3.756  15.767 -0.7170  0.1216 -0.5302
 1713SOL    HW216776   4.610   3.840  15.824  1.8283  1.3297  0.6683
 1714SOL     OW16777   0.965   4.195  12.086 -0.5706  0.7261 -0.3255
 1714SOL    HW116778   0.960   4.237  12.172 -1.7637 -1.4570  0.6670
 1714SOL    HW216779   0.963   4.103  12.112 -1.6842  0.7853 -0.2011
 1715SOL     OW16780   4.272   2.806   4.673 -0.3784  0.0470 -0.8414
 1715SOL    HW116781   4.322   2.888   4.681 -0.2136 -0.1454  0.0796
 1715SOL    HW216782   4.186   2.836   4.702  0.0608 -0.0015  0.5002
 1716SOL     OW16783   2.131   4.127  11.050 -0.3363  1.2007  0.0986
 1716SOL    HW116784   2.210   4.133  10.996 -0.5597  0.4245 -0.3012
 1716SOL    HW216785   2.082   4.056  11.008 -0.2546  0.7205  0.8098
 1717SOL     OW16786   4.136   4.381   9.430 -0.1270 -0.6131  0.0858
 1717SOL    HW116787   4.136   4.328   9.350  3.5223  0.5877 -0.6875
 1717SOL    HW216788   4.098   4.317   9.491  0.9595 -2.6391 -1.3704
 1718SOL     OW16789   1.649   3.087   3.637 -0.1684  0.1263  0.3701
 1718SOL    HW116790   1.677   2.996   3.636 -1.1621 -0.1783  0.2562
 1718SOL    HW216791   1.584   3.091   3.567 -0.0044 -0.5081  0.1867
 1719SOL     OW16792   3.758   1.542   7.408 -0.2691 -0.8683 -0.0470
 1719SOL    HW116793   3.775   1.629   7.372  1.9517 -1.2117  0.1719
 1719SOL    HW216794   3.802   1.486   7.343 -1.3975 -1.2910 -0.4504
 1720SOL     OW16795   2.009   1.446   5.916  0.1786  0.2702  0.0284
 1720SOL    HW116796   2.024   1.472   6.006 -0.1220 -0.2881  0.2435
 1720SOL    HW216797   2.068   1.505   5.870  1.3926 -0.6186  0.4320
 1721SOL     OW16798   0.977   1.195   3.374  0.1915 -0.2515 -0.1556
 1721SOL    HW116799   0.927   1.272   3.401  0.8827  0.7489 -1.7381
 1721SOL    HW216800   1.021   1.219   3.292  1.6501 -2.0086  0.1035
 1722SOL     OW16801   4.055   3.605  17.195 -0.1568  0.2031 -0.1251
 1722SOL    HW116802   4.029   3.615  17.287 -1.3118  1.6305 -0.6028
 1722SOL    HW216803   4.140   3.645  17.210 -1.2005  1.9049  1.3314
 1723SOL     OW16804   0.949   1.285   9.285  0.6034 -0.2521 -0.0028
 1723SOL    HW116805   0.888   1.294   9.211  0.5327 -2.1063 -0.1609
 1723SOL    HW216806   0.893   1.324   9.353  0.0616 -0.7206 -0.1820
 1724SOL     OW16807   0.972   2.483   6.981  0.3160 -0.6843 -0.3801
 1724SOL    HW116808   0.941   2.399   7.015  0.9218 -1.4480 -1.6738
 1724SOL    HW216809   0.917   2.540   7.034 -1.0411  0.1330 -2.6857
 1725SOL     OW16810   0.046   1.818   7.829  0.2592 -0.1597  0.3920
 1725SOL    HW116811   4.698   1.798   7.789  1.0897 -2.7474 -0.0436
 1725SOL    HW216812   0.021   1.854   7.914 -1.3840 -0.6453  0.1009
 1726SOL     OW16813   3.770   4.161   5.928  0.0949  0.1142 -0.1047
 1726SOL    HW116814   3.726   4.199   5.851 -1.2772 -2.1274 -0.4451
 1726SOL    HW216815   3.773   4.243   5.977  0.6193  1.7769 -2.9061
 1727SOL     OW16816   2.268   4.231  12.111 -0.1039  0.1469 -0.0106
 1727SOL    HW116817   2.281   4.210  12.204 -0.0571  0.8807  0.1520
 1727SOL    HW216818   2.264   4.326  12.126 -1.0531 -0.3046  2.5896
 1728SOL     OW16819   3.043   3.365   4.359 -0.6023  0.6199  0.1056
 1728SOL    HW116820   3.008   3.388   4.273  0.5099 -0.1977 -0.5547
 1728SOL    HW216821   2.963   3.370   4.412 -0.4266  1.4282  0.2867
 1729SOL     OW16822   1.999   4.228   1.221 -0.4981  0.5738 -0.1595
 1729SOL    HW116823   1.982   4.310   1.174  1.9250  0.6731 -0.8793
 1729SOL    HW216824   2.083   4.204   1.181 -2.3275  0.4127 -3.8762
 1730SOL     OW16825   3.835   0.596   1.986  0.4038  0.5241 -0.1451
 1730SOL    HW116826   3.926   0.622   2.001  0.7408 -1.0270  0.4833
 1730SOL    HW216827   3.820   0.537   2.060  2.9886 -1.2569 -1.0708
 1731SOL     OW16828   0.611   2.815  12.084 -0.9452 -0.3990  0.0416
 1731SOL    HW116829   0.652   2.897  12.112  0.1417 -1.6253  2.0409
 1731SOL    HW216830   0.588   2.848  11.997 -0.9269 -0.2552  0.0900
 1732SOL     OW16831   2.375   4.494  17.714 -0.7482 -0.0863  0.2909
 1732SOL    HW116832   2.457   4.540  17.735 -0.9416  0.0159  0.8285
 1732SOL    HW216833   2.358   4.521  17.624 -0.1081 -1.5314 -0.2609
 1733SOL     OW16834   2.366   3.355   3.711  0.1063 -0.0215 -0.3314
 1733SOL    HW116835   2.332   3.435   3.671 -0.1112 -0.0391 -0.1809
 1733SOL    HW216836   2.376   3.393   3.798 -0.0603 -2.5946  0.8051
 1734SOL     OW16837   4.718   3.596  16.300  0.1858  0.6592  0.0198
 1734SOL    HW116838   4.661   3.636  16.366  0.8118  1.1566  0.2493
 1734SOL    HW216839   0.022   3.533  16.359  0.0092  1.5449  1.0835
 1735SOL     OW16840   0.355   0.949   8.597  0.8989 -0.3398 -0.1914
 1735SOL    HW116841   0.348   1.025   8.539  0.7983 -1.6969 -1.9559
 1735SOL    HW216842   0.263   0.955   8.620  1.2919 -0.5116  1.4310
 1736SOL     OW16843   1.622   2.879   6.323 -0.2626  0.0767  0.3911
 1736SOL    HW116844   1.717   2.867   6.321 -0.2204  0.5074  0.0290
 1736SOL    HW216845   1.605   2.862   6.231 -0.7387 -1.2950  0.7296
 1737SOL     OW16846   3.521   3.394   8.626 -0.0226  0.5334 -0.3720
 1737SOL    HW116847   3.463   3.362   8.695  0.1259 -0.4928 -0.7279
 1737SOL    HW216848   3.605   3.397   8.672  0.1946  0.3175 -0.7537
 1738SOL     OW16849   1.127   0.689  13.569 -0.1716  0.3364  0.2053
 1738SOL    HW116850   1.190   0.644  13.625  0.6160  0.9565 -0.1711
 1738SOL    HW216851   1.128   0.774  13.613 -3.7175  1.8255 -2.5820
 1739SOL     OW16852   1.232   2.024   9.272 -0.4759 -0.3199  0.0233
 1739SOL    HW116853   1.245   2.038   9.178  1.1052 -2.3690 -0.0596
 1739SOL    HW216854   1.261   2.107   9.309  2.3888 -0.3188 -2.1726
 1740SOL     OW16855   1.992   4.546   7.779 -0.6011  0.1604 -0.1545
 1740SOL    HW116856   1.938   4.495   7.839  2.0173  1.3589  3.2394
 1740SOL    HW216857   2.055   4.480   7.750  0.5488  0.8882  0.6718
 1741SOL     OW16858   1.242   3.234   4.678 -0.7565  0.3122 -0.1806
 1741SOL    HW116859   1.224   3.295   4.606 -1.7934  0.2858  0.0580
 1741SOL    HW216860   1.170   3.172   4.689 -0.0881 -0.8141 -2.1099
 1742SOL     OW16861   3.730   0.865  14.955 -0.3005 -0.7438 -0.6799
 1742SOL    HW116862   3.712   0.772  14.970 -0.6842 -0.4461  0.7255
 1742SOL    HW216863   3.765   0.885  15.041  0.5846 -1.2750 -0.9262
 1743SOL     OW16864   0.393   3.006  10.524  0.0790 -0.2655 -0.2639
 1743SOL    HW116865   0.331   3.034  10.457  0.9728 -1.0381 -1.4073
 1743SOL    HW216866   0.337   2.964  10.589 -0.3548  0.5871 -0.1025
 1744SOL     OW16867   1.022   1.357   6.396 -0.5970  0.0829 -0.2679
 1744SOL    HW116868   1.038   1.446   6.364  2.9901 -0.5623 -0.3169
 1744SOL    HW216869   1.046   1.311   6.315 -0.5669 -0.0117 -0.2049
 1745SOL     OW16870   3.225   0.925   9.757  0.5265  0.4417 -0.0377
 1745SOL    HW116871   3.206   0.969   9.674  1.5831 -0.2764 -0.6667
 1745SOL    HW216872   3.166   0.971   9.817  0.6613 -0.9325  1.1374
 1746SOL     OW16873   1.461   2.941  11.136 -0.3302  0.1494  0.1697
 1746SOL    HW116874   1.396   2.877  11.168  0.7639 -0.1239  1.8644
 1746SOL    HW216875   1.452   2.931  11.041  2.5399 -1.3110  0.0483
 1747SOL     OW16876   1.508   2.148   7.548 -0.0565  0.9504 -0.3731
 1747SOL    HW116877   1.457   2.079   7.590 -1.1121  2.0978  0.2581
 1747SOL    HW216878   1.558   2.178   7.624 -0.1954 -0.4003  0.2469
 1748SOL     OW16879   2.325   1.020   4.865  0.4724  0.4861  0.2772
 1748SOL    HW116880   2.234   0.992   4.871 -0.0065  2.1189  0.5260
 1748SOL    HW216881   2.363   0.933   4.851  1.1248  0.6806  0.7924
 1749SOL     OW16882   0.212   0.146   5.780 -0.5309 -0.1163 -0.6475
 1749SOL    HW116883   0.253   0.085   5.841 -0.6863  0.5476  0.1101
 1749SOL    HW216884   0.210   0.230   5.825 -2.1880 -0.5671  0.1035
 1750SOL     OW16885   2.412   3.226   4.283 -0.2089 -0.0318  0.1738
 1750SOL    HW116886   2.473   3.277   4.229 -0.4094  1.0058  0.9347
 1750SOL    HW216887   2.337   3.283   4.298  1.0009  1.8861 -1.0109
 1751SOL     OW16888   0.574   0.865   4.989  0.1582  0.2831 -0.3169
 1751SOL    HW116889   0.587   0.959   4.998  0.3562 -0.0276  2.6301
 1751SOL    HW216890   0.651   0.829   4.944 -1.4354 -0.3722 -2.5074
 1752SOL     OW16891   4.344   1.378  12.437 -0.3641  0.5234 -0.6480
 1752SOL    HW116892   4.393   1.417  12.365  2.0456  1.2358  1.3300
 1752SOL    HW216893   4.384   1.437  12.502  1.4722 -0.4097 -0.9312
 1753SOL     OW16894   4.325   2.298  17.602 -0.3955 -1.3344  0.1499
 1753SOL    HW116895   4.393   2.251  17.554 -0.2130  0.4144 -1.3387
 1753SOL    HW216896   4.373   2.318  17.683 -1.2015 -0.7522  0.4848
 1754SOL     OW16897   3.584   3.868   4.689  0.0452 -0.2531  0.0467
 1754SOL    HW116898   3.674   3.851   4.716  0.7422 -0.0993 -2.2504
 1754SOL    HW216899   3.603   3.891   4.598 -0.1873 -1.8345 -0.4108
 1755SOL     OW16900   2.308   3.124   6.568  0.2181 -0.2940  0.0263
 1755SOL    HW116901   2.398   3.156   6.569  0.7478 -1.7850 -0.9937
 1755SOL    HW216902   2.258   3.204   6.551 -0.6847 -0.5729  1.3851
 1756SOL     OW16903   3.587   0.667  12.675  0.1748 -0.2215 -0.2575
 1756SOL    HW116904   3.530   0.597  12.644 -0.6264  0.1939  0.2703
 1756SOL    HW216905   3.653   0.620  12.726  0.9537  0.7052 -0.4048
 1757SOL     OW16906   0.695   3.425  15.359 -0.1200 -0.3946 -0.1495
 1757SOL    HW116907   0.685   3.487  15.431  0.8840  0.1008 -0.4422
 1757SOL    HW216908   0.778   3.380  15.374 -0.4172 -1.2635 -1.0564
 1758SOL     OW16909   1.804   3.447   4.426  0.2265 -0.3203  0.2680
 1758SOL    HW116910   1.812   3.398   4.508 -2.5315 -0.9426  0.1464
 1758SOL    HW216911   1.709   3.446   4.416  0.3243  1.0667 -0.8797
 1759SOL     OW16912   2.971   4.321   5.806  0.0546 -0.1964  0.4664
 1759SOL    HW116913   3.040   4.280   5.754 -0.7407 -1.2723  0.2501
 1759SOL    HW216914   2.984   4.283   5.893 -1.1909  0.6972  1.0266
 1760SOL     OW16915   3.787   4.162   2.567  0.1379 -0.7159  0.2740
 1760SOL    HW116916   3.722   4.153   2.636 -1.3617 -0.9951 -1.1624
 1760SOL    HW216917   3.840   4.084   2.581  0.4810 -0.8907 -1.9395
 1761SOL     OW16918   2.173   2.385   9.353 -0.2789  0.4269  0.4480
 1761SOL    HW116919   2.113   2.443   9.401 -0.3330  1.1710 -0.4984
 1761SOL    HW216920   2.247   2.438   9.324 -1.7541  1.3299 -1.6980
 1762SOL     OW16921   2.527   2.280   1.710  0.4618 -0.3068  0.8810
 1762SOL    HW116922   2.468   2.351   1.685  0.0905 -0.5782  0.9720
 1762SOL    HW216923   2.530   2.236   1.625  0.9610 -1.0670  1.2907
 1763SOL     OW16924   3.278   2.713   7.262  0.0080  0.9499  0.2125
 1763SOL    HW116925   3.255   2.711   7.355  0.1441  0.6206  0.2394
 1763SOL    HW216926   3.293   2.619   7.255 -1.4827  0.8697 -1.7658
 1764SOL     OW16927   0.761   0.473   4.541 -0.8090 -0.7822 -0.1202
 1764SOL    HW116928   0.687   0.516   4.499  0.1455  1.9615  1.0526
 1764SOL    HW216929   0.817   0.452   4.467 -1.5197  0.9346 -1.1304
 1765SOL     OW16930   1.816   2.179  15.435  0.0344  0.1871  0.7080
 1765SOL    HW116931   1.758   2.113  15.472  1.0416 -0.4411  1.1739
 1765SOL    HW216932   1.888   2.132  15.391  0.7309  0.7258  1.2695
 1766SOL     OW16933   1.623   4.708   6.839 -0.2484 -0.6360 -0.0003
 1766SOL    HW116934   1.592   4.697   6.929  0.1589 -0.6025  0.1448
 1766SOL    HW216935   1.709   4.666   6.847 -0.5077 -1.1455  0.0768
 1767SOL     OW16936   3.754   0.707   4.937 -0.3507 -0.7226 -0.3323
 1767SOL    HW116937   3.764   0.662   5.021 -2.3539  0.4470  0.5536
 1767SOL    HW216938   3.807   0.654   4.877  0.6049 -0.5771  0.3910
 1768SOL     OW16939   4.484   3.326   3.465  0.7751  0.0520 -0.1831
 1768SOL    HW116940   4.466   3.246   3.415 -2.4019 -0.5574  1.9518
 1768SOL    HW216941   4.570   3.300   3.497  0.8415 -0.8761 -1.0992
 1769SOL     OW16942   3.064   2.464  13.298 -0.0787  0.0180  0.2757
 1769SOL    HW116943   3.077   2.369  13.290  2.1401  0.2467  1.0650
 1769SOL    HW216944   3.130   2.491  13.362 -2.1610  1.8609  1.5870
 1770SOL     OW16945   4.326   2.015   4.730  0.4308  0.3285  0.1950
 1770SOL    HW116946   4.269   2.085   4.698 -1.7872 -1.8095 -0.5315
 1770SOL    HW216947   4.354   2.054   4.813 -0.8968  0.1902  0.7164
 1771SOL     OW16948   4.446   0.435   0.711  0.1429 -0.4605 -0.1231
 1771SOL    HW116949   4.529   0.408   0.671  0.4739 -0.5174  0.6021
 1771SOL    HW216950   4.385   0.400   0.646 -0.0120 -0.1955 -0.1217
 1772SOL     OW16951   0.198   0.874   9.301  0.5803  0.2762 -0.1154
 1772SOL    HW116952   0.177   0.788   9.337 -0.3009  1.2514  1.6742
 1772SOL    HW216953   0.289   0.879   9.328  0.7774  1.2678 -0.9599
 1773SOL     OW16954   1.605   3.934   9.244 -0.2370  0.5379 -0.2872
 1773SOL    HW116955   1.688   3.949   9.200 -0.2922  1.2766 -0.1520
 1773SOL    HW216956   1.635   3.912   9.332 -2.2294 -0.4896  0.1326
 1774SOL     OW16957   2.264   2.350  15.647  0.1618  0.5412 -0.5156
 1774SOL    HW116958   2.206   2.412  15.691 -1.2287  0.4547 -2.2331
 1774SOL    HW216959   2.305   2.418  15.593  0.0189 -0.4902 -1.9064
 1775SOL     OW16960   1.592   3.825   7.158 -0.0724 -0.5764  0.1666
 1775SOL    HW116961   1.569   3.893   7.221  0.1430  0.7840 -1.2260
 1775SOL    HW216962   1.641   3.758   7.207 -1.6408 -1.7141  0.1634
 1776SOL     OW16963   2.163   4.374  17.099  0.1668 -0.4091 -0.3300
 1776SOL    HW116964   2.207   4.416  17.024 -0.2699  1.3473  0.4056
 1776SOL    HW216965   2.216   4.294  17.099 -0.6745 -0.9514  0.3763
 1777SOL     OW16966   0.875   0.820   7.937 -1.0035 -0.5725 -0.2046
 1777SOL    HW116967   0.945   0.771   7.894 -1.2197 -0.6743 -0.4421
 1777SOL    HW216968   0.899   0.913   7.939 -1.6215 -0.3771 -1.7218
 1778SOL     OW16969   3.589   0.600   4.666  0.0003 -0.0844  0.0678
 1778SOL    HW116970   3.512   0.583   4.612 -0.9099  0.5041  1.1766
 1778SOL    HW216971   3.586   0.695   4.651 -0.1011 -0.1934 -0.6122
 1779SOL     OW16972   2.361   1.413   1.676  0.4769  0.2009 -0.3795
 1779SOL    HW116973   2.395   1.330   1.707 -0.9602 -0.0169  0.6076
 1779SOL    HW216974   2.292   1.382   1.618  1.8912 -3.8857  0.1761
 1780SOL     OW16975   3.496   4.137   0.159 -0.3529 -0.4628  0.4486
 1780SOL    HW116976   3.509   4.149   0.253 -2.4026  4.4083  0.1311
 1780SOL    HW216977   3.537   4.219   0.131  1.3814 -0.7458  2.1308
 1781SOL     OW16978   4.438   1.771  16.353 -0.4400  0.1662 -0.1055
 1781SOL    HW116979   4.529   1.770  16.384  0.2495 -2.7005 -2.2328
 1781SOL    HW216980   4.416   1.678  16.344 -0.4487 -0.1143  2.7228
 1782SOL     OW16981   4.451   2.736   5.548 -0.0667 -0.3504 -0.2177
 1782SOL    HW116982   4.426   2.650   5.583 -3.7079  1.9165  2.6844
 1782SOL    HW216983   4.444   2.788   5.628  0.4244  2.4660 -1.9882
 1783SOL     OW16984   4.169   1.666  10.000 -0.7421 -0.4030  0.0087
 1783SOL    HW116985   4.080   1.700   9.987 -1.6547 -2.1607  1.5549
 1783SOL    HW216986   4.155   1.592  10.059 -2.1944  1.0863  1.5108
 1784SOL     OW16987   4.286   4.003  17.519 -0.4157 -0.4764 -0.4784
 1784SOL    HW116988   4.343   4.051  17.460  0.7691 -1.0185  0.2200
 1784SOL    HW216989   4.295   3.915  17.482  1.4617 -0.1266 -0.8652
 1785SOL     OW16990   2.919   3.214   6.259  0.1196 -0.3032  0.6985
 1785SOL    HW116991   3.011   3.205   6.285  0.6860  2.3232 -0.3545
 1785SOL    HW216992   2.872   3.148   6.310 -1.3808 -0.8309 -1.3721
 1786SOL     OW16993   0.280   0.599   9.299  0.2933 -0.4617 -0.1773
 1786SOL    HW116994   0.308   0.618   9.210 -0.6733 -0.1414 -0.4117
 1786SOL    HW216995   0.184   0.601   9.292  0.3688 -2.1432 -1.6781
 1787SOL     OW16996   2.977   2.229  12.352  0.1039  0.0562 -0.0258
 1787SOL    HW116997   2.939   2.162  12.410  0.7154  1.4593  2.0115
 1787SOL    HW216998   3.060   2.202  12.313 -1.1774 -0.1042 -2.6295
 1788SOL     OW16999   2.364   1.744   2.808 -0.9291 -0.0033  0.0532
 1788SOL    HW117000   2.326   1.810   2.750 -1.5735  0.1802  0.6757
 1788SOL    HW217001   2.446   1.786   2.831  0.5004 -2.4089 -0.6628
 1789SOL     OW17002   0.510   4.486   0.577  0.3196  0.4723 -0.4765
 1789SOL    HW117003   0.581   4.542   0.610  0.2837  0.6932 -0.7791
 1789SOL    HW217004   0.524   4.492   0.483  0.3879  2.1379 -0.3635
 1790SOL     OW17005   1.049   1.441   7.736  0.4666  0.0930  0.8033
 1790SOL    HW117006   1.083   1.530   7.747 -3.4829  1.7105  0.0540
 1790SOL    HW217007   1.045   1.407   7.826  1.6417  3.5007  2.1369
 1791SOL     OW17008   2.707   3.150   4.758  0.1203  0.1809 -0.1707
 1791SOL    HW117009   2.657   3.190   4.828 -2.5599 -2.3384 -0.6469
 1791SOL    HW217010   2.781   3.121   4.811 -0.0535 -1.5448 -0.8450
 1792SOL     OW17011   1.587   2.853  13.672  0.4008  0.5038  0.2293
 1792SOL    HW117012   1.677   2.886  13.676  0.6492 -0.3797  1.9004
 1792SOL    HW217013   1.568   2.868  13.580  2.2558 -1.8864 -0.5450
 1793SOL     OW17014   4.707   0.254   3.919  0.4135 -0.0403  0.0115
 1793SOL    HW117015   4.663   0.280   4.000  0.3052 -0.9338  0.2331
 1793SOL    HW217016   4.640   0.262   3.851  1.1832 -0.9018 -0.8454
 1794SOL     OW17017   0.168   0.430   8.998  0.4258 -0.6548 -0.0439
 1794SOL    HW117018   0.252   0.474   8.985  0.2156 -0.1012  0.4218
 1794SOL    HW217019   0.120   0.437   8.916  0.7022 -0.9319 -0.2295
 1795SOL     OW17020   2.488   2.252  11.409 -0.2098 -0.0799  0.6709
 1795SOL    HW117021   2.410   2.232  11.460 -1.4018  0.1385 -1.0580
 1795SOL    HW217022   2.500   2.159  11.388  1.5431  0.6220 -1.4719
 1796SOL     OW17023   0.329   3.199   8.222  0.6899  0.5539 -0.2006
 1796SOL    HW117024   0.253   3.168   8.272 -0.9550  2.4188 -1.5373
 1796SOL    HW217025   0.288   3.271   8.175  0.5622 -0.0642 -1.0290
 1797SOL     OW17026   0.972   0.515   6.118 -0.5069 -0.2438 -0.2610
 1797SOL    HW117027   0.971   0.609   6.100 -1.1315  0.2934  2.5855
 1797SOL    HW217028   1.060   0.497   6.084 -0.0324  1.3638  0.0703
 1798SOL     OW17029   0.559   0.166   7.838 -0.1241  0.2016  0.3024
 1798SOL    HW117030   0.472   0.143   7.807  0.0981 -0.5041  0.2025
 1798SOL    HW217031   0.549   0.211   7.922  0.7583 -0.5465  0.8067
 1799SOL     OW17032   3.240   0.835  12.109 -0.2604 -0.5562 -0.1991
 1799SOL    HW117033   3.305   0.903  12.090 -0.3914 -1.1689 -2.7797
 1799SOL    HW217034   3.270   0.811  12.197 -1.1008 -2.8808 -0.5662
 1800SOL     OW17035   2.129   2.207   4.588  0.3291 -0.0879 -0.5177
 1800SOL    HW117036   2.092   2.259   4.516  0.5489  0.4274 -0.2622
 1800SOL    HW217037   2.112   2.266   4.661  1.0758  1.0789 -1.2814
 1801SOL     OW17038   0.221   4.280   6.753 -0.6309  0.6641 -0.6528
 1801SOL    HW117039   0.218   4.364   6.798 -3.1696  0.1786  0.0527
 1801SOL    HW217040   0.129   4.278   6.727 -1.1669  1.4075  1.2153
 1802SOL     OW17041   4.549   0.077   1.848  0.8423 -0.0866 -0.1715
 1802SOL    HW117042   4.509   0.155   1.885  1.5442 -0.2652  0.9554
 1802SOL    HW217043   4.633   0.117   1.827  1.7057 -2.4278 -1.2726
 1803SOL     OW17044   3.843   4.555   5.941 -0.0738 -0.0293  0.2180
 1803SOL    HW117045   3.861   4.645   5.913 -1.8145  0.8219  1.8229
 1803SOL    HW217046   3.920   4.514   5.902  1.3388  2.3271  0.5078
 1804SOL     OW17047   1.626   1.249   7.632 -0.0015 -0.6363  0.0858
 1804SOL    HW117048   1.714   1.277   7.657  0.9082 -2.5482 -0.9886
 1804SOL    HW217049   1.589   1.231   7.718 -0.9526 -2.1330 -0.6346
 1805SOL     OW17050   0.597   2.462   5.737  0.4569  0.4382  0.1514
 1805SOL    HW117051   0.541   2.388   5.715  2.5741 -0.6163 -1.7427
 1805SOL    HW217052   0.677   2.424   5.774  0.5579 -1.4482 -2.0114
 1806SOL     OW17053   0.727   2.842   1.387 -0.1089  0.0166 -0.3220
 1806SOL    HW117054   0.746   2.765   1.334  1.1322  0.8216 -1.0529
 1806SOL    HW217055   0.647   2.803   1.423  0.8604 -1.0023  0.7295
 1807SOL     OW17056   4.558   2.182   7.555  0.0658 -0.3400  0.3185
 1807SOL    HW117057   4.490   2.117   7.536 -0.5137  0.5107 -0.5788
 1807SOL    HW217058   4.514   2.266   7.541 -0.8909 -0.9260 -0.2053
 1808SOL     OW17059   3.028   2.901  10.457 -0.4008  0.3689  0.0058
 1808SOL    HW117060   3.113   2.938  10.431 -0.4517 -0.5014 -1.4731
 1808SOL    HW217061   2.971   2.977  10.452 -0.5622  0.0883 -2.6589
 1809SOL     OW17062   2.772   0.921   4.797 -0.1582  0.3482 -0.6051
 1809SOL    HW117063   2.767   0.861   4.872 -0.5531 -1.8211 -2.3788
 1809SOL    HW217064   2.857   0.897   4.762  0.1018  0.8040 -0.2866
 1810SOL     OW17065   1.156   1.982  10.855  0.2912  0.3035 -0.3723
 1810SOL    HW117066   1.148   1.887  10.856  3.0861  0.0495 -2.7144
 1810SOL    HW217067   1.072   2.005  10.815  1.4175  3.2220 -1.0863
 1811SOL     OW17068   0.285   1.737   9.857 -0.3259 -0.4319  0.3549
 1811SOL    HW117069   0.199   1.698   9.844 -1.0843  1.3358  0.0393
 1811SOL    HW217070   0.325   1.691   9.782 -1.0541 -0.3846 -0.0614
 1812SOL     OW17071   2.812   0.497   2.924  0.4026  0.3126 -0.5414
 1812SOL    HW117072   2.773   0.481   2.838  0.1502 -0.6466 -0.2497
 1812SOL    HW217073   2.817   0.406   2.954  2.7095  0.8581  0.6790
 1813SOL     OW17074   0.403   4.084   7.649  0.5905  0.6427  0.5526
 1813SOL    HW117075   0.439   4.091   7.737  0.9578 -1.0778  0.5400
 1813SOL    HW217076   0.380   4.176   7.634  0.6210 -0.1588 -4.3456
 1814SOL     OW17077   3.191   1.294  13.588 -0.2639 -0.0174  0.0812
 1814SOL    HW117078   3.102   1.259  13.594 -0.4995  0.3679 -1.1143
 1814SOL    HW217079   3.174   1.361  13.654  2.3932  0.9508 -0.2411
 1815SOL     OW17080   0.867   1.259  17.242  0.5759  0.4830  0.2028
 1815SOL    HW117081   0.819   1.185  17.279 -2.7697  1.1080 -2.7852
 1815SOL    HW217082   0.831   1.261  17.153 -1.2922 -0.7398  0.9222
 1816SOL     OW17083   1.363   1.717   8.644  0.5415 -0.1885 -0.2401
 1816SOL    HW117084   1.389   1.744   8.732 -2.2643  2.0596 -0.0816
 1816SOL    HW217085   1.401   1.789   8.592  0.5134  1.1134  1.5405
 1817SOL     OW17086   1.049   1.128   4.295  0.6872  0.2612 -0.0032
 1817SOL    HW117087   1.024   1.186   4.367  0.3226  0.9656 -0.7011
 1817SOL    HW217088   0.989   1.159   4.228 -0.5632 -0.3543  0.8162
 1818SOL     OW17089   0.694   0.347   4.193 -0.5199  0.6327  0.4242
 1818SOL    HW117090   0.614   0.315   4.234 -0.4201 -0.9180 -0.5527
 1818SOL    HW217091   0.759   0.329   4.261  0.0325 -1.5245 -0.6814
 1819SOL     OW17092   1.821   4.726   1.995  0.1521 -0.9930 -0.2876
 1819SOL    HW117093   1.800   0.064   1.938  0.9404  1.0616  2.0916
 1819SOL    HW217094   1.834   0.030   2.080 -2.5475  0.9747 -0.8244
 1820SOL     OW17095   4.660   3.704   4.552 -0.4033 -0.4242 -0.0738
 1820SOL    HW117096   4.665   3.651   4.632 -0.7154 -0.3909 -0.0305
 1820SOL    HW217097   0.010   3.689   4.515 -0.4050  0.9395 -0.6592
 1821SOL     OW17098   4.299   2.851   5.096 -0.1737  0.1665  0.2808
 1821SOL    HW117099   4.289   2.824   5.188 -1.7301  0.4663  0.1917
 1821SOL    HW217100   4.213   2.886   5.072 -0.6641 -0.0695  1.6433
 1822SOL     OW17101   2.792   0.538   4.449 -0.0891  0.4129 -0.1076
 1822SOL    HW117102   2.874   0.538   4.499 -2.0484 -3.0662  3.1288
 1822SOL    HW217103   2.819   0.526   4.358 -1.3151 -1.6415 -0.2247
 1823SOL     OW17104   2.807   1.295   0.452 -0.2062 -0.2972 -0.0568
 1823SOL    HW117105   2.892   1.260   0.479 -0.3871 -0.4826  0.2817
 1823SOL    HW217106   2.785   1.247   0.372  0.7767  0.2013 -0.6216
 1824SOL     OW17107   3.140   3.296   9.659 -0.4015  0.4233 -0.2353
 1824SOL    HW117108   3.186   3.213   9.650 -0.1764  0.7955 -2.5155
 1824SOL    HW217109   3.049   3.266   9.654 -0.2654  0.3159 -1.8145
 1825SOL     OW17110   4.731   4.227  13.621 -0.1290  0.1284 -0.3619
 1825SOL    HW117111   0.004   4.316  13.656  0.1844  0.8514 -2.2279
 1825SOL    HW217112   4.644   4.206  13.655  0.8498  0.2922  2.2003
 1826SOL     OW17113   0.345   0.590   3.904 -0.6888  0.5279 -0.2233
 1826SOL    HW117114   0.255   0.575   3.934 -0.1999 -2.4565 -0.2522
 1826SOL    HW217115   0.373   0.514   3.853  0.0196 -0.6195  1.8745
 1827SOL     OW17116   0.840   3.740   4.945  0.3866 -0.3129  0.0118
 1827SOL    HW117117   0.774   3.809   4.938 -0.0698 -0.7400  0.1590
 1827SOL    HW217118   0.855   3.727   5.039 -4.5544  1.8236  1.0621
 1828SOL     OW17119   1.943   3.497   8.845  0.4292  0.1599 -0.9062
 1828SOL    HW117120   1.883   3.430   8.811  0.3644  0.4509 -1.3506
 1828SOL    HW217121   1.993   3.448   8.911 -1.9552 -0.3125  0.5449
 1829SOL     OW17122   3.095   4.319   8.594 -0.0127 -0.0973  0.3231
 1829SOL    HW117123   3.095   4.372   8.514 -0.7349  0.4412  0.6700
 1829SOL    HW217124   3.176   4.271   8.580 -1.2148 -1.9351 -0.2495
 1830SOL     OW17125   2.867   2.910   2.258 -0.5475 -0.5367 -0.0215
 1830SOL    HW117126   2.959   2.902   2.233 -0.7041 -3.9538  0.4954
 1830SOL    HW217127   2.843   2.818   2.252 -1.1315 -0.5190  1.8200
 1831SOL     OW17128   3.886   4.412  16.274  0.0967  0.0930 -0.2432
 1831SOL    HW117129   3.908   4.503  16.254  1.1737 -0.1787 -0.3286
 1831SOL    HW217130   3.883   4.419  16.370  1.6427 -0.3036 -0.1556
 1832SOL     OW17131   3.126   4.607   3.840 -0.0401  0.3550 -0.4121
 1832SOL    HW117132   3.191   4.537   3.834  0.2413  0.4324  1.8099
 1832SOL    HW217133   3.048   4.555   3.854  0.0865  0.7703  1.8439
 1833SOL     OW17134   0.681   4.694   9.133 -0.2610 -0.0443  0.5425
 1833SOL    HW117135   0.653   0.025   9.195  1.2107 -1.3412  2.6307
 1833SOL    HW217136   0.719   4.636   9.199  0.4698 -1.2983 -0.9687
 1834SOL     OW17137   3.712   2.418   5.503  0.7354  0.1883  0.0916
 1834SOL    HW117138   3.738   2.386   5.417  1.8813  1.2487  0.0336
 1834SOL    HW217139   3.792   2.454   5.542  0.3058 -1.1100  2.1398
 1835SOL     OW17140   1.795   4.498   5.168 -0.4938 -0.7451 -0.0816
 1835SOL    HW117141   1.884   4.504   5.132 -1.7465  2.6295 -2.5794
 1835SOL    HW217142   1.742   4.537   5.099  0.8060 -0.1201 -0.7333
 1836SOL     OW17143   3.953   3.521  13.722  0.4181 -0.1284  0.0783
 1836SOL    HW117144   4.034   3.504  13.674 -0.5221 -0.1034 -1.5402
 1836SOL    HW217145   3.958   3.614  13.745 -1.4855 -0.4593  1.7966
 1837SOL     OW17146   4.395   4.618  16.163  0.6329  0.1635 -0.0089
 1837SOL    HW117147   4.356   4.552  16.221  1.3264 -0.3026 -0.0726
 1837SOL    HW217148   4.397   4.578  16.076 -2.7242 -2.7044  1.2263
 1838SOL     OW17149   0.743   1.351  10.941 -0.2915 -0.0455  0.1792
 1838SOL    HW117150   0.657   1.318  10.966 -0.4860 -2.5692 -3.8897
 1838SOL    HW217151   0.732   1.384  10.852 -0.4713  0.5867  0.4308
 1839SOL     OW17152   2.664   2.494   3.358  0.3576  0.5404 -0.1261
 1839SOL    HW117153   2.721   2.472   3.432 -0.9237  2.6877  1.5026
 1839SOL    HW217154   2.582   2.472   3.402  0.2720  0.0749 -0.5126
 1840SOL     OW17155   3.489   0.456  12.540 -0.2166  0.5650 -0.2447
 1840SOL    HW117156   3.489   0.372  12.587 -1.9980  0.3987 -0.5409
 1840SOL    HW217157   3.460   0.420  12.456 -0.9267  1.9719 -0.6072
 1841SOL     OW17158   2.873   2.507   5.405  0.0153  0.4147 -0.4978
 1841SOL    HW117159   2.905   2.435   5.460 -2.8369  1.8398  3.0986
 1841SOL    HW217160   2.911   2.487   5.320 -0.3488  2.6900 -1.2063
 1842SOL     OW17161   4.302   1.665   7.557  0.1292 -0.5548  0.1691
 1842SOL    HW117162   4.303   1.606   7.482  1.2906 -0.5078  0.1451
 1842SOL    HW217163   4.291   1.598   7.625 -1.1077 -0.0284  0.4810
 1843SOL     OW17164   4.470   1.241  15.160  0.3632  0.0906  0.3230
 1843SOL    HW117165   4.528   1.314  15.184  2.1782 -0.9909 -0.7761
 1843SOL    HW217166   4.541   1.181  15.138  0.7722  0.2625  1.1858
 1844SOL     OW17167   2.278   2.962  11.702 -0.2761 -0.1171 -0.0812
 1844SOL    HW117168   2.340   3.033  11.684  0.9194 -1.7927 -2.6357
 1844SOL    HW217169   2.322   2.935  11.782 -0.7170  1.2734  0.6399
 1845SOL     OW17170   3.477   0.260   0.115 -0.7924  0.8377  0.0453
 1845SOL    HW117171   3.500   0.174   0.152 -0.2277  0.4905 -1.0989
 1845SOL    HW217172   3.383   0.245   0.113 -0.2006 -3.2543  1.5088
 1846SOL     OW17173   0.766   3.077   7.876  0.1897 -0.5547 -0.1213
 1846SOL    HW117174   0.696   3.099   7.938  2.7599  0.0844  2.5285
 1846SOL    HW217175   0.756   3.157   7.825  0.7945  0.8507  1.9408
 1847SOL     OW17176   1.531   0.877   7.726  0.2633 -0.4532 -0.4678
 1847SOL    HW117177   1.543   0.927   7.646  2.2562 -0.0101  0.1066
 1847SOL    HW217178   1.556   0.789   7.698  0.1834  0.1099 -2.2672
 1848SOL     OW17179   1.396   2.996   8.259 -0.0559 -0.0210  0.1210
 1848SOL    HW117180   1.417   3.013   8.351  3.0945 -4.1578  0.1407
 1848SOL    HW217181   1.329   3.063   8.245 -1.3048 -1.5839 -1.3363
 1849SOL     OW17182   1.962   2.140   2.329 -0.1515  0.3286  0.2863
 1849SOL    HW117183   1.910   2.152   2.249  0.2802  0.1630 -0.0187
 1849SOL    HW217184   2.054   2.154   2.307 -0.0294 -0.1562  0.4906
 1850SOL     OW17185   3.487   1.221   7.796 -0.1738 -0.6165 -0.6057
 1850SOL    HW117186   3.551   1.256   7.734  1.3535  1.2928  2.0573
 1850SOL    HW217187   3.417   1.286   7.783  0.9028  1.0194  1.6089
 1851SOL     OW17188   0.405   1.873   7.947 -0.5444  0.2465 -0.2623
 1851SOL    HW117189   0.316   1.874   7.980 -1.4282  0.4222 -2.6657
 1851SOL    HW217190   0.417   1.957   7.903  0.5153  0.5210  0.5351
 1852SOL     OW17191   1.696   1.352  14.906 -0.1167 -0.0894 -0.6352
 1852SOL    HW117192   1.740   1.303  14.976  2.2275  1.1921 -1.2354
 1852SOL    HW217193   1.760   1.349  14.835 -0.2721  1.2895 -0.8328
 1853SOL     OW17194   4.703   1.685   6.508  0.0551 -0.4358  0.6019
 1853SOL    HW117195   0.023   1.622   6.552 -0.3762 -0.6505  0.8477
 1853SOL    HW217196   4.660   1.630   6.442 -1.2999 -1.1824  2.1134
 1854SOL     OW17197   3.064   4.084   5.952 -0.4874 -0.1093  0.2587
 1854SOL    HW117198   3.136   4.099   6.015  1.3251 -0.6128 -1.6878
 1854SOL    HW217199   3.014   4.012   5.990  0.7426 -0.7299  0.7323
 1855SOL     OW17200   3.140   1.368   1.030 -0.3399 -0.1059  0.1940
 1855SOL    HW117201   3.081   1.312   1.079 -1.0490  0.9235  0.5159
 1855SOL    HW217202   3.085   1.446   1.030 -0.9349 -0.5285  0.4959
 1856SOL     OW17203   1.093   4.109   7.693 -0.3093  0.3007  0.4892
 1856SOL    HW117204   1.128   4.134   7.607 -0.7009  0.2288  0.3081
 1856SOL    HW217205   1.053   4.193   7.716 -0.4871  0.9055 -1.9796
 1857SOL     OW17206   2.335   3.256  14.568  0.0412 -0.3868  0.7605
 1857SOL    HW117207   2.383   3.177  14.544 -0.2359 -0.6050  0.9201
 1857SOL    HW217208   2.356   3.311  14.493 -1.6359  1.3396  1.5651
 1858SOL     OW17209   4.518   2.893  11.118 -0.3889 -0.6827  0.1510
 1858SOL    HW117210   4.553   2.950  11.049 -3.4908  0.3475 -0.5811
 1858SOL    HW217211   4.424   2.896  11.099 -0.2040  0.7021 -0.5218
 1859SOL     OW17212   0.773   1.549   6.898 -0.7752 -0.3304  0.3451
 1859SOL    HW117213   0.731   1.623   6.854  1.2342  1.0997  0.8523
 1859SOL    HW217214   0.695   1.511   6.939  0.8187 -2.4924  1.4257
 1860SOL     OW17215   1.190   0.392   2.371 -0.4490  0.0874 -0.2679
 1860SOL    HW117216   1.130   0.419   2.441 -1.4200 -2.2615 -0.1847
 1860SOL    HW217217   1.202   0.473   2.322 -0.1238 -0.5087 -1.1583
 1861SOL     OW17218   0.104   3.435  16.465  0.2787  0.1437 -0.0075
 1861SOL    HW117219   0.153   3.354  16.450  0.3688  0.3364 -0.7877
 1861SOL    HW217220   0.151   3.468  16.542 -3.8981  0.6707  2.3043
 1862SOL     OW17221   0.289   0.270   5.155 -0.5259 -0.2234 -0.4183
 1862SOL    HW117222   0.314   0.255   5.246 -2.0043  1.2669  0.2426
 1862SOL    HW217223   0.200   0.236   5.149  0.1882 -1.6438 -2.7711
 1863SOL     OW17224   0.836   0.546   6.823 -1.0052 -0.3595  0.9977
 1863SOL    HW117225   0.922   0.553   6.863  0.1687  0.2902 -1.6233
 1863SOL    HW217226   0.847   0.460   6.781 -1.0351 -0.3347  0.9388
 1864SOL     OW17227   2.028   3.437   2.938 -0.1604  0.3929  0.1677
 1864SOL    HW117228   1.966   3.378   2.896 -0.8784  1.3308 -0.1073
 1864SOL    HW217229   2.106   3.446   2.882  0.5971 -1.8651  0.8675
 1865SOL     OW17230   0.998   4.579  17.491  0.0575 -0.1541 -0.0273
 1865SOL    HW117231   1.000   4.592  17.586 -2.4283 -2.2615  0.3075
 1865SOL    HW217232   0.982   4.485  17.494 -0.2962 -0.0866  0.1074
 1866SOL     OW17233   1.693   2.269   8.982  0.1933  0.0591  0.4879
 1866SOL    HW117234   1.758   2.311   9.037 -0.4604  0.1216  1.2069
 1866SOL    HW217235   1.688   2.184   9.025 -1.0090 -0.4512 -0.6314
 1867SOL     OW17236   4.138   0.361  17.510  0.0364  0.2171  0.4575
 1867SOL    HW117237   4.109   0.407  17.431  1.2622 -2.3859 -1.4943
 1867SOL    HW217238   4.059   0.370  17.564  0.9336  2.3388  1.4181
 1868SOL     OW17239   3.747   2.348  10.812  0.2499 -0.1548  0.2175
 1868SOL    HW117240   3.829   2.349  10.861  1.3356 -0.4731 -1.5817
 1868SOL    HW217241   3.781   2.310  10.731  1.2135  2.8281 -0.7686
 1869SOL     OW17242   2.590   3.971  14.747  0.0678  0.2577 -1.0711
 1869SOL    HW117243   2.615   3.891  14.793 -1.6222  0.0996 -0.4363
 1869SOL    HW217244   2.533   3.945  14.675 -0.7744 -0.2022 -0.2347
 1870SOL     OW17245   1.375   3.683   5.918  0.4628  0.2778  0.0681
 1870SOL    HW117246   1.414   3.739   5.851  1.5343 -0.5073  0.0514
 1870SOL    HW217247   1.428   3.604   5.915  1.8947  1.3256 -1.7341
 1871SOL     OW17248   4.674   3.900   8.688 -0.3894  0.3825 -0.5942
 1871SOL    HW117249   4.606   3.847   8.646 -0.1090  0.4409 -1.1252
 1871SOL    HW217250   4.624   3.939   8.759 -2.8845  0.6527 -2.4928
 1872SOL     OW17251   2.073   3.089   8.113 -0.6182 -0.1119  0.4060
 1872SOL    HW117252   1.998   3.114   8.059  0.2045 -3.7502 -2.4512
 1872SOL    HW217253   2.106   3.178   8.124  0.8201 -0.5526 -0.4481
 1873SOL     OW17254   3.562   0.684  10.316 -0.2961  0.3220  0.6164
 1873SOL    HW117255   3.575   0.777  10.330  0.1857 -0.0515  2.5989
 1873SOL    HW217256   3.467   0.683  10.303 -0.0000 -1.5121 -1.6041
 1874SOL     OW17257   2.764   4.610   4.602  0.1324  0.1351 -0.5323
 1874SOL    HW117258   2.720   4.678   4.552 -1.3711 -1.3196 -1.1650
 1874SOL    HW217259   2.694   4.584   4.661 -0.3569  1.3270 -0.5958
 1875SOL     OW17260   0.449   3.734   5.966  0.2258 -0.1410  0.1841
 1875SOL    HW117261   0.372   3.760   6.015 -0.5714 -1.1957 -0.4980
 1875SOL    HW217262   0.404   3.665   5.916  1.3151 -1.2337  0.7134
 1876SOL     OW17263   3.854   2.908   7.292  0.0217  0.2322 -0.4776
 1876SOL    HW117264   3.761   2.888   7.304 -0.3314  3.2742  2.0335
 1876SOL    HW217265   3.853   2.918   7.197 -0.8074  0.0871 -0.4810
 1877SOL     OW17266   3.911   2.565  10.324  0.1838  0.4761  0.2506
 1877SOL    HW117267   3.902   2.622  10.400  2.4496 -0.3690  1.1655
 1877SOL    HW217268   3.889   2.480  10.362  1.2543 -0.3000 -0.8501
 1878SOL     OW17269   3.483   3.476   4.194  0.0743 -0.1967 -0.0236
 1878SOL    HW117270   3.549   3.524   4.245 -0.8766  0.8497  0.2326
 1878SOL    HW217271   3.541   3.401   4.184  0.6863  0.3612 -0.7566
 1879SOL     OW17272   2.020   3.711   3.844 -0.0565  0.3434 -0.1933
 1879SOL    HW117273   2.041   3.618   3.839  1.3687  0.6663 -0.1803
 1879SOL    HW217274   1.930   3.709   3.810 -0.4659  1.4996  0.8023
 1880SOL     OW17275   0.915   0.894   4.363  0.0730  0.2302  0.4051
 1880SOL    HW117276   0.968   0.966   4.330 -0.9754  0.4258 -0.8731
 1880SOL    HW217277   0.905   0.844   4.282 -0.4268  1.1176 -0.0822
 1881SOL     OW17278   1.472   2.155  15.460  0.3544 -0.2847  0.2287
 1881SOL    HW117279   1.418   2.098  15.514 -0.0778 -0.2423 -0.1585
 1881SOL    HW217280   1.524   2.091  15.411  1.6081  1.6529 -0.9388
 1882SOL     OW17281   1.619   4.330   9.665  0.5265  0.4184  0.3709
 1882SOL    HW117282   1.666   4.247   9.657  0.9040  0.6441  0.2416
 1882SOL    HW217283   1.660   4.368   9.587 -1.4012  2.0890  0.1496
 1883SOL     OW17284   1.335   1.056  15.309 -0.3464 -0.2668 -0.6306
 1883SOL    HW117285   1.331   0.965  15.335 -1.1696  0.1704  0.7441
 1883SOL    HW217286   1.278   1.073  15.233 -1.0580 -0.8853 -0.2296
 1884SOL     OW17287   1.329   0.759   2.301  0.9849  0.2126 -0.2329
 1884SOL    HW117288   1.399   0.753   2.236  1.0167  2.2441 -0.4161
 1884SOL    HW217289   1.259   0.790   2.243 -0.3830 -2.0469  0.2198
 1885SOL     OW17290   0.642   3.920   8.710  0.0549 -0.0280 -0.6874
 1885SOL    HW117291   0.708   3.869   8.757  0.3002  1.0224  0.1025
 1885SOL    HW217292   0.668   4.005   8.745 -0.6036  0.1071 -0.5136
 1886SOL     OW17293   0.205   0.478  10.566  0.4403  0.2648  0.3127
 1886SOL    HW117294   0.163   0.523  10.639  1.0271 -0.2086  0.9269
 1886SOL    HW217295   0.263   0.550  10.541  1.4818 -0.7871 -0.3093
 1887SOL     OW17296   4.456   4.461  15.875 -0.1601 -0.4033  0.2368
 1887SOL    HW117297   4.442   4.394  15.809 -0.4368  0.3938 -0.5063
 1887SOL    HW217298   4.445   4.545  15.830 -0.4287  0.3481  1.6957
 1888SOL     OW17299   2.000   2.248  15.792  0.4431  0.1043  0.5907
 1888SOL    HW117300   1.935   2.269  15.724  0.8282  0.3548  0.3001
 1888SOL    HW217301   2.016   2.339  15.817 -2.4296 -0.1888  3.6293
 1889SOL     OW17302   2.677   0.693   3.584 -0.7065  0.4616  0.3972
 1889SOL    HW117303   2.615   0.701   3.658 -0.9660  0.2718  0.2008
 1889SOL    HW217304   2.747   0.656   3.637  0.0357  2.3519  0.7383
 1890SOL     OW17305   3.177   2.197   8.047  0.4087 -0.1153  0.6657
 1890SOL    HW117306   3.121   2.127   8.014  1.5282 -1.5957  1.9107
 1890SOL    HW217307   3.127   2.216   8.127 -1.6225 -2.1441 -0.1398
 1891SOL     OW17308   1.668   3.964  14.885 -0.6438 -0.2985 -0.2698
 1891SOL    HW117309   1.616   3.934  14.810 -0.5819  0.1283 -0.4851
 1891SOL    HW217310   1.606   3.969  14.957 -0.8974 -1.9987 -0.3757
 1892SOL     OW17311   4.507   2.331   0.059  0.1123  0.0993 -0.4552
 1892SOL    HW117312   4.555   2.396   0.009 -2.6422  0.4931 -2.5695
 1892SOL    HW217313   4.542   2.342   0.148  0.5357  0.4539 -0.6657
 1893SOL     OW17314   3.425   2.553   0.979 -0.2582  0.2561  0.3935
 1893SOL    HW117315   3.430   2.642   1.014  2.6499 -0.3623  1.5127
 1893SOL    HW217316   3.518   2.534   0.992  0.4036  1.6934 -2.2369
 1894SOL     OW17317   0.300   2.104   4.061 -0.2910  0.3646  0.1135
 1894SOL    HW117318   0.339   2.060   3.985 -0.6833  0.7438 -0.3078
 1894SOL    HW217319   0.334   2.050   4.133  0.9559 -0.3421 -0.9996
 1895SOL     OW17320   0.746   2.595   7.573 -0.2306 -0.3919 -0.2261
 1895SOL    HW117321   0.719   2.504   7.577  0.8978 -0.6507  1.3815
 1895SOL    HW217322   0.678   2.623   7.511 -0.4952  1.2747  0.8076
 1896SOL     OW17323   0.983   0.958   2.616 -0.2100  0.2021  0.4745
 1896SOL    HW117324   1.077   0.973   2.622 -0.0606 -0.0771 -1.0994
 1896SOL    HW217325   0.944   1.012   2.685 -2.6697  0.2478 -0.9688
 1897SOL     OW17326   0.710   2.989   4.898 -0.4049  0.1266 -0.3876
 1897SOL    HW117327   0.674   3.069   4.859  1.0467  1.8110  1.7332
 1897SOL    HW217328   0.708   2.926   4.826 -1.0964  0.1587 -0.4018
 1898SOL     OW17329   2.712   2.762  11.873 -0.2020  0.2132  0.5647
 1898SOL    HW117330   2.763   2.841  11.891  0.6093  0.2240 -1.7127
 1898SOL    HW217331   2.748   2.742  11.786  1.0394  0.1375  1.0926
 1899SOL     OW17332   4.530   1.418   4.815 -0.0520 -0.1720 -0.0951
 1899SOL    HW117333   4.544   1.423   4.910  0.1510 -1.8185 -0.0430
 1899SOL    HW217334   4.541   1.324   4.804  0.5407 -0.2328  0.9705
 1900SOL     OW17335   4.492   3.120  16.924 -0.4285 -0.6790 -0.1836
 1900SOL    HW117336   4.532   3.104  16.839  1.3387  0.3292  0.4511
 1900SOL    HW217337   4.556   3.181  16.961 -1.2265 -0.3125  0.5928
 1901SOL     OW17338   2.767   2.946   0.869  0.2486  0.3667 -0.6709
 1901SOL    HW117339   2.707   2.921   0.798  0.2229  0.9302 -0.8455
 1901SOL    HW217340   2.707   2.964   0.942  0.9828 -2.5460  0.6446
 1902SOL     OW17341   1.060   4.685   1.331 -0.2387 -0.5138 -0.1597
 1902SOL    HW117342   1.149   4.720   1.329 -0.2698 -0.5556 -1.9878
 1902SOL    HW217343   1.017   0.004   1.397 -0.5196 -0.6834 -0.1995
 1903SOL     OW17344   4.681   3.963   2.534  0.2062  0.2092  0.5327
 1903SOL    HW117345   0.007   3.920   2.476 -1.0929 -0.9800  0.0116
 1903SOL    HW217346   4.637   3.885   2.569  1.5818 -0.4592  0.7460
 1904SOL     OW17347   0.134   3.038   8.348  0.5376 -0.0939  0.7607
 1904SOL    HW117348   0.059   3.000   8.303  1.7064 -1.7493  0.1983
 1904SOL    HW217349   0.170   2.961   8.393  2.1399  0.3222  0.2092
 1905SOL     OW17350   1.078   3.103   8.683  0.1000 -0.0547  0.5296
 1905SOL    HW117351   1.043   3.133   8.599 -0.1193  0.2729  0.7375
 1905SOL    HW217352   1.018   3.136   8.749  0.4826 -1.9772  1.8246
 1906SOL     OW17353   2.047   4.119   8.128 -0.1232  0.4412  0.8589
 1906SOL    HW117354   2.116   4.053   8.129 -0.0667  0.4822 -0.7483
 1906SOL    HW217355   2.012   4.124   8.039 -3.4343 -1.2573  2.0592
 1907SOL     OW17356   2.711   3.480   8.711  0.0001 -0.3409  0.1057
 1907SOL    HW117357   2.678   3.410   8.654 -0.1501  0.7700 -1.1568
 1907SOL    HW217358   2.711   3.557   8.654  0.6697  1.2586  2.2946
 1908SOL     OW17359   0.211   0.070  17.661 -0.3714  0.0856 -0.0066
 1908SOL    HW117360   0.250   0.157  17.671 -0.3430  0.2020 -1.1127
 1908SOL    HW217361   0.219   0.047  17.568  3.9479 -2.8862  1.0731
 1909SOL     OW17362   3.911   0.587   1.448 -0.4508 -0.2551  0.0835
 1909SOL    HW117363   3.905   0.547   1.534 -1.6693  0.5050  0.3536
 1909SOL    HW217364   3.897   0.515   1.387 -0.6289 -1.5894  1.7195
 1910SOL     OW17365   1.356   0.780  15.354  0.0965  0.2609  0.5184
 1910SOL    HW117366   1.438   0.789  15.304 -0.5032 -0.9127 -0.6791
 1910SOL    HW217367   1.340   0.686  15.345  0.5196  0.2443 -0.0701
 1911SOL     OW17368   4.454   4.419   6.181  0.1927 -0.0551 -0.3523
 1911SOL    HW117369   4.438   4.511   6.160 -3.2891 -0.6076 -0.1967
 1911SOL    HW217370   4.548   4.408   6.191  0.7450  1.2430 -4.2632
 1912SOL     OW17371   2.691   2.385   7.822  0.1162 -0.0898  0.1266
 1912SOL    HW117372   2.598   2.409   7.820  0.2157  0.3488  0.6528
 1912SOL    HW217373   2.731   2.469   7.802 -0.1390  0.6051  2.5224
 1913SOL     OW17374   2.518   4.581   7.495  0.3011  0.0434 -0.1375
 1913SOL    HW117375   2.598   4.600   7.445 -1.5843  2.0577 -2.4257
 1913SOL    HW217376   2.493   4.666   7.532 -0.0502  0.2594 -0.8628
 1914SOL     OW17377   2.196   1.138   3.953 -0.0204  0.2419 -0.3977
 1914SOL    HW117378   2.261   1.097   4.010 -2.1401 -0.6984  1.3635
 1914SOL    HW217379   2.124   1.142   4.016  0.1123 -1.5698 -0.1474
 1915SOL     OW17380   0.614   1.374   0.381 -0.2844 -0.3078  0.6240
 1915SOL    HW117381   0.594   1.281   0.389 -3.1785  0.1876 -0.6380
 1915SOL    HW217382   0.634   1.364   0.288  0.0586 -0.5771  0.7282
 1916SOL     OW17383   2.662   0.608   7.949  0.4355  0.1678 -0.2045
 1916SOL    HW117384   2.655   0.537   8.012 -0.0398  0.0041 -0.4499
 1916SOL    HW217385   2.678   0.685   8.005 -2.1176  0.6653 -0.1696
 1917SOL     OW17386   2.589   3.862   2.646  0.7653 -0.3783 -0.0380
 1917SOL    HW117387   2.588   3.766   2.653  1.0556 -0.1614  2.9597
 1917SOL    HW217388   2.565   3.893   2.733 -1.5812  2.8212 -1.8252
 1918SOL     OW17389   1.472   4.723   4.473 -0.4806  0.3191 -0.0109
 1918SOL    HW117390   1.425   4.686   4.548 -0.2736  0.9397  0.4328
 1918SOL    HW217391   1.475   4.657   4.404 -0.2555 -0.1831  0.4819
 1919SOL     OW17392   2.507   2.345  15.076 -0.1668 -0.2624  0.0606
 1919SOL    HW117393   2.457   2.292  15.014 -0.7843  0.1400  0.2178
 1919SOL    HW217394   2.594   2.334  15.037 -0.2513 -0.0377 -0.1897
 1920SOL     OW17395   3.768   2.118   9.960  0.0192  0.5606  0.2203
 1920SOL    HW117396   3.701   2.085   9.900  0.1036 -0.2029  0.5459
 1920SOL    HW217397   3.802   2.032   9.986  0.7064  1.2663  1.6803
 1921SOL     OW17398   2.863   3.356   3.274 -0.5526 -0.1873  0.2304
 1921SOL    HW117399   2.832   3.290   3.335 -0.4530 -0.9103 -0.5048
 1921SOL    HW217400   2.957   3.342   3.263 -0.4628  0.8272 -0.3258
 1922SOL     OW17401   2.656   0.238   9.469  0.6801 -0.7495  0.1410
 1922SOL    HW117402   2.695   0.201   9.548 -0.8036 -0.9006  0.7957
 1922SOL    HW217403   2.562   0.220   9.473  0.1747  1.6067 -1.1702
 1923SOL     OW17404   3.612   3.930  13.199 -0.4687 -0.1430  1.0295
 1923SOL    HW117405   3.517   3.939  13.195 -0.5568 -1.1898  0.6524
 1923SOL    HW217406   3.622   3.898  13.109 -1.1809  0.7287  0.6420
 1924SOL     OW17407   3.985   0.426   6.760 -0.1380 -0.1041 -0.3910
 1924SOL    HW117408   4.059   0.378   6.723 -0.8168 -0.2614 -1.5491
 1924SOL    HW217409   3.929   0.439   6.683 -1.9920 -2.4447  0.5562
 1925SOL     OW17410   2.844   3.654  11.211  0.2064 -0.0649 -0.0196
 1925SOL    HW117411   2.838   3.736  11.260  2.0776  0.1406 -0.1264
 1925SOL    HW217412   2.780   3.665  11.140  3.0821 -0.3529 -2.6815
 1926SOL     OW17413   4.541   1.341   8.564 -0.0751  0.0446  0.4500
 1926SOL    HW117414   4.477   1.298   8.506 -0.2801 -1.0728  1.5050
 1926SOL    HW217415   4.471   1.370   8.622 -1.1849 -2.1847  0.2507
 1927SOL     OW17416   1.370   3.211   2.578 -0.4506  0.3111  0.0362
 1927SOL    HW117417   1.323   3.188   2.497 -0.2350 -0.7496  0.2107
 1927SOL    HW217418   1.303   3.264   2.622 -2.0932 -2.4310  0.8060
 1928SOL     OW17419   2.816   0.250   3.038 -0.3866 -0.1894 -0.1911
 1928SOL    HW117420   2.897   0.231   3.084 -0.1606 -1.5528 -1.1323
 1928SOL    HW217421   2.759   0.183   3.077 -0.5167  0.1785  0.2557
 1929SOL     OW17422   0.211   2.152  13.148 -0.0148 -0.1777  0.2823
 1929SOL    HW117423   0.277   2.083  13.152 -2.0666 -2.0487  1.8794
 1929SOL    HW217424   0.138   2.109  13.103  0.6995 -0.4590 -0.6170
 1930SOL     OW17425   3.402   2.971   2.601  0.2173  0.1225  0.2707
 1930SOL    HW117426   3.402   3.027   2.678 -2.2781 -0.4801  0.7132
 1930SOL    HW217427   3.400   3.038   2.533  1.8776  0.5139  0.6100
 1931SOL     OW17428   1.672   0.609   7.828 -0.0300  0.4736 -0.2438
 1931SOL    HW117429   1.706   0.695   7.853 -3.7966  2.2469 -1.1359
 1931SOL    HW217430   1.708   0.541   7.885  0.3046  1.9736  1.3079
 1932SOL     OW17431   4.288   1.472  17.137  0.4009  0.4257 -0.4421
 1932SOL    HW117432   4.335   1.495  17.217 -1.0237  1.0440  0.2196
 1932SOL    HW217433   4.343   1.508  17.068 -0.6648  4.1976  0.6561
 1933SOL     OW17434   1.196   3.358  14.563 -0.2601  0.1778 -0.1769
 1933SOL    HW117435   1.181   3.302  14.639 -1.4893  0.7334 -0.0220
 1933SOL    HW217436   1.177   3.445  14.596  1.3051  0.1389  0.8328
 1934SOL     OW17437   0.360   2.342   7.253 -0.1435 -0.2408 -0.8638
 1934SOL    HW117438   0.407   2.259   7.256  3.8457  1.9634 -2.6520
 1934SOL    HW217439   0.323   2.336   7.165  0.0675 -0.2956 -0.9486
 1935SOL     OW17440   1.279   1.055   3.780 -0.8243 -1.1925  1.0188
 1935SOL    HW117441   1.370   1.049   3.752 -0.7313  1.6570  0.7281
 1935SOL    HW217442   1.237   1.091   3.702  0.5303  0.3591  1.0162
 1936SOL     OW17443   4.530   4.294   5.706  0.7911 -0.3246 -0.6241
 1936SOL    HW117444   4.602   4.325   5.761 -0.5912  1.5518  0.1361
 1936SOL    HW217445   4.480   4.259   5.780 -0.1282  2.7748  0.2076
 1937SOL     OW17446   4.112   0.934   3.327  0.5419 -0.3871  0.4131
 1937SOL    HW117447   4.186   0.975   3.282  1.0847  0.1006  1.7502
 1937SOL    HW217448   4.119   0.969   3.415 -0.4710 -3.1538  1.5929
 1938SOL     OW17449   1.310   0.108   4.078  0.0195  0.2711 -0.0879
 1938SOL    HW117450   1.371   0.181   4.087 -0.5698  0.9177 -1.3887
 1938SOL    HW217451   1.380   0.051   4.044 -0.7244  0.9096 -2.7167
 1939SOL     OW17452   3.891   0.120   6.932 -0.2562  0.5300 -0.4734
 1939SOL    HW117453   3.977   0.085   6.952  0.7322  0.8480 -4.0027
 1939SOL    HW217454   3.919   0.212   6.932  1.3235  0.0359  0.0689
 1940SOL     OW17455   3.805   0.304   8.566 -0.3387  1.1976  0.6313
 1940SOL    HW117456   3.715   0.301   8.599 -0.6013 -2.3079 -0.3552
 1940SOL    HW217457   3.819   0.213   8.540 -0.0777  1.4083  0.0299
 1941SOL     OW17458   4.066   2.162   1.004  0.1155 -0.1834 -0.0969
 1941SOL    HW117459   4.125   2.105   1.053 -1.0688  0.1028  1.6690
 1941SOL    HW217460   4.127   2.208   0.948  0.4497 -0.0091  0.4105
 1942SOL     OW17461   0.450   0.502   7.079  0.2208  0.2004 -0.3388
 1942SOL    HW117462   0.472   0.494   7.172 -0.5054 -2.4623 -0.4115
 1942SOL    HW217463   0.517   0.567   7.056  0.1888  0.2458 -0.3022
 1943SOL     OW17464   0.900   1.517   4.649 -0.2166  0.3758 -0.3160
 1943SOL    HW117465   0.943   1.547   4.730  1.1539  0.0874 -0.9350
 1943SOL    HW217466   0.921   1.589   4.590 -0.0595  0.5121 -0.0968
 1944SOL     OW17467   3.631   2.835  16.275 -0.2708  0.5540 -0.5602
 1944SOL    HW117468   3.647   2.790  16.192  2.4504  2.1952 -0.9156
 1944SOL    HW217469   3.688   2.782  16.330 -0.0890  0.5522 -0.7528
 1945SOL     OW17470   0.498   2.121   3.481 -0.8762 -0.1407 -0.6624
 1945SOL    HW117471   0.481   2.166   3.563 -0.3848 -0.0104 -0.6329
 1945SOL    HW217472   0.425   2.059   3.478  0.2749 -1.4454 -2.3545
 1946SOL     OW17473   0.436   3.160   4.149 -0.3924 -0.0113 -0.1691
 1946SOL    HW117474   0.413   3.154   4.242  2.6602  2.6740  0.7570
 1946SOL    HW217475   0.511   3.101   4.145 -0.1433  0.1339  2.3870
 1947SOL     OW17476   4.062   1.280   6.110 -0.1400  0.1525  0.9048
 1947SOL    HW117477   4.060   1.375   6.100  3.9109  0.6322  4.6716
 1947SOL    HW217478   4.018   1.270   6.195 -2.8205  0.7628 -0.4229
 1948SOL     OW17479   3.976   0.596   6.112  0.2219 -0.0865  0.0969
 1948SOL    HW117480   4.015   0.509   6.125  0.5789 -0.0675 -0.9020
 1948SOL    HW217481   4.056   0.644   6.092 -0.8345  1.0915 -1.2458
 1949SOL     OW17482   4.188   1.960   6.361 -0.4692  0.4675  0.1953
 1949SOL    HW117483   4.230   2.039   6.326  1.0635 -0.4659 -0.0458
 1949SOL    HW217484   4.099   1.983   6.386  0.6046  0.4095  4.0222
 1950SOL     OW17485   4.295   2.994   5.877  0.6351  0.5167  0.0934
 1950SOL    HW117486   4.336   3.057   5.818 -0.3670  0.3830 -0.7589
 1950SOL    HW217487   4.203   3.004   5.851  1.0357  0.3337 -1.4113
 1951SOL     OW17488   3.403   2.645  15.500 -0.2259 -0.1020  0.4038
 1951SOL    HW117489   3.445   2.634  15.585 -1.8722 -0.9650  1.0935
 1951SOL    HW217490   3.357   2.563  15.484 -0.6589  0.1816  0.1830
 1952SOL     OW17491   0.153   4.686   3.703  0.7130 -0.4736 -0.3671
 1952SOL    HW117492   0.095   4.692   3.627  0.7206 -0.1291 -0.3436
 1952SOL    HW217493   0.098   4.645   3.769 -0.6381  1.0565 -0.5238
 1953SOL     OW17494   3.784   1.405   4.919  0.3680 -0.1217 -0.1388
 1953SOL    HW117495   3.693   1.378   4.912 -0.1450  1.2935  1.0033
 1953SOL    HW217496   3.793   1.462   4.843 -1.4054  0.3412  0.0039
 1954SOL     OW17497   4.220   1.047   1.843 -0.0053  0.2423 -0.3120
 1954SOL    HW117498   4.284   1.108   1.879  1.4360 -2.1241  1.1188
 1954SOL    HW217499   4.221   1.067   1.749 -0.3960 -0.4725 -0.4607
 1955SOL     OW17500   0.645   3.497   6.228  0.0605  0.0829 -0.1281
 1955SOL    HW117501   0.647   3.588   6.198 -0.5527  0.0252 -0.3593
 1955SOL    HW217502   0.611   3.505   6.317 -0.9647 -1.1460 -0.4045
 1956SOL     OW17503   4.533   4.372   4.890 -0.0098 -0.2453 -0.5791
 1956SOL    HW117504   4.552   4.456   4.848 -0.2270  0.6089  1.0356
 1956SOL    HW217505   4.449   4.354   4.848  0.2341 -2.8957  0.0558
 1957SOL     OW17506   1.585   2.162  14.187  0.8429  0.2792 -0.3323
 1957SOL    HW117507   1.613   2.089  14.242  1.1228  2.1522  2.0285
 1957SOL    HW217508   1.662   2.220  14.190 -0.1172  1.4534  2.2062
 1958SOL     OW17509   2.304   3.553  15.477 -0.1900  0.8092  0.3112
 1958SOL    HW117510   2.304   3.467  15.437 -0.5943  0.3080  1.3850
 1958SOL    HW217511   2.247   3.599  15.416  0.1193  0.1612 -0.4555
 1959SOL     OW17512   3.282   0.642   1.601 -0.5991 -0.1096 -0.1963
 1959SOL    HW117513   3.242   0.567   1.646  0.2885 -1.0726 -1.0139
 1959SOL    HW217514   3.358   0.597   1.564 -0.2780  0.3667 -0.1108
 1960SOL     OW17515   2.564   1.509  10.865  0.0648  0.5175 -0.2736
 1960SOL    HW117516   2.656   1.535  10.876 -0.4128  1.2260  1.8195
 1960SOL    HW217517   2.542   1.498  10.957  0.0715 -2.1217 -0.5657
 1961SOL     OW17518   0.124   3.578   2.407  0.1230  0.3777  0.3680
 1961SOL    HW117519   0.215   3.551   2.408 -0.2841 -1.0743 -1.9506
 1961SOL    HW217520   0.085   3.499   2.370 -1.0063  0.6402  0.9962
 1962SOL     OW17521   3.705   2.808   6.039  0.1577 -0.5372  0.2599
 1962SOL    HW117522   3.750   2.891   6.053  0.4320 -0.5659 -0.4414
 1962SOL    HW217523   3.619   2.840   6.014  1.0682  0.8706 -1.0595
 1963SOL     OW17524   1.142   1.602   4.002 -0.6227 -0.3239  0.3493
 1963SOL    HW117525   1.098   1.649   3.931  0.2477  0.2495  0.1818
 1963SOL    HW217526   1.145   1.512   3.968 -2.6696  0.6109 -2.2351
 1964SOL     OW17527   0.200   1.396  12.756 -0.4721  0.2150 -0.2177
 1964SOL    HW117528   0.243   1.457  12.816 -0.0091 -0.4122  0.0925
 1964SOL    HW217529   0.271   1.374  12.695 -0.2182  3.4503 -1.0512
 1965SOL     OW17530   3.750   2.835  17.187 -0.6315 -0.0113  0.3216
 1965SOL    HW117531   3.694   2.908  17.214  0.5275  0.1624  2.2575
 1965SOL    HW217532   3.829   2.867  17.230 -1.0962  0.6161  0.7216
 1966SOL     OW17533   0.018   3.761  12.994  0.0569 -0.5022  0.1125
 1966SOL    HW117534   4.701   3.686  12.967  3.1715 -2.3010 -1.0627
 1966SOL    HW217535   0.031   3.745  13.088  1.2746 -0.1894 -0.0040
 1967SOL     OW17536   4.008   2.340   6.013 -0.1051 -0.1951  0.3365
 1967SOL    HW117537   3.990   2.268   6.073  0.2220 -0.8415 -0.3411
 1967SOL    HW217538   3.935   2.402   6.012 -1.1191 -1.3596  1.8096
 1968SOL     OW17539   2.405   2.777  15.030 -0.0425 -0.1318  0.2476
 1968SOL    HW117540   2.319   2.745  15.058  0.2937 -1.5702 -0.3364
 1968SOL    HW217541   2.457   2.707  15.072  1.2475  0.3132 -0.6150
 1969SOL     OW17542   0.308   0.498   7.850 -0.4078 -0.4668 -0.2597
 1969SOL    HW117543   0.339   0.433   7.788  3.2986 -0.0230  1.1359
 1969SOL    HW217544   0.218   0.475   7.873 -1.2594  1.9462 -1.1004
 1970SOL     OW17545   1.610   3.857   2.396 -0.3469 -0.4433 -0.2959
 1970SOL    HW117546   1.545   3.927   2.402  0.9809  0.6466  1.5112
 1970SOL    HW217547   1.648   3.857   2.484  1.1336 -2.9139 -0.9510
 1971SOL     OW17548   3.462   2.667   1.478  0.4825  0.0286  0.4709
 1971SOL    HW117549   3.518   2.703   1.546 -1.3179  0.9088  1.5017
 1971SOL    HW217550   3.525   2.669   1.406  0.9145 -0.0268  0.8502
 1972SOL     OW17551   3.327   4.559   4.459 -0.1073 -0.2650 -0.0592
 1972SOL    HW117552   3.303   4.468   4.478  0.7607 -0.6765 -0.9319
 1972SOL    HW217553   3.344   4.559   4.365  2.0797 -0.9617  0.3212
 1973SOL     OW17554   4.260   2.423   5.918  0.4835 -0.9135 -0.2052
 1973SOL    HW117555   4.188   2.361   5.919 -0.5378  0.3285  2.6306
 1973SOL    HW217556   4.250   2.449   6.010 -0.1251  0.1108 -0.5608
 1974SOL     OW17557   3.908   2.005   2.993 -0.1796 -0.5778 -0.1127
 1974SOL    HW117558   3.877   2.052   3.071 -0.3677  0.7309 -0.9697
 1974SOL    HW217559   3.828   2.021   2.942  0.1075  0.2488 -0.2998
 1975SOL     OW17560   3.681   1.168   8.905  0.3702 -0.0142 -0.2120
 1975SOL    HW117561   3.609   1.196   8.961 -0.4607 -0.4929 -1.0320
 1975SOL    HW217562   3.702   1.080   8.937  0.7828 -0.6682 -2.2674
 1976SOL     OW17563   0.479   4.710   8.221 -0.5835  0.0988  0.0534
 1976SOL    HW117564   0.521   0.060   8.215 -1.7228  0.9055  3.9361
 1976SOL    HW217565   0.384   4.718   8.214 -0.6457 -1.3058 -0.7562
 1977SOL     OW17566   2.129   4.356   5.114  0.4758  0.0601 -0.1769
 1977SOL    HW117567   2.060   4.392   5.058  1.1526 -0.1393 -1.1288
 1977SOL    HW217568   2.178   4.310   5.046  0.6169 -1.0136  0.6463
 1978SOL     OW17569   0.880   1.348  15.122 -0.5135  0.4727  0.1182
 1978SOL    HW117570   0.925   1.382  15.045 -0.0299 -0.6921 -0.1108
 1978SOL    HW217571   0.792   1.386  15.120 -1.2035 -1.0575  1.5960
 1979SOL     OW17572   4.026   0.784   8.081  0.1038  0.4242 -0.1960
 1979SOL    HW117573   3.933   0.764   8.088  0.2673 -0.1578  0.2030
 1979SOL    HW217574   4.025   0.880   8.070  0.2621  0.5299  0.7890
 1980SOL     OW17575   2.105   2.870   9.437  0.2992 -0.4715  0.0206
 1980SOL    HW117576   2.101   2.963   9.414  1.0474 -0.3042  0.5670
 1980SOL    HW217577   2.079   2.831   9.354  0.7492 -0.9636  0.1145
 1981SOL     OW17578   3.592   2.003   9.778 -0.3662 -0.6235  0.0003
 1981SOL    HW117579   3.528   1.933   9.763 -0.2408 -0.3803 -1.7320
 1981SOL    HW217580   3.542   2.079   9.748  1.0330  0.0169 -0.7251
 1982SOL     OW17581   2.620   3.771   4.445  0.1967 -0.3328 -0.1355
 1982SOL    HW117582   2.589   3.811   4.526  2.4309 -0.6345  0.8498
 1982SOL    HW217583   2.714   3.766   4.465  0.3856  3.8386  0.1111
 1983SOL     OW17584   1.953   0.409  16.359  0.1123  0.1916  0.3446
 1983SOL    HW117585   1.937   0.388  16.451  1.5601 -1.8360  0.1323
 1983SOL    HW217586   1.909   0.493  16.348  0.0682  0.2393  0.9137
 1984SOL     OW17587   0.438   2.547   7.573 -0.1841 -0.1016 -0.5673
 1984SOL    HW117588   0.350   2.531   7.540 -0.0791 -0.7160 -0.5603
 1984SOL    HW217589   0.468   2.622   7.522 -1.4552  1.9614  1.6940
 1985SOL     OW17590   3.742   2.966  13.660  0.1693 -0.1357  0.7098
 1985SOL    HW117591   3.745   2.881  13.704  0.2156  0.6153  2.1621
 1985SOL    HW217592   3.706   2.932  13.578 -2.2041  0.1553  1.6178
 1986SOL     OW17593   1.660   3.177   5.929 -0.1090 -0.4688 -0.1244
 1986SOL    HW117594   1.752   3.191   5.950 -0.7556  1.5395  1.4072
 1986SOL    HW217595   1.673   3.159   5.836  1.0421  0.8672 -0.2137
 1987SOL     OW17596   3.702   3.473   4.681  0.3256 -0.1681 -0.1908
 1987SOL    HW117597   3.784   3.428   4.663  0.0919 -0.5936 -0.2044
 1987SOL    HW217598   3.715   3.488   4.775  3.8095 -0.3490 -0.6566
 1988SOL     OW17599   4.090   0.244   8.021  0.4898  0.1290 -0.3591
 1988SOL    HW117600   4.032   0.317   8.001 -1.4373 -1.1766  0.4675
 1988SOL    HW217601   4.112   0.267   8.111 -0.9384  0.5587 -0.1332
 1989SOL     OW17602   1.011   4.167   3.434 -0.0141  0.0653  0.0201
 1989SOL    HW117603   1.004   4.176   3.339 -1.2181  2.0309  0.2961
 1989SOL    HW217604   0.928   4.123   3.454 -0.2127  0.4803  0.1076
 1990SOL     OW17605   0.515   2.753  10.798 -0.6555 -0.0199 -0.0955
 1990SOL    HW117606   0.534   2.663  10.824 -1.0668 -0.2786 -0.6809
 1990SOL    HW217607   0.577   2.808  10.846  0.2873  0.6284 -2.0529
 1991SOL     OW17608   2.277   4.697   6.781 -0.3994  0.7906 -0.5637
 1991SOL    HW117609   2.288   4.693   6.686  1.4686 -0.1812 -0.3140
 1991SOL    HW217610   2.254   0.053   6.791 -0.6832  0.7015 -0.3843
 1992SOL     OW17611   1.620   1.989   6.772  0.3762  0.3644 -1.0592
 1992SOL    HW117612   1.646   1.934   6.845 -1.0571 -0.3910 -1.1222
 1992SOL    HW217613   1.530   2.004   6.802  0.8266  0.5263  0.1950
 1993SOL     OW17614   2.008   0.361   2.170  0.7537 -0.2781  0.0783
 1993SOL    HW117615   1.995   0.307   2.248 -2.3521  1.6621  0.8760
 1993SOL    HW217616   2.088   0.317   2.139 -0.0895  0.1447 -2.6876
 1994SOL     OW17617   2.716   1.237   1.186 -0.4717  0.4405  0.7964
 1994SOL    HW117618   2.798   1.258   1.231 -0.5181  0.0287  1.0744
 1994SOL    HW217619   2.664   1.197   1.255  0.8264 -0.0308  1.5107
 1995SOL     OW17620   1.997   0.752   7.826  0.1106 -0.2552  0.3736
 1995SOL    HW117621   1.919   0.807   7.831  0.3122  0.3441 -3.0614
 1995SOL    HW217622   2.008   0.757   7.731  0.1912  0.9971  0.4442
 1996SOL     OW17623   2.715   1.595   7.358 -0.2379 -0.5443  0.0722
 1996SOL    HW117624   2.791   1.544   7.386  0.3795 -0.4328 -1.3650
 1996SOL    HW217625   2.753   1.667   7.307  1.7426 -1.5350  0.1180
 1997SOL     OW17626   3.361   3.613   2.396  0.5498 -0.0147 -0.6518
 1997SOL    HW117627   3.401   3.643   2.314 -0.0290  3.6039  0.4174
 1997SOL    HW217628   3.434   3.616   2.458  0.2649 -1.1591 -0.2671
 1998SOL     OW17629   3.126   0.910   6.920  0.5492  0.2546  0.3641
 1998SOL    HW117630   3.046   0.883   6.963 -0.3007  0.5408 -1.0422
 1998SOL    HW217631   3.194   0.871   6.975  1.8726  3.0037  0.6805
 1999SOL     OW17632   4.614   2.689   9.285  0.8741  0.3469  0.4515
 1999SOL    HW117633   4.560   2.670   9.361  2.9156 -1.9473  1.3194
 1999SOL    HW217634   4.655   2.603   9.281 -1.2436 -0.5498 -1.9842
 2000SOL     OW17635   0.859   0.193   2.587  0.2693  0.3817  0.1040
 2000SOL    HW117636   0.830   0.127   2.523  2.2935 -1.7829  1.4257
 2000SOL    HW217637   0.776   0.211   2.633  0.4601 -0.3862  0.7409
 2001SOL     OW17638   1.328   0.161   5.079 -0.6346  0.2782 -0.5914
 2001SOL    HW117639   1.329   0.163   4.983 -0.9413 -0.1674 -0.6046
 2001SOL    HW217640   1.302   0.069   5.085 -0.2216  0.2157  0.2217
 2002SOL     OW17641   2.408   2.254  12.901  0.2703  0.4162  0.5715
 2002SOL    HW117642   2.395   2.213  12.987  2.0552  0.0788  0.6797
 2002SOL    HW217643   2.322   2.232  12.864 -0.2275  0.3019  1.7687
 2003SOL     OW17644   1.913   3.132   7.913  0.3259 -0.1214 -0.5555
 2003SOL    HW117645   1.883   3.191   7.844 -1.8149 -1.1801 -0.5357
 2003SOL    HW217646   1.836   3.075   7.917 -0.3563  0.7673 -0.8974
 2004SOL     OW17647   1.065   4.671  15.547  0.7581 -0.1187  0.6043
 2004SOL    HW117648   1.017   4.590  15.564  1.3242 -0.8653 -1.3386
 2004SOL    HW217649   1.030   4.706  15.465  0.3833 -1.8988 -0.0107
 2005SOL     OW17650   4.080   4.647   0.430 -0.2596  0.1941  0.5632
 2005SOL    HW117651   4.135   4.679   0.502  1.9064  2.0231 -1.9183
 2005SOL    HW217652   4.135   4.668   0.355 -2.2837  2.3356 -0.3174
 2006SOL     OW17653   4.099   3.507   4.994 -0.4111 -0.4245 -0.0188
 2006SOL    HW117654   4.028   3.447   4.973 -1.2368  1.0431 -1.3726
 2006SOL    HW217655   4.059   3.575   5.049 -0.3214  0.3183 -0.8687
 2007SOL     OW17656   0.142   1.818   5.413 -0.4554 -0.0156  0.2726
 2007SOL    HW117657   0.162   1.909   5.389  0.1615 -1.0914 -3.1826
 2007SOL    HW217658   0.110   1.786   5.328  3.1678 -1.5269 -0.5042
 2008SOL     OW17659   1.464   2.377   4.133  0.3888  0.2817  0.3516
 2008SOL    HW117660   1.388   2.349   4.185 -0.5772  0.5707 -0.9173
 2008SOL    HW217661   1.530   2.413   4.192 -0.8234 -1.5147  2.7898
 2009SOL     OW17662   0.706   2.186   8.489  0.1355 -0.2211 -0.4644
 2009SOL    HW117663   0.702   2.107   8.434 -1.7581 -2.5454  2.9698
 2009SOL    HW217664   0.628   2.239   8.473  0.6866  0.3531 -1.2548
 2010SOL     OW17665   1.407   0.143   8.091  0.0615  0.0469  0.2478
 2010SOL    HW117666   1.424   0.102   8.176  1.2575  0.4038  0.1870
 2010SOL    HW217667   1.330   0.194   8.115  0.1592  0.1887  0.2585
 2011SOL     OW17668   4.394   4.049   8.451  0.0510 -0.4158  0.2602
 2011SOL    HW117669   4.383   4.078   8.542  0.3478 -2.3022  0.8868
 2011SOL    HW217670   4.304   4.020   8.437  0.2662 -0.2252 -1.4492
 2012SOL     OW17671   4.076   4.548   5.777 -0.0760 -0.1802 -0.5168
 2012SOL    HW117672   4.073   4.642   5.757 -0.2469 -0.0674  0.0342
 2012SOL    HW217673   4.136   4.522   5.707  0.6117  0.5350 -0.1909
 2013SOL     OW17674   4.597   0.740  12.364  0.2198 -0.5861  0.4564
 2013SOL    HW117675   4.676   0.794  12.365  0.9012 -1.5720  0.0795
 2013SOL    HW217676   4.547   0.776  12.438 -1.1001 -0.8036 -0.3369
 2014SOL     OW17677   3.617   4.085   5.067 -0.2542  0.3798 -0.1204
 2014SOL    HW117678   3.547   4.106   5.005 -0.3410  1.4588  0.3510
 2014SOL    HW217679   3.658   4.171   5.062 -1.3493  1.0239  2.0368
 2015SOL     OW17680   1.702   4.505  16.649  0.1392  0.7060 -0.1973
 2015SOL    HW117681   1.797   4.501  16.661  0.1407 -1.5588 -0.9362
 2015SOL    HW217682   1.673   4.444  16.717 -0.7036  1.5883  0.2278
 2016SOL     OW17683   3.706   4.197   4.794  0.3805 -0.3937 -0.8430
 2016SOL    HW117684   3.789   4.153   4.774  1.2972  0.2555  1.5107
 2016SOL    HW217685   3.717   4.285   4.756 -1.2330 -0.8776 -2.4484
 2017SOL     OW17686   0.135   2.958   4.237 -0.6391 -0.3198  0.2609
 2017SOL    HW117687   0.048   2.958   4.277  0.1149  0.5928  1.9155
 2017SOL    HW217688   0.150   3.053   4.237 -1.5565 -0.1801 -1.1588
 2018SOL     OW17689   1.898   3.862  15.599 -0.5116  0.3977 -0.3926
 2018SOL    HW117690   1.908   3.956  15.584 -1.4635  1.0191  2.8801
 2018SOL    HW217691   1.887   3.831  15.509  0.2028  0.1264 -0.3876
 2019SOL     OW17692   0.128   4.164   8.836 -0.2341 -0.0672  0.1646
 2019SOL    HW117693   0.188   4.128   8.770  1.2123 -1.7217  2.3472
 2019SOL    HW217694   0.176   4.213   8.902  0.4382  0.7269 -0.9192
 2020SOL     OW17695   4.604   0.677   9.518 -0.7381 -0.3085 -0.5721
 2020SOL    HW117696   4.662   0.742   9.559 -1.3530 -1.0803  1.5034
 2020SOL    HW217697   4.535   0.739   9.494 -0.3566 -0.0139 -0.9173
 2021SOL     OW17698   3.935   2.738   6.435  0.3349 -0.7271  0.2415
 2021SOL    HW117699   3.933   2.774   6.523  0.6057 -1.8041  0.6871
 2021SOL    HW217700   3.870   2.668   6.439  1.3963 -1.6280  1.7722
 2022SOL     OW17701   3.989   3.734   6.580  0.2709  0.6196 -0.2816
 2022SOL    HW117702   3.994   3.829   6.579  0.9035  0.5872 -0.3234
 2022SOL    HW217703   4.047   3.710   6.507  2.2296  3.4044  0.3601
 2023SOL     OW17704   3.151   3.826   0.135 -0.3173  0.0841 -0.0184
 2023SOL    HW117705   3.150   3.815   0.040 -2.1115 -2.3909  0.3207
 2023SOL    HW217706   3.192   3.912   0.147  1.2404 -0.8160  1.1732
 2024SOL     OW17707   2.722   2.745   1.291 -0.3765 -0.4559 -0.2618
 2024SOL    HW117708   2.786   2.732   1.221  0.6268  1.4751  0.2925
 2024SOL    HW217709   2.641   2.722   1.245 -0.0212 -1.6538 -0.3088
 2025SOL     OW17710   2.785   1.919   2.973 -0.1661 -0.0666 -0.2486
 2025SOL    HW117711   2.793   1.854   3.044 -0.6707 -1.6261 -1.6213
 2025SOL    HW217712   2.719   1.878   2.917  0.3206 -1.4697  0.1995
 2026SOL     OW17713   0.116   2.456  17.077  0.0416 -0.2578  0.4879
 2026SOL    HW117714   0.026   2.451  17.107  0.0766  1.2754  0.8221
 2026SOL    HW217715   0.129   2.373  17.030 -2.3600 -1.0898  1.3232
 2027SOL     OW17716   3.310   4.420  16.153  0.2383  0.3943  0.5195
 2027SOL    HW117717   3.373   4.360  16.113 -0.9818  0.1966 -1.1001
 2027SOL    HW217718   3.226   4.387  16.121 -0.9975  2.5566  1.5323
 2028SOL     OW17719   0.542   2.322  12.696  0.2277 -0.2178 -0.4578
 2028SOL    HW117720   0.574   2.266  12.766  1.4103 -0.7923 -1.4632
 2028SOL    HW217721   0.446   2.322  12.704  0.2196  1.0233 -0.6165
 2029SOL     OW17722   2.728   0.850   6.614 -0.3054  0.3159  0.0149
 2029SOL    HW117723   2.774   0.900   6.547  0.5862  2.7065  2.4256
 2029SOL    HW217724   2.690   0.915   6.672  1.9577  1.6953 -0.0516
 2030SOL     OW17725   4.455   0.551   4.146 -0.0800 -0.3548  0.0467
 2030SOL    HW117726   4.464   0.615   4.075 -0.7067  0.0032  0.2907
 2030SOL    HW217727   4.499   0.595   4.219 -1.4349  1.9105 -0.5107
 2031SOL     OW17728   3.933   1.885   0.914 -0.5291  0.0931  0.7421
 2031SOL    HW117729   3.934   1.864   1.007 -2.6573 -2.5157  0.1716
 2031SOL    HW217730   4.020   1.853   0.891 -1.1800  0.1881 -1.8739
 2032SOL     OW17731   2.800   4.182   9.014 -0.3123  0.3994 -0.0595
 2032SOL    HW117732   2.740   4.151   9.083 -0.4755  1.7541  0.4103
 2032SOL    HW217733   2.878   4.187   9.069 -0.8479  2.9250  0.4552
 2033SOL     OW17734   0.054   1.208   7.904  0.3388  0.6852 -0.1979
 2033SOL    HW117735   0.008   1.289   7.923  0.2418  0.0946  2.1522
 2033SOL    HW217736   4.729   1.171   7.841  1.0896  0.5258 -0.8260
 2034SOL     OW17737   1.262   1.613  13.655 -0.0476  0.4483  0.0182
 2034SOL    HW117738   1.183   1.584  13.610  0.7085  0.2523 -1.1862
 2034SOL    HW217739   1.308   1.648  13.579  3.0251 -0.2769  1.5256
 2035SOL     OW17740   3.577   0.923   8.471  0.2748  0.8957 -0.0521
 2035SOL    HW117741   3.528   0.992   8.515 -0.1252 -0.4643  1.6043
 2035SOL    HW217742   3.600   0.854   8.533 -1.8887 -1.3268 -1.7414
 2036SOL     OW17743   2.817   1.700   6.407  0.1611  0.3141 -0.1122
 2036SOL    HW117744   2.800   1.793   6.424  0.8112  0.5645 -0.8192
 2036SOL    HW217745   2.911   1.714   6.421 -0.2437  1.2742  1.7836
 2037SOL     OW17746   0.781   3.819   4.165 -0.3718 -0.6131  0.1983
 2037SOL    HW117747   0.863   3.782   4.131  0.1463 -2.0542  3.0268
 2037SOL    HW217748   0.745   3.850   4.082  0.9249  2.7081  0.8693
 2038SOL     OW17749   1.643   4.271   4.249 -0.3827  0.4602 -0.0891
 2038SOL    HW117750   1.709   4.308   4.308 -0.2824 -0.3656  0.3104
 2038SOL    HW217751   1.684   4.203   4.195 -1.5159  0.3478 -0.7991
 2039SOL     OW17752   4.715   4.682   2.492  0.4533 -0.4077  0.1222
 2039SOL    HW117753   4.679   0.030   2.465  1.3270 -0.0882 -0.0587
 2039SOL    HW217754   4.639   4.633   2.522  0.9722 -0.2382  1.7667
 2040SOL     OW17755   1.432   0.027  16.425  0.3278  0.3966 -0.0518
 2040SOL    HW117756   1.523   0.052  16.435  1.2814 -2.7363 -0.7555
 2040SOL    HW217757   1.396   0.101  16.377  0.6624  0.5015 -0.1413
 2041SOL     OW17758   4.195   2.554   7.727 -0.0715  0.1078  0.0450
 2041SOL    HW117759   4.122   2.498   7.702 -0.4523 -0.0378  1.4783
 2041SOL    HW217760   4.153   2.632   7.765 -2.6332 -1.4019  0.2512
 2042SOL     OW17761   4.659   2.723   7.898 -0.1007  0.1746  0.2994
 2042SOL    HW117762   4.593   2.700   7.832  0.9862 -1.7052 -0.1335
 2042SOL    HW217763   4.609   2.793   7.941 -0.9672 -1.6461  2.2213
 2043SOL     OW17764   2.209   1.145   1.643 -0.6310  0.3108  0.1127
 2043SOL    HW117765   2.155   1.093   1.583  0.3846  0.9218 -1.3571
 2043SOL    HW217766   2.297   1.117   1.619 -1.8614 -2.7413 -0.8656
 2044SOL     OW17767   3.012   4.690   0.389  0.1687 -0.0912  0.6024
 2044SOL    HW117768   3.077   4.659   0.452  0.8328  0.1482  0.0287
 2044SOL    HW217769   2.933   4.647   0.423 -1.0669  1.7389  0.0109
 2045SOL     OW17770   4.215   0.710   6.716 -0.0715 -0.1612 -0.3132
 2045SOL    HW117771   4.258   0.703   6.801  1.3049 -1.0306 -1.0893
 2045SOL    HW217772   4.162   0.630   6.718 -1.5757  0.8176 -0.8519
 2046SOL     OW17773   2.786   0.317   4.676 -0.5120 -0.0008  0.1479
 2046SOL    HW117774   2.864   0.328   4.731  0.3692  3.3402 -1.7541
 2046SOL    HW217775   2.814   0.347   4.590 -2.4629 -0.0286 -0.5035
 2047SOL     OW17776   4.586   0.209   2.473  0.3465  0.1510 -0.8210
 2047SOL    HW117777   4.649   0.264   2.520 -1.1794  0.9972  0.2635
 2047SOL    HW217778   4.509   0.267   2.472 -0.3510 -0.7060  0.9974
 2048SOL     OW17779   0.662   3.184   5.528  0.1998  0.0047  0.2840
 2048SOL    HW117780   0.594   3.244   5.498 -0.3203 -0.9591 -0.4804
 2048SOL    HW217781   0.717   3.232   5.589 -1.0221  1.0659  0.5333
 2049SOL     OW17782   2.454   4.545   2.693  0.6234  0.4932 -0.3342
 2049SOL    HW117783   2.400   4.599   2.750 -0.7151  1.8150 -2.8976
 2049SOL    HW217784   2.459   4.594   2.612 -0.3011 -2.1611 -1.9857
 2050SOL     OW17785   1.077   0.057  16.839  0.4911  0.4184  0.1766
 2050SOL    HW117786   1.039   4.707  16.821  1.0872  0.0434  0.7100
 2050SOL    HW217787   1.134   0.075  16.764  0.3175 -3.7471 -0.9799
 2051SOL     OW17788   2.280   0.370   5.606 -0.1686  0.0381 -0.3195
 2051SOL    HW117789   2.375   0.360   5.604 -0.3917 -2.0984  0.6575
 2051SOL    HW217790   2.243   0.283   5.594 -2.1334  0.5702  1.8661
 2052SOL     OW17791   1.039   2.177  14.094 -0.1864  0.0281 -0.2451
 2052SOL    HW117792   1.007   2.087  14.107  2.1849 -0.5419  1.7218
 2052SOL    HW217793   1.130   2.169  14.066 -0.6571 -0.6728 -1.6142
 2053SOL     OW17794   3.096   4.150   5.423 -0.7925  0.0385  0.5122
 2053SOL    HW117795   3.172   4.205   5.439 -0.2007 -1.0202  1.3367
 2053SOL    HW217796   3.079   4.118   5.512 -0.0463 -2.1782 -0.1501
 2054SOL     OW17797   1.770   3.877  13.342  0.2547  0.0073  0.2221
 2054SOL    HW117798   1.714   3.947  13.376  0.9091  0.1985  0.9101
 2054SOL    HW217799   1.710   3.803  13.331  0.0771  0.4298 -1.5977
 2055SOL     OW17800   2.005   3.323   5.793 -0.3601 -0.4706 -0.2485
 2055SOL    HW117801   1.937   3.339   5.728  1.1159 -0.8801 -1.9069
 2055SOL    HW217802   2.087   3.359   5.757 -0.4475 -0.2797 -0.2549
 2056SOL     OW17803   1.410   1.596   5.996 -0.3593  0.1420  0.7156
 2056SOL    HW117804   1.462   1.676   6.001 -0.6311  0.1305  3.5475
 2056SOL    HW217805   1.468   1.538   5.946  0.1696  0.3335  1.1043
 2057SOL     OW17806   4.405   0.832   1.974  0.2723 -0.4679 -0.3607
 2057SOL    HW117807   4.368   0.832   2.062  2.3208  1.7417  0.5224
 2057SOL    HW217808   4.383   0.921   1.945 -2.5768 -0.3204  2.3477
 2058SOL     OW17809   4.696   1.609   4.315  0.3647  0.3145 -0.6761
 2058SOL    HW117810   0.008   1.629   4.235  2.3151 -0.1290  0.4122
 2058SOL    HW217811   4.698   1.514   4.310 -0.9852  0.2756 -0.3932
 2059SOL     OW17812   1.077   2.682   3.558 -0.2328 -0.0235  0.1011
 2059SOL    HW117813   1.086   2.695   3.463  0.5828  1.5543  0.3878
 2059SOL    HW217814   1.156   2.730   3.584 -0.4611  1.1271 -1.3136
 2060SOL     OW17815   3.868   3.886   0.880  0.0692 -0.0511  0.0544
 2060SOL    HW117816   3.904   3.905   0.793  0.6738 -2.7526 -0.2877
 2060SOL    HW217817   3.841   3.971   0.916 -0.7807 -1.0426  1.7636
 2061SOL     OW17818   3.642   2.862   5.529  0.0898  0.5115 -0.2812
 2061SOL    HW117819   3.729   2.829   5.551 -0.5658 -1.5813 -0.8337
 2061SOL    HW217820   3.664   2.955   5.517 -2.9179  1.4318  1.1766
 2062SOL     OW17821   2.965   4.340   4.566  0.0518  0.2532 -0.1314
 2062SOL    HW117822   2.870   4.333   4.577 -0.1870 -0.7203 -2.8683
 2062SOL    HW217823   2.971   4.419   4.512  0.1427  0.1860 -0.2183
 2063SOL     OW17824   0.035   0.494  15.538 -0.3512 -0.8730 -0.5135
 2063SOL    HW117825   0.087   0.544  15.601 -0.5008 -1.1108 -0.2039
 2063SOL    HW217826   0.096   0.450  15.479  0.0905 -0.2504 -0.5128
 2064SOL     OW17827   2.026   3.006   1.998  0.5384  0.3519 -0.5708
 2064SOL    HW117828   1.954   3.006   2.061  0.4010 -1.4564 -0.7225
 2064SOL    HW217829   2.099   3.051   2.040  1.3452 -0.2015 -1.3687
 2065SOL     OW17830   0.152   1.338   0.906 -0.0223 -0.2854  0.4302
 2065SOL    HW117831   0.132   1.277   0.977 -0.8774  0.3206  0.7015
 2065SOL    HW217832   0.205   1.401   0.954 -0.8886  0.0484  0.9383
 2066SOL     OW17833   2.572   3.991   8.484  0.1584 -0.5548 -0.2150
 2066SOL    HW117834   2.603   3.988   8.394 -0.8827 -0.4904 -0.5808
 2066SOL    HW217835   2.641   4.040   8.528  0.1300 -0.5031 -0.2274
 2067SOL     OW17836   1.083   1.784   1.891 -0.0069  0.6472 -0.3966
 2067SOL    HW117837   1.068   1.755   1.800  0.7884 -0.4085 -0.1899
 2067SOL    HW217838   1.159   1.731   1.915 -1.0948  0.3424  2.4292
 2068SOL     OW17839   3.103   2.204   2.379  0.1004  0.1503  0.4175
 2068SOL    HW117840   3.019   2.247   2.396  0.2710  0.3708  0.7091
 2068SOL    HW217841   3.124   2.187   2.471 -1.3997  3.7108  1.4411
 2069SOL     OW17842   0.971   0.258  16.284  0.1239  0.3103 -0.3481
 2069SOL    HW117843   1.023   0.284  16.208  0.2990  1.7054  0.2567
 2069SOL    HW217844   0.893   0.218  16.244 -0.7590  0.7715  0.9318
 2070SOL     OW17845   2.224   4.700   8.631  0.2410  1.0435 -0.7694
 2070SOL    HW117846   2.134   4.672   8.647  1.4969 -2.0314  0.8641
 2070SOL    HW217847   2.255   4.694   8.722 -0.3788  0.1755 -0.6142
 2071SOL     OW17848   3.260   3.538   4.353  0.2252  0.0778  0.2492
 2071SOL    HW117849   3.335   3.519   4.297 -1.4436 -0.6621 -1.7577
 2071SOL    HW217850   3.190   3.473   4.339  0.3919 -0.1270  0.3680
 2072SOL     OW17851   4.558   4.328   6.582  0.2700  0.0916 -0.0110
 2072SOL    HW117852   4.570   4.356   6.673  1.0727 -3.1729  0.8843
 2072SOL    HW217853   4.641   4.352   6.540  0.0521 -1.5155 -1.3840
 2073SOL     OW17854   1.457   1.971   1.026  0.6238 -0.6588  0.0565
 2073SOL    HW117855   1.418   2.058   1.024  0.3976 -0.7470  0.7511
 2073SOL    HW217856   1.543   2.001   1.057  1.0295  0.3038 -1.9799
 2074SOL     OW17857   4.565   4.301   2.012  0.0269 -0.4960 -0.0368
 2074SOL    HW117858   4.470   4.298   2.020  0.3132  1.0165  3.8409
 2074SOL    HW217859   4.565   4.376   1.953  3.9388 -0.0374  0.5820
 2075SOL     OW17860   0.215   0.154   2.565  0.7108 -0.1577 -0.2980
 2075SOL    HW117861   0.230   0.175   2.473 -2.8552  2.4133 -0.3329
 2075SOL    HW217862   0.161   0.231   2.585 -2.1595 -2.2280 -0.0889
 2076SOL     OW17863   0.008   1.409   2.913 -0.2707  0.1613 -0.4303
 2076SOL    HW117864   4.689   1.377   2.983  0.5502  0.4560  0.3617
 2076SOL    HW217865   0.027   1.501   2.931  0.4948 -0.0460 -0.1726
 2077SOL     OW17866   0.959   1.314   7.190 -0.3271  0.6530  0.4604
 2077SOL    HW117867   0.958   1.401   7.150 -3.3879  0.6582  0.5362
 2077SOL    HW217868   1.006   1.269   7.120 -1.8204 -0.2659  0.0561
 2078SOL     OW17869   1.166   2.144   3.629 -0.3850  0.0049  0.0951
 2078SOL    HW117870   1.224   2.164   3.702 -1.9641  0.6900  1.1454
 2078SOL    HW217871   1.155   2.226   3.581  0.6029  1.1857  1.8808
 2079SOL     OW17872   3.770   0.629  11.293  0.4895 -0.7544  0.1687
 2079SOL    HW117873   3.826   0.649  11.368 -1.4131  0.7037  1.1928
 2079SOL    HW217874   3.685   0.657  11.327  0.4170 -0.2341 -0.4493
 2080SOL     OW17875   3.758   0.856  13.202  0.3519  0.1354 -0.3401
 2080SOL    HW117876   3.790   0.831  13.289  0.8267  1.5358 -0.1041
 2080SOL    HW217877   3.780   0.949  13.208 -1.1648  0.3233  2.4179
 2081SOL     OW17878   3.484   3.286   7.372 -0.0108  0.0604  0.5842
 2081SOL    HW117879   3.430   3.249   7.302  2.0601 -0.9275 -0.5088
 2081SOL    HW217880   3.482   3.380   7.356 -0.6060 -0.1232 -0.4314
 2082SOL     OW17881   2.985   2.908   4.110  0.4373 -0.0700 -0.0268
 2082SOL    HW117882   3.043   2.865   4.173  1.3189  0.1379 -0.6856
 2082SOL    HW217883   3.049   2.951   4.053  0.0699 -0.4937 -0.7524
 2083SOL     OW17884   2.963   4.470   5.581  0.0295  0.3151 -0.0512
 2083SOL    HW117885   2.965   4.435   5.671 -0.8432  3.9873  1.3748
 2083SOL    HW217886   3.049   4.512   5.578  0.2544 -0.1064  0.4068
 2084SOL     OW17887   2.669   1.311   7.516 -0.5204 -0.1168  0.3957
 2084SOL    HW117888   2.638   1.301   7.426  0.6040 -0.1994  0.0259
 2084SOL    HW217889   2.711   1.226   7.528  1.9246  0.7288 -2.3572
 2085SOL     OW17890   3.382   3.607   2.820  0.1042  0.1175  0.3183
 2085SOL    HW117891   3.304   3.551   2.817  0.0365  0.3286 -1.7250
 2085SOL    HW217892   3.374   3.623   2.914 -1.8318 -2.8857  0.6897
 2086SOL     OW17893   3.043   3.936   2.135  0.0460  0.7825  0.5556
 2086SOL    HW117894   2.981   3.955   2.065  0.7108  2.3805  0.4091
 2086SOL    HW217895   2.998   3.855   2.159  0.8388  0.0189 -0.5534
 2087SOL     OW17896   2.740   2.767   4.242  1.1747  0.3415 -0.2346
 2087SOL    HW117897   2.788   2.848   4.222  3.3228 -0.6875  0.7359
 2087SOL    HW217898   2.809   2.703   4.258  0.7099 -0.1902 -0.3649
 2088SOL     OW17899   4.597   1.457   9.089 -0.1715  0.3265  0.1315
 2088SOL    HW117900   4.540   1.392   9.048  0.5745 -1.7227  2.3403
 2088SOL    HW217901   4.654   1.488   9.018  3.9434 -1.3860  2.6637
 2089SOL     OW17902   3.235   0.847   6.436 -0.2120 -0.2376  0.3058
 2089SOL    HW117903   3.254   0.940   6.453  2.3354 -0.7483  0.2742
 2089SOL    HW217904   3.261   0.853   6.345  0.9717  0.1183  0.6608
 2090SOL     OW17905   0.916   0.086   1.524  0.3471  0.5140 -0.2948
 2090SOL    HW117906   0.968   0.108   1.601 -1.1693  2.4046  0.1713
 2090SOL    HW217907   0.828   0.071   1.560 -0.3221 -0.2538 -2.2537
 2091SOL     OW17908   2.978   4.294  17.049 -0.0611 -0.7479  0.6269
 2091SOL    HW117909   2.948   4.265  16.963  0.4340 -2.6157  1.0726
 2091SOL    HW217910   2.895   4.316  17.091  0.2414  0.7938  0.4225
 2092SOL     OW17911   3.552   1.039   3.674 -0.0786 -0.0562  0.2927
 2092SOL    HW117912   3.506   1.120   3.695 -1.1948 -0.3752 -0.9146
 2092SOL    HW217913   3.567   1.059   3.582 -0.4779  0.5361  0.3532
 2093SOL     OW17914   0.359   0.853   3.821 -0.6203  0.2992 -0.3885
 2093SOL    HW117915   0.355   0.759   3.807 -0.3647  0.5784 -2.3946
 2093SOL    HW217916   0.317   0.858   3.907  1.9237  0.6149  0.8359
 2094SOL     OW17917   2.149   1.967   7.318 -0.3991  0.0087 -0.1340
 2094SOL    HW117918   2.217   2.016   7.272 -1.2556  0.3939 -0.9819
 2094SOL    HW217919   2.115   2.031   7.380 -1.2933 -2.1027  1.5597
 2095SOL     OW17920   1.317   4.337   7.863  0.2038 -0.0114  0.6231
 2095SOL    HW117921   1.264   4.332   7.784  1.4335  0.0262 -0.1949
 2095SOL    HW217922   1.361   4.420   7.849  2.2010 -1.2229 -0.3618
 2096SOL     OW17923   4.074   0.225  16.906  0.8047 -0.0465 -0.1733
 2096SOL    HW117924   4.064   0.190  16.817 -0.2736  2.8877 -1.1859
 2096SOL    HW217925   4.148   0.169  16.932  0.5891 -0.5913 -0.7102
 2097SOL     OW17926   1.670   4.445   3.315  0.1373 -0.2889 -0.1294
 2097SOL    HW117927   1.686   4.526   3.364  1.0849 -0.5581 -0.0061
 2097SOL    HW217928   1.605   4.401   3.370  0.6017  0.0243  0.6708
 2098SOL     OW17929   4.229   3.080   3.058  0.2076  0.7235  0.3121
 2098SOL    HW117930   4.149   3.036   3.029  0.2735  1.0040 -0.2875
 2098SOL    HW217931   4.250   3.124   2.975 -0.5303  1.2624  0.4154
 2099SOL     OW17932   1.518   1.071   4.133  0.0912  0.4033  0.1483
 2099SOL    HW117933   1.535   0.980   4.157 -0.1478  0.3549  0.1415
 2099SOL    HW217934   1.546   1.122   4.209 -0.0788  0.7036  0.0097
 2100SOL     OW17935   0.321   1.964   8.712 -0.2484  0.7038 -0.1471
 2100SOL    HW117936   0.366   1.948   8.629 -0.7716  1.1511 -0.5164
 2100SOL    HW217937   0.232   1.984   8.683 -0.3043  0.2648 -0.2794
 2101SOL     OW17938   3.230   4.449   6.297  0.4729  0.0977  0.2865
 2101SOL    HW117939   3.207   4.537   6.327  1.1098  0.6152 -0.7517
 2101SOL    HW217940   3.292   4.459   6.225 -0.5719 -2.0954 -0.9436
 2102SOL     OW17941   2.526   1.227   9.259  0.4868 -0.8732  0.1944
 2102SOL    HW117942   2.503   1.138   9.234  3.8066 -0.9609 -2.4588
 2102SOL    HW217943   2.456   1.238   9.324  1.2506  3.2576  0.3719
 2103SOL     OW17944   4.706   0.467   3.616  0.5042 -0.0981  0.6488
 2103SOL    HW117945   4.710   0.426   3.530  2.3776  1.9786 -0.2436
 2103SOL    HW217946   0.056   0.435   3.641  1.0934 -1.8412 -3.6068
 2104SOL     OW17947   1.842   4.066   7.880  0.5267  0.3948  0.4356
 2104SOL    HW117948   1.811   4.106   7.799 -0.4999  1.3925  1.3124
 2104SOL    HW217949   1.830   3.971   7.876  0.3203  0.4624 -0.4434
 2105SOL     OW17950   2.640   3.243   2.041  0.2093 -0.4017  0.0606
 2105SOL    HW117951   2.722   3.221   2.085 -0.6062 -0.9692  1.2930
 2105SOL    HW217952   2.607   3.155   2.025  0.2963 -0.3937 -0.1588
 2106SOL     OW17953   4.657   1.075   8.935  0.2637  0.3890  0.2451
 2106SOL    HW117954   4.607   1.079   8.854  0.4145  0.0757  0.1394
 2106SOL    HW217955   4.594   1.092   9.005  0.5390 -2.1377  1.0956
 2107SOL     OW17956   3.387   4.369   2.753 -0.3396 -0.4213 -0.1964
 2107SOL    HW117957   3.409   4.277   2.768  1.1617  0.0616  0.6512
 2107SOL    HW217958   3.379   4.412   2.838  1.4279 -0.4631 -0.0090
 2108SOL     OW17959   0.509   0.661  10.153  0.2996 -0.3040  0.3260
 2108SOL    HW117960   0.479   0.590  10.209  0.1155  0.6848  1.4957
 2108SOL    HW217961   0.431   0.687  10.104  0.3030 -1.1019 -0.0966
 2109SOL     OW17962   4.306   3.475   5.989 -0.2309  0.4631 -0.1795
 2109SOL    HW117963   4.359   3.403   6.023  0.6531  1.3600  0.3326
 2109SOL    HW217964   4.357   3.552   6.015  0.9022 -0.7248  1.1180
 2110SOL     OW17965   1.041   3.279   7.168  0.2264  0.7494 -0.4314
 2110SOL    HW117966   0.957   3.267   7.124  0.9340 -2.5069 -0.8292
 2110SOL    HW217967   1.034   3.220   7.243  1.7919 -0.2555 -1.1043
 2111SOL     OW17968   0.275   3.840  15.893 -0.1207 -0.0762 -0.4522
 2111SOL    HW117969   0.347   3.817  15.953  0.3086  1.0234 -0.5441
 2111SOL    HW217970   0.206   3.806  15.950  0.5880  0.7439  0.9196
 2112SOL     OW17971   2.372   3.700   3.769 -0.1489 -0.7857 -0.2618
 2112SOL    HW117972   2.342   3.790   3.766  3.4393  0.4593  0.6599
 2112SOL    HW217973   2.429   3.694   3.692 -1.1586  0.4924 -1.0887
 2113SOL     OW17974   3.980   2.247   4.870 -0.2566 -0.7419 -0.0931
 2113SOL    HW117975   3.911   2.207   4.922 -0.7264 -1.1569 -1.0566
 2113SOL    HW217976   3.995   2.331   4.914  1.3405 -0.6652 -0.7932
 2114SOL     OW17977   0.397   1.960   2.476 -0.1812  0.1929  0.4807
 2114SOL    HW117978   0.409   2.013   2.554  3.1763 -0.4704  0.4242
 2114SOL    HW217979   0.326   1.899   2.495  0.1329 -0.0754  0.7843
 2115SOL     OW17980   3.255   2.512   8.205  0.1974 -0.1935 -0.2515
 2115SOL    HW117981   3.176   2.459   8.196 -1.5469  2.3097  0.2233
 2115SOL    HW217982   3.239   2.575   8.275  1.9426  0.2924 -0.2905
 2116SOL     OW17983   1.905   0.030  13.264  0.1390  0.0024  0.5232
 2116SOL    HW117984   1.997   0.043  13.289  0.2399 -3.6847  1.9762
 2116SOL    HW217985   1.911   4.715  13.183  3.1369  0.0577  0.7023
 2117SOL     OW17986   2.495   4.175  12.317  1.2943 -0.1560  0.1510
 2117SOL    HW117987   2.485   4.099  12.259 -1.1392 -0.1732  0.6107
 2117SOL    HW217988   2.586   4.206  12.313  0.5824  1.7586 -1.6101
 2118SOL     OW17989   0.829   3.418   7.856  0.0696 -0.1413 -0.2096
 2118SOL    HW117990   0.752   3.395   7.909  0.1215  0.1041 -0.0274
 2118SOL    HW217991   0.800   3.481   7.791  0.9170 -0.4414 -0.8801
 2119SOL     OW17992   2.705   0.230   4.120  0.3013 -0.0098 -0.1182
 2119SOL    HW117993   2.745   0.203   4.037  0.9469  1.4416 -0.2719
 2119SOL    HW217994   2.619   0.188   4.121  0.3925 -0.2298 -1.0834
 2120SOL     OW17995   2.967   1.031   8.733  0.3141 -0.5209  0.5536
 2120SOL    HW117996   2.977   1.067   8.821  0.6907 -1.5693  0.9279
 2120SOL    HW217997   3.036   0.965   8.727 -0.4056 -1.2051 -0.1877
 2121SOL     OW17998   4.579   3.794   4.101  0.2510 -0.3135  0.4261
 2121SOL    HW117999   4.610   3.721   4.048  1.2720  1.2439 -1.0965
 2121SOL    HW218000   4.537   3.753   4.177  1.9979 -1.5008  0.7293
 2122SOL     OW18001   4.291   0.241   4.117 -0.0643 -0.2746 -0.4272
 2122SOL    HW118002   4.342   0.217   4.194  0.5448  0.1462 -0.6996
 2122SOL    HW218003   4.273   0.159   4.072  1.6692 -0.8796 -0.0164
 2123SOL     OW18004   0.916   0.317   3.214  0.5262  0.4959  0.1535
 2123SOL    HW118005   0.966   0.329   3.133 -0.7568  2.8369 -0.3150
 2123SOL    HW218006   0.875   0.403   3.229 -1.3885 -0.6500  1.4876
 2124SOL     OW18007   2.235   2.482   3.843  0.0405  0.6664  1.2408
 2124SOL    HW118008   2.185   2.407   3.809  0.4169 -0.2879  2.7813
 2124SOL    HW218009   2.208   2.550   3.781  0.4071 -0.9223 -0.6559
 2125SOL     OW18010   1.348   4.334  12.913 -0.7004  0.1935 -0.3064
 2125SOL    HW118011   1.265   4.378  12.925 -2.1876 -2.5901 -0.4434
 2125SOL    HW218012   1.342   4.318  12.819 -3.1682 -2.4157  0.2828
 2126SOL     OW18013   3.318   1.618   1.247  0.9145 -0.1557 -0.2143
 2126SOL    HW118014   3.264   1.666   1.310  0.2691 -1.2500  0.0599
 2126SOL    HW218015   3.301   1.666   1.166 -0.3179 -0.6703 -0.2628
 2127SOL     OW18016   2.183   3.300   1.891  0.1979  0.2957 -0.4000
 2127SOL    HW118017   2.202   3.264   1.805 -0.9735  2.2069 -1.4819
 2127SOL    HW218018   2.121   3.370   1.869 -1.2934 -0.3017  1.8824
 2128SOL     OW18019   0.805   4.366   9.711  0.2612 -0.6028 -0.0313
 2128SOL    HW118020   0.777   4.322   9.631 -0.4057 -2.1582  1.0830
 2128SOL    HW218021   0.847   4.439   9.665  0.6578  1.1433  3.0778
 2129SOL     OW18022   2.880   4.516   8.682 -0.3648 -0.7474  0.2437
 2129SOL    HW118023   2.955   4.458   8.667  0.3592  0.9915 -2.8081
 2129SOL    HW218024   2.816   4.456   8.721  0.0448 -0.5670  1.1748
 2130SOL     OW18025   1.580   1.484   3.559 -0.2774  0.2919 -0.4817
 2130SOL    HW118026   1.557   1.418   3.625 -1.1573 -1.4351 -2.5186
 2130SOL    HW218027   1.672   1.461   3.550 -0.2228 -0.1697  1.1235
 2131SOL     OW18028   4.263   4.250   8.135 -0.1195 -0.2386  0.0480
 2131SOL    HW118029   4.263   4.331   8.186 -0.0631  0.6986 -1.4411
 2131SOL    HW218030   4.219   4.193   8.198 -0.3590 -0.1321 -0.0194
 2132SOL     OW18031   3.094   2.983   2.475 -0.1699 -0.1616  0.1877
 2132SOL    HW118032   3.057   3.071   2.483 -0.3138 -0.1420 -0.7581
 2132SOL    HW218033   3.120   2.986   2.384  2.5035 -2.1274  0.8803
 2133SOL     OW18034   1.315   3.671   9.903 -0.1604 -0.3942  0.2018
 2133SOL    HW118035   1.231   3.629   9.926  0.0784 -0.8385  0.2625
 2133SOL    HW218036   1.298   3.756   9.943 -0.7612  0.5077 -1.9489
 2134SOL     OW18037   3.578   0.528   3.189  0.5544  0.1941  0.0343
 2134SOL    HW118038   3.564   0.622   3.197 -0.3403  0.0192  0.5696
 2134SOL    HW218039   3.642   0.512   3.259 -0.4850 -1.5140  0.6014
 2135SOL     OW18040   3.185   1.599   6.781 -0.8009 -0.4503  0.1661
 2135SOL    HW118041   3.195   1.636   6.868  0.8359 -2.4286  0.8176
 2135SOL    HW218042   3.183   1.674   6.722 -2.4215 -1.4460 -1.0505
 2136SOL     OW18043   1.339   4.703   8.831  0.1524 -0.1814 -0.2968
 2136SOL    HW118044   1.275   4.634   8.812  1.8215 -1.6518 -0.6339
 2136SOL    HW218045   1.406   4.655   8.879 -0.7889  0.9004  2.0911
 2137SOL     OW18046   3.480   2.474   3.971  0.2039  0.0115 -0.2731
 2137SOL    HW118047   3.574   2.485   3.985  0.4499 -0.9792 -1.1887
 2137SOL    HW218048   3.466   2.379   3.979  1.4319 -0.1450 -0.0256
 2138SOL     OW18049   1.182   1.710  10.939  0.3096  0.0333 -0.6687
 2138SOL    HW118050   1.132   1.738  11.015  0.5179  1.2189 -0.9660
 2138SOL    HW218051   1.181   1.616  10.955 -3.3773  0.4781  1.5515
 2139SOL     OW18052   0.491   4.437  14.580 -0.2621  0.0932  0.3007
 2139SOL    HW118053   0.470   4.523  14.614 -2.0258 -0.7275  1.2913
 2139SOL    HW218054   0.551   4.402  14.646 -0.7095 -1.3547 -0.0495
 2140SOL     OW18055   4.197   1.229  17.031 -0.3566 -0.7236 -0.0326
 2140SOL    HW118056   4.215   1.141  17.064  0.4990 -0.7378 -0.5413
 2140SOL    HW218057   4.248   1.276  17.097 -0.9180 -0.2451  0.0594
 2141SOL     OW18058   4.303   0.739   4.737 -0.0286 -0.5515  0.2761
 2141SOL    HW118059   4.332   0.698   4.655  1.4278  1.8209 -0.3731
 2141SOL    HW218060   4.236   0.681   4.774 -0.6310  0.0923  0.1917
 2142SOL     OW18061   2.087   3.215   1.282  0.7290  0.1089 -0.0311
 2142SOL    HW118062   2.031   3.277   1.235  1.3579  0.7347  0.0441
 2142SOL    HW218063   2.120   3.282   1.342  2.7292 -0.2040 -0.7773
 2143SOL     OW18064   2.860   1.581   1.509 -0.0249 -0.9914 -0.1355
 2143SOL    HW118065   2.932   1.517   1.509  1.4739  0.6946 -0.9083
 2143SOL    HW218066   2.808   1.557   1.586  0.5650  0.0017  0.5686
 2144SOL     OW18067   0.282   1.651   6.150 -0.3479 -0.4764 -0.2369
 2144SOL    HW118068   0.326   1.638   6.235 -1.7242 -1.0237  0.3971
 2144SOL    HW218069   0.321   1.574   6.108 -0.0018  1.1751 -2.9466
 2145SOL     OW18070   2.469   2.886  12.722  0.4357  0.9531  0.4469
 2145SOL    HW118071   2.409   2.895  12.797 -0.4073 -1.5470  0.0940
 2145SOL    HW218072   2.470   2.790  12.713 -2.2627  0.9440  0.2108
 2146SOL     OW18073   2.441   4.604   6.231 -0.1118 -0.3407  0.2439
 2146SOL    HW118074   2.419   4.573   6.143 -2.9593 -1.2003  1.2476
 2146SOL    HW218075   2.375   4.570   6.292  0.7429 -3.4591 -0.6007
 2147SOL     OW18076   1.312   1.473   0.483 -0.4936  0.7611 -0.1665
 2147SOL    HW118077   1.285   1.557   0.519 -1.9678  0.6125 -0.9286
 2147SOL    HW218078   1.285   1.479   0.391  0.4626 -0.7687 -0.5518
 2148SOL     OW18079   2.615   2.758  16.573 -0.0465  0.1620 -0.7769
 2148SOL    HW118080   2.592   2.846  16.542 -0.3595  0.9566  1.7882
 2148SOL    HW218081   2.711   2.754  16.574 -0.1449 -0.9349  3.0752
 2149SOL     OW18082   4.090   1.501   7.107  0.2019  0.2672  0.0180
 2149SOL    HW118083   4.077   1.444   7.031 -1.0685 -1.5182  1.5836
 2149SOL    HW218084   4.002   1.494   7.143  0.0547 -1.0568 -0.6000
 2150SOL     OW18085   1.454   0.505   5.355  0.3472 -0.2825  0.4057
 2150SOL    HW118086   1.420   0.419   5.332  0.2157  0.0409 -0.6298
 2150SOL    HW218087   1.513   0.522   5.282 -1.1316  0.3041 -0.6618
 2151SOL     OW18088   0.997   3.256   0.747 -0.4204 -0.3141 -0.1375
 2151SOL    HW118089   1.027   3.165   0.741  0.4486 -0.0410  0.1032
 2151SOL    HW218090   1.045   3.276   0.827 -0.6582 -3.2573  0.7400
 2152SOL     OW18091   1.874   3.920   3.534  0.2990 -0.1218  0.0360
 2152SOL    HW118092   1.783   3.911   3.563  0.4513  0.2535  0.6349
 2152SOL    HW218093   1.870   4.010   3.503  2.9705  0.4675  1.3848
 2153SOL     OW18094   3.739   1.527  11.598 -0.3185 -0.1544 -0.2228
 2153SOL    HW118095   3.787   1.606  11.574 -1.3390  0.5257  0.0160
 2153SOL    HW218096   3.810   1.470  11.628  0.0105 -0.4882 -1.6371
 2154SOL     OW18097   2.493   4.255   1.811  1.1584  0.0390 -0.0747
 2154SOL    HW118098   2.525   4.229   1.897 -0.2041 -1.9219 -0.1561
 2154SOL    HW218099   2.467   4.343   1.839  0.5460 -0.2079  0.1513
 2155SOL     OW18100   4.491   3.617   3.608  0.1868 -0.7472  0.3611
 2155SOL    HW118101   4.473   3.674   3.682  0.3575  1.0149 -0.9715
 2155SOL    HW218102   4.582   3.595   3.631  0.5297 -0.8684 -1.1234
 2156SOL     OW18103   2.495   0.442  13.595 -0.3352  0.1464 -0.6621
 2156SOL    HW118104   2.484   0.349  13.616  1.8018  0.2784  0.9832
 2156SOL    HW218105   2.471   0.443  13.502 -2.5374 -0.8303 -0.1237
 2157SOL     OW18106   4.390   0.416  17.576 -0.0010  0.5200 -0.7838
 2157SOL    HW118107   4.435   0.411  17.492  1.6684  1.4862  0.0533
 2157SOL    HW218108   4.298   0.395  17.562 -0.0264 -0.2187  0.4251
 2158SOL     OW18109   2.610   1.044   7.797 -0.1363 -0.0990 -0.6576
 2158SOL    HW118110   2.544   1.099   7.840  0.8931  2.9293 -2.9461
 2158SOL    HW218111   2.572   0.957   7.810  0.7150 -0.1885  1.1615
 2159SOL     OW18112   0.141   0.182   7.333  0.6052  0.3201 -0.1895
 2159SOL    HW118113   0.138   0.174   7.428  0.6202  1.3970 -0.0881
 2159SOL    HW218114   0.151   0.276   7.318 -1.1427  0.5806  0.1818
 2160SOL     OW18115   3.444   0.660   7.259  0.5964  0.3071  0.2170
 2160SOL    HW118116   3.418   0.604   7.332 -2.4417 -1.0200 -1.8589
 2160SOL    HW218117   3.503   0.598   7.216 -0.1132 -1.3214  1.6116
 2161SOL     OW18118   0.164   4.662  13.566 -0.5548  0.2512 -0.1514
 2161SOL    HW118119   0.251   4.678  13.603 -0.9954 -3.1464  2.4043
 2161SOL    HW218120   0.180   4.692  13.477 -1.8497  0.2769 -0.3805
 2162SOL     OW18121   3.221   1.915   4.416  0.2821 -0.2935  0.2854
 2162SOL    HW118122   3.166   1.838   4.407 -0.6963  0.7887 -2.8833
 2162SOL    HW218123   3.228   1.916   4.512 -1.1815 -0.8141  0.3946
 2163SOL     OW18124   3.217   1.656  13.803 -0.3220 -0.6595 -0.3725
 2163SOL    HW118125   3.283   1.630  13.868  2.3199  4.6365 -0.9806
 2163SOL    HW218126   3.229   1.750  13.812 -1.0673 -0.6583  0.6533
 2164SOL     OW18127   1.837   1.389   4.201  0.5819  0.4603  0.8447
 2164SOL    HW118128   1.874   1.461   4.150 -1.0982 -0.0181 -1.0706
 2164SOL    HW218129   1.853   1.403   4.294 -0.9191  0.4245  1.1149
 2165SOL     OW18130   0.637   1.649   9.749  0.2129  0.3826  0.2767
 2165SOL    HW118131   0.667   1.703   9.822 -0.3845  0.2756  0.5979
 2165SOL    HW218132   0.724   1.609   9.739  2.0990  4.3914  0.2820
 2166SOL     OW18133   2.425   3.928  15.543 -0.1275  0.0644  0.1651
 2166SOL    HW118134   2.500   3.907  15.486  0.0687 -0.8577  0.7553
 2166SOL    HW218135   2.415   3.851  15.599  1.4183  0.7192  1.3545
 2167SOL     OW18136   2.856   2.373   8.473 -0.0309 -0.0255 -0.1769
 2167SOL    HW118137   2.870   2.463   8.501  0.2336  0.0939 -0.6944
 2167SOL    HW218138   2.817   2.335   8.552  0.3592  0.5663  0.2999
 2168SOL     OW18139   0.504   1.777   2.881 -0.4371 -0.3968  0.4398
 2168SOL    HW118140   0.512   1.755   2.788 -0.0912 -1.5965  0.7505
 2168SOL    HW218141   0.595   1.762   2.905 -1.4999 -1.6211  3.6712
 2169SOL     OW18142   1.662   4.101   7.287  0.3031 -0.0195 -0.4404
 2169SOL    HW118143   1.659   4.099   7.191 -0.0600  2.0337 -0.4759
 2169SOL    HW218144   1.680   4.195   7.296 -0.5770  0.3422 -2.2993
 2170SOL     OW18145   1.088   2.214   5.929 -0.1763  0.4134 -0.1289
 2170SOL    HW118146   1.107   2.260   5.847  1.6850 -1.3677 -0.7097
 2170SOL    HW218147   1.102   2.286   5.990 -0.0793 -0.4570  0.8775
 2171SOL     OW18148   2.209   2.819  15.961  0.1548  0.4130 -0.3202
 2171SOL    HW118149   2.262   2.862  16.027  0.7218 -0.0517 -0.4737
 2171SOL    HW218150   2.285   2.790  15.910  1.7901 -1.1591  3.0617
 2172SOL     OW18151   0.040   3.936   6.030  0.4178  0.7409 -0.7393
 2172SOL    HW118152   0.044   3.981   6.114  0.2367  0.4524 -0.5748
 2172SOL    HW218153   4.718   4.000   5.989  0.5371  1.5009  0.2842
 2173SOL     OW18154   1.663   4.003   4.754 -0.0911  0.1281  0.1942
 2173SOL    HW118155   1.656   3.912   4.724 -2.5692  0.3762  0.0355
 2173SOL    HW218156   1.682   4.054   4.675  0.8281 -0.8703 -0.2370
 2174SOL     OW18157   2.981   3.157   5.963  0.2099 -0.4637 -0.1204
 2174SOL    HW118158   2.927   3.136   6.039  1.8053  0.7078  1.3439
 2174SOL    HW218159   2.914   3.163   5.895 -0.3470 -0.2432  0.4389
 2175SOL     OW18160   1.386   3.296   0.929 -0.9549 -0.3840  0.5765
 2175SOL    HW118161   1.292   3.277   0.938 -0.4995 -4.3999 -2.8682
 2175SOL    HW218162   1.430   3.223   0.972 -0.8592 -1.6155 -1.5837
 2176SOL     OW18163   2.619   3.283   4.963  0.2023 -0.4605  0.0201
 2176SOL    HW118164   2.612   3.218   5.033 -1.1460 -1.1054 -0.7186
 2176SOL    HW218165   2.667   3.347   5.015 -0.4298  0.8005 -0.9637
 2177SOL     OW18166   4.168   2.048   2.551  0.0217  0.1348  0.0414
 2177SOL    HW118167   4.250   2.094   2.567 -0.9908  1.8419  0.3009
 2177SOL    HW218168   4.159   2.053   2.456  0.5336  1.9608  0.0879
 2178SOL     OW18169   1.271   2.268   3.089  0.0914 -0.4740 -0.3411
 2178SOL    HW118170   1.301   2.298   3.175 -0.3842  0.1468 -0.3925
 2178SOL    HW218171   1.345   2.291   3.033 -0.0990  0.8421 -0.0550
 2179SOL     OW18172   0.403   3.346   3.934 -0.1859 -0.2135  0.0208
 2179SOL    HW118173   0.446   3.424   3.969  0.7235 -0.1041 -1.3638
 2179SOL    HW218174   0.409   3.282   4.005 -1.9394  0.2637  0.6019
 2180SOL     OW18175   2.455   3.658   7.178  0.0475 -0.0407 -0.0633
 2180SOL    HW118176   2.550   3.651   7.166  0.0246 -1.4726  0.6461
 2180SOL    HW218177   2.419   3.665   7.090 -0.4506  0.1532  0.1561
 2181SOL     OW18178   0.344   2.265   5.113 -0.8386 -0.8326  0.3605
 2181SOL    HW118179   0.386   2.198   5.167 -1.1039 -1.4866 -0.2511
 2181SOL    HW218180   0.381   2.337   5.165  0.9387 -0.5505 -1.3452
 2182SOL     OW18181   1.140   3.831   5.865 -0.1537  0.7066  0.3778
 2182SOL    HW118182   1.228   3.794   5.861 -1.0513 -1.3516 -0.1767
 2182SOL    HW218183   1.141   3.877   5.949  0.6670 -0.4790  1.0100
 2183SOL     OW18184   0.770   3.864   2.224 -0.1622  0.3088  0.2737
 2183SOL    HW118185   0.746   3.839   2.313  0.4918 -0.8786  0.1095
 2183SOL    HW218186   0.769   3.958   2.242 -1.3734  0.1400  1.1339
 2184SOL     OW18187   0.060   1.169  11.479 -0.4328  0.2589  0.5585
 2184SOL    HW118188   0.001   1.171  11.404  0.4408 -1.5172 -0.1738
 2184SOL    HW218189   0.057   1.259  11.512 -0.4545  1.8767 -3.7921
 2185SOL     OW18190   4.475   0.873   1.389 -0.3742 -0.5056  0.1943
 2185SOL    HW118191   4.422   0.853   1.312  2.0748 -0.2922 -1.5599
 2185SOL    HW218192   4.446   0.807   1.452 -0.4101 -1.6997 -1.0557
 2186SOL     OW18193   1.742   0.582  10.885 -0.0430 -0.5070 -0.3551
 2186SOL    HW118194   1.712   0.587  10.976 -0.5411 -1.1031 -0.4830
 2186SOL    HW218195   1.835   0.560  10.883 -0.0684 -0.6413 -0.0808
 2187SOL     OW18196   2.988   3.537   9.118 -0.3950 -0.1146 -0.4816
 2187SOL    HW118197   2.993   3.555   9.212  0.4386 -1.2214 -0.3193
 2187SOL    HW218198   2.895   3.516   9.105 -0.1835 -1.7195  0.5389
 2188SOL     OW18199   2.589   3.239   6.018  0.4550 -0.4243 -0.7530
 2188SOL    HW118200   2.572   3.178   6.089  1.2984 -0.3482 -0.4876
 2188SOL    HW218201   2.546   3.191   5.947 -1.9285  1.9869 -0.9481
 2189SOL     OW18202   0.561   1.786   4.203  0.4423 -0.4403  0.1907
 2189SOL    HW118203   0.562   1.691   4.212  2.5918 -0.2922  1.4062
 2189SOL    HW218204   0.613   1.790   4.123 -1.4264 -1.4696 -1.0876
 2190SOL     OW18205   1.256   2.070   8.997 -0.0575  0.0993  0.2144
 2190SOL    HW118206   1.301   2.050   8.915 -0.0950  1.3689 -0.1118
 2190SOL    HW218207   1.174   2.021   8.992 -0.1673  0.1041  1.7801
 2191SOL     OW18208   2.554   4.142   4.801 -0.0281 -0.1880 -0.3242
 2191SOL    HW118209   2.647   4.129   4.816  0.2565  0.6272 -1.3128
 2191SOL    HW218210   2.566   4.173   4.711 -1.5679 -1.2112 -0.8701
 2192SOL     OW18211   3.461   4.700   8.179 -0.6590 -0.3793  0.7842
 2192SOL    HW118212   3.511   4.654   8.247  0.3154 -0.7550 -0.1826
 2192SOL    HW218213   3.390   4.637   8.168  0.2277 -1.3235  0.4351
 2193SOL     OW18214   4.562   4.342   3.396 -0.4052  0.0011 -0.0973
 2193SOL    HW118215   4.571   4.339   3.300  1.8827 -3.3772  0.2317
 2193SOL    HW218216   4.601   4.259   3.423  0.8438 -0.1363 -2.3213
 2194SOL     OW18217   4.603   3.577  11.623 -0.2831  0.1642 -0.5248
 2194SOL    HW118218   4.520   3.532  11.637 -0.0702  0.0208  0.2851
 2194SOL    HW218219   4.659   3.501  11.607 -1.7145 -0.8750 -0.6280
 2195SOL     OW18220   1.463   1.314   9.293  0.1679 -0.0141  0.1675
 2195SOL    HW118221   1.494   1.335   9.382  3.4373  3.0596 -1.6941
 2195SOL    HW218222   1.404   1.386   9.269  0.2384 -0.0434 -0.0896
 2196SOL     OW18223   1.452   4.388   8.923 -0.5598  0.4110  0.0283
 2196SOL    HW118224   1.544   4.404   8.942 -0.1879 -1.0232 -0.6045
 2196SOL    HW218225   1.416   4.365   9.009  0.6361 -1.3712  0.0440
 2197SOL     OW18226   1.888   1.079   6.789 -0.8812  0.2465 -0.2111
 2197SOL    HW118227   1.974   1.072   6.749 -1.3093 -0.6041 -0.9802
 2197SOL    HW218228   1.893   1.160   6.840  0.6094 -0.8227  1.3369
 2198SOL     OW18229   2.355   2.136   7.187  0.2890 -0.1872 -0.3540
 2198SOL    HW118230   2.359   2.228   7.209  0.2884 -0.3744  0.4043
 2198SOL    HW218231   2.305   2.140   7.105 -2.1358  1.5189  1.1977
 2199SOL     OW18232   4.134   4.520   7.398 -0.3781  0.1014  0.0435
 2199SOL    HW118233   4.117   4.516   7.304  0.0461 -2.3597  0.0785
 2199SOL    HW218234   4.196   4.448   7.402 -0.4455  0.0473  0.1062
 2200SOL     OW18235   1.513   3.222  16.579  0.1287 -0.3107  0.1938
 2200SOL    HW118236   1.579   3.242  16.646 -0.1161  1.6567 -0.1674
 2200SOL    HW218237   1.562   3.213  16.497  2.0983 -0.1930  1.3541
 2201SOL     OW18238   0.278   3.207  16.405 -0.5383 -0.3265 -0.1628
 2201SOL    HW118239   0.301   3.115  16.394  0.4678 -0.1586  0.5050
 2201SOL    HW218240   0.356   3.250  16.440  1.6009 -2.2715 -2.4888
 2202SOL     OW18241   2.337   4.681   7.882 -0.0803  0.1173  0.2297
 2202SOL    HW118242   2.422   4.706   7.845 -1.0724  2.4005 -0.5253
 2202SOL    HW218243   2.375   4.635   7.957  1.8671 -0.2018 -0.9567
 2203SOL     OW18244   1.928   2.441   2.201 -0.1939 -0.0328  0.3149
 2203SOL    HW118245   1.850   2.423   2.149  0.0992 -0.9837  0.1913
 2203SOL    HW218246   1.989   2.373   2.170  0.4256  1.0554 -0.8569
 2204SOL     OW18247   4.367   0.681   8.135  0.0207 -0.0804 -1.4470
 2204SOL    HW118248   4.390   0.756   8.081  3.0698 -0.0228 -0.0563
 2204SOL    HW218249   4.444   0.623   8.138  0.2001  0.1922 -0.7106
 2205SOL     OW18250   1.753   1.934   2.187 -0.1203  0.6164 -0.5668
 2205SOL    HW118251   1.754   1.839   2.172 -1.0962  0.6517 -0.8427
 2205SOL    HW218252   1.734   1.943   2.280  0.3896  0.2167 -0.4222
 2206SOL     OW18253   1.351   1.989  15.630  0.5726 -0.2618  0.5043
 2206SOL    HW118254   1.341   1.899  15.662 -0.0041 -0.6174 -0.6967
 2206SOL    HW218255   1.350   2.039  15.712 -3.4174  0.2603  0.1108
 2207SOL     OW18256   3.194   0.620   6.831 -0.2562  0.3139 -0.0216
 2207SOL    HW118257   3.270   0.678   6.830 -0.5966  0.7288 -2.5455
 2207SOL    HW218258   3.147   0.660   6.758  1.8022  0.9601 -0.9973
 2208SOL     OW18259   3.367   4.462   3.843  0.3472  0.0921 -0.1624
 2208SOL    HW118260   3.379   4.539   3.899  2.2163  0.6248 -1.3127
 2208SOL    HW218261   3.365   4.498   3.754  1.3543  0.5699  0.0027
 2209SOL     OW18262   0.213   1.153   1.736 -0.5767 -0.5200  0.0248
 2209SOL    HW118263   0.248   1.065   1.749 -2.3962 -1.4412 -1.2497
 2209SOL    HW218264   0.186   1.147   1.644  1.4959 -0.2440 -0.5787
 2210SOL     OW18265   1.753   1.837   6.987  0.3461 -0.6331 -0.6549
 2210SOL    HW118266   1.710   1.912   7.028 -2.5524 -0.5668 -3.8090
 2210SOL    HW218267   1.843   1.862   7.007 -1.2756  1.5907  3.7793
 2211SOL     OW18268   4.156   0.774   3.625  0.6928  0.0988 -0.4211
 2211SOL    HW118269   4.101   0.852   3.623 -0.8329 -0.9617  0.0122
 2211SOL    HW218270   4.247   0.803   3.637  0.7160 -0.4200  0.6934
 2212SOL     OW18271   0.412   2.583  16.879 -0.3310  0.5892 -0.3034
 2212SOL    HW118272   0.367   2.631  16.948  0.7672 -1.0221  1.5434
 2212SOL    HW218273   0.335   2.542  16.840  0.1268 -1.1817  0.6229
 2213SOL     OW18274   0.136   1.610   9.076 -0.0534 -0.7770  0.6960
 2213SOL    HW118275   0.141   1.698   9.114 -2.5031 -1.1442  1.8579
 2213SOL    HW218276   0.146   1.569   9.162 -0.6220  0.1901  1.2220
 2214SOL     OW18277   2.395   1.382   3.293 -0.1276  0.8798 -0.5770
 2214SOL    HW118278   2.346   1.309   3.255  0.2593 -0.2822  1.1647
 2214SOL    HW218279   2.460   1.393   3.223  1.1647  0.1979  0.5069
 2215SOL     OW18280   4.471   2.434   7.567 -0.3201  0.6929 -0.4418
 2215SOL    HW118281   4.390   2.463   7.524 -0.1351 -0.7405 -1.7545
 2215SOL    HW218282   4.503   2.517   7.602 -1.7988 -0.0225  2.6464
 2216SOL     OW18283   4.005   1.503   6.286 -0.5455  0.0277  0.0425
 2216SOL    HW118284   3.932   1.488   6.227 -0.6138 -1.6348  0.5626
 2216SOL    HW218285   4.045   1.585   6.256  2.0502 -1.3856 -0.3113
 2217SOL     OW18286   1.883   1.861   6.684 -0.6489  0.5641 -0.1798
 2217SOL    HW118287   1.818   1.815   6.631 -0.7747  1.6298 -0.9542
 2217SOL    HW218288   1.817   1.921   6.719 -0.2543 -0.7636  2.8128
 2218SOL     OW18289   2.326   4.003   7.177  0.1391  0.0939 -0.2187
 2218SOL    HW118290   2.338   4.048   7.094  3.9380 -0.1025  0.1963
 2218SOL    HW218291   2.252   3.942   7.175 -0.7552  1.2289 -1.1353
 2219SOL     OW18292   2.904   3.111   2.109 -0.3888 -0.2972 -0.7028
 2219SOL    HW118293   2.865   3.038   2.157  0.3973 -0.2410  0.0140
 2219SOL    HW218294   2.955   3.153   2.177 -0.7358  1.7060 -1.6819
 2220SOL     OW18295   4.585   0.471   4.694 -0.1252 -0.1784 -0.2044
 2220SOL    HW118296   4.671   0.434   4.674  0.0751  0.6223 -0.8162
 2220SOL    HW218297   4.617   0.561   4.694  0.4833 -0.3879  1.2223
 2221SOL     OW18298   1.107   4.134   0.676  0.4031  0.0587 -0.0259
 2221SOL    HW118299   1.031   4.178   0.715 -0.2196 -0.4268 -0.6929
 2221SOL    HW218300   1.064   4.052   0.652 -1.8464  1.2761 -0.1888
 2222SOL     OW18301   0.376   2.076   8.419 -0.3013 -0.2538 -0.4483
 2222SOL    HW118302   0.435   2.027   8.362 -0.4542  0.5475 -1.2923
 2222SOL    HW218303   0.394   2.161   8.378 -1.4564  0.2411  0.0688
 2223SOL     OW18304   0.965   3.016   3.300 -0.0528  0.3777  0.5373
 2223SOL    HW118305   1.037   3.041   3.358  0.0728 -3.2383  1.9421
 2223SOL    HW218306   0.963   3.094   3.244 -1.2641 -1.4185 -1.9214
 2224SOL     OW18307   3.381   1.024   4.501 -0.6140  0.0177  0.4216
 2224SOL    HW118308   3.309   1.061   4.449 -0.6222 -0.6977 -0.0732
 2224SOL    HW218309   3.389   1.092   4.569 -0.3234  0.2181  0.1882
 2225SOL     OW18310   3.646   1.667   3.325  0.0624 -0.3819 -0.3696
 2225SOL    HW118311   3.559   1.694   3.297 -0.3037 -0.6312  0.5134
 2225SOL    HW218312   3.683   1.619   3.252 -0.0140 -1.5703  0.3753
 2226SOL     OW18313   2.212   4.417   3.077  0.0394  0.3904  0.0371
 2226SOL    HW118314   2.200   4.360   3.153  1.3884  1.3149  0.9481
 2226SOL    HW218315   2.307   4.406   3.070  0.0024 -1.2482  1.9404
 2227SOL     OW18316   3.876   0.331   5.676  0.3105  0.7235  0.0770
 2227SOL    HW118317   3.854   0.351   5.585  0.7835 -0.2440 -0.2529
 2227SOL    HW218318   3.848   0.412   5.720 -1.7764 -0.1292  0.3408
 2228SOL     OW18319   2.589   1.792   2.466  0.2614 -0.0321  0.9155
 2228SOL    HW118320   2.580   1.882   2.433  0.4466 -0.0772  0.7446
 2228SOL    HW218321   2.531   1.756   2.398 -1.0340  2.5056  0.6723
 2229SOL     OW18322   2.547   1.874  17.413 -0.3160 -0.3459  0.6192
 2229SOL    HW118323   2.582   1.903  17.497 -1.7589  1.1730  0.7156
 2229SOL    HW218324   2.584   1.945  17.361 -0.2726  0.0595  1.2090
 2230SOL     OW18325   3.648   0.710   2.301 -0.1377 -0.1061  0.4805
 2230SOL    HW118326   3.663   0.629   2.253 -1.1706  0.1923 -0.3454
 2230SOL    HW218327   3.676   0.678   2.387 -1.8922 -2.7814  0.0605
 2231SOL     OW18328   0.784   4.207   6.344  0.7535  0.2465  0.1321
 2231SOL    HW118329   0.774   4.175   6.433  2.5884  1.0235  0.6201
 2231SOL    HW218330   0.826   4.129   6.309  0.4197 -0.5359  1.5237
 2232SOL     OW18331   4.075   3.314   5.908 -0.2851  0.6533 -0.0927
 2232SOL    HW118332   4.079   3.369   5.830 -0.6605 -1.7246 -1.8084
 2232SOL    HW218333   4.143   3.359   5.958 -0.3402 -0.8964  1.3830
 2233SOL     OW18334   3.730   4.289   2.169 -0.0592  0.4471  0.0375
 2233SOL    HW118335   3.636   4.273   2.178  0.1853 -2.3813 -2.6230
 2233SOL    HW218336   3.763   4.276   2.258 -1.7471 -1.9123  0.3118
 2234SOL     OW18337   2.254   1.945   3.195  0.0810  0.2344  0.0437
 2234SOL    HW118338   2.172   1.895   3.198 -1.6960  3.0664 -0.9451
 2234SOL    HW218339   2.246   2.011   3.264  0.8458  0.2497  0.1191
 2235SOL     OW18340   1.414   0.479   8.270  0.1650 -0.2360 -0.2993
 2235SOL    HW118341   1.320   0.496   8.259 -0.1386 -0.1901  2.2573
 2235SOL    HW218342   1.404   0.457   8.363  0.9277  0.0964 -0.1380
 2236SOL     OW18343   1.241   4.648   5.059  0.5300  0.3228  0.4492
 2236SOL    HW118344   1.221   4.642   4.965 -0.5737  0.0383  0.7094
 2236SOL    HW218345   1.215   4.559   5.081 -0.9539 -0.0107 -2.6194
 2237SOL     OW18346   2.585   0.480   1.471  0.0788 -0.1501 -0.0192
 2237SOL    HW118347   2.668   0.451   1.434  0.5959  1.5806 -0.2235
 2237SOL    HW218348   2.582   0.571   1.442  0.3963  0.0240  0.5010
 2238SOL     OW18349   3.257   2.982   7.467  0.4294  0.2881  0.2175
 2238SOL    HW118350   3.350   2.961   7.469  0.5333  0.8902  1.2956
 2238SOL    HW218351   3.214   2.899   7.488  0.3345  0.2402 -0.1707
 2239SOL     OW18352   3.958   1.175   4.870 -0.0500  0.6028  0.6160
 2239SOL    HW118353   3.895   1.121   4.918  1.4138 -0.0164  1.8221
 2239SOL    HW218354   3.919   1.256   4.904 -2.8250 -1.8317  3.1969
 2240SOL     OW18355   3.828   2.698   3.169  0.2325 -0.3062  0.3039
 2240SOL    HW118356   3.840   2.789   3.196 -0.2700 -0.4154  0.8999
 2240SOL    HW218357   3.733   2.687   3.165 -0.1133  2.5368  0.4035
 2241SOL     OW18358   1.957   4.489  16.724  0.3770 -0.1963 -0.1726
 2241SOL    HW118359   1.976   4.406  16.769 -3.0892 -1.9020 -1.8223
 2241SOL    HW218360   2.039   4.537  16.736 -0.8761  1.5623  1.3194
 2242SOL     OW18361   1.260   3.052   7.188 -0.1699 -0.8052 -0.8715
 2242SOL    HW118362   1.220   3.138   7.189  1.9412  0.1753 -0.3550
 2242SOL    HW218363   1.351   3.078   7.200 -0.2898 -0.8103  0.1036
 2243SOL     OW18364   4.373   4.499   9.966 -0.4351  0.7485  0.1218
 2243SOL    HW118365   4.410   4.436  10.029  2.3289  0.7458 -1.4874
 2243SOL    HW218366   4.339   4.432   9.907  0.1313 -0.5047  1.2025
 2244SOL     OW18367   2.499   0.335   3.568 -0.0119  0.3919  0.1921
 2244SOL    HW118368   2.540   0.351   3.483 -1.1659  1.4817 -0.1543
 2244SOL    HW218369   2.439   0.265   3.543  2.0825 -1.2037 -0.3929
 2245SOL     OW18370   2.705   0.577   6.299  0.6091  0.0483  0.3093
 2245SOL    HW118371   2.615   0.548   6.284  1.3625 -2.0970 -0.0647
 2245SOL    HW218372   2.712   0.662   6.257 -1.2354 -0.5571 -1.2116
 2246SOL     OW18373   3.337   4.577  13.268 -0.1326 -0.3593 -0.0659
 2246SOL    HW118374   3.396   4.511  13.304  0.2994  1.0871  1.8482
 2246SOL    HW218375   3.303   4.531  13.191  1.7552 -0.9732 -0.5604
 2247SOL     OW18376   4.021   1.020   8.400  0.4608  0.7753 -0.3392
 2247SOL    HW118377   4.100   0.988   8.356  0.0090 -1.5295  0.5261
 2247SOL    HW218378   4.057   1.099   8.439  0.3448  0.2298  0.8608
 2248SOL     OW18379   3.603   2.766   1.684  0.0547  0.3654  0.0673
 2248SOL    HW118380   3.531   2.764   1.748  0.1126  2.0497  0.1788
 2248SOL    HW218381   3.680   2.753   1.739 -0.0751  0.5550  0.2955
 2249SOL     OW18382   4.120   3.232   9.114 -0.1587 -0.0334  0.1357
 2249SOL    HW118383   4.202   3.196   9.081 -0.0916 -1.2849  1.6381
 2249SOL    HW218384   4.066   3.250   9.038 -0.7547  0.0700  0.5805
 2250SOL     OW18385   4.505   0.507   9.163 -0.4170 -0.3781 -0.0889
 2250SOL    HW118386   4.491   0.491   9.070 -0.9070 -1.7221  0.2142
 2250SOL    HW218387   4.481   0.430   9.216  1.2495 -1.3873 -0.8012
 2251SOL     OW18388   1.486   1.146   7.857  0.1599  0.1493  0.6943
 2251SOL    HW118389   1.473   1.060   7.818  0.6515  0.1152  0.6048
 2251SOL    HW218390   1.537   1.115   7.932 -1.0414 -2.2982  0.4926
 2252SOL     OW18391   3.272   3.833  12.876 -0.4981 -0.0648 -0.0666
 2252SOL    HW118392   3.309   3.915  12.845  0.1544  0.0853  1.1200
 2252SOL    HW218393   3.254   3.771  12.806  0.7335 -1.9195  1.2629
 2253SOL     OW18394   2.349   2.875   3.045 -0.6653  0.7847  0.2838
 2253SOL    HW118395   2.388   2.841   3.125 -0.5827  0.1288 -0.0304
 2253SOL    HW218396   2.383   2.813   2.980 -1.5860  1.6405 -1.0079
 2254SOL     OW18397   3.270   1.999   1.433  0.6850 -0.0817  0.1104
 2254SOL    HW118398   3.360   1.973   1.453 -1.0450 -3.4782  3.4061
 2254SOL    HW218399   3.293   2.049   1.354 -0.0120  0.3928  0.2084
 2255SOL     OW18400   2.476   0.598   8.982 -0.1232  0.7038  0.0010
 2255SOL    HW118401   2.484   0.543   9.060 -1.7154 -0.9058 -0.9588
 2255SOL    HW218402   2.549   0.656   9.003 -0.3031  0.5086  1.1272
 2256SOL     OW18403   3.409   1.710   3.146  0.1544  0.1771  0.3640
 2256SOL    HW118404   3.442   1.710   3.056  0.6389 -1.8241  0.5317
 2256SOL    HW218405   3.352   1.787   3.143  1.6351  1.1716 -2.4597
 2257SOL     OW18406   2.247   0.514   4.194 -0.1502  0.4050 -0.3949
 2257SOL    HW118407   2.273   0.464   4.272  0.6923 -0.3966 -1.1905
 2257SOL    HW218408   2.199   0.452   4.139 -1.6604  1.5695 -0.3718
 2258SOL     OW18409   4.260   2.372   3.927 -0.3159  0.3114  0.1404
 2258SOL    HW118410   4.190   2.342   3.869 -1.5500 -0.2093  1.8988
 2258SOL    HW218411   4.285   2.456   3.889 -0.9561  0.4113 -0.0689
 2259SOL     OW18412   2.083   4.528   7.167 -0.2889  0.2432  0.0088
 2259SOL    HW118413   2.174   4.518   7.195  0.3551  0.6665 -1.9335
 2259SOL    HW218414   2.037   4.468   7.226 -0.8218  0.4166 -0.2295
 2260SOL     OW18415   0.733   2.654   6.663  0.0413  0.1733 -0.5844
 2260SOL    HW118416   0.792   2.651   6.587  1.2158 -1.0386  0.3823
 2260SOL    HW218417   0.651   2.688   6.628 -0.4337 -1.9627 -1.4909
 2261SOL     OW18418   2.629   1.158   3.153  0.0494 -0.1339  0.2641
 2261SOL    HW118419   2.609   1.100   3.227 -0.0564  0.0398  0.3728
 2261SOL    HW218420   2.677   1.098   3.095  0.5722 -0.1424  0.7045
 2262SOL     OW18421   0.128   0.281   6.160 -0.3063  0.3072 -0.4126
 2262SOL    HW118422   0.202   0.314   6.108 -0.2525  1.0316  0.1253
 2262SOL    HW218423   0.171   0.211   6.210 -0.1067 -1.0064 -2.3863
 2263SOL     OW18424   3.887   1.324  12.622 -0.4056  0.3886  0.2635
 2263SOL    HW118425   3.821   1.388  12.596 -0.5397  0.5445  0.9808
 2263SOL    HW218426   3.892   1.255  12.556 -0.8826 -0.0828  0.7183
 2264SOL     OW18427   1.909   4.522  13.087 -0.2582  0.0038  0.4078
 2264SOL    HW118428   1.873   4.501  13.173  1.7775  0.2047  1.3176
 2264SOL    HW218429   1.829   4.560  13.052  0.5428  1.3193  0.0028
 2265SOL     OW18430   0.345   4.690   9.841  0.6957  0.3477 -0.5963
 2265SOL    HW118431   0.289   4.625   9.799  0.2233  1.3536 -1.5224
 2265SOL    HW218432   0.424   4.637   9.841  1.0463  0.8634 -0.0987
 2266SOL     OW18433   2.706   0.093   1.523  0.1223 -0.0142  0.0889
 2266SOL    HW118434   2.701   0.052   1.609  1.5421  0.3043  0.3274
 2266SOL    HW218435   2.723   0.025   1.458 -1.7087 -0.1011 -0.2973
 2267SOL     OW18436   3.882   3.983   4.160 -0.0598  0.6262  0.2613
 2267SOL    HW118437   3.909   3.901   4.119 -0.2859  0.4970  0.3722
 2267SOL    HW218438   3.789   3.984   4.140 -0.3783 -1.7583  1.7482
 2268SOL     OW18439   1.971   1.914   4.223 -0.1284  0.1518  0.2465
 2268SOL    HW118440   2.034   1.964   4.171 -1.1406  0.1275 -1.0182
 2268SOL    HW218441   1.900   1.978   4.228 -1.8684 -1.6642 -1.0255
 2269SOL     OW18442   2.564   1.549   1.150  0.3765  0.0243  0.2255
 2269SOL    HW118443   2.585   1.477   1.090 -0.1267 -0.6957  0.9076
 2269SOL    HW218444   2.484   1.585   1.112  1.0300 -0.3164 -1.5160
 2270SOL     OW18445   2.886   1.335   3.170  0.3754  0.0572 -0.2228
 2270SOL    HW118446   2.941   1.331   3.248  1.4223  0.2205 -0.9549
 2270SOL    HW218447   2.871   1.243   3.150  0.8957  0.0956 -0.7773
 2271SOL     OW18448   0.936   3.057   4.125 -0.0618  0.0292 -0.8114
 2271SOL    HW118449   0.992   3.134   4.115  3.1617 -2.0158  1.3279
 2271SOL    HW218450   0.984   2.992   4.176  2.4000  0.8564 -2.0272
 2272SOL     OW18451   1.664   3.883  12.350 -0.4124 -0.0055 -0.3330
 2272SOL    HW118452   1.712   3.895  12.268 -2.5976  0.6979 -1.5209
 2272SOL    HW218453   1.728   3.852  12.414 -1.7232 -1.3846  0.3025
 2273SOL     OW18454   2.084   1.551  10.261  0.2163  0.4518  0.5366
 2273SOL    HW118455   2.018   1.485  10.284 -1.1940  1.3703 -0.8420
 2273SOL    HW218456   2.134   1.500  10.197 -1.6559  0.4652 -0.9522
 2274SOL     OW18457   4.240   3.210   2.812  0.3313  0.1058  0.5097
 2274SOL    HW118458   4.286   3.136   2.772 -0.4558  0.8313 -1.7593
 2274SOL    HW218459   4.264   3.278   2.748  1.5633  0.4558  1.3517
 2275SOL     OW18460   0.456   1.752  12.834 -0.0351  0.5390 -0.2269
 2275SOL    HW118461   0.516   1.822  12.859 -0.2565  0.8549 -0.5633
 2275SOL    HW218462   0.496   1.676  12.876  1.6104  1.1442 -0.6795
 2276SOL     OW18463   0.233   2.739   4.022  0.5242 -0.5688  0.2261
 2276SOL    HW118464   0.194   2.676   4.083 -0.4965  1.5210  1.7716
 2276SOL    HW218465   0.208   2.818   4.071  0.5732  0.8717 -2.0444
 2277SOL     OW18466   0.847   2.695   0.760  0.2143 -0.0014 -0.8510
 2277SOL    HW118467   0.767   2.675   0.809  1.0985 -0.8268  0.2437
 2277SOL    HW218468   0.910   2.632   0.796 -1.4131 -0.3100  1.4892
 2278SOL     OW18469   2.706   0.686   8.406 -0.1164  1.1715  0.1930
 2278SOL    HW118470   2.716   0.596   8.438 -2.6040  1.1162  0.8263
 2278SOL    HW218471   2.768   0.733   8.462  2.0486 -1.3361 -0.0966
 2279SOL     OW18472   0.277   2.999   6.933  0.7293  0.0108  0.0509
 2279SOL    HW118473   0.204   2.997   6.995  0.0970 -2.0948 -0.7654
 2279SOL    HW218474   0.329   2.921   6.951  0.5444 -0.6934 -2.4442
 2280SOL     OW18475   4.260   2.172   5.717  0.2596 -0.0022 -0.1499
 2280SOL    HW118476   4.275   2.183   5.623 -0.4365  0.1317 -0.2440
 2280SOL    HW218477   4.344   2.135   5.743  0.2856  0.5539  0.5944
 2281SOL     OW18478   0.542   1.413   6.989  0.2408 -0.3274  0.0133
 2281SOL    HW118479   0.479   1.408   7.062 -1.2378  3.2513 -1.0295
 2281SOL    HW218480   0.487   1.397   6.912  1.4519 -0.9032 -0.7158
 2282SOL     OW18481   4.393   4.199   0.499  0.5425 -0.6445 -0.0983
 2282SOL    HW118482   4.344   4.165   0.424  0.8896  0.3566 -0.7716
 2282SOL    HW218483   4.336   4.272   0.525 -2.4851 -2.9141 -0.3216
 2283SOL     OW18484   1.340   2.109  12.721  0.7612 -0.7905  0.3668
 2283SOL    HW118485   1.414   2.112  12.782  1.5675  1.9291 -0.7456
 2283SOL    HW218486   1.265   2.136  12.774  1.1662 -0.7182  0.9024
 2284SOL     OW18487   2.479   1.280   7.903 -0.2731  0.3073 -0.4621
 2284SOL    HW118488   2.423   1.347   7.863 -0.8480 -0.2724 -0.6302
 2284SOL    HW218489   2.557   1.307   7.855  0.5695 -1.9768 -0.3688
 2285SOL     OW18490   2.790   2.922   9.677  0.4602 -0.2288  0.0823
 2285SOL    HW118491   2.877   2.920   9.716 -0.3060  0.9106  1.8594
 2285SOL    HW218492   2.727   2.894   9.744 -2.4111  4.4774 -0.6347
 2286SOL     OW18493   4.612   1.607   5.584 -0.1988  0.5148  0.3831
 2286SOL    HW118494   4.685   1.615   5.645  0.3915 -1.7324 -0.0368
 2286SOL    HW218495   4.590   1.696   5.555 -1.4178 -0.1396 -0.7093
 2287SOL     OW18496   3.297   1.913   1.781 -0.4674 -0.2019 -0.1401
 2287SOL    HW118497   3.338   1.835   1.743  1.2543  0.3997  0.4866
 2287SOL    HW218498   3.351   1.936   1.857 -0.2243 -2.5713  0.4092
 2288SOL     OW18499   2.711   4.607   6.595  0.0306  0.2307 -0.1700
 2288SOL    HW118500   2.800   4.637   6.610 -1.2476  3.9752  0.0279
 2288SOL    HW218501   2.684   4.682   6.542 -2.1779 -0.0791  0.5092
 2289SOL     OW18502   2.653   0.828   5.034  0.7029 -0.1484 -0.3569
 2289SOL    HW118503   2.561   0.805   5.024  0.6641 -0.4777  0.7510
 2289SOL    HW218504   2.702   0.746   5.042  2.6812  1.0437 -0.0583
 2290SOL     OW18505   0.842   1.338  13.272  0.1631 -0.4251 -0.0114
 2290SOL    HW118506   0.914   1.377  13.221  1.4388  1.6951  3.4205
 2290SOL    HW218507   0.839   1.246  13.245 -3.3205  0.2025 -1.7605
 2291SOL     OW18508   4.395   1.387   3.332  0.0674  0.1652 -0.0942
 2291SOL    HW118509   4.336   1.343   3.394  0.9795 -1.6265 -0.4977
 2291SOL    HW218510   4.388   1.478   3.360  0.6867 -0.0629  0.7864
 2292SOL     OW18511   1.715   4.308   8.550 -0.0273  0.4079  0.6865
 2292SOL    HW118512   1.735   4.234   8.493 -1.8437  0.9317 -0.6322
 2292SOL    HW218513   1.630   4.284   8.586  0.3893 -2.4459 -0.2340
 2293SOL     OW18514   0.750   2.425   3.320  0.0795 -0.1890 -0.6456
 2293SOL    HW118515   0.842   2.406   3.302  0.2404  0.1275 -0.1588
 2293SOL    HW218516   0.717   2.342   3.355  2.6399 -0.8113  0.2526
 2294SOL     OW18517   1.773   1.790   8.898  0.0136  0.0824 -0.8487
 2294SOL    HW118518   1.701   1.733   8.926  0.9343 -0.1027  1.1797
 2294SOL    HW218519   1.822   1.788   8.981 -0.5123  0.4696 -0.5345
 2295SOL     OW18520   3.747   3.333   4.251  0.0498 -0.7513  0.4063
 2295SOL    HW118521   3.777   3.391   4.181  2.8891 -2.2918  0.3459
 2295SOL    HW218522   3.825   3.316   4.304  0.5138 -1.8567 -0.6276
 2296SOL     OW18523   2.445   1.036   7.489 -0.4464  0.3054  0.3742
 2296SOL    HW118524   2.527   0.991   7.467 -1.5722 -1.7273  0.3205
 2296SOL    HW218525   2.455   1.114   7.435  0.4008  1.8871  2.8771
 2297SOL     OW18526   1.400   3.926   2.149 -0.0007 -0.2622 -0.1722
 2297SOL    HW118527   1.352   3.849   2.180  1.2174 -1.7604 -2.0117
 2297SOL    HW218528   1.482   3.918   2.199  0.4215  1.3850 -0.5957
 2298SOL     OW18529   2.088   0.324  10.246  0.0001 -0.7872  0.4057
 2298SOL    HW118530   2.106   0.396  10.185  0.4547 -1.2112  0.0488
 2298SOL    HW218531   2.151   0.261  10.213 -0.9755 -2.8083  2.4099
 2299SOL     OW18532   1.854   3.116   8.359  0.2821  0.0046  0.6427
 2299SOL    HW118533   1.918   3.065   8.309  0.7729 -0.2014  1.4761
 2299SOL    HW218534   1.846   3.057   8.434 -0.5206 -1.1059 -0.2972
 2300SOL     OW18535   1.129   2.252   0.469 -0.0697 -0.2200  0.1312
 2300SOL    HW118536   1.171   2.181   0.519 -1.6063 -1.7987 -0.8040
 2300SOL    HW218537   1.108   2.200   0.392  0.3178  1.1641 -0.8894
 2301SOL     OW18538   4.204   1.068   3.560  0.2851 -0.3588  0.2076
 2301SOL    HW118539   4.214   1.163   3.564  3.3408 -0.6123 -1.3284
 2301SOL    HW218540   4.110   1.057   3.570  0.0428  1.3722 -0.1036
 2302SOL     OW18541   0.317   1.556   9.570 -0.2996  0.0140 -0.2734
 2302SOL    HW118542   0.228   1.554   9.605 -0.6439  1.6377 -1.0287
 2302SOL    HW218543   0.330   1.471   9.528 -2.0894  0.9866 -2.8696
 2303SOL     OW18544   3.559   0.792  17.230  0.1049 -0.1129 -0.4925
 2303SOL    HW118545   3.566   0.742  17.149 -0.5382  1.9212 -1.7989
 2303SOL    HW218546   3.476   0.838  17.216 -0.4596 -1.1053 -0.3846
 2304SOL     OW18547   1.989   2.565   1.827 -0.0704  0.3201 -0.4645
 2304SOL    HW118548   1.944   2.589   1.746 -0.9052 -0.3239 -0.1885
 2304SOL    HW218549   1.915   2.580   1.886  0.3245  0.1279  0.0801
 2305SOL     OW18550   0.427   2.541  11.126  0.5900 -0.2320  0.4283
 2305SOL    HW118551   0.420   2.610  11.191  0.2720 -0.2141  0.3719
 2305SOL    HW218552   0.355   2.483  11.152 -0.4158  0.5572 -0.5968
 2306SOL     OW18553   0.862   3.474   6.530  0.2859 -0.2653 -0.1750
 2306SOL    HW118554   0.921   3.547   6.511  0.6239 -0.1201  1.4409
 2306SOL    HW218555   0.883   3.412   6.460  0.2229  2.2727 -2.4677
 2307SOL     OW18556   1.983   1.199   3.544 -0.1074  0.1338  0.3522
 2307SOL    HW118557   1.997   1.193   3.450 -1.1587  0.4516  0.1812
 2307SOL    HW218558   1.890   1.184   3.558  0.1376 -1.4978  0.2506
 2308SOL     OW18559   0.528   4.637   5.909 -0.0320  0.2431 -0.0414
 2308SOL    HW118560   0.559   4.574   5.844 -1.3005 -1.8521  1.3970
 2308SOL    HW218561   0.580   4.713   5.883  1.1616 -0.5518 -0.0043
 2309SOL     OW18562   2.104   1.291   1.183  0.3100 -0.0453  0.5770
 2309SOL    HW118563   2.114   1.386   1.183  0.5687 -0.0679 -0.1936
 2309SOL    HW218564   2.031   1.277   1.243  0.7553  1.9174  1.5690
 2310SOL     OW18565   1.568   2.751   3.106  0.0373  0.4225  0.2446
 2310SOL    HW118566   1.504   2.771   3.038  0.2230 -0.1417 -0.1045
 2310SOL    HW218567   1.650   2.782   3.067  1.0965 -1.7528  0.7197
 2311SOL     OW18568   2.116   0.037   7.771  0.4054  0.6259 -0.3436
 2311SOL    HW118569   2.064   4.694   7.760 -2.2156  2.3869 -0.6506
 2311SOL    HW218570   2.200   0.000   7.800  0.3582  0.0597 -0.9401
 2312SOL     OW18571   1.920   2.676   8.437 -0.8582 -0.0487 -0.1318
 2312SOL    HW118572   1.857   2.708   8.372  0.9123 -1.0457 -2.3282
 2312SOL    HW218573   1.867   2.674   8.516 -1.2285 -0.9987 -0.4108
 2313SOL     OW18574   2.470   3.601   8.520 -0.1893 -0.6561  0.1251
 2313SOL    HW118575   2.422   3.610   8.602  0.1115  0.5717  0.1669
 2313SOL    HW218576   2.545   3.659   8.529 -0.6955  0.0250 -0.0934
 2314SOL     OW18577   2.307   4.295   3.963 -0.2892  0.0497 -0.6016
 2314SOL    HW118578   2.335   4.349   3.889  0.3024 -0.8631 -1.0489
 2314SOL    HW218579   2.392   4.254   3.979 -1.0617 -1.3887 -0.1700
 2315SOL     OW18580   1.213   4.207   3.603 -0.2571 -0.0756 -0.4770
 2315SOL    HW118581   1.150   4.187   3.534 -1.4649 -1.3219  0.9832
 2315SOL    HW218582   1.203   4.301   3.616 -0.1608 -0.5002  2.6342
 2316SOL     OW18583   1.214   0.825   9.423  0.0443 -0.5743 -0.0521
 2316SOL    HW118584   1.233   0.831   9.517  0.0808  1.1285 -0.1645
 2316SOL    HW218585   1.296   0.854   9.383 -0.1888 -1.0183 -0.8425
 2317SOL     OW18586   4.664   1.122   3.292  0.1785  0.2515 -0.3761
 2317SOL    HW118587   0.001   1.148   3.347 -0.5822 -2.5500  1.9823
 2317SOL    HW218588   4.595   1.126   3.358  0.7927 -1.1293  0.3476
 2318SOL     OW18589   0.661   1.592   7.290  0.2209 -0.0502  0.1278
 2318SOL    HW118590   0.570   1.613   7.267  0.0945 -0.0937  0.5952
 2318SOL    HW218591   0.669   1.628   7.378 -0.5214 -1.2350  0.6739
 2319SOL     OW18592   4.670   0.132   7.079  0.6093 -0.0291  0.0097
 2319SOL    HW118593   0.012   0.145   7.133  0.1370 -2.2800  1.2729
 2319SOL    HW218594   4.639   0.049   7.116  2.9038 -1.0677 -0.4214
 2320SOL     OW18595   1.692   2.281   8.724 -0.3717  0.0981  0.3751
 2320SOL    HW118596   1.689   2.281   8.819 -0.5844 -0.3465  0.3681
 2320SOL    HW218597   1.633   2.209   8.703 -1.0474  0.7072  0.2000
 2321SOL     OW18598   0.805   1.741   6.075  0.4389  0.5962  0.0443
 2321SOL    HW118599   0.790   1.749   6.169 -0.1469  0.6899 -0.0592
 2321SOL    HW218600   0.761   1.816   6.035  2.8145  0.8996 -1.9824
 2322SOL     OW18601   2.331   1.090   8.649 -0.4037 -0.8672  0.1862
 2322SOL    HW118602   2.380   1.073   8.569 -0.1702  1.6833 -0.2120
 2322SOL    HW218603   2.243   1.060   8.625 -1.0829  1.0502  0.2707
 2323SOL     OW18604   2.718   3.666  16.364  0.2963  0.8104  0.0300
 2323SOL    HW118605   2.688   3.756  16.368 -0.0670  0.5425  3.6027
 2323SOL    HW218606   2.722   3.647  16.270  3.8927 -1.3631  0.6174
 2324SOL     OW18607   0.376   0.413  14.612 -0.4130  0.4392 -0.0707
 2324SOL    HW118608   0.354   0.421  14.520  0.4973 -1.4428 -0.4569
 2324SOL    HW218609   0.472   0.420  14.614 -0.3656 -0.2945  0.8807
 2325SOL     OW18610   0.660   3.563   5.785  0.3888 -0.0709  0.1527
 2325SOL    HW118611   0.566   3.563   5.806  0.3000 -1.4192 -0.2278
 2325SOL    HW218612   0.694   3.632   5.840 -0.6470 -0.0502  0.7792
 2326SOL     OW18613   3.590   4.203   9.389 -0.1221  0.1279  0.4253
 2326SOL    HW118614   3.555   4.244   9.468 -0.7873 -0.9828  0.7003
 2326SOL    HW218615   3.674   4.170   9.419  0.1021 -1.8728 -2.4052
 2327SOL     OW18616   0.880   3.214  12.291  0.4967 -0.0911  0.1400
 2327SOL    HW118617   0.839   3.129  12.280 -0.5560  0.5491 -0.8520
 2327SOL    HW218618   0.895   3.214  12.386 -0.9523 -1.1366  0.3771
 2328SOL     OW18619   4.156   2.223  12.093 -0.0663  0.0945 -0.2407
 2328SOL    HW118620   4.239   2.268  12.106 -0.2626  0.8655 -1.6192
 2328SOL    HW218621   4.178   2.140  12.050 -1.3894 -0.4051  0.0355
 2329SOL     OW18622   4.542   1.728   6.901 -0.1800  0.6287  0.6554
 2329SOL    HW118623   4.619   1.779   6.876 -1.5669  1.9495 -0.8701
 2329SOL    HW218624   4.579   1.642   6.879  0.5381  1.3902 -1.0279
 2330SOL     OW18625   2.334   4.085  12.936  0.4725 -0.3015  0.1404
 2330SOL    HW118626   2.273   4.013  12.954  0.8705 -0.3424  1.3500
 2330SOL    HW218627   2.415   4.066  12.983  0.2267  1.7639  1.4260
 2331SOL     OW18628   3.441   4.115  15.494  0.0208 -0.3427  0.0792
 2331SOL    HW118629   3.469   4.173  15.565 -1.4709 -2.0998  2.1019
 2331SOL    HW218630   3.490   4.041  15.529  1.6098  1.4708  1.7187
 2332SOL     OW18631   1.433   3.845   6.169  0.0642 -0.6182 -0.9312
 2332SOL    HW118632   1.520   3.870   6.140  0.8175 -2.4682 -0.2925
 2332SOL    HW218633   1.407   3.821   6.080 -2.3363 -0.8947 -0.1486
 2333SOL     OW18634   1.602   4.176   8.244 -0.1601  0.0146 -0.7071
 2333SOL    HW118635   1.584   4.147   8.155  1.1579 -0.8013 -0.7000
 2333SOL    HW218636   1.537   4.247   8.249  0.1121  0.1407  1.0516
 2334SOL     OW18637   4.099   1.958   4.299 -0.4729  0.4428  0.3972
 2334SOL    HW118638   4.104   1.915   4.385 -0.2674  1.3314  0.8360
 2334SOL    HW218639   4.145   2.041   4.313 -1.7528  1.4230 -1.3308
 2335SOL     OW18640   2.052   3.490  16.315  0.0708 -0.1889 -0.0413
 2335SOL    HW118641   2.044   3.458  16.225  1.3066 -1.4608  0.2879
 2335SOL    HW218642   1.976   3.453  16.361 -0.4109  1.2380  0.2986
 2336SOL     OW18643   0.349   1.306   7.945 -0.2300  0.1432 -0.6864
 2336SOL    HW118644   0.259   1.278   7.929  1.3738 -2.5950 -4.7498
 2336SOL    HW218645   0.390   1.220   7.936 -0.1939  0.1689 -0.7607
 2337SOL     OW18646   3.530   2.873   6.294 -0.5866 -0.5701 -0.0084
 2337SOL    HW118647   3.447   2.834   6.268 -1.4050 -0.1018  1.9308
 2337SOL    HW218648   3.578   2.875   6.211  1.7589 -4.2515  1.2705
 2338SOL     OW18649   2.417   3.078   8.995  0.1331 -0.1548 -0.0792
 2338SOL    HW118650   2.351   3.139   8.963 -0.3486  0.2179  1.6492
 2338SOL    HW218651   2.367   3.037   9.066  0.9135 -0.4409  0.3113
 2339SOL     OW18652   1.892   3.286   6.041  0.2858 -0.6888 -0.3749
 2339SOL    HW118653   1.932   3.229   6.107 -1.7257 -0.0419  1.4058
 2339SOL    HW218654   1.957   3.289   5.971  0.4816  0.5053 -0.1475
 2340SOL     OW18655   3.782   4.252   8.643  0.3186 -0.1872 -0.5614
 2340SOL    HW118656   3.824   4.290   8.566  0.6847  0.2715 -0.1350
 2340SOL    HW218657   3.780   4.335   8.690  0.7284 -2.0411  2.7224
 2341SOL     OW18658   1.988   4.159   3.756 -0.2557  0.1133  0.2036
 2341SOL    HW118659   1.897   4.163   3.785 -0.8102 -0.7098 -1.4367
 2341SOL    HW218660   1.991   4.221   3.683  1.3636 -1.4964 -1.1078
 2342SOL     OW18661   4.049   2.520   4.945  0.0250 -0.8462 -0.2874
 2342SOL    HW118662   3.990   2.556   5.011 -0.6494 -0.1536 -1.2685
 2342SOL    HW218663   4.129   2.572   4.956 -0.5284 -0.0107 -0.2290
 2343SOL     OW18664   1.770   3.734   1.429 -0.0993  0.0644  0.1155
 2343SOL    HW118665   1.727   3.775   1.354 -1.8682  1.9255  2.1454
 2343SOL    HW218666   1.779   3.808   1.489  1.6443 -1.1014  1.2874
 2344SOL     OW18667   3.678   1.513   3.916  0.3000  0.4271  0.1097
 2344SOL    HW118668   3.643   1.545   3.833 -0.7797  0.1427  0.4624
 2344SOL    HW218669   3.728   1.590   3.944 -1.6120  1.8415 -0.4035
 2345SOL     OW18670   2.419   0.144   4.813  0.2283  0.2287 -0.1021
 2345SOL    HW118671   2.415   0.165   4.720  2.2087  0.6426 -0.0828
 2345SOL    HW218672   2.499   0.093   4.807  1.2040  1.4626  2.2450
 2346SOL     OW18673   4.053   1.764   0.114 -0.0818  0.9549  0.5907
 2346SOL    HW118674   4.043   1.847   0.067  2.0238  0.7004 -0.3446
 2346SOL    HW218675   3.988   1.706   0.074 -0.3369  2.0251 -0.5694
 2347SOL     OW18676   3.254   3.933   6.416  0.3625  0.1234  0.0710
 2347SOL    HW118677   3.203   3.896   6.343 -0.7263  2.5197 -0.3757
 2347SOL    HW218678   3.267   4.025   6.394 -0.3509  0.3674  0.6813
 2348SOL     OW18679   2.099   3.433   5.485 -0.6068  0.2307  0.2485
 2348SOL    HW118680   2.034   3.392   5.428 -0.4825  2.3305 -1.3732
 2348SOL    HW218681   2.136   3.491   5.419 -0.2178 -0.8621 -0.4983
 2349SOL     OW18682   3.339   1.100   6.453  0.0957  0.4637  0.1769
 2349SOL    HW118683   3.334   1.176   6.511 -0.0661  1.3850 -1.0450
 2349SOL    HW218684   3.432   1.080   6.454 -0.3037 -1.3674  1.9793
 2350SOL     OW18685   2.399   4.316   7.068  0.2923 -0.2041 -0.1370
 2350SOL    HW118686   2.414   4.370   6.990  0.3494 -0.7821 -0.5223
 2350SOL    HW218687   2.370   4.381   7.132  1.0366 -0.4564  0.4505
 2351SOL     OW18688   3.093   1.858   1.006 -0.5568 -0.1715 -0.3452
 2351SOL    HW118689   3.054   1.906   0.933  0.5235 -0.5210 -1.1490
 2351SOL    HW218690   3.073   1.921   1.075  2.8818  0.2113  0.2765
 2352SOL     OW18691   4.155   1.793  10.507 -0.7607  0.2918  0.3107
 2352SOL    HW118692   4.110   1.829  10.583  1.4850  1.5372  1.0470
 2352SOL    HW218693   4.216   1.728  10.541  1.3492  2.3375  0.3929
 2353SOL     OW18694   0.940   1.916   5.785 -0.0362  0.3863  0.7641
 2353SOL    HW118695   0.847   1.912   5.763  0.2143 -0.2774 -0.1723
 2353SOL    HW218696   0.950   1.986   5.849 -1.6933 -0.4403  1.9207
 2354SOL     OW18697   2.658   3.774  13.514  0.1605 -0.1095 -0.2873
 2354SOL    HW118698   2.590   3.831  13.477 -0.7765 -0.2886  1.1550
 2354SOL    HW218699   2.734   3.811  13.470 -0.7422  1.5074 -0.5256
 2355SOL     OW18700   3.492   0.792   1.433 -0.5632  0.1266 -0.2915
 2355SOL    HW118701   3.579   0.829   1.417  0.6843 -2.7292 -0.0522
 2355SOL    HW218702   3.447   0.872   1.462 -0.8761 -0.4019  0.6507
 2356SOL     OW18703   0.477   1.640   7.631 -0.3147 -0.4038 -0.5802
 2356SOL    HW118704   0.404   1.644   7.693  0.4837  1.2795  0.2719
 2356SOL    HW218705   0.474   1.546   7.612 -0.6501 -0.8967  1.8712
 2357SOL     OW18706   0.332   0.509  12.354  0.0732  0.2612 -0.2738
 2357SOL    HW118707   0.271   0.484  12.423  1.6009 -1.0990  0.6104
 2357SOL    HW218708   0.409   0.533  12.407 -0.1491 -1.6462  0.8992
 2358SOL     OW18709   3.508   2.745   4.041 -0.6848  0.0507 -0.7646
 2358SOL    HW118710   3.472   2.656   4.034  1.4977 -0.8957 -0.0530
 2358SOL    HW218711   3.538   2.753   4.131  1.4690  0.4095 -1.5277
 2359SOL     OW18712   1.897   4.316   2.553  0.5451 -0.0994  0.3523
 2359SOL    HW118713   1.844   4.375   2.500  0.3333 -0.9267 -0.3611
 2359SOL    HW218714   1.837   4.242   2.556 -1.6697  1.6828  0.1152
 2360SOL     OW18715   1.231   0.723  10.681 -0.0064  0.5719 -0.1375
 2360SOL    HW118716   1.152   0.705  10.731  0.9976  0.7750  1.5001
 2360SOL    HW218717   1.265   0.634  10.681 -0.4753  0.3917 -1.4975
 2361SOL     OW18718   3.268   3.102   1.695  0.6132  0.2927  0.6354
 2361SOL    HW118719   3.354   3.123   1.732  1.4501 -0.1536 -1.0551
 2361SOL    HW218720   3.212   3.179   1.683 -0.0742 -0.7182 -2.4985
 2362SOL     OW18721   3.308   0.987  15.722  0.2521 -0.1001 -0.7649
 2362SOL    HW118722   3.361   0.991  15.801 -0.0542 -0.2321 -0.5517
 2362SOL    HW218723   3.310   0.893  15.707 -1.1460 -0.6117  2.2946
 2363SOL     OW18724   4.112   1.655   4.552  0.6074 -0.7587 -0.3900
 2363SOL    HW118725   4.160   1.610   4.482 -1.2538 -2.6166 -0.4913
 2363SOL    HW218726   4.019   1.648   4.531  0.0387  1.4888  1.3802
 2364SOL     OW18727   1.398   0.213   4.783 -0.2451 -0.0382 -0.0690
 2364SOL    HW118728   1.422   0.293   4.829 -1.2642  1.2472 -1.8031
 2364SOL    HW218729   1.478   0.172   4.751  0.0416  1.4178 -1.1532
 2365SOL     OW18730   0.019   0.025   0.407 -0.4049  0.0250  0.0273
 2365SOL    HW118731   0.080   4.692   0.431 -1.4406 -0.7437  0.4081
 2365SOL    HW218732   0.056   0.057   0.324  0.4400 -2.7744 -0.6520
 2366SOL     OW18733   1.092   3.662   4.897  0.2312 -0.0924 -0.5055
 2366SOL    HW118734   1.087   3.662   4.802  1.2785  1.1401 -0.5565
 2366SOL    HW218735   1.000   3.682   4.914  0.8612  2.1518  0.1819
 2367SOL     OW18736   1.162   4.512  14.371 -0.0626 -0.5771 -0.1994
 2367SOL    HW118737   1.177   4.439  14.430  3.3779  0.4750  0.2795
 2367SOL    HW218738   1.115   4.465  14.303 -0.9732  0.2105 -0.1075
 2368SOL     OW18739   1.655   3.980   0.673 -0.9697  0.1856  0.2298
 2368SOL    HW118740   1.580   4.036   0.656 -0.6123  0.5239 -0.2286
 2368SOL    HW218741   1.678   4.005   0.763 -2.6568  1.9674  0.1655
 2369SOL     OW18742   1.754   3.919  11.754 -0.0198 -0.1025  0.8060
 2369SOL    HW118743   1.703   3.948  11.679  1.2763  0.8652  0.3006
 2369SOL    HW218744   1.681   3.891  11.810  0.0496 -0.6282  0.6328
 2370SOL     OW18745   0.450   2.881   3.452 -0.0976 -0.3539 -0.6097
 2370SOL    HW118746   0.377   2.928   3.492 -0.8201 -1.7973 -0.2053
 2370SOL    HW218747   0.517   2.905   3.516  0.4077  1.7037 -1.9334
 2371SOL     OW18748   4.557   0.773  12.927  0.4264  0.0627  0.7324
 2371SOL    HW118749   4.545   0.847  12.987 -1.2513  1.7017 -1.5718
 2371SOL    HW218750   4.500   0.712  12.974 -1.5348 -1.2180 -3.3350
 2372SOL     OW18751   3.131   2.882  14.994  0.3704 -0.3073  0.0870
 2372SOL    HW118752   3.154   2.822  15.065 -0.7112 -0.1317  0.5849
 2372SOL    HW218753   3.040   2.902  15.013 -0.0646 -1.7315 -0.5390
 2373SOL     OW18754   4.700   0.325   1.040  0.0668  0.1398 -0.0580
 2373SOL    HW118755   0.052   0.352   1.016 -0.0113  1.4854  1.1559
 2373SOL    HW218756   4.697   0.355   1.131 -1.3298  2.4703 -0.8633
 2374SOL     OW18757   2.285   3.095   5.384  0.6922 -0.6464  0.2696
 2374SOL    HW118758   2.279   3.131   5.296  3.8430  0.1805  0.3896
 2374SOL    HW218759   2.193   3.073   5.403 -0.2084  2.6404 -0.3471
 2375SOL     OW18760   4.051   2.167  12.329  0.3854 -0.2148 -0.2154
 2375SOL    HW118761   4.083   2.170  12.239 -1.7669  1.9687 -0.8681
 2375SOL    HW218762   4.003   2.086  12.310  0.2549 -0.4253  0.9757
 2376SOL     OW18763   1.648   0.964   6.833  0.6112  0.0351  0.5635
 2376SOL    HW118764   1.732   1.000   6.805  0.6151 -1.1534 -0.9417
 2376SOL    HW218765   1.664   0.950   6.926 -1.9343 -0.7019  0.9062
 2377SOL     OW18766   4.365   0.341   4.604 -0.5064 -0.7645 -0.1080
 2377SOL    HW118767   4.389   0.257   4.645  1.1171  0.0499  0.6131
 2377SOL    HW218768   4.443   0.389   4.631 -0.9942  0.0376 -0.1587
 2378SOL     OW18769   0.491   3.426   5.055  0.3960 -0.0426  0.3031
 2378SOL    HW118770   0.584   3.404   5.047  0.3671  0.1312 -0.5094
 2378SOL    HW218771   0.506   3.514   5.091 -0.5780 -0.0310  0.6812
 2379SOL     OW18772   2.342   0.437   8.764  0.5537 -0.0480 -0.2052
 2379SOL    HW118773   2.349   0.502   8.834  0.2299  0.0700 -0.2784
 2379SOL    HW218774   2.254   0.463   8.735  0.3043 -0.4828  0.1632
 2380SOL     OW18775   3.094   0.429   4.272  0.4781  0.2677 -0.1167
 2380SOL    HW118776   3.025   0.440   4.206  0.4913 -1.1929 -0.3824
 2380SOL    HW218777   3.153   0.378   4.217 -1.5475 -1.4334 -0.7140
 2381SOL     OW18778   0.061   1.691   2.948 -0.7822 -0.2999 -0.7766
 2381SOL    HW118779   0.124   1.708   3.018 -0.5243  0.7107 -1.2493
 2381SOL    HW218780   4.723   1.735   2.991  1.1627  3.7973 -1.6129
 2382SOL     OW18781   4.106   3.194   5.251  0.1763  0.2966  0.2929
 2382SOL    HW118782   4.058   3.141   5.315  3.1529  1.4034  3.4750
 2382SOL    HW218783   4.119   3.128   5.184 -1.5164  0.7696 -0.5127
 2383SOL     OW18784   1.021   0.490   5.826  0.8593  0.1098  0.2173
 2383SOL    HW118785   0.997   0.493   5.734 -0.5958 -0.3908  0.5784
 2383SOL    HW218786   1.117   0.493   5.830  0.6787  3.4709  1.8965
 2384SOL     OW18787   3.017   2.773  14.650  0.1799 -0.1498  0.0956
 2384SOL    HW118788   3.042   2.718  14.725  1.3754  0.1897 -0.0587
 2384SOL    HW218789   3.102   2.785  14.607  0.6592  0.1682  1.1306
 2385SOL     OW18790   1.011   2.122   2.749  0.1056 -0.7265 -0.7655
 2385SOL    HW118791   1.009   2.043   2.695 -0.0744  0.1140 -1.9885
 2385SOL    HW218792   1.010   2.097   2.841  3.4664 -0.3644 -0.6441
 2386SOL     OW18793   0.130   0.614   9.751 -0.3765  0.1472  0.3509
 2386SOL    HW118794   0.076   0.684   9.716 -0.9649 -0.6034 -0.2485
 2386SOL    HW218795   0.208   0.614   9.696  0.4052 -0.2223  1.4455
 2387SOL     OW18796   2.570   4.253   2.807 -0.1065 -0.3189 -0.3380
 2387SOL    HW118797   2.610   4.221   2.726  2.0945  0.5062  0.4241
 2387SOL    HW218798   2.521   4.329   2.774  1.1961  0.0238 -1.4664
 2388SOL     OW18799   3.143   2.548   8.490 -0.3047  0.2486  0.5356
 2388SOL    HW118800   3.064   2.577   8.444  1.3737  1.4201 -1.6365
 2388SOL    HW218801   3.107   2.558   8.578 -0.7046 -0.6034  0.4681
 2389SOL     OW18802   4.426   1.527  16.910 -0.1432 -0.6311  0.1119
 2389SOL    HW118803   4.492   1.512  16.842 -0.6337  4.2925 -1.4228
 2389SOL    HW218804   4.386   1.608  16.877  0.2251 -1.1698 -1.6279
 2390SOL     OW18805   0.259   4.453   1.696 -0.1841 -0.3468 -0.1314
 2390SOL    HW118806   0.267   4.509   1.773 -1.8049 -0.7543  0.3355
 2390SOL    HW218807   0.331   4.394   1.721 -0.1661 -0.3847 -0.2724
 2391SOL     OW18808   4.573   0.109   2.167 -0.9070 -0.1421  0.0069
 2391SOL    HW118809   4.483   0.132   2.147 -0.4865  1.4427 -0.0762
 2391SOL    HW218810   4.564   0.025   2.214 -2.3359 -0.0883 -0.1723
 2392SOL     OW18811   0.851   1.540   8.318 -0.6703  0.7810  0.4849
 2392SOL    HW118812   0.864   1.632   8.296  3.6659 -0.1006 -0.6705
 2392SOL    HW218813   0.781   1.552   8.383 -2.4805 -1.0227 -1.1498
 2393SOL     OW18814   2.517   2.304   0.482 -0.9286 -0.0007 -0.1666
 2393SOL    HW118815   2.553   2.388   0.454  2.1278 -0.8675  1.1785
 2393SOL    HW218816   2.584   2.245   0.449  0.4737  1.5207 -0.0243
 2394SOL     OW18817   1.365   4.029   1.753 -0.7621 -0.6218  0.1318
 2394SOL    HW118818   1.303   3.984   1.810 -1.7762 -0.2398 -0.6644
 2394SOL    HW218819   1.449   3.988   1.774 -0.1646  2.2295  3.3830
 2395SOL     OW18820   2.409   0.717   4.051  0.2803 -0.5960  0.2103
 2395SOL    HW118821   2.367   0.800   4.072  1.5698 -0.2150  1.3083
 2395SOL    HW218822   2.341   0.650   4.053 -1.1594  0.9507  3.5006
 2396SOL     OW18823   3.490   4.423   8.653  0.4005 -0.5011  0.6315
 2396SOL    HW118824   3.491   4.332   8.626 -0.0957 -0.4285  0.3752
 2396SOL    HW218825   3.450   4.420   8.740 -1.4907  0.8275 -0.1916
 2397SOL     OW18826   2.500   4.289  11.179  0.3957  0.6204 -0.4153
 2397SOL    HW118827   2.495   4.265  11.086 -1.3057  2.3271 -0.7540
 2397SOL    HW218828   2.494   4.201  11.215 -0.0137  1.0081  0.4414
 2398SOL     OW18829   1.911   0.211   7.204  0.1337 -0.2783  0.0213
 2398SOL    HW118830   1.855   0.288   7.212 -0.2630 -0.6418  0.7559
 2398SOL    HW218831   1.940   0.223   7.113  0.7395  2.1404  0.5465
 2399SOL     OW18832   1.631   2.935   9.254 -0.3322 -0.0643 -0.6782
 2399SOL    HW118833   1.555   2.878   9.256 -0.3886  0.0339 -0.1843
 2399SOL    HW218834   1.647   2.968   9.343  1.8579 -0.9823 -0.7277
 2400SOL     OW18835   2.355   4.365   2.309  0.1208  0.4430 -0.2932
 2400SOL    HW118836   2.392   4.287   2.352 -1.4383  0.5051  1.1677
 2400SOL    HW218837   2.287   4.390   2.372 -0.7563 -1.6516 -0.4009
 2401SOL     OW18838   1.511   0.750  16.019  0.0243 -0.3674 -0.1927
 2401SOL    HW118839   1.522   0.710  15.932 -0.7798  2.0469 -1.4113
 2401SOL    HW218840   1.418   0.771  16.013  0.0067  0.3679  3.0866
 2402SOL     OW18841   3.098   4.491   9.020  0.1393  0.0709 -0.4667
 2402SOL    HW118842   3.025   4.552   9.014 -0.1909 -0.2150  0.5642
 2402SOL    HW218843   3.117   4.458   8.933 -2.5302 -2.4845 -0.0839
 2403SOL     OW18844   2.188   1.256   7.910 -0.2396  0.1511  0.2044
 2403SOL    HW118845   2.279   1.228   7.901  0.2312  0.6416  3.4465
 2403SOL    HW218846   2.158   1.183   7.964  0.0024 -0.6982 -0.8080
 2404SOL     OW18847   1.296   3.794   1.901  0.2479 -0.1072  0.1321
 2404SOL    HW118848   1.302   3.762   1.991  2.1367  0.5901  0.2539
 2404SOL    HW218849   1.304   3.712   1.851  0.1511  0.2617 -0.4904
 2405SOL     OW18850   0.149   1.678   4.736  0.0117 -0.2698  0.4030
 2405SOL    HW118851   0.073   1.718   4.778  1.3034 -0.9249  3.3687
 2405SOL    HW218852   0.120   1.700   4.648  2.6024  0.0748 -0.3504
 2406SOL     OW18853   1.448   3.494   4.660  0.2030  0.3104 -0.6775
 2406SOL    HW118854   1.436   3.550   4.737  0.6604  0.8431 -0.9920
 2406SOL    HW218855   1.386   3.540   4.604 -0.5788  0.0942  0.0105
 2407SOL     OW18856   2.900   0.701   7.347  0.0620 -0.7421  0.0466
 2407SOL    HW118857   2.898   0.608   7.328  0.4544 -0.7098 -0.1482
 2407SOL    HW218858   2.977   0.711   7.403  0.0060  1.9206 -0.3104
 2408SOL     OW18859   2.030   3.714  15.771  0.1112  0.6176  0.2827
 2408SOL    HW118860   1.990   3.776  15.712  2.6349  1.6705 -0.3204
 2408SOL    HW218861   2.011   3.633  15.724  0.7226  0.8655 -0.3807
 2409SOL     OW18862   4.606   2.931   6.781  0.1752  0.1173  0.3009
 2409SOL    HW118863   4.641   2.850   6.818  1.0023 -1.1110 -3.1042
 2409SOL    HW218864   4.623   2.996   6.848 -0.5900  2.4250 -1.7389
 2410SOL     OW18865   2.970   3.513   9.566 -0.2571  0.1819 -0.5403
 2410SOL    HW118866   2.921   3.445   9.611 -1.9414  0.6363 -1.7084
 2410SOL    HW218867   3.064   3.496   9.570 -0.2873 -0.1835 -1.4522
 2411SOL     OW18868   0.387   1.277   5.493  0.4308 -0.6980  0.2699
 2411SOL    HW118869   0.451   1.237   5.553  0.8697 -1.8362 -0.9595
 2411SOL    HW218870   0.308   1.253   5.542 -0.6378  2.0220 -0.1386
 2412SOL     OW18871   1.389   1.335   7.192 -0.2581 -0.6583 -0.0250
 2412SOL    HW118872   1.358   1.270   7.256  0.5493  1.1818  2.2509
 2412SOL    HW218873   1.350   1.298   7.113 -0.3067 -0.3089 -0.1641
 2413SOL     OW18874   1.982   1.667   0.272  0.0100  0.6081 -0.0345
 2413SOL    HW118875   2.019   1.608   0.338  0.5622 -1.2385 -2.0377
 2413SOL    HW218876   1.888   1.661   0.288  0.0344  0.8121  0.1946
 2414SOL     OW18877   4.412   3.240   9.955 -0.5540  0.5965  0.2488
 2414SOL    HW118878   4.358   3.318   9.938 -0.6467  0.2504 -1.1117
 2414SOL    HW218879   4.404   3.233  10.050 -1.4775  0.9946  0.2055
 2415SOL     OW18880   4.717   3.201   7.700  0.7310  0.3853 -0.0428
 2415SOL    HW118881   4.710   3.228   7.792 -1.2816 -1.3334  0.3155
 2415SOL    HW218882   0.018   3.280   7.661  0.8808 -0.5666 -1.8305
 2416SOL     OW18883   3.515   4.416   2.506  0.3878 -0.1428 -0.2046
 2416SOL    HW118884   3.479   4.420   2.595  4.1690  3.2193  1.2037
 2416SOL    HW218885   3.464   4.344   2.470 -1.6909  1.1295  0.2302
 2417SOL     OW18886   1.680   1.882   9.899 -0.2545 -0.3320 -0.3888
 2417SOL    HW118887   1.634   1.798   9.901  1.4454 -1.2321  0.8230
 2417SOL    HW218888   1.766   1.841   9.907  0.0406 -0.1813 -2.6985
 2418SOL     OW18889   4.620   3.528   5.429  0.7971  1.0266  0.4137
 2418SOL    HW118890   4.633   3.523   5.334  1.8261  1.2302  0.5433
 2418SOL    HW218891   4.648   3.618   5.441 -0.6727  1.6430 -0.7280
 2419SOL     OW18892   3.792   1.880  16.609 -0.0287 -0.3860  1.3455
 2419SOL    HW118893   3.716   1.896  16.664 -0.2437 -2.2839  1.5843
 2419SOL    HW218894   3.788   1.943  16.536  0.5812 -1.3515  0.4702
 2420SOL     OW18895   0.927   2.937   8.980 -0.1464  0.3812  0.2313
 2420SOL    HW118896   0.925   3.028   8.949 -0.0178 -0.0775 -1.1223
 2420SOL    HW218897   0.920   2.946   9.075  1.3306  1.4560  0.2455
 2421SOL     OW18898   0.524   0.655  11.147 -0.1390 -0.2389 -0.2123
 2421SOL    HW118899   0.464   0.727  11.128  0.3569 -0.0742 -1.1138
 2421SOL    HW218900   0.507   0.652  11.242  1.4221  1.3059  0.1278
 2422SOL     OW18901   4.326   1.184   6.173  0.1077  0.2149 -0.1958
 2422SOL    HW118902   4.242   1.205   6.132  0.4654  3.1351  0.6002
 2422SOL    HW218903   4.303   1.105   6.222 -0.2551  0.4933  0.0784
 2423SOL     OW18904   1.518   3.244  17.677  0.4103  0.2537  0.3432
 2423SOL    HW118905   1.592   3.303  17.691  0.1301  0.7863 -0.4000
 2423SOL    HW218906   1.543   3.164  17.722 -1.0624 -1.2208 -1.4390
 2424SOL     OW18907   1.890   3.944  14.741  0.2438  0.2143  0.6355
 2424SOL    HW118908   1.813   3.971  14.790  0.0724  2.3878 -0.8747
 2424SOL    HW218909   1.863   3.966  14.652  0.6744 -3.7711 -0.4855
 2425SOL     OW18910   2.871   0.131   8.593  0.2058 -0.0381 -0.1353
 2425SOL    HW118911   2.781   0.113   8.569 -0.9694  3.1040  1.7988
 2425SOL    HW218912   2.882   0.112   8.687  0.2491  0.0226 -0.1277
 2426SOL     OW18913   0.855   2.253  14.454 -0.4231 -0.1960 -0.0238
 2426SOL    HW118914   0.870   2.252  14.359 -3.8933 -0.2376 -0.5531
 2426SOL    HW218915   0.836   2.161  14.471  0.7927 -0.2988  0.7557
 2427SOL     OW18916   4.026   4.566   3.176  0.3910  0.7021  0.6100
 2427SOL    HW118917   4.008   4.622   3.251 -0.0144  1.1871  0.1430
 2427SOL    HW218918   4.058   4.487   3.219  2.3279  1.8532  1.2793
 2428SOL     OW18919   3.890   0.372  17.602  0.5554  0.8068  0.2596
 2428SOL    HW118920   3.864   0.382  17.694  3.6242 -0.0143  1.2224
 2428SOL    HW218921   3.806   0.373  17.556  0.0270  0.2343  1.2192
 2429SOL     OW18922   3.989   0.823   0.266 -0.0434  0.3078 -0.3928
 2429SOL    HW118923   3.903   0.864   0.262 -0.5961 -0.7570  0.3402
 2429SOL    HW218924   3.964   0.733   0.288  2.5924 -0.5672 -1.0368
 2430SOL     OW18925   3.987   1.857   4.912 -0.0636 -0.0153 -0.2493
 2430SOL    HW118926   4.055   1.814   4.861  0.9499  0.4451  0.7112
 2430SOL    HW218927   4.048   1.900   4.973 -1.1704  2.2716 -0.7540
 2431SOL     OW18928   1.416   3.183  15.445 -0.1327 -0.1690 -0.4518
 2431SOL    HW118929   1.416   3.118  15.374  1.4748  0.1538 -0.7491
 2431SOL    HW218930   1.398   3.267  15.404 -0.9865  0.1799  0.6609
 2432SOL     OW18931   3.190   3.646   9.737 -1.1021  0.1197 -0.3086
 2432SOL    HW118932   3.154   3.574   9.789 -0.0375 -0.9872 -1.1159
 2432SOL    HW218933   3.219   3.603   9.657 -1.5407 -0.0661 -0.3670
 2433SOL     OW18934   1.022   0.259   9.193 -0.5299  0.5671  0.6320
 2433SOL    HW118935   1.092   0.194   9.186  0.1874  1.3399  0.6917
 2433SOL    HW218936   1.076   0.336   9.174  1.3884 -1.0274 -0.3818
 2434SOL     OW18937   2.559   0.797   8.763  0.3121  0.1116 -0.8464
 2434SOL    HW118938   2.570   0.847   8.844  1.4154 -1.5525  0.0429
 2434SOL    HW218939   2.463   0.794   8.759  0.2295  1.3394  0.0231
 2435SOL     OW18940   0.316   4.320   8.994  0.1911 -0.2705 -0.2774
 2435SOL    HW118941   0.369   4.400   8.992  0.8947 -0.6713  3.3127
 2435SOL    HW218942   0.388   4.258   8.984 -0.0399 -0.8697  1.7941
 2436SOL     OW18943   3.929   2.699   7.944 -0.2996  0.4496 -0.0009
 2436SOL    HW118944   3.971   2.756   7.879  0.1682 -2.0014 -1.8489
 2436SOL    HW218945   3.841   2.724   7.919 -0.5989 -1.2298 -0.6379
 2437SOL     OW18946   0.702   3.151  10.851  0.2644 -0.0168  0.0665
 2437SOL    HW118947   0.690   3.057  10.864 -1.6478  0.2293  0.1023
 2437SOL    HW218948   0.681   3.156  10.758  0.3986  0.7658  0.0810
 2438SOL     OW18949   0.898   0.779  13.440 -0.0723 -0.0402  0.8872
 2438SOL    HW118950   0.966   0.756  13.503 -1.2619  0.5062  2.3558
 2438SOL    HW218951   0.942   0.762  13.356  0.7354  0.7353  1.1492
 2439SOL     OW18952   0.269   4.474  10.463  0.4780  0.3429 -0.2940
 2439SOL    HW118953   0.251   4.498  10.373  2.8271 -0.2192 -0.9074
 2439SOL    HW218954   0.352   4.522  10.463  0.5258  0.2913  1.8885
 2440SOL     OW18955   2.702   3.720   7.812 -0.2246 -0.2502 -0.1173
 2440SOL    HW118956   2.614   3.684   7.806 -0.9085  1.3216  0.4569
 2440SOL    HW218957   2.746   3.658   7.870  2.2814  1.2642 -0.4034
 2441SOL     OW18958   3.981   1.040   8.013  0.5039  0.4217 -0.1817
 2441SOL    HW118959   3.935   1.124   8.020  0.0113  0.0906  0.5390
 2441SOL    HW218960   4.058   1.078   7.971  1.3392 -1.1043 -0.0442
 2442SOL     OW18961   4.058   0.092   6.035  0.2359 -0.6128  0.8198
 2442SOL    HW118962   4.033   0.076   5.944  0.8157  1.1699  0.3506
 2442SOL    HW218963   4.136   0.038   6.051  0.9177  0.2010  0.2214
 2443SOL     OW18964   1.239   3.733   9.576 -0.2589 -0.4140  0.2695
 2443SOL    HW118965   1.257   3.811   9.524 -0.7005 -0.7458 -0.3708
 2443SOL    HW218966   1.324   3.701   9.607 -1.0594 -0.8509  1.9876
 2444SOL     OW18967   1.280   2.125   5.320 -0.1556 -0.2403  0.6363
 2444SOL    HW118968   1.269   2.031   5.330 -1.4651 -0.5485 -3.3194
 2444SOL    HW218969   1.188   2.151   5.312 -0.5026 -1.7146 -0.1777
 2445SOL     OW18970   4.627   4.305   8.775  0.2479 -0.1733 -0.2775
 2445SOL    HW118971   4.708   4.264   8.804  1.5643  0.3316 -3.2039
 2445SOL    HW218972   4.661   4.368   8.712  1.3937 -1.8850 -1.3879
 2446SOL     OW18973   3.998   0.967   2.154  0.4657 -0.6322  0.5132
 2446SOL    HW118974   4.004   1.013   2.237  1.8484 -0.4202  0.3042
 2446SOL    HW218975   3.912   0.985   2.117  1.4482  1.4508 -0.8133
 2447SOL     OW18976   0.715   3.444   2.469 -0.2351 -0.1566 -0.2625
 2447SOL    HW118977   0.705   3.479   2.380  2.3277 -1.6500 -1.1457
 2447SOL    HW218978   0.661   3.366   2.462 -1.8652  0.7292  2.5663
 2448SOL     OW18979   1.806   2.643   7.380 -0.8200 -0.0817  0.0967
 2448SOL    HW118980   1.819   2.627   7.474  1.4527 -0.3682 -0.2695
 2448SOL    HW218981   1.716   2.677   7.375  0.7289  4.2560  1.7407
 2449SOL     OW18982   2.949   1.530   2.570  0.0282  0.1197  0.4576
 2449SOL    HW118983   3.016   1.467   2.544 -0.5290 -0.0368 -0.6094
 2449SOL    HW218984   2.888   1.472   2.616 -1.8973  2.2385  0.5913
 2450SOL     OW18985   4.473   3.298   9.689  0.2032 -0.2916  0.0247
 2450SOL    HW118986   4.446   3.271   9.777 -0.2501 -0.5459 -0.1937
 2450SOL    HW218987   4.553   3.349   9.703 -0.2620  0.3085  0.4541
 2451SOL     OW18988   1.476   1.269   3.978  1.1349 -0.2475 -0.0839
 2451SOL    HW118989   1.380   1.267   3.981  1.1720 -0.6801  0.6720
 2451SOL    HW218990   1.489   1.204   4.046 -0.2525  0.5725  0.9657
 2452SOL     OW18991   1.392   1.014   6.095  0.5368  0.4773 -0.4523
 2452SOL    HW118992   1.377   1.093   6.147 -1.6360 -1.1251  1.3551
 2452SOL    HW218993   1.449   0.961   6.151  2.5784  0.9677 -2.0768
 2453SOL     OW18994   0.207   1.196   3.884 -0.4441 -0.2560  0.2190
 2453SOL    HW118995   0.251   1.226   3.964  0.9247  0.4097 -0.7870
 2453SOL    HW218996   0.139   1.135   3.914 -1.2893  0.3588 -0.4631
 2454SOL     OW18997   3.672   3.999   4.422 -0.6170 -0.6397  0.4226
 2454SOL    HW118998   3.644   4.090   4.409  3.1139  0.2047 -1.6689
 2454SOL    HW218999   3.623   3.961   4.349 -0.1900 -1.2735  0.4648
 2455SOL     OW19000   3.475   4.190   7.945 -0.2283 -0.2664 -0.6877
 2455SOL    HW119001   3.411   4.213   7.878 -0.5953  0.4406 -0.1040
 2455SOL    HW219002   3.536   4.263   7.930 -2.3747  1.4004 -1.3196
 2456SOL     OW19003   4.376   1.939  15.102 -0.0555  0.3656 -0.0897
 2456SOL    HW119004   4.405   1.982  15.022 -0.6470 -0.6752 -0.8644
 2456SOL    HW219005   4.281   1.943  15.093 -0.1112  1.2506  0.9680
 2457SOL     OW19006   1.408   2.014   9.901 -0.3154 -0.1223  0.1951
 2457SOL    HW119007   1.343   1.958   9.944  1.4685 -0.4135  2.5058
 2457SOL    HW219008   1.488   1.963   9.913  0.2596  0.7872  0.1614
 2458SOL     OW19009   2.815   0.904   2.665  0.5411 -0.1181 -0.4282
 2458SOL    HW119010   2.841   0.836   2.728  0.4527  0.8961  0.7159
 2458SOL    HW219011   2.734   0.864   2.633 -0.0756  0.2967  0.5854
 2459SOL     OW19012   2.509   2.966  13.612 -0.1027 -0.0969  0.9126
 2459SOL    HW119013   2.525   2.984  13.520  0.0759 -1.9207  0.5948
 2459SOL    HW219014   2.576   2.901  13.631 -0.8516 -1.3938 -0.9047
 2460SOL     OW19015   1.237   3.897   4.783 -0.7611  0.0784 -0.4207
 2460SOL    HW119016   1.142   3.894   4.795 -0.7375  3.3129  0.8076
 2460SOL    HW219017   1.256   3.947   4.863  0.8321  0.0944 -0.8188
 2461SOL     OW19018   2.442   2.434   4.697  0.1991  0.0996  0.2596
 2461SOL    HW119019   2.438   2.528   4.712  2.6548  0.2881 -0.3326
 2461SOL    HW219020   2.473   2.426   4.606  0.3098  2.2085  0.1270
 2462SOL     OW19021   0.348   4.001  10.444 -0.5067  0.3335 -0.5994
 2462SOL    HW119022   0.337   4.062  10.517  0.8126 -0.8003  0.5505
 2462SOL    HW219023   0.284   3.936  10.472 -0.5570 -0.0586 -1.6110
 2463SOL     OW19024   0.291   3.244   2.085  0.2427  0.0458  0.3673
 2463SOL    HW119025   0.197   3.255   2.075  0.4674  0.7249 -1.0107
 2463SOL    HW219026   0.313   3.225   1.994 -1.3290 -0.1659  0.0426
 2464SOL     OW19027   1.801   2.121   9.854 -0.3614  0.2930 -0.0713
 2464SOL    HW119028   1.848   2.120   9.937 -2.1379 -1.3911  0.9235
 2464SOL    HW219029   1.738   2.051   9.874 -0.7554  1.0425  1.3116
 2465SOL     OW19030   2.145   3.595   9.915  0.3832  0.4451 -0.1080
 2465SOL    HW119031   2.150   3.643   9.998  0.2628  0.1419  0.0729
 2465SOL    HW219032   2.051   3.602   9.900  0.7606  1.8185 -1.8472
 2466SOL     OW19033   0.303   3.743   8.403  0.8811  0.2202 -0.3344
 2466SOL    HW119034   0.303   3.664   8.457 -0.2831 -1.1987 -2.3837
 2466SOL    HW219035   0.369   3.796   8.447 -0.9347  0.4439  2.1214
 2467SOL     OW19036   0.894   2.207  16.989 -0.4436  0.0824 -0.3159
 2467SOL    HW119037   0.960   2.270  17.018 -1.0758 -0.5872  2.5172
 2467SOL    HW219038   0.960   2.148  16.952 -1.1661 -0.3071 -0.9631
 2468SOL     OW19039   0.285   4.341   0.358  0.2984  0.5565 -0.5166
 2468SOL    HW119040   0.305   4.254   0.322 -1.2224  0.6799 -1.6661
 2468SOL    HW219041   0.240   4.382   0.284  0.1070  0.1542 -0.6267
 2469SOL     OW19042   2.495   4.505   0.760 -0.0914 -0.2484  0.2243
 2469SOL    HW119043   2.515   4.588   0.717  1.8768 -1.1896 -0.6873
 2469SOL    HW219044   2.473   4.528   0.850 -0.8263 -0.7005  0.1606
 2470SOL     OW19045   4.591   1.246  12.129 -0.4747 -0.4287 -0.8009
 2470SOL    HW119046   4.509   1.247  12.080 -1.3713 -3.1578  0.6005
 2470SOL    HW219047   4.583   1.320  12.189  3.5127 -2.1949  1.8732
 2471SOL     OW19048   0.513   4.588   1.177  0.2523 -0.8124  0.4468
 2471SOL    HW119049   0.550   4.673   1.155 -1.3817 -0.2578 -0.1342
 2471SOL    HW219050   0.588   4.536   1.147  1.5056  0.7561  0.8133
 2472SOL     OW19051   2.144   4.704   3.101 -0.0536 -0.5286  0.2824
 2472SOL    HW119052   2.054   4.722   3.076 -0.1573 -1.6826 -0.1748
 2472SOL    HW219053   2.144   4.609   3.113  1.8370 -0.7913 -1.7848
 2473SOL     OW19054   2.597   2.083   8.117  0.1871 -0.5278  0.0498
 2473SOL    HW119055   2.593   2.040   8.202 -1.4319  0.2983  0.3918
 2473SOL    HW219056   2.643   2.165   8.135  1.1189 -0.7324 -1.3545
 2474SOL     OW19057   1.102   3.452   4.128 -0.8213  0.0971  0.1917
 2474SOL    HW119058   1.109   3.447   4.223  1.6001  1.1336  0.0696
 2474SOL    HW219059   1.112   3.362   4.099  2.9469  0.8274 -0.8166
 2475SOL     OW19060   0.600   3.319   3.535 -0.9425 -0.3061  0.3352
 2475SOL    HW119061   0.695   3.320   3.526 -0.9816 -0.8946 -0.1223
 2475SOL    HW219062   0.578   3.313   3.442 -1.6660 -0.1459  0.4901
 2476SOL     OW19063   2.461   0.438   6.262  0.4041  0.1402 -0.4745
 2476SOL    HW119064   2.432   0.493   6.335 -1.2773  2.5104 -2.9138
 2476SOL    HW219065   2.389   0.461   6.203 -0.0057 -3.4045 -1.3780
 2477SOL     OW19066   3.077   0.448   8.453 -0.1264 -0.2535  0.4295
 2477SOL    HW119067   3.080   0.515   8.385  1.1582  1.5647  2.2769
 2477SOL    HW219068   2.982   0.451   8.462  0.0319  2.2056  1.0602
 2478SOL     OW19069   0.165   1.996   6.255  0.7695  0.0016 -0.0525
 2478SOL    HW119070   0.196   1.959   6.338 -1.1857 -0.0450  0.6531
 2478SOL    HW219071   0.233   2.062   6.242 -0.4021  1.4232  1.0380
 2479SOL     OW19072   3.329   0.253   1.518  0.2179 -0.2471 -0.5028
 2479SOL    HW119073   3.256   0.301   1.556  0.3693  0.5981 -1.2698
 2479SOL    HW219074   3.322   0.165   1.555  3.4590  0.1795  1.1581
 2480SOL     OW19075   0.224   3.449   8.984 -0.4833  0.5482 -0.2549
 2480SOL    HW119076   0.205   3.394   9.060  1.5930  0.0609 -0.0852
 2480SOL    HW219077   0.176   3.531   8.994 -1.5916 -0.2595  1.1350
 2481SOL     OW19078   2.935   3.983   1.501 -0.0231  0.0841  0.3083
 2481SOL    HW119079   2.977   3.910   1.455 -0.1555 -0.2078  0.6478
 2481SOL    HW219080   2.895   4.029   1.428 -1.7711 -2.9003 -0.6080
 2482SOL     OW19081   3.050   0.208   7.300 -0.2704 -0.3068  0.0158
 2482SOL    HW119082   2.983   0.213   7.368  1.3560 -0.4221  1.6159
 2482SOL    HW219083   3.098   0.128   7.321  1.7830  0.9324 -0.0499
 2483SOL     OW19084   4.135   0.626   1.736 -0.4280 -0.0366  0.1663
 2483SOL    HW119085   4.117   0.662   1.823  0.1076 -2.7185  1.3790
 2483SOL    HW219086   4.051   0.587   1.712  0.2466 -1.3630 -0.0252
 2484SOL     OW19087   2.380   4.494   7.280 -0.2897  0.0989  0.0546
 2484SOL    HW119088   2.418   4.574   7.243 -2.2144  0.5598 -0.9228
 2484SOL    HW219089   2.418   4.503   7.367  0.5263 -2.4349 -0.0564
 2485SOL     OW19090   4.171   4.229  12.953  0.4768  0.0664  0.5457
 2485SOL    HW119091   4.260   4.257  12.973  1.1097 -1.2776 -0.3808
 2485SOL    HW219092   4.122   4.298  12.998  1.4133  1.3308 -0.3484
 2486SOL     OW19093   1.819   1.790   2.976  0.3996 -0.3170  0.2463
 2486SOL    HW119094   1.903   1.797   2.931 -0.4077  4.4041 -0.4833
 2486SOL    HW219095   1.843   1.712   3.027  0.5128 -0.5503 -0.1600
 2487SOL     OW19096   4.700   4.060   9.003  0.6211  0.3423 -0.0220
 2487SOL    HW119097   4.682   3.969   8.980  1.4096  0.2970 -0.4703
 2487SOL    HW219098   0.032   4.091   8.943  2.4973 -1.3343  1.2355
 2488SOL     OW19099   1.605   0.870   3.436 -0.0529  0.3904  1.1554
 2488SOL    HW119100   1.614   0.809   3.510 -0.0282  1.1587  1.7893
 2488SOL    HW219101   1.572   0.805   3.374 -0.8202  0.8979  1.0308
 2489SOL     OW19102   3.738   3.683   2.118  0.2768 -0.0489  0.5177
 2489SOL    HW119103   3.746   3.589   2.099 -2.6948 -0.2135  0.1162
 2489SOL    HW219104   3.725   3.724   2.032  0.2470  0.2590  0.6702
 2490SOL     OW19105   3.393   0.832   2.349 -0.1014  0.3575  0.2173
 2490SOL    HW119106   3.470   0.774   2.346 -0.5536 -0.1713 -1.2288
 2490SOL    HW219107   3.431   0.912   2.312 -0.9985 -0.2364 -2.0100
 2491SOL     OW19108   2.363   4.081   8.305  0.5468  0.1399  0.5184
 2491SOL    HW119109   2.427   4.056   8.372  0.4828  0.5948  0.7465
 2491SOL    HW219110   2.406   4.048   8.227  1.3368 -0.4073  1.1759
 2492SOL     OW19111   2.010   3.800  13.988 -0.0352 -0.5140  0.4490
 2492SOL    HW119112   1.962   3.758  14.060  1.4836 -4.9021 -1.0921
 2492SOL    HW219113   2.082   3.846  14.030 -0.3863 -0.2187  0.7314
 2493SOL     OW19114   1.249   4.173   8.055  0.3295 -0.3531 -0.2962
 2493SOL    HW119115   1.262   4.241   7.989 -1.7592  1.8549  1.5898
 2493SOL    HW219116   1.290   4.211   8.133 -0.8817 -1.1467  0.7169
 2494SOL     OW19117   0.929   1.514  11.090 -0.3176 -0.2679 -0.2425
 2494SOL    HW119118   0.976   1.433  11.068  0.9692  0.5498 -0.5300
 2494SOL    HW219119   0.844   1.488  11.054  0.2528  0.1890 -1.9680
 2495SOL     OW19120   0.757   3.661  16.470 -0.1558  0.0389 -0.1551
 2495SOL    HW119121   0.709   3.742  16.484 -0.3265 -0.0808 -0.0447
 2495SOL    HW219122   0.810   3.671  16.391  1.9914  2.4467  1.5734
 2496SOL     OW19123   1.658   1.000   8.326  0.1116  0.2939  0.3084
 2496SOL    HW119124   1.596   0.943   8.371 -1.5131  1.4848 -0.3800
 2496SOL    HW219125   1.619   1.082   8.357 -0.3519 -0.5095  1.8281
 2497SOL     OW19126   2.222   3.343  11.597 -0.5905  0.5342  0.5022
 2497SOL    HW119127   2.262   3.256  11.586 -1.1459  0.0291  2.6169
 2497SOL    HW219128   2.184   3.336  11.685  2.2357  1.0686  1.7523
 2498SOL     OW19129   2.826   1.511   4.225 -0.1423  0.5191  0.6930
 2498SOL    HW119130   2.752   1.498   4.165  1.3944 -0.1554 -1.0882
 2498SOL    HW219131   2.798   1.444   4.287  0.2771 -1.7487 -1.5477
 2499SOL     OW19132   4.489   4.264   9.020 -0.0558  0.0268  0.4459
 2499SOL    HW119133   4.521   4.311   8.943  1.0588 -0.9232  0.3227
 2499SOL    HW219134   4.556   4.200   9.045 -0.0449  0.0286  0.4213
 2500SOL     OW19135   3.914   0.200   9.320 -0.5765  0.2615 -0.5393
 2500SOL    HW119136   3.939   0.108   9.319 -2.3446 -0.2759  3.0664
 2500SOL    HW219137   3.921   0.226   9.228  1.8424 -0.4039 -0.5382
 2501SOL     OW19138   0.922   2.671   6.457  0.7766 -0.6253  0.2090
 2501SOL    HW119139   1.005   2.707   6.427  0.4337  0.9356  1.1131
 2501SOL    HW219140   0.951   2.647   6.546  1.0181  1.7305  0.7713
 2502SOL     OW19141   1.781   1.607   7.888  0.4056  0.0725 -0.0392
 2502SOL    HW119142   1.872   1.578   7.893  0.9130  2.0607  2.2014
 2502SOL    HW219143   1.746   1.526   7.850 -2.6883  1.2146  0.3884
 2503SOL     OW19144   1.922   3.813   9.828  0.1683 -0.0152  0.9091
 2503SOL    HW119145   1.885   3.728   9.855  1.3529 -0.8848 -0.1889
 2503SOL    HW219146   1.898   3.805   9.736 -0.9502 -2.0807  1.3659
 2504SOL     OW19147   1.943   0.138   7.471 -0.7463  0.1789 -0.4303
 2504SOL    HW119148   1.962   0.226   7.503  3.5689 -1.2650  0.9231
 2504SOL    HW219149   1.946   0.163   7.378 -0.1198 -1.3859 -0.8210
 2505SOL     OW19150   0.895   2.070   6.070 -0.4213  0.3387 -0.8164
 2505SOL    HW119151   0.804   2.099   6.072 -0.0966  1.4224 -1.8403
 2505SOL    HW219152   0.939   2.143   6.027 -1.1309 -1.2458 -4.2238
 2506SOL     OW19153   0.287   3.519   5.877  0.0446 -0.0794 -0.1555
 2506SOL    HW119154   0.316   3.454   5.813 -1.3778 -2.4825  1.6374
 2506SOL    HW219155   0.281   3.461   5.953 -0.8218  1.4326  0.9328
 2507SOL     OW19156   2.962   3.021  15.715  0.3419 -0.7613  0.5331
 2507SOL    HW119157   2.910   3.087  15.761  0.3916 -1.4342  1.5564
 2507SOL    HW219158   2.957   3.054  15.626 -1.1893 -0.0147  0.9030
 2508SOL     OW19159   3.652   4.169   1.529 -0.0258 -0.2617 -0.2405
 2508SOL    HW119160   3.699   4.229   1.586 -0.9218  0.4801 -0.2806
 2508SOL    HW219161   3.604   4.124   1.599  1.0169 -0.9343  0.0353
 2509SOL     OW19162   1.719   3.992   6.653 -0.4695 -0.1898 -0.3889
 2509SOL    HW119163   1.796   3.940   6.630 -1.5063  0.0100 -4.2844
 2509SOL    HW219164   1.726   4.061   6.587 -0.6985 -0.0585 -0.2753
 2510SOL     OW19165   1.398   4.337   7.025 -0.0246 -0.0638  0.2569
 2510SOL    HW119166   1.326   4.372   6.972  0.9937  0.7996 -0.5596
 2510SOL    HW219167   1.463   4.334   6.954 -0.6604 -2.4179 -0.2088
 2511SOL     OW19168   4.598   0.973   2.222  0.3077 -0.2880  0.0637
 2511SOL    HW119169   4.691   0.969   2.244  0.6840 -3.2439 -2.1593
 2511SOL    HW219170   4.576   1.065   2.236 -0.6507 -0.4636 -0.2701
 2512SOL     OW19171   0.375   0.759  17.734  0.5116  0.0811 -0.1517
 2512SOL    HW119172   0.452   0.707   0.014 -0.1564 -1.4804 -1.3913
 2512SOL    HW219173   0.306   0.732   0.052 -1.1797 -0.1093 -2.1042
 2513SOL     OW19174   1.983   2.269   8.478 -0.2219  0.1175 -0.2169
 2513SOL    HW119175   1.889   2.288   8.476 -0.2082  0.4256  1.5732
 2513SOL    HW219176   1.992   2.228   8.565  1.2220  0.4846 -0.1974
 2514SOL     OW19177   0.890   3.940   7.806 -0.1277 -0.1819 -0.2776
 2514SOL    HW119178   0.927   3.959   7.892 -1.1777  1.8162 -0.2656
 2514SOL    HW219179   0.953   3.988   7.752  0.9860 -0.2392  0.9842
 2515SOL     OW19180   1.412   4.669   6.324  0.3400  0.1599 -0.4317
 2515SOL    HW119181   1.317   4.657   6.328 -0.0583  3.6828  0.7493
 2515SOL    HW219182   1.407   0.026   6.343 -3.1787 -0.0066 -0.6393
 2516SOL     OW19183   2.312   2.553   2.191 -0.0633 -0.3952 -0.2755
 2516SOL    HW119184   2.368   2.581   2.119 -0.2913 -0.3306 -0.4264
 2516SOL    HW219185   2.270   2.639   2.196 -0.1894 -0.2825 -3.0769
 2517SOL     OW19186   4.061   1.605   5.923  0.2574 -0.1171  0.1244
 2517SOL    HW119187   4.047   1.605   5.828 -1.1409  0.6135  0.3222
 2517SOL    HW219188   4.051   1.697   5.947  1.0151  0.0470 -0.2162
 2518SOL     OW19189   3.753   2.929  12.235 -0.5794  0.4780 -0.6515
 2518SOL    HW119190   3.747   2.935  12.330 -0.2763  1.0517 -0.6640
 2518SOL    HW219191   3.826   2.871  12.216 -1.2600 -0.4527 -0.3932
 2519SOL     OW19192   0.827   0.389  11.914 -0.0831  0.5377  0.4431
 2519SOL    HW119193   0.923   0.390  11.913 -0.0557 -0.9272  2.2356
 2519SOL    HW219194   0.815   0.362  11.823  2.0023 -2.8668  1.1824
 2520SOL     OW19195   3.510   4.035   5.756  0.3481  0.1542 -0.4126
 2520SOL    HW119196   3.588   4.007   5.710  0.4496  1.2898 -0.9262
 2520SOL    HW219197   3.521   3.980   5.834 -1.4528  0.7194  0.2423
 2521SOL     OW19198   0.458   0.542  13.667 -0.2831  0.5070  0.2799
 2521SOL    HW119199   0.491   0.578  13.585  0.3019 -0.0761  0.2622
 2521SOL    HW219200   0.382   0.600  13.677  0.8353  1.7939  1.5362
 2522SOL     OW19201   0.383   4.118  12.668 -0.5455 -0.2872 -0.0080
 2522SOL    HW119202   0.339   4.134  12.752 -0.3298 -0.3265  0.1147
 2522SOL    HW219203   0.319   4.136  12.600 -1.2537 -0.7430  0.5301
 2523SOL     OW19204   1.318   2.250   9.423 -0.0068  0.5267 -0.7177
 2523SOL    HW119205   1.288   2.330   9.380 -1.0771 -0.0956 -1.1369
 2523SOL    HW219206   1.404   2.240   9.383 -1.2526 -3.5044 -2.4105
 2524SOL     OW19207   0.768   3.571   2.712 -0.0107  0.1037 -0.0332
 2524SOL    HW119208   0.760   3.538   2.623 -0.6507 -1.4552  0.5889
 2524SOL    HW219209   0.783   3.490   2.762 -2.2773  0.8645  1.8777
 2525SOL     OW19210   2.225   1.229  10.269  0.7328  0.5085  0.1424
 2525SOL    HW119211   2.263   1.244  10.356 -2.0360 -0.5183  1.5599
 2525SOL    HW219212   2.264   1.304  10.225  2.9503 -0.8679 -0.2335
 2526SOL     OW19213   0.167   2.588   3.809  0.4218 -0.3376 -0.2222
 2526SOL    HW119214   0.204   2.648   3.874 -0.7750  0.2745 -0.1191
 2526SOL    HW219215   0.217   2.615   3.732  1.3618  0.1317  0.5500
 2527SOL     OW19216   4.735   4.393   1.640  0.3642 -0.3180  0.2518
 2527SOL    HW119217   0.092   4.384   1.659  0.7385  0.3645 -1.2235
 2527SOL    HW219218   4.705   4.302   1.643  0.8226 -0.4457  0.8827
 2528SOL     OW19219   0.666   3.936   3.934 -0.1304  0.3518  0.1407
 2528SOL    HW119220   0.722   4.001   3.891 -0.7316  0.5073 -0.4169
 2528SOL    HW219221   0.575   3.967   3.938 -1.0906 -2.3025 -0.9464
 2529SOL     OW19222   2.196   0.038  17.014 -0.5856  0.1120  0.1877
 2529SOL    HW119223   2.242   4.701  16.973 -1.7665 -0.2349 -0.5464
 2529SOL    HW219224   2.158   0.083  16.938 -1.5297  0.4866  0.8773
 2530SOL     OW19225   1.350   3.951  16.802 -0.2280  0.0051 -0.5409
 2530SOL    HW119226   1.325   4.033  16.845 -0.2050  0.0618 -0.6359
 2530SOL    HW219227   1.277   3.895  16.828  0.0966 -0.2564 -0.2033
 2531SOL     OW19228   4.274   2.125   5.441 -0.2503  0.0189 -0.0446
 2531SOL    HW119229   4.298   2.166   5.358 -1.6623  0.1690 -0.3768
 2531SOL    HW219230   4.287   2.032   5.420  0.9046  0.0865  0.3592
 2532SOL     OW19231   1.161   4.401   5.122 -0.3962  0.0711  0.5947
 2532SOL    HW119232   1.106   4.390   5.044 -0.7371  1.4886  0.6360
 2532SOL    HW219233   1.100   4.395   5.196  0.7324 -0.1378  1.5153
 2533SOL     OW19234   0.014   3.682   9.894 -0.2516 -0.0482 -0.0846
 2533SOL    HW119235   0.003   3.720   9.981 -1.9971 -1.7304  0.4256
 2533SOL    HW219236   4.722   3.761   9.848 -0.7595 -1.1965 -1.7334
 2534SOL     OW19237   1.744   3.463   2.081  0.0338 -0.6335  0.7920
 2534SOL    HW119238   1.824   3.451   2.133  1.0889 -0.5490 -0.8058
 2534SOL    HW219239   1.684   3.407   2.131 -3.2057  2.7626  0.6847
 2535SOL     OW19240   3.988   0.961   8.656 -0.6288 -0.0031 -0.2595
 2535SOL    HW119241   4.039   0.884   8.679  4.3431  2.3412 -3.1009
 2535SOL    HW219242   3.988   0.954   8.560 -0.3708 -2.0870 -0.0875
 2536SOL     OW19243   4.087   1.008   5.107 -0.4592 -0.6717  0.4417
 2536SOL    HW119244   4.000   1.036   5.078  0.7225 -0.2669 -2.7601
 2536SOL    HW219245   4.073   0.925   5.153  1.3694 -1.6230 -0.7281
 2537SOL     OW19246   3.573   4.177   6.962 -0.0193  0.2516  0.5966
 2537SOL    HW119247   3.548   4.269   6.960  0.3715  0.3913  1.7136
 2537SOL    HW219248   3.531   4.148   6.882 -1.9102 -0.2844  1.7855
 2538SOL     OW19249   2.826   4.452   7.112 -0.3871 -0.3790  0.0483
 2538SOL    HW119250   2.807   4.488   7.198  1.5971 -0.4016  0.4992
 2538SOL    HW219251   2.782   4.368   7.115  0.5583 -0.8085  1.6362
 2539SOL     OW19252   1.213   0.896   7.570  0.3276  0.1810 -0.1081
 2539SOL    HW119253   1.214   0.983   7.611 -0.9129  1.4336 -2.7321
 2539SOL    HW219254   1.131   0.901   7.521 -1.4689 -0.7345  2.7643
 2540SOL     OW19255   4.513   2.623   4.063 -0.3496  0.0663  0.2324
 2540SOL    HW119256   4.423   2.649   4.081  0.0677  3.2679 -2.3636
 2540SOL    HW219257   4.534   2.554   4.126  2.7988  0.3777 -0.4816
 2541SOL     OW19258   0.978   1.658   9.110 -0.2100 -0.4009 -0.1287
 2541SOL    HW119259   0.988   1.750   9.088  0.1357 -1.2915 -3.6668
 2541SOL    HW219260   0.967   1.609   9.028 -0.4506  0.1581 -0.4285
 2542SOL     OW19261   3.766   4.285   1.904  0.3025 -0.2145 -0.0819
 2542SOL    HW119262   3.857   4.278   1.876  0.3533  0.5751 -0.1389
 2542SOL    HW219263   3.776   4.278   1.999  1.3162 -0.5410 -0.2148
 2543SOL     OW19264   1.592   0.185   8.578  0.2836  0.3025 -0.7751
 2543SOL    HW119265   1.616   0.147   8.663 -0.0242 -3.1779 -2.2339
 2543SOL    HW219266   1.677   0.184   8.534 -0.2055  2.1435 -1.7244
 2544SOL     OW19267   4.299   0.680   9.620 -0.2224  0.8278  0.1463
 2544SOL    HW119268   4.368   0.709   9.680 -0.7274 -0.9619  1.6050
 2544SOL    HW219269   4.234   0.665   9.689 -1.3776  1.1822 -0.8805
 2545SOL     OW19270   3.561   4.275  10.123 -0.2821  0.0400 -0.2350
 2545SOL    HW119271   3.655   4.263  10.141 -0.7306 -0.4962  1.7322
 2545SOL    HW219272   3.553   4.293  10.030  0.0153  1.5231  0.0250
 2546SOL     OW19273   0.708   2.501   5.426  0.5713  0.4856 -0.6550
 2546SOL    HW119274   0.627   2.530   5.468  1.0147 -1.1530  1.3000
 2546SOL    HW219275   0.735   2.434   5.488 -2.2816  1.5737  1.7599
 2547SOL     OW19276   2.465   4.229   9.701  0.7766  0.3533  0.4253
 2547SOL    HW119277   2.410   4.307   9.716 -0.6403 -0.8909  1.7323
 2547SOL    HW219278   2.553   4.263   9.688  1.1630 -0.1555  1.7208
 2548SOL     OW19279   2.311   2.843   2.666 -0.0454  0.1111 -0.1412
 2548SOL    HW119280   2.292   2.817   2.756 -2.1545 -0.2580 -0.6785
 2548SOL    HW219281   2.397   2.883   2.678  0.4777 -0.6985 -1.1071
 2549SOL     OW19282   1.320   2.382   8.882  0.2865 -0.4578  0.4800
 2549SOL    HW119283   1.239   2.386   8.932  0.0690  3.3378 -0.1788
 2549SOL    HW219284   1.374   2.434   8.941  1.8395 -0.6772 -0.7253
 2550SOL     OW19285   0.598   1.813   9.077 -0.2102 -0.0527 -0.2776
 2550SOL    HW119286   0.603   1.804   9.172  0.4276 -0.6935 -0.3705
 2550SOL    HW219287   0.574   1.905   9.072 -0.0668 -0.0296 -0.5419
 2551SOL     OW19288   4.315   3.032   4.260 -0.0806 -0.0220 -0.1114
 2551SOL    HW119289   4.290   3.117   4.296 -1.9329 -0.8509  0.5577
 2551SOL    HW219290   4.228   2.992   4.264  0.2191 -0.7897 -1.5340
 2552SOL     OW19291   0.344   0.311   6.950 -0.0008 -0.0209 -0.4956
 2552SOL    HW119292   0.417   0.287   6.893 -0.2711 -1.3582 -0.2765
 2552SOL    HW219293   0.377   0.388   6.997 -0.8011 -0.3953  0.6945
 2553SOL     OW19294   4.192   2.313   6.841 -0.0549 -0.0858  0.0552
 2553SOL    HW119295   4.218   2.402   6.866  0.3466  0.3819 -2.0810
 2553SOL    HW219296   4.159   2.319   6.752 -0.6036 -1.0650  0.1861
 2554SOL     OW19297   3.669   2.544   3.476 -0.7161 -0.0819  0.2277
 2554SOL    HW119298   3.588   2.554   3.525  0.2599 -0.5514  1.9113
 2554SOL    HW219299   3.712   2.627   3.500  1.8289 -1.1191 -0.6679
 2555SOL     OW19300   3.736   1.005   9.164  0.2396  0.9006 -1.2879
 2555SOL    HW119301   3.784   0.937   9.117  0.5987  0.8058 -0.7890
 2555SOL    HW219302   3.731   0.963   9.250  0.4009  1.5507 -0.9607
 2556SOL     OW19303   4.014   4.273   6.239 -0.1985  0.1812  0.2597
 2556SOL    HW119304   4.085   4.319   6.285 -0.3086  0.2115  0.3963
 2556SOL    HW219305   3.976   4.212   6.303 -3.0035  1.4614 -0.2457
 2557SOL     OW19306   1.897   2.653  16.669  0.0931  0.1023 -0.0082
 2557SOL    HW119307   1.877   2.713  16.597  1.1584  0.0988 -0.2986
 2557SOL    HW219308   1.882   2.712  16.743 -0.8039  1.1539 -1.0297
 2558SOL     OW19309   1.384   4.510   4.283  0.2141  0.1356 -0.5469
 2558SOL    HW119310   1.350   4.437   4.334 -1.5659  1.6990  0.5355
 2558SOL    HW219311   1.304   4.548   4.247  0.6718  1.3995 -0.2376
 2559SOL     OW19312   2.201   4.734   1.655 -0.1295  0.2030  0.5266
 2559SOL    HW119313   2.194   0.091   1.673 -0.2893 -0.1174  2.0892
 2559SOL    HW219314   2.144   4.703   1.725 -0.0416  1.9616  1.3641
 2560SOL     OW19315   3.684   1.377   2.002 -0.5022  0.2503 -0.0257
 2560SOL    HW119316   3.772   1.404   1.977  0.0694 -1.2084  0.3895
 2560SOL    HW219317   3.637   1.373   1.919  0.7068 -1.1507 -0.6402
 2561SOL     OW19318   2.685   1.014  17.521 -0.4030 -0.4437 -0.2815
 2561SOL    HW119319   2.663   1.012  17.428 -1.3186  1.3124 -0.1085
 2561SOL    HW219320   2.775   0.981  17.529  0.4645  1.2941 -2.9473
 2562SOL     OW19321   3.850   1.720   3.926  0.1191 -0.2604  0.0936
 2562SOL    HW119322   3.916   1.730   3.994 -0.9218  1.9447  0.8019
 2562SOL    HW219323   3.898   1.732   3.845 -1.5865  1.2349 -0.7046
 2563SOL     OW19324   4.590   4.249   2.889  0.6921 -0.2442 -0.5753
 2563SOL    HW119325   4.508   4.227   2.844 -1.8314  3.0073  2.4177
 2563SOL    HW219326   4.649   4.227   2.817 -0.2677 -2.1523 -0.7623
 2564SOL     OW19327   3.375   3.652   3.977 -0.5755 -0.2014 -0.6593
 2564SOL    HW119328   3.299   3.623   3.926 -1.7516  0.8751  0.4675
 2564SOL    HW219329   3.386   3.590   4.049 -1.8019 -0.1318 -0.4146
 2565SOL     OW19330   0.411   1.599   5.229 -0.1208  0.0816 -1.0432
 2565SOL    HW119331   0.495   1.561   5.256  0.6847  2.5516 -0.0036
 2565SOL    HW219332   0.397   1.538   5.157  2.2493  0.8562 -2.1641
 2566SOL     OW19333   1.921   4.395   8.298  0.2171  0.4593 -0.3312
 2566SOL    HW119334   1.938   4.312   8.343  2.1904  1.7149  1.2713
 2566SOL    HW219335   1.829   4.417   8.312  0.2163  0.4343 -0.2955
 2567SOL     OW19336   0.011   1.612  15.933 -0.2197  0.4625 -0.4108
 2567SOL    HW119337   4.734   1.592  15.840 -1.0317  0.5460 -0.3051
 2567SOL    HW219338   4.709   1.699  15.927  0.0570  0.7057  1.5209
 2568SOL     OW19339   0.470   0.902   9.319  0.1275  0.2869  0.0523
 2568SOL    HW119340   0.524   0.975   9.290  2.5515 -1.1943  0.8382
 2568SOL    HW219341   0.539   0.840   9.341 -0.8500 -0.2258  1.7013
 2569SOL     OW19342   3.927   1.796   9.042 -0.1772  0.5236  0.4749
 2569SOL    HW119343   3.974   1.713   9.052 -1.6832 -0.4418 -0.3488
 2569SOL    HW219344   3.963   1.833   9.123  1.3240  0.8894 -0.3790
 2570SOL     OW19345   4.642   2.867   7.616 -0.2086  0.0555  0.1292
 2570SOL    HW119346   4.621   2.960   7.622 -1.1464  0.0245 -2.4129
 2570SOL    HW219347   4.562   2.822   7.645  1.3105 -1.7059  1.5784
 2571SOL     OW19348   4.401   4.390   2.340 -0.0378 -0.2383 -0.5665
 2571SOL    HW119349   4.408   4.295   2.350 -0.9208 -0.1221  1.1184
 2571SOL    HW219350   4.493   4.412   2.356  0.1505  0.8964 -3.2105
 2572SOL     OW19351   3.791   3.018   1.853 -0.0224 -0.0524 -0.5594
 2572SOL    HW119352   3.838   2.965   1.917 -2.8498  0.1697  1.7045
 2572SOL    HW219353   3.710   3.040   1.899 -0.5230 -1.1487 -0.9138
 2573SOL     OW19354   2.598   3.385   2.278 -0.2472  0.5451 -0.0408
 2573SOL    HW119355   2.601   3.303   2.327 -1.6747  1.0549  0.9277
 2573SOL    HW219356   2.577   3.354   2.190  0.9149 -1.9107  0.5454
 2574SOL     OW19357   4.151   3.298   7.459 -0.2578 -0.2905  0.2504
 2574SOL    HW119358   4.059   3.296   7.433 -0.6326 -1.1589  1.6832
 2574SOL    HW219359   4.151   3.368   7.525 -0.0229  0.8545 -0.9712
 2575SOL     OW19360   0.062   0.380   2.618  0.5857  0.1043 -0.1314
 2575SOL    HW119361   0.014   0.448   2.666 -0.0356  0.4832 -1.2910
 2575SOL    HW219362   0.099   0.428   2.544  0.2302 -1.8684 -1.5991
 2576SOL     OW19363   2.441   2.913  15.421  0.3610 -0.3062  0.0185
 2576SOL    HW119364   2.378   2.854  15.462  0.9960  0.0975  1.5913
 2576SOL    HW219365   2.385   2.964  15.362 -1.6655 -0.1143  2.0990
 2577SOL     OW19366   2.993   2.022   7.964  0.1316  1.0579 -0.1131
 2577SOL    HW119367   2.949   1.942   7.992 -0.6361  2.3360  2.3760
 2577SOL    HW219368   2.938   2.055   7.892 -0.1324  0.5547 -0.1389
 2578SOL     OW19369   3.297   2.953   8.010  0.5054 -0.1414  0.4532
 2578SOL    HW119370   3.285   2.859   8.026 -2.6198  0.5467  2.0318
 2578SOL    HW219371   3.316   2.981   8.100 -1.2572  1.7362  0.2324
 2579SOL     OW19372   2.441   2.817   2.379  0.6380 -0.2995 -0.2750
 2579SOL    HW119373   2.435   2.740   2.436 -2.1223 -0.4560 -0.7625
 2579SOL    HW219374   2.382   2.795   2.306  1.3300  0.4100 -1.0437
 2580SOL     OW19375   4.682   2.081   3.703 -0.4450 -0.5253 -0.1458
 2580SOL    HW119376   0.025   2.045   3.742 -0.1727 -0.7836 -0.9396
 2580SOL    HW219377   4.710   2.167   3.672 -1.1389  0.1311  1.0551
 2581SOL     OW19378   2.487   2.826  11.533 -0.2218 -0.0848 -0.1990
 2581SOL    HW119379   2.540   2.747  11.548 -0.0753 -0.6919 -3.8882
 2581SOL    HW219380   2.477   2.855  11.624 -0.4935 -1.9095  0.3562
 2582SOL     OW19381   1.952   4.284   6.870  0.3044  0.0071 -0.0220
 2582SOL    HW119382   1.960   4.215   6.804 -0.5233 -1.0612  0.9808
 2582SOL    HW219383   2.023   4.250   6.924  0.9295 -0.5437 -1.2136
 2583SOL     OW19384   3.534   2.949   8.773  0.4034 -0.0511 -0.0070
 2583SOL    HW119385   3.534   2.899   8.854 -0.3335 -1.4022 -0.8359
 2583SOL    HW219386   3.453   2.999   8.782  0.1412 -0.4836  0.0430
 2584SOL     OW19387   0.820   1.959   4.321  0.2761 -0.3483  0.4970
 2584SOL    HW119388   0.746   1.928   4.374 -0.0717 -1.0713 -0.4161
 2584SOL    HW219389   0.799   2.050   4.298  0.5136 -0.0416  1.4960
 2585SOL     OW19390   2.630   1.235   2.244  0.6508 -0.1872 -0.2489
 2585SOL    HW119391   2.569   1.244   2.318  0.0345  1.1036 -0.9161
 2585SOL    HW219392   2.644   1.326   2.219  2.0233 -0.0293  1.1075
 2586SOL     OW19393   2.372   0.270   9.215  0.8079 -0.3638 -0.2277
 2586SOL    HW119394   2.372   0.312   9.300  1.6036 -2.9801  1.0673
 2586SOL    HW219395   2.302   0.321   9.174 -0.8047 -1.0059  1.6955
 2587SOL     OW19396   0.226   0.563  13.453 -0.1986 -0.2512 -0.8480
 2587SOL    HW119397   0.188   0.500  13.514 -3.5702  1.0073 -1.6438
 2587SOL    HW219398   0.165   0.636  13.447 -0.5724 -0.5665 -0.8448
 2588SOL     OW19399   3.604   2.851  15.367  0.0316 -0.3623 -0.5122
 2588SOL    HW119400   3.588   2.759  15.390  1.2809 -0.3715  0.3585
 2588SOL    HW219401   3.521   2.889  15.340  0.5699  0.8919 -0.4222
 2589SOL     OW19402   4.093   3.669   2.193  0.2590 -0.0691 -0.0593
 2589SOL    HW119403   4.056   3.743   2.145 -0.7129  0.4852  1.5455
 2589SOL    HW219404   4.028   3.665   2.262  1.6038 -1.0376  1.1530
 2590SOL     OW19405   1.685   3.248   1.516  0.0436  0.5490 -0.1733
 2590SOL    HW119406   1.747   3.314   1.546 -1.6935  1.8502  0.5332
 2590SOL    HW219407   1.641   3.226   1.598  2.1465 -1.7641  0.3572
 2591SOL     OW19408   0.151   3.749   4.151 -0.2559  0.0856 -0.7286
 2591SOL    HW119409   0.100   3.721   4.074  1.4494 -0.5985 -1.6054
 2591SOL    HW219410   0.142   3.844   4.150 -1.0448  0.0471  2.5032
 2592SOL     OW19411   2.004   4.256  11.269  0.4253 -0.1329 -0.5859
 2592SOL    HW119412   1.930   4.261  11.209 -0.9077  1.5359  1.1969
 2592SOL    HW219413   2.068   4.203  11.222 -2.0762 -2.0574 -1.8492
 2593SOL     OW19414   0.938   0.914   8.327  0.5212  0.8280  0.1202
 2593SOL    HW119415   0.996   0.840   8.344 -0.2416 -0.1740 -1.6312
 2593SOL    HW219416   0.975   0.983   8.382  1.9268 -1.5911  2.2326
 2594SOL     OW19417   1.047   4.481   3.222  0.0474 -0.3872 -0.1617
 2594SOL    HW119418   1.091   4.540   3.161 -0.3368 -0.5289 -0.5747
 2594SOL    HW219419   1.010   4.528   3.297 -0.2403  2.3191 -1.9818
 2595SOL     OW19420   1.930   4.588   5.398  0.2182  0.0094  0.4009
 2595SOL    HW119421   1.870   4.663   5.406 -1.1855 -1.1203  0.4681
 2595SOL    HW219422   1.864   4.532   5.357 -0.1580  0.7816 -0.0527
 2596SOL     OW19423   2.273   2.805   7.178 -0.1616 -0.2371 -0.0604
 2596SOL    HW119424   2.193   2.802   7.126  0.9700 -1.0889 -1.7817
 2596SOL    HW219425   2.244   2.831   7.265 -0.9890 -0.8471 -0.1633
 2597SOL     OW19426   1.844   3.650   3.464 -0.2510  0.5548  0.0344
 2597SOL    HW119427   1.862   3.743   3.473 -0.1222  0.3008  2.3472
 2597SOL    HW219428   1.813   3.652   3.373 -2.4053 -1.9494  0.6915
 2598SOL     OW19429   1.321   0.660   7.033  0.9110  0.5405  0.1548
 2598SOL    HW119430   1.366   0.694   7.111 -0.8508  2.1278  0.4717
 2598SOL    HW219431   1.293   0.738   6.985  0.5685  0.7018  0.6238
 2599SOL     OW19432   2.505   1.512   8.182 -0.4078 -0.0706 -0.3504
 2599SOL    HW119433   2.574   1.477   8.125  1.0425 -0.2600  1.5127
 2599SOL    HW219434   2.448   1.552   8.117 -1.8550  0.2709  1.1424
 2600SOL     OW19435   4.086   1.410   4.359  0.2561 -0.1988  0.4637
 2600SOL    HW119436   4.097   1.329   4.310  0.8992  1.1062 -1.5466
 2600SOL    HW219437   3.990   1.418   4.361  0.1470 -1.5981  1.2190
 2601SOL     OW19438   0.822   0.087   1.969 -0.6211  0.1716  0.8087
 2601SOL    HW119439   0.895   0.045   2.015 -0.3916 -1.6964 -1.2744
 2601SOL    HW219440   0.871   0.111   1.891 -0.6061  0.1036  0.7973
 2602SOL     OW19441   3.627   2.680   6.767  0.3066  0.0173 -0.0608
 2602SOL    HW119442   3.641   2.747   6.834 -1.5366 -0.7172  1.0679
 2602SOL    HW219443   3.616   2.733   6.688 -0.9509 -0.2482 -0.0568
 2603SOL     OW19444   4.127   3.336  14.617  0.3511  0.2198 -0.4245
 2603SOL    HW119445   4.216   3.301  14.607  0.1993  0.6808 -3.3718
 2603SOL    HW219446   4.078   3.261  14.651 -0.3458  0.9929  0.2735
 2604SOL     OW19447   0.337   1.585  12.278 -0.3610  0.0204  0.1828
 2604SOL    HW119448   0.358   1.567  12.369  0.6039 -0.5000 -0.1428
 2604SOL    HW219449   0.407   1.646  12.252  1.3466 -2.0598 -0.1043
 2605SOL     OW19450   2.071   4.131   9.086 -0.0920  0.2245 -0.2251
 2605SOL    HW119451   2.123   4.068   9.035 -0.7517  0.4548 -1.1763
 2605SOL    HW219452   2.135   4.201   9.103  1.1309 -0.9750  0.1018
 2606SOL     OW19453   1.946   2.802  15.307  0.3034 -0.2255 -0.0259
 2606SOL    HW119454   1.901   2.737  15.253  1.6434 -1.4610  0.3594
 2606SOL    HW219455   1.960   2.882  15.256 -2.5917 -1.0263 -2.0837
 2607SOL     OW19456   0.969   4.206   2.627 -0.5746 -0.1403 -0.2178
 2607SOL    HW119457   0.972   4.232   2.535  1.7758 -0.2101 -0.1613
 2607SOL    HW219458   1.055   4.237   2.654 -0.5129  1.6272 -2.4209
 2608SOL     OW19459   3.163   4.661   8.431 -0.6048 -0.6918  0.5587
 2608SOL    HW119460   3.216   0.003   8.414  0.7311 -2.0605 -1.6402
 2608SOL    HW219461   3.085   4.714   8.445  0.6959  1.1849  0.6942
 2609SOL     OW19462   0.912   1.680   3.111  0.4134  0.6537 -0.3615
 2609SOL    HW119463   1.006   1.691   3.123  0.5206  0.1410 -0.6970
 2609SOL    HW219464   0.888   1.669   3.203  4.1379 -0.3470  0.4727
 2610SOL     OW19465   2.681   2.227   3.669  0.0596 -0.7104  0.1830
 2610SOL    HW119466   2.589   2.232   3.695 -1.0191  1.7224 -4.0279
 2610SOL    HW219467   2.678   2.178   3.586 -3.5755 -0.9597  0.4814
 2611SOL     OW19468   4.318   3.473  11.052  0.0960 -0.0568 -0.5051
 2611SOL    HW119469   4.245   3.535  11.054 -0.7562 -1.1264  1.2005
 2611SOL    HW219470   4.392   3.530  11.034 -0.0664 -0.4175 -2.3322
 2612SOL     OW19471   0.763   1.401   9.433 -0.6151  0.1577 -0.2854
 2612SOL    HW119472   0.711   1.425   9.356 -0.8289  0.2556 -0.1138
 2612SOL    HW219473   0.774   1.488   9.471 -0.3832 -0.3560  0.8115
 2613SOL     OW19474   4.411   2.634   8.065  0.3095  0.0724 -0.2172
 2613SOL    HW119475   4.361   2.574   8.010 -1.5335  0.8289  0.6568
 2613SOL    HW219476   4.496   2.590   8.057 -0.6543 -2.2053  2.2888
 2614SOL     OW19477   0.254   0.166   9.092 -0.1089  0.3027  0.0109
 2614SOL    HW119478   0.238   0.108   9.017 -2.5538 -0.3810  1.0695
 2614SOL    HW219479   0.228   0.248   9.050 -0.9153  0.2064  0.3355
 2615SOL     OW19480   4.722   0.096  10.479  0.2735 -0.1982  0.3467
 2615SOL    HW119481   4.704   0.165  10.416  0.2914  0.4042  1.0045
 2615SOL    HW219482   0.074   0.077  10.448  0.0304  0.5045 -0.7568
 2616SOL     OW19483   1.724   0.606   6.916 -0.0530  0.4152  0.3342
 2616SOL    HW119484   1.789   0.671   6.890  1.3535 -1.6840 -1.4722
 2616SOL    HW219485   1.674   0.573   6.841  0.7056  1.9155 -0.8255
 2617SOL     OW19486   3.315   1.510   2.218  0.3447 -0.5205  0.2258
 2617SOL    HW119487   3.348   1.584   2.269  3.3162  0.0139 -2.5158
 2617SOL    HW219488   3.310   1.534   2.126  1.7624  0.8676  0.4990
 2618SOL     OW19489   4.077   4.121  11.564  0.0669 -0.2028  0.0158
 2618SOL    HW119490   4.157   4.087  11.605  0.4669  2.5659  1.5741
 2618SOL    HW219491   4.006   4.103  11.626  1.5571 -3.0600  0.9235
 2619SOL     OW19492   3.251   3.092   3.016 -0.7623 -0.7258  0.7842
 2619SOL    HW119493   3.274   3.032   3.087  0.1491  0.2072  1.2777
 2619SOL    HW219494   3.197   3.039   2.957 -0.5165  1.0030 -0.9745
 2620SOL     OW19495   2.324   0.679   5.439  0.5640 -0.0836 -0.3506
 2620SOL    HW119496   2.402   0.624   5.434 -0.6544 -1.9821  1.5828
 2620SOL    HW219497   2.354   0.745   5.376  0.7667 -0.8183 -1.0267
 2621SOL     OW19498   2.466   1.267   4.302  0.6244 -0.1490  0.3102
 2621SOL    HW119499   2.484   1.177   4.329  0.3678 -0.9501 -2.2114
 2621SOL    HW219500   2.427   1.310   4.378  1.3717  0.7603  0.1785
 2622SOL     OW19501   4.569   0.067   9.058 -0.6508  0.1022 -0.3649
 2622SOL    HW119502   4.592   0.153   9.094 -1.8201  0.8968 -1.5292
 2622SOL    HW219503   4.631   0.008   9.101 -1.4660  1.2766  2.4044
 2623SOL     OW19504   1.574   3.360   2.292 -0.0654 -0.1178 -0.6633
 2623SOL    HW119505   1.620   3.289   2.336  0.7041  0.4074 -0.6224
 2623SOL    HW219506   1.486   3.324   2.279 -1.7640  3.0042  2.0691
 2624SOL     OW19507   4.716   2.172   6.633 -0.0845 -0.9046  0.2264
 2624SOL    HW119508   4.663   2.166   6.712 -1.4784 -0.7033 -0.6853
 2624SOL    HW219509   4.648   2.149   6.570  0.8975  0.1219 -1.2009
 2625SOL     OW19510   4.278   1.651   2.545 -0.3998  0.3442  0.0467
 2625SOL    HW119511   4.310   1.568   2.580 -1.5645 -0.2324 -0.2462
 2625SOL    HW219512   4.267   1.644   2.450 -0.3845 -0.2858  0.0953
 2626SOL     OW19513   4.203   1.531   6.775 -0.5419 -0.0931 -0.4060
 2626SOL    HW119514   4.281   1.477   6.762  2.3269  4.1834 -1.0470
 2626SOL    HW219515   4.195   1.563   6.685  1.6342 -1.5353 -1.1121
 2627SOL     OW19516   1.072   3.157   6.710  0.3484  0.0098  0.0478
 2627SOL    HW119517   1.151   3.170   6.657 -0.3680  2.8075 -0.3385
 2627SOL    HW219518   1.110   3.157   6.798 -0.2930 -2.5647  0.3195
 2628SOL     OW19519   2.673   2.710   4.501 -0.1694 -0.1500 -0.1603
 2628SOL    HW119520   2.676   2.756   4.417  1.3025 -0.4721 -0.2906
 2628SOL    HW219521   2.628   2.770   4.560  2.2526  2.8007 -1.3001
 2629SOL     OW19522   2.683   1.018   3.592 -0.1752 -0.0167 -0.0336
 2629SOL    HW119523   2.683   1.014   3.688  1.3956  2.3397  0.0680
 2629SOL    HW219524   2.745   0.948   3.571  0.7708  0.8629 -0.1571
 2630SOL     OW19525   1.435   0.303   2.475 -0.2972 -0.0787 -0.1112
 2630SOL    HW119526   1.448   0.340   2.562  0.7575 -0.1517 -0.2452
 2630SOL    HW219527   1.357   0.344   2.437  0.0444 -0.9020 -1.7146
 2631SOL     OW19528   2.760   4.334  15.603  0.0824 -0.4128  0.2210
 2631SOL    HW119529   2.776   4.270  15.534  0.9683  0.1206 -0.0543
 2631SOL    HW219530   2.734   4.271  15.670  0.4851 -0.7997  0.0092
 2632SOL     OW19531   3.024   2.376  15.144 -0.1719 -0.7330  0.0971
 2632SOL    HW119532   2.974   2.299  15.118  0.5033 -0.6977 -1.3037
 2632SOL    HW219533   2.956   2.441  15.161 -0.3081 -1.2930  1.6590
 2633SOL     OW19534   2.371   2.982   7.912 -0.3440 -0.1093  0.1896
 2633SOL    HW119535   2.443   2.990   7.850  0.2073 -0.5163  0.7724
 2633SOL    HW219536   2.406   3.035   7.985 -1.6094 -1.2651  1.6272
 2634SOL     OW19537   4.287   0.762  10.568  0.5748 -0.1609  0.0453
 2634SOL    HW119538   4.276   0.684  10.622 -0.5155  0.0357  0.1113
 2634SOL    HW219539   4.226   0.815  10.620  0.5996 -1.4089  1.3605
 2635SOL     OW19540   1.359   4.402   9.204  0.5102 -0.0322 -0.1491
 2635SOL    HW119541   1.271   4.441   9.201 -1.0331 -3.2950  1.6206
 2635SOL    HW219542   1.364   4.377   9.296  0.4716  0.2665 -0.0652
 2636SOL     OW19543   0.969   2.009   6.502  0.0623 -0.5314  0.2586
 2636SOL    HW119544   1.050   1.970   6.469  1.8873  0.8001  3.2247
 2636SOL    HW219545   0.970   2.078   6.435 -1.6181  0.4340  1.2248
 2637SOL     OW19546   0.414   4.047   2.330  0.2131 -0.4312  0.3436
 2637SOL    HW119547   0.388   4.087   2.247 -0.2324 -0.4115  0.4904
 2637SOL    HW219548   0.449   4.115   2.387 -1.3492 -0.3715  1.2521
 2638SOL     OW19549   0.605   3.253  15.724  0.3249  0.0790  0.3210
 2638SOL    HW119550   0.515   3.274  15.699  0.7211  0.5558 -0.7042
 2638SOL    HW219551   0.632   3.184  15.664 -0.5638  1.3973 -1.6041
 2639SOL     OW19552   0.714   2.986   2.383  0.8480  0.0942 -0.7850
 2639SOL    HW119553   0.801   2.958   2.355  2.1789  0.7941  2.5576
 2639SOL    HW219554   0.666   2.904   2.377  1.3979 -0.3078  0.3261
 2640SOL     OW19555   2.223   1.907  15.410 -0.2848 -0.0015 -0.0513
 2640SOL    HW119556   2.139   1.928  15.371 -0.3450 -2.6371 -1.3300
 2640SOL    HW219557   2.255   1.988  15.449 -0.5464  0.1973 -0.2588
 2641SOL     OW19558   2.787   3.752   7.507 -0.1414 -0.3240 -0.5152
 2641SOL    HW119559   2.842   3.825   7.532  0.2857 -0.5867 -0.6851
 2641SOL    HW219560   2.719   3.756   7.574 -1.0870 -3.1688 -1.2885
 2642SOL     OW19561   3.163   4.224   7.773 -0.1908 -0.2281  0.8317
 2642SOL    HW119562   3.132   4.186   7.691  0.2750  1.0397  0.0669
 2642SOL    HW219563   3.155   4.142   7.821  2.3833  0.0685  1.7805
 2643SOL     OW19564   0.276   1.570   4.386  0.1508  0.2095  0.1599
 2643SOL    HW119565   0.223   1.624   4.444 -1.1825 -0.7510 -0.1564
 2643SOL    HW219566   0.257   1.613   4.303  1.1795 -0.4673 -0.4322
 2644SOL     OW19567   3.935   0.958   3.623  0.7307 -0.0150 -0.0817
 2644SOL    HW119568   3.898   0.874   3.597  0.7805  0.2881 -1.1429
 2644SOL    HW219569   3.894   0.975   3.708 -1.1476  1.0451 -1.1833
 2645SOL     OW19570   4.271   0.398   0.086 -0.4442  0.5213  0.5054
 2645SOL    HW119571   4.313   0.423   0.003 -2.0448  0.9314 -0.1842
 2645SOL    HW219572   4.216   0.473   0.108  1.3700  1.4996  1.6186
 2646SOL     OW19573   0.712   1.717   7.518  0.0189 -0.1263 -0.3341
 2646SOL    HW119574   0.644   1.694   7.581  1.4153 -0.7298  0.9536
 2646SOL    HW219575   0.778   1.751   7.578  0.7677  0.1683 -1.3208
 2647SOL     OW19576   4.510   3.244   2.622  0.3220  0.6984  0.1155
 2647SOL    HW119577   4.443   3.180   2.647  0.2217  0.2803 -1.2230
 2647SOL    HW219578   4.578   3.182   2.596  1.3102  1.8835 -0.1295
 2648SOL     OW19579   1.433   0.977   2.432 -0.1685  0.1643  0.2754
 2648SOL    HW119580   1.521   0.947   2.409 -0.4539 -0.7990  0.4178
 2648SOL    HW219581   1.388   0.901   2.395 -0.3874 -0.1144  1.1140
 2649SOL     OW19582   3.666   2.348   6.292  0.0677 -0.3333 -0.0805
 2649SOL    HW119583   3.575   2.377   6.299 -0.0630 -0.7706  0.0023
 2649SOL    HW219584   3.649   2.254   6.287  0.2471 -0.4388  1.3329
 2650SOL     OW19585   4.449   3.696   7.092  0.0636  0.4716 -0.3417
 2650SOL    HW119586   4.359   3.724   7.074 -0.4856 -1.3209 -0.3043
 2650SOL    HW219587   4.474   3.683   7.001 -3.5376 -0.9608 -1.1085
 2651SOL     OW19588   3.348   2.327   1.155  0.2288  0.3310  1.0498
 2651SOL    HW119589   3.279   2.363   1.211 -0.6983  0.0548  0.0845
 2651SOL    HW219590   3.340   2.383   1.078  0.2728 -0.9776  0.1034
 2652SOL     OW19591   1.819   0.898  11.106  0.4383 -0.4514  0.4029
 2652SOL    HW119592   1.811   0.936  11.194  1.4478  0.2677  0.1870
 2652SOL    HW219593   1.733   0.858  11.097  0.1627  0.7793 -2.3606
 2653SOL     OW19594   0.956   1.195   7.417 -0.6377  0.2516  0.1679
 2653SOL    HW119595   0.913   1.259   7.474 -1.2349  2.1158 -2.3826
 2653SOL    HW219596   0.965   1.248   7.338 -1.4119 -0.3478 -0.3214
 2654SOL     OW19597   2.765   0.452   3.279  1.0009  0.2285 -0.4514
 2654SOL    HW119598   2.814   0.370   3.275 -2.4274 -1.7832 -0.7852
 2654SOL    HW219599   2.674   0.426   3.266  1.3249  0.3506 -2.9690
 2655SOL     OW19600   3.863   0.619   7.685  0.3652  0.4908  0.4228
 2655SOL    HW119601   3.879   0.713   7.698 -0.9544  0.5555  1.4970
 2655SOL    HW219602   3.796   0.618   7.616  1.4194  1.4537 -0.6312
 2656SOL     OW19603   2.610   4.492   5.161 -0.2746 -0.2030  0.0243
 2656SOL    HW119604   2.531   4.499   5.214 -1.1662  0.1110 -1.3474
 2656SOL    HW219605   2.671   4.467   5.231  1.7931  1.6084 -1.1071
 2657SOL     OW19606   0.432   4.196   7.124 -0.2000  0.4105 -0.2251
 2657SOL    HW119607   0.348   4.178   7.081  0.0878 -0.4937 -0.4098
 2657SOL    HW219608   0.461   4.105   7.129 -1.7527  0.0001  1.3816
 2658SOL     OW19609   2.983   0.542  15.720 -1.0799 -0.0543 -0.0691
 2658SOL    HW119610   2.978   0.498  15.805  2.8933  2.7910  1.6499
 2658SOL    HW219611   3.049   0.606  15.746 -1.6380  0.0705  1.0619
 2659SOL     OW19612   4.056   2.933   4.347  0.3005 -0.4329  0.5178
 2659SOL    HW119613   3.988   2.990   4.382  1.4277  0.8367  0.6494
 2659SOL    HW219614   4.011   2.863   4.300 -0.6874  1.5050 -1.3846
 2660SOL     OW19615   4.217   0.357   8.259 -0.7908 -0.3334  0.4521
 2660SOL    HW119616   4.200   0.450   8.268  0.3003  0.1696 -2.6648
 2660SOL    HW219617   4.182   0.328   8.343  1.2699 -1.5435  0.9029
 2661SOL     OW19618   1.589   1.805   9.613  0.4793 -0.0936 -0.1456
 2661SOL    HW119619   1.524   1.787   9.681  1.4736  3.0086  1.5969
 2661SOL    HW219620   1.634   1.883   9.646  0.2430 -0.3059  0.6877
 2662SOL     OW19621   3.654   3.832   7.368 -0.1771 -0.1746  0.6503
 2662SOL    HW119622   3.642   3.908   7.425  0.3411  0.2487  0.1886
 2662SOL    HW219623   3.610   3.855   7.286  1.6215  1.3632  0.1325
 2663SOL     OW19624   0.404   1.752   7.150  0.4465 -0.1027  0.0554
 2663SOL    HW119625   0.337   1.725   7.213  0.3923 -0.4515 -0.1528
 2663SOL    HW219626   0.409   1.846   7.170  3.4011 -0.5290  1.3570
 2664SOL     OW19627   1.973   4.048   6.452 -0.1810  0.1683 -0.0974
 2664SOL    HW119628   2.001   4.129   6.495  1.6675  0.2894 -1.5384
 2664SOL    HW219629   1.954   4.077   6.363  0.3578 -0.7133 -0.4961
 2665SOL     OW19630   0.963   3.824   9.671 -0.3944  0.0050  0.0095
 2665SOL    HW119631   0.967   3.865   9.757  0.4473 -1.5077  0.7018
 2665SOL    HW219632   1.053   3.802   9.646 -0.3421 -0.7212  0.8119
 2666SOL     OW19633   1.830   3.807  12.546  0.0833  0.1962 -0.2418
 2666SOL    HW119634   1.922   3.804  12.520  0.0223  1.9297 -0.6437
 2666SOL    HW219635   1.832   3.817  12.641 -0.0137 -3.8236  0.1804
 2667SOL     OW19636   0.211   2.740   5.467 -0.1583 -0.2455 -0.6548
 2667SOL    HW119637   0.260   2.806   5.416 -2.5535  1.8339 -0.2672
 2667SOL    HW219638   0.133   2.733   5.412 -0.3999  2.1906 -0.6508
 2668SOL     OW19639   3.716   4.561   3.337 -0.3406  0.1648  0.7812
 2668SOL    HW119640   3.664   4.625   3.386 -0.9615  1.2746 -1.2960
 2668SOL    HW219641   3.802   4.602   3.335 -0.4484  0.4659  2.6706
 2669SOL     OW19642   3.314   3.357   9.870  0.5173 -0.2684 -0.3006
 2669SOL    HW119643   3.300   3.386   9.780 -0.3226  0.7109  0.1530
 2669SOL    HW219644   3.226   3.379   9.898  0.2603  0.0716 -1.3866
 2670SOL     OW19645   4.699   4.613  16.712  0.3996  0.0071 -0.2382
 2670SOL    HW119646   4.678   4.706  16.699  0.4389  0.2588  1.4844
 2670SOL    HW219647   4.643   4.585  16.784  0.2405 -1.3555 -0.8877
 2671SOL     OW19648   3.313   3.306   1.361 -0.2454  0.0241  0.0974
 2671SOL    HW119649   3.296   3.400   1.347  0.7802  0.1047 -0.5349
 2671SOL    HW219650   3.378   3.320   1.430  1.5151 -2.7248 -1.0112
 2672SOL     OW19651   2.187   0.246  13.457 -0.1060  0.8433  0.1353
 2672SOL    HW119652   2.158   0.216  13.543 -1.8604  1.6980 -0.1560
 2672SOL    HW219653   2.266   0.297  13.476 -0.2259  0.8788  0.5286
 2673SOL     OW19654   2.727   2.460   4.864  0.2864 -0.0439  0.0133
 2673SOL    HW119655   2.741   2.410   4.783 -0.8343  1.4257 -1.0971
 2673SOL    HW219656   2.817   2.477   4.891 -0.1198  1.6404  0.3284
 2674SOL     OW19657   1.239   3.005   5.943 -0.0123  0.0567  0.2592
 2674SOL    HW119658   1.174   2.954   5.894  0.4127  0.3807 -0.6425
 2674SOL    HW219659   1.286   3.039   5.867  1.3460 -2.5991 -0.1078
 2675SOL     OW19660   0.231   1.397   7.646 -0.6636  0.6046 -0.0798
 2675SOL    HW119661   0.269   1.311   7.629 -2.4761 -0.3957  0.8895
 2675SOL    HW219662   0.240   1.389   7.741  0.0819  0.8355 -0.1315
 2676SOL     OW19663   0.562   2.556  16.107  0.9479 -0.4198  0.0355
 2676SOL    HW119664   0.629   2.602  16.156  1.7059  0.5174 -1.8957
 2676SOL    HW219665   0.596   2.574  16.019  0.1831 -0.0365 -0.1891
 2677SOL     OW19666   0.830   3.438  12.137 -0.3731 -0.4236  0.0173
 2677SOL    HW119667   0.849   3.376  12.066  1.4499 -0.3491  0.4338
 2677SOL    HW219668   0.862   3.387  12.211 -1.2189 -0.8429  0.1003
 2678SOL     OW19669   1.921   3.952   5.218 -0.0596  0.3537  0.0577
 2678SOL    HW119670   1.854   4.019   5.211 -2.5967 -2.0078  1.5560
 2678SOL    HW219671   1.973   3.962   5.139  0.8424 -0.2723  0.5695
 2679SOL     OW19672   2.068   4.574  15.132 -0.0284 -0.3967 -0.4852
 2679SOL    HW119673   2.124   4.564  15.209 -0.4377  0.9224 -0.0101
 2679SOL    HW219674   2.053   4.486  15.098 -0.3310 -0.9054  0.9460
 2680SOL     OW19675   3.241   2.872   3.942  0.2585 -0.3682 -0.1031
 2680SOL    HW119676   3.325   2.825   3.940  0.4401  0.0126 -2.1240
 2680SOL    HW219677   3.261   2.934   4.011  0.2136 -0.5817  0.0998
 2681SOL     OW19678   1.567   3.638   8.148 -0.5872  0.3359  0.5305
 2681SOL    HW119679   1.523   3.698   8.087  0.3215  1.8194  1.3491
 2681SOL    HW219680   1.609   3.704   8.203  2.2215 -0.1112 -1.0893
 2682SOL     OW19681   3.878   1.641   1.189 -0.3780 -0.6161  0.2198
 2682SOL    HW119682   3.805   1.684   1.234 -0.0013 -1.0866  1.2907
 2682SOL    HW219683   3.934   1.718   1.181 -1.6225  0.3187  0.4729
 2683SOL     OW19684   4.637   1.560   2.606 -0.1581  0.4755  0.5677
 2683SOL    HW119685   4.618   1.652   2.589  0.7945  0.3941 -0.8759
 2683SOL    HW219686   4.715   1.577   2.658 -1.5080  0.0387  2.7836
 2684SOL     OW19687   0.686   0.355  13.746 -0.5045  0.1240 -0.2394
 2684SOL    HW119688   0.629   0.422  13.709 -1.7189  0.5617  2.4209
 2684SOL    HW219689   0.721   0.396  13.826 -0.7225 -1.9106  0.9165
 2685SOL     OW19690   2.819   3.613   3.403 -0.3531  0.3024 -0.5900
 2685SOL    HW119691   2.802   3.532   3.355 -0.3876  0.5952 -1.0691
 2685SOL    HW219692   2.805   3.685   3.341 -0.1202 -1.1630 -2.3577
 2686SOL     OW19693   2.998   0.200  14.288  0.0742 -0.2429  0.2015
 2686SOL    HW119694   2.984   0.127  14.349 -0.4344  0.7377  1.2434
 2686SOL    HW219695   3.059   0.170  14.221 -0.4474 -1.1289  0.1121
 2687SOL     OW19696   3.792   0.650   8.915  0.0143  0.4273 -0.1481
 2687SOL    HW119697   3.776   0.556   8.915 -0.1616  0.4571 -0.1856
 2687SOL    HW219698   3.818   0.656   9.007  1.1389 -1.8717 -0.3195
 2688SOL     OW19699   1.620   1.898   4.084 -0.4420  0.4771 -0.0189
 2688SOL    HW119700   1.597   1.932   4.171 -1.4815 -0.0741 -0.0691
 2688SOL    HW219701   1.649   1.807   4.094  0.8209  0.9733  0.8667
 2689SOL     OW19702   4.455   2.581   9.500  0.6437 -0.5690  0.1141
 2689SOL    HW119703   4.371   2.609   9.536  0.7211 -1.2021  0.7854
 2689SOL    HW219704   4.427   2.500   9.458  1.1079  0.8467 -2.9159
 2690SOL     OW19705   0.586   3.926   5.281  0.0853 -0.4348 -0.1485
 2690SOL    HW119706   0.525   3.999   5.297  1.9761  1.7633 -2.9578
 2690SOL    HW219707   0.639   3.953   5.206 -0.2445 -1.3924 -0.7240
 2691SOL     OW19708   0.133   0.548   4.763  0.0376  0.0688 -0.5458
 2691SOL    HW119709   0.135   0.467   4.713 -1.6684  0.2635 -0.9172
 2691SOL    HW219710   0.225   0.570   4.776  0.2214 -1.6018  0.9856
 2692SOL     OW19711   0.606   3.913   2.721  0.3724  0.1261 -0.8464
 2692SOL    HW119712   0.612   4.008   2.730 -0.6292  0.0295  0.7237
 2692SOL    HW219713   0.611   3.874   2.808 -1.0311  1.0518 -0.3518
 2693SOL     OW19714   3.182   4.538  16.371  0.0505 -0.5487  0.2358
 2693SOL    HW119715   3.243   4.528  16.298  0.3201  0.1506  0.3656
 2693SOL    HW219716   3.160   4.449  16.395  0.2139 -0.7103 -0.2080
 2694SOL     OW19717   3.003   0.689   8.863  0.2987 -0.3076  0.1714
 2694SOL    HW119718   2.916   0.679   8.823 -0.3762  0.3707  1.4610
 2694SOL    HW219719   3.056   0.637   8.803 -1.3001 -0.4167 -1.1582
 2695SOL     OW19720   3.146   3.486   2.340 -0.2689  0.0541  0.0552
 2695SOL    HW119721   3.234   3.518   2.356  0.1194 -1.3995  0.7818
 2695SOL    HW219722   3.107   3.570   2.312  2.0885  0.9658 -0.4754
 2696SOL     OW19723   4.609   4.416  15.575  0.5242 -0.0585  0.1598
 2696SOL    HW119724   4.667   4.485  15.606  0.6565 -0.4299  0.7426
 2696SOL    HW219725   4.665   4.340  15.563  0.4744  0.4028 -2.9752
 2697SOL     OW19726   4.179   2.983  14.768  0.4335  0.4925  0.3500
 2697SOL    HW119727   4.231   2.933  14.831 -1.3747  0.6237  1.9560
 2697SOL    HW219728   4.200   2.942  14.685  1.7375  1.4760  0.2022
 2698SOL     OW19729   4.433   2.489   7.018  0.4451  0.6329 -0.1370
 2698SOL    HW119730   4.483   2.535   7.086  0.9282  1.4712 -1.0500
 2698SOL    HW219731   4.389   2.557   6.967  0.3889  0.3454 -0.4776
 2699SOL     OW19732   0.885   1.761   7.997  0.1884  0.1332 -0.0262
 2699SOL    HW119733   0.926   1.676   8.010 -2.2227 -0.7483  2.0175
 2699SOL    HW219734   0.797   1.742   8.031  0.8014  1.3944  2.3084
 2700SOL     OW19735   3.358   0.975  11.503  0.7972 -0.0481 -0.3208
 2700SOL    HW119736   3.277   0.998  11.458  0.7539 -1.1052 -0.7794
 2700SOL    HW219737   3.327   0.913  11.569  1.2077 -0.1816 -0.2533
 2701SOL     OW19738   4.108   2.940   6.373  0.0495 -0.0341  0.0109
 2701SOL    HW119739   4.033   2.882   6.391 -1.8643  1.5731 -2.6878
 2701SOL    HW219740   4.184   2.884   6.387 -0.5770 -0.3019  2.3004
 2702SOL     OW19741   0.102   0.246   2.848 -0.2730  0.3043  0.2063
 2702SOL    HW119742   0.051   0.172   2.816  1.8673 -1.6606  1.3365
 2702SOL    HW219743   0.087   0.310   2.778 -0.9725  0.2128  0.2717
 2703SOL     OW19744   3.910   4.603  16.693  1.2497 -0.3880 -0.0719
 2703SOL    HW119745   3.994   4.602  16.740  0.4275  1.6710  1.4484
 2703SOL    HW219746   3.899   4.514  16.662  0.1487 -0.4391  0.4642
 2704SOL     OW19747   4.085   4.182   3.003  0.1343 -0.4287  0.1279
 2704SOL    HW119748   4.160   4.137   2.964  0.1747  1.0601 -1.5236
 2704SOL    HW219749   4.103   4.180   3.097  1.0084  0.2144 -0.0225
 2705SOL     OW19750   1.673   3.236   3.898 -0.3013  0.0493 -0.3605
 2705SOL    HW119751   1.630   3.190   3.826  0.2003 -0.6551 -0.2075
 2705SOL    HW219752   1.757   3.194   3.915 -0.5077 -0.0591  0.4147
 2706SOL     OW19753   4.319   3.550  14.627 -0.3875  0.0316 -0.4616
 2706SOL    HW119754   4.256   3.559  14.699  0.3450 -0.0148  0.1889
 2706SOL    HW219755   4.279   3.595  14.553 -0.4819 -0.3336 -0.6364
 2707SOL     OW19756   4.680   4.037   0.504 -0.9388  0.2647  0.1767
 2707SOL    HW119757   4.609   4.030   0.568 -1.1170  0.3717 -0.0104
 2707SOL    HW219758   4.664   3.956   0.457 -0.4234  0.2316  0.0543
 2708SOL     OW19759   3.003   3.828   1.747 -0.2775 -0.2250 -0.3226
 2708SOL    HW119760   2.949   3.885   1.692  1.0430  0.1988 -1.1963
 2708SOL    HW219761   2.974   3.743   1.715 -0.0123 -0.5978  0.4351
 2709SOL     OW19762   2.723   2.635   9.224  0.2222  0.3749 -0.5818
 2709SOL    HW119763   2.657   2.565   9.219  1.5880 -0.8454 -1.3633
 2709SOL    HW219764   2.733   2.655   9.317  1.6533 -3.4075  0.0927
 2710SOL     OW19765   4.000   1.208  15.631 -0.4842 -0.2049 -0.8673
 2710SOL    HW119766   3.914   1.202  15.672  0.2218  1.9874  0.9371
 2710SOL    HW219767   3.969   1.219  15.542  0.9593 -0.5464 -1.4131
 2711SOL     OW19768   1.898   3.641  10.862 -0.4059  0.6074 -0.4332
 2711SOL    HW119769   1.970   3.611  10.918  2.0076  0.6701 -3.5199
 2711SOL    HW219770   1.828   3.592  10.905  1.1313  0.4856  1.9452
 2712SOL     OW19771   0.187   4.691  16.581 -0.1383  0.7155 -0.7385
 2712SOL    HW119772   0.112   4.675  16.638  0.4670  1.2344  0.2272
 2712SOL    HW219773   0.180   0.046  16.555  0.4374  1.1765  0.7183
 2713SOL     OW19774   0.165   1.865  12.774 -0.1877 -0.3765  0.6070
 2713SOL    HW119775   0.260   1.878  12.766 -0.4712  0.9300 -0.6820
 2713SOL    HW219776   0.151   1.776  12.743 -0.0766  0.1896 -1.0430
 2714SOL     OW19777   3.957   1.100   5.566  0.8460  0.0069  0.1081
 2714SOL    HW119778   3.992   1.188   5.575 -1.4269  0.6828  2.5546
 2714SOL    HW219779   3.907   1.122   5.487  2.9578  1.9607 -0.6589
 2715SOL     OW19780   4.202   0.009   4.455  0.2520  0.4653  0.0918
 2715SOL    HW119781   4.281   0.055   4.428  0.0482  2.5314  3.0042
 2715SOL    HW219782   4.139   0.076   4.480  0.5353  0.1645  1.6124
 2716SOL     OW19783   2.662   4.321  10.624 -0.3833  0.1576  0.4935
 2716SOL    HW119784   2.632   4.362  10.543 -0.4944 -1.8803 -0.5008
 2716SOL    HW219785   2.729   4.261  10.591 -2.8118 -0.9629 -2.4093
 2717SOL     OW19786   2.569   2.190  11.134 -0.1373 -0.3823  0.4998
 2717SOL    HW119787   2.496   2.159  11.080  0.4226  0.2635 -0.6362
 2717SOL    HW219788   2.520   2.213  11.212 -2.7667  0.5464 -1.4254
 2718SOL     OW19789   3.192   4.094   0.170 -0.3563  0.1455 -0.2059
 2718SOL    HW119790   3.246   4.137   0.236 -0.4196  0.9946 -0.7123
 2718SOL    HW219791   3.197   4.146   0.090  0.5510 -0.8018 -0.7680
 2719SOL     OW19792   2.977   1.439   8.204  0.1286 -0.9374 -0.3952
 2719SOL    HW119793   2.949   1.434   8.113  0.8194 -1.0164 -0.6021
 2719SOL    HW219794   3.070   1.422   8.192  0.1175 -3.4612  3.3863
 2720SOL     OW19795   3.553   0.344   8.029 -0.1164  0.0076 -0.5603
 2720SOL    HW119796   3.631   0.362   8.082 -0.4911  0.1498 -0.0621
 2720SOL    HW219797   3.584   0.388   7.949 -0.0307 -0.5596 -0.8389
 2721SOL     OW19798   4.627   2.525  14.801  0.5219  0.7416 -0.5818
 2721SOL    HW119799   4.652   2.585  14.731  1.3108  2.4298  1.1618
 2721SOL    HW219800   4.639   2.444  14.751  1.6903  0.2712  0.4578
 2722SOL     OW19801   0.102   4.251  12.784  0.4825  0.8440 -0.3529
 2722SOL    HW119802   0.070   4.319  12.843  0.4620  0.5335 -0.0098
 2722SOL    HW219803   0.066   4.176  12.832  1.3254 -0.5595 -1.9223
 2723SOL     OW19804   4.173   4.362   0.534  0.0769 -0.1081 -0.4484
 2723SOL    HW119805   4.205   4.433   0.478 -0.2032  0.0242 -0.4452
 2723SOL    HW219806   4.105   4.404   0.586  0.9033  1.9863 -1.0524
 2724SOL     OW19807   0.118   3.306   4.015 -0.0937 -0.3312 -1.2703
 2724SOL    HW119808   0.102   3.239   3.948 -1.0479 -1.6534  0.2803
 2724SOL    HW219809   0.203   3.336   3.980  0.3737 -0.7970 -0.5258
 2725SOL     OW19810   0.535   1.744  13.246  0.1845  0.2990  0.3829
 2725SOL    HW119811   0.485   1.716  13.323 -1.1001  2.2141  0.2523
 2725SOL    HW219812   0.592   1.667  13.238  0.3028  0.3711  0.5472
 2726SOL     OW19813   3.376   3.577   7.087  0.3820 -0.0896  0.1365
 2726SOL    HW119814   3.376   3.553   7.180  0.0964  1.8536  0.6432
 2726SOL    HW219815   3.463   3.613   7.072  0.3678  1.0284  2.6933
 2727SOL     OW19816   0.417   1.107  17.232  0.1735 -0.0614  0.2136
 2727SOL    HW119817   0.439   1.157  17.153 -1.7282 -3.2655 -2.3599
 2727SOL    HW219818   0.500   1.065  17.251  0.8010  1.7794  1.5572
 2728SOL     OW19819   2.199   0.975   4.498 -0.7072  0.2926 -0.8436
 2728SOL    HW119820   2.226   0.896   4.451  1.3772  0.7793 -0.4964
 2728SOL    HW219821   2.116   0.943   4.532  0.2163  0.2468  1.3650
 2729SOL     OW19822   3.913   3.185  13.642 -0.1583  0.6399 -0.0396
 2729SOL    HW119823   3.869   3.105  13.613 -0.5238  0.0562  2.0955
 2729SOL    HW219824   3.905   3.174  13.737 -0.8718  0.2432 -0.1490
 2730SOL     OW19825   1.519   4.630   5.104  0.1376 -0.1174  0.6080
 2730SOL    HW119826   1.426   4.637   5.084  0.6696 -0.1904 -1.8946
 2730SOL    HW219827   1.513   4.553   5.161 -0.6917 -0.2874  0.2817
 2731SOL     OW19828   4.322   1.585  15.991  0.5270 -0.6143  0.0026
 2731SOL    HW119829   4.282   1.547  15.913 -0.9488 -0.4523  0.6777
 2731SOL    HW219830   4.325   1.680  15.981 -0.3316 -0.3525  2.0938
 2732SOL     OW19831   4.264   1.866   7.380  0.3070 -0.0489  0.5013
 2732SOL    HW119832   4.293   1.796   7.438 -2.3359 -1.1306  0.5031
 2732SOL    HW219833   4.194   1.831   7.325  0.2781  0.3349  0.2970
 2733SOL     OW19834   1.882   1.193   7.795  0.4772 -0.3386  0.1930
 2733SOL    HW119835   1.839   1.123   7.745 -1.2189  1.4376 -0.8305
 2733SOL    HW219836   1.936   1.148   7.861 -0.5040 -0.5326  0.8705
 2734SOL     OW19837   0.319   4.583   9.321 -0.5562 -0.4828  0.9060
 2734SOL    HW119838   0.342   4.676   9.329 -0.5100 -0.3774 -0.5306
 2734SOL    HW219839   0.261   4.587   9.397 -1.4714  1.4868  0.0952
 2735SOL     OW19840   4.245   3.316   3.677 -0.5191  0.0985 -0.4609
 2735SOL    HW119841   4.307   3.299   3.748 -2.0569  1.6745  1.2565
 2735SOL    HW219842   4.305   3.295   3.606  1.2170  0.6990  0.8115
 2736SOL     OW19843   3.206   1.964   6.233  0.0858 -0.2155 -0.1248
 2736SOL    HW119844   3.273   2.029   6.255 -0.6738  0.2339  0.8373
 2736SOL    HW219845   3.262   1.909   6.178  3.4848  4.5662 -1.4796
 2737SOL     OW19846   0.025   2.558   8.112  0.3703 -0.4112 -0.0132
 2737SOL    HW119847   0.031   2.589   8.022 -3.7809 -1.1273 -0.5142
 2737SOL    HW219848   0.026   2.464   8.099 -2.0077 -0.2072 -1.5528
 2738SOL     OW19849   1.835   1.826   3.642 -0.6232  0.0632  0.7054
 2738SOL    HW119850   1.776   1.771   3.694  0.1356 -0.0135  1.4701
 2738SOL    HW219851   1.863   1.762   3.576  1.3792  1.3481  0.3059
 2739SOL     OW19852   2.244   2.951  17.419  0.3264  0.3245 -0.2364
 2739SOL    HW119853   2.330   2.981  17.390  0.3780 -0.7789 -1.2477
 2739SOL    HW219854   2.202   3.036  17.432 -1.0053 -0.0270 -2.3283
 2740SOL     OW19855   1.162   3.493   3.206  0.4585 -0.5971 -0.7116
 2740SOL    HW119856   1.164   3.577   3.159 -3.4431 -0.0604  0.1215
 2740SOL    HW219857   1.252   3.479   3.234  0.2837 -0.0476  0.1088
 2741SOL     OW19858   3.736   3.324  11.899 -0.1801  0.4530  0.2401
 2741SOL    HW119859   3.763   3.232  11.890  0.5123  0.5538  1.3379
 2741SOL    HW219860   3.644   3.310  11.875 -0.2280  0.6199  0.3279
 2742SOL     OW19861   2.830   3.939  17.003 -0.0292  0.1452 -0.1467
 2742SOL    HW119862   2.776   3.861  16.990  0.3701 -0.4231  1.6043
 2742SOL    HW219863   2.803   3.979  17.086 -2.8618 -0.8786 -0.5959
 2743SOL     OW19864   4.002   0.895   4.289  0.3001 -0.4380 -0.4631
 2743SOL    HW119865   4.047   0.868   4.369  1.3605  2.3248 -0.1253
 2743SOL    HW219866   4.055   0.844   4.228  1.8550 -1.0196  1.3784
 2744SOL     OW19867   3.146   1.129   6.246 -0.2627 -0.0230  0.1422
 2744SOL    HW119868   3.095   1.151   6.324 -1.3581  1.6900 -1.0551
 2744SOL    HW219869   3.229   1.118   6.293  0.4991  0.5557 -1.0770
 2745SOL     OW19870   0.177   0.721  11.244 -0.3325  0.2353  0.7198
 2745SOL    HW119871   0.249   0.784  11.249 -0.4132  0.3174  0.8629
 2745SOL    HW219872   0.210   0.650  11.297  2.4374  1.2008  0.3056
 2746SOL     OW19873   3.772   2.064   7.660  0.2495  0.3964  0.3009
 2746SOL    HW119874   3.804   2.088   7.747 -1.3981  2.1583  0.4147
 2746SOL    HW219875   3.697   2.123   7.649 -0.7831 -1.2689 -1.6466
 2747SOL     OW19876   2.272   3.957   3.206  0.6592 -0.2335 -0.3748
 2747SOL    HW119877   2.309   3.892   3.266  1.3931  0.4758 -0.0572
 2747SOL    HW219878   2.270   3.907   3.125  0.6987 -0.8070 -0.0209
 2748SOL     OW19879   0.919   0.881   6.479  0.0556  0.4685 -0.1841
 2748SOL    HW119880   0.960   0.957   6.521  0.5276  0.5136 -0.7068
 2748SOL    HW219881   0.920   0.822   6.554  0.2332  0.2019 -0.3950
 2749SOL     OW19882   1.829   0.869   4.054  0.3288 -0.2473 -0.0586
 2749SOL    HW119883   1.741   0.833   4.063  0.0167 -0.1044 -2.5976
 2749SOL    HW219884   1.822   0.946   4.110 -1.6476  0.1730 -0.8958
 2750SOL     OW19885   0.917   3.115   2.032 -0.0558  0.5757 -0.2143
 2750SOL    HW119886   0.951   3.111   1.943 -1.7566  1.1716 -0.8947
 2750SOL    HW219887   0.827   3.093   2.008 -0.3813 -0.5795  1.9992
 2751SOL     OW19888   0.907   3.185   8.855 -0.0597 -0.3618 -0.2054
 2751SOL    HW119889   0.928   3.248   8.923 -0.5496  0.7906 -1.1385
 2751SOL    HW219890   0.812   3.180   8.855 -0.0717 -0.0970 -0.7690
 2752SOL     OW19891   1.906   1.338  10.562  0.1132 -0.0073 -0.4319
 2752SOL    HW119892   1.980   1.386  10.601 -1.0521 -0.2943  2.1680
 2752SOL    HW219893   1.847   1.413  10.553 -2.5604 -2.1187 -0.3044
 2753SOL     OW19894   0.069   3.747  16.543 -0.2309  0.0151 -0.3209
 2753SOL    HW119895   0.149   3.776  16.499 -0.0005 -2.4290 -1.4804
 2753SOL    HW219896   0.102   3.660  16.565 -0.2180  0.2371  0.5414
 2754SOL     OW19897   1.759   3.578  15.063  0.0242 -0.5781  0.8214
 2754SOL    HW119898   1.748   3.663  15.106  1.2933  0.5265 -1.0291
 2754SOL    HW219899   1.835   3.579  15.005 -1.2779  1.1548 -0.8357
 2755SOL     OW19900   2.578   3.234   8.564  0.0561 -0.5840  0.1841
 2755SOL    HW119901   2.493   3.278   8.561 -0.4039 -1.3539  2.5157
 2755SOL    HW219902   2.547   3.147   8.589 -1.5987 -0.6722 -2.1723
 2756SOL     OW19903   1.576   3.745   5.456 -0.0493  0.1648  0.1527
 2756SOL    HW119904   1.642   3.692   5.502  2.2405  0.7965 -2.3647
 2756SOL    HW219905   1.515   3.743   5.529  1.9860  0.1103  1.8500
 2757SOL     OW19906   3.309   3.266   9.333  0.2957 -0.0006  0.0674
 2757SOL    HW119907   3.214   3.279   9.324  0.4970  1.5040  0.1811
 2757SOL    HW219908   3.326   3.184   9.287  0.6212  0.1919 -0.1496
 2758SOL     OW19909   2.711   1.532   3.509 -0.2049 -0.9617 -0.0445
 2758SOL    HW119910   2.643   1.589   3.544 -1.4861 -1.6925 -1.3345
 2758SOL    HW219911   2.666   1.448   3.524  1.2117 -1.1343  3.2140
 2759SOL     OW19912   1.203   3.842   5.068  0.1978 -0.0977 -0.3702
 2759SOL    HW119913   1.183   3.777   5.000 -3.4432  0.5293  0.0747
 2759SOL    HW219914   1.220   3.785   5.143  1.3432  0.4624 -0.2162
 2760SOL     OW19915   1.697   1.418   6.665  0.1985 -0.1187  0.4100
 2760SOL    HW119916   1.730   1.501   6.630 -0.7542 -0.4443 -1.2620
 2760SOL    HW219917   1.624   1.452   6.715 -0.3791 -0.9452  0.1318
 2761SOL     OW19918   2.919   2.942   8.255 -0.2137  0.2139 -0.5611
 2761SOL    HW119919   2.896   2.945   8.162 -0.0747  0.9569 -0.5775
 2761SOL    HW219920   2.840   2.911   8.298  0.7755 -2.5956 -0.8088
 2762SOL     OW19921   3.760   1.947   6.600 -0.3171 -0.0467 -0.6324
 2762SOL    HW119922   3.669   1.927   6.621  0.9710 -3.6448  1.5890
 2762SOL    HW219923   3.752   1.917   6.509  1.4905  0.0229 -0.8221
 2763SOL     OW19924   1.567   2.521   4.326  0.0396 -0.3048  0.0984
 2763SOL    HW119925   1.635   2.544   4.390  1.0259  2.0651 -1.7883
 2763SOL    HW219926   1.491   2.503   4.381  0.0974 -1.6221 -0.2536
 2764SOL     OW19927   3.801   3.540   5.801 -0.4416  0.0398  0.6177
 2764SOL    HW119928   3.812   3.445   5.800 -2.5115 -0.2148  2.9605
 2764SOL    HW219929   3.719   3.532   5.753 -0.3597  1.1901  0.2973
 2765SOL     OW19930   4.567   4.117   7.111  0.1907 -0.1614 -0.0149
 2765SOL    HW119931   4.529   4.061   7.180 -0.9798  2.5734  1.5634
 2765SOL    HW219932   4.604   4.045   7.061  1.6208  0.4840  0.1261
 2766SOL     OW19933   1.646   4.576   2.547 -0.5881  0.1041  0.3447
 2766SOL    HW119934   1.567   4.630   2.545 -0.4094  0.3201 -1.1715
 2766SOL    HW219935   1.696   4.625   2.613  0.6109  0.3189 -0.7023
 2767SOL     OW19936   0.880   3.558   1.486  0.6300  0.5662 -0.4661
 2767SOL    HW119937   0.927   3.481   1.517 -0.2166 -0.4480 -1.6866
 2767SOL    HW219938   0.798   3.550   1.535  1.1261 -2.4214 -0.1583
 2768SOL     OW19939   4.529   3.990  15.753  0.7486  0.3321  0.0270
 2768SOL    HW119940   4.600   4.040  15.711 -0.6007  1.4548 -0.8927
 2768SOL    HW219941   4.456   4.049  15.738 -1.3605 -1.9273  1.5147
 2769SOL     OW19942   3.143   0.466   7.351 -0.2783  0.3882  0.0216
 2769SOL    HW119943   3.122   0.491   7.261 -0.0422  0.4753 -0.0093
 2769SOL    HW219944   3.122   0.372   7.349 -1.2908  0.6522 -1.4333
 2770SOL     OW19945   0.199   1.682   7.313  0.0266  0.2381 -0.3093
 2770SOL    HW119946   0.157   1.767   7.303 -2.1700 -0.5824  1.9340
 2770SOL    HW219947   0.143   1.634   7.374 -0.1799 -3.0492 -3.1023
 2771SOL     OW19948   4.393   0.106   7.296  0.1755  0.2509  0.3550
 2771SOL    HW119949   4.477   0.067   7.274  0.1955  0.0458  0.7915
 2771SOL    HW219950   4.335   0.031   7.280  2.1112 -1.5565  1.8667
 2772SOL     OW19951   0.146   3.405   8.104 -1.0392 -0.2753  0.1115
 2772SOL    HW119952   0.179   3.444   8.023  0.3190  0.9936  1.2581
 2772SOL    HW219953   0.179   3.468   8.168  0.2998 -0.0949 -0.7514
 2773SOL     OW19954   3.949   3.610   2.628  0.0640  1.0110 -0.4141
 2773SOL    HW119955   4.042   3.590   2.619 -0.4866 -1.7737  0.0820
 2773SOL    HW219956   3.928   3.657   2.709 -0.3780 -0.4067  0.2969
 2774SOL     OW19957   0.802   4.003   3.442 -0.1717 -0.4633 -0.2148
 2774SOL    HW119958   0.726   4.049   3.409  0.5916  1.2764  0.4664
 2774SOL    HW219959   0.791   3.914   3.409  1.2804 -0.5683 -0.4102
 2775SOL     OW19960   1.757   3.398  17.171  0.2520 -0.0995 -0.5919
 2775SOL    HW119961   1.728   3.456  17.242  0.2209 -0.8676  0.0158
 2775SOL    HW219962   1.673   3.372  17.133 -1.1903 -0.7824  3.1626
 2776SOL     OW19963   3.328   3.647   3.089 -0.4629 -0.1045 -0.2670
 2776SOL    HW119964   3.304   3.600   3.169 -1.0884 -0.2185 -0.5232
 2776SOL    HW219965   3.289   3.732   3.112 -0.4455 -0.4576  1.0446
 2777SOL     OW19966   3.250   3.612  13.071  0.5004  0.1015  0.0184
 2777SOL    HW119967   3.232   3.672  12.999 -0.8691 -0.3864 -0.0578
 2777SOL    HW219968   3.343   3.594  13.059  0.5104  1.6020 -2.1233
 2778SOL     OW19969   2.378   4.315  15.520  0.0805 -0.0405  0.0454
 2778SOL    HW119970   2.387   4.250  15.590  3.1134 -0.1340 -0.4249
 2778SOL    HW219971   2.408   4.389  15.573  0.4044 -0.1036 -0.0486
 2779SOL     OW19972   4.025   1.514   8.594  0.0787  0.4028  0.0552
 2779SOL    HW119973   3.970   1.438   8.615 -0.5261  0.4920 -1.2148
 2779SOL    HW219974   4.007   1.559   8.677  0.7053 -1.2496  1.1146
 2780SOL     OW19975   3.382   2.054   3.022  0.0308 -0.0756  0.0953
 2780SOL    HW119976   3.344   2.117   2.961 -1.0740 -1.1255 -0.2784
 2780SOL    HW219977   3.309   1.992   3.026  1.1904 -1.4721 -0.3479
 2781SOL     OW19978   1.215   0.377   3.754  0.5585  0.2511  0.0726
 2781SOL    HW119979   1.173   0.376   3.840 -0.3278 -1.3382 -0.3746
 2781SOL    HW219980   1.136   0.361   3.702  1.0695 -3.2383  0.3536
 2782SOL     OW19981   2.261   0.050   4.510  0.5076 -0.4090 -0.5769
 2782SOL    HW119982   2.209   0.097   4.444 -0.8895 -2.7384 -1.1171
 2782SOL    HW219983   2.325   0.118   4.530 -0.3114  0.0784  0.3597
 2783SOL     OW19984   3.583   1.475   1.304  0.1229  0.1515 -0.4289
 2783SOL    HW119985   3.530   1.549   1.334 -0.8383 -0.1119 -1.4263
 2783SOL    HW219986   3.652   1.497   1.365 -0.4351 -0.9394  0.5984
 2784SOL     OW19987   1.213   3.819   7.093 -0.1625 -0.1110  0.3037
 2784SOL    HW119988   1.291   3.822   7.037  0.3420  0.7635  1.0441
 2784SOL    HW219989   1.176   3.735   7.065  2.1329 -0.7876 -0.6952
 2785SOL     OW19990   4.529   0.431   2.941 -0.3119  0.5908 -0.5852
 2785SOL    HW119991   4.539   0.404   3.032  1.0640  1.6257 -0.4345
 2785SOL    HW219992   4.434   0.420   2.937 -0.1713  0.0268 -2.2073
 2786SOL     OW19993   1.183   3.655   5.272 -0.1120 -0.1970 -0.1450
 2786SOL    HW119994   1.223   3.696   5.349 -1.1372  0.8358 -0.1644
 2786SOL    HW219995   1.177   3.565   5.305 -0.6375 -0.0199  0.2360
 2787SOL     OW19996   1.404   0.220  17.364  0.1149  0.5694 -0.2320
 2787SOL    HW119997   1.407   0.126  17.349 -1.3987  0.5201 -0.2552
 2787SOL    HW219998   1.319   0.243  17.403 -0.5431  1.8350 -2.4129
 2788SOL     OW19999   0.692   1.039   5.246  0.5835 -0.1362 -0.0931
 2788SOL    HW120000   0.636   1.103   5.203 -1.0437 -1.2007  0.4360
 2788SOL    HW220001   0.625   0.999   5.302  0.8684  0.1695  0.4702
 2789SOL     OW20002   4.717   4.627   9.204 -0.3951 -0.2826  0.2419
 2789SOL    HW120003   0.021   4.639   9.290  0.9336  1.3677 -0.6100
 2789SOL    HW220004   0.034   4.555   9.173  3.0053  2.0754  0.6485
 2790SOL     OW20005   0.121   2.282   3.612 -0.4250  0.1502  0.1810
 2790SOL    HW120006   0.178   2.300   3.537  1.1197  2.4982  1.8913
 2790SOL    HW220007   0.088   2.372   3.618 -1.7722 -0.3147 -0.1673
 2791SOL     OW20008   2.450   2.209   1.452  0.0741  0.4337  0.2821
 2791SOL    HW120009   2.508   2.182   1.380 -1.2118  1.5591 -1.1723
 2791SOL    HW220010   2.408   2.285   1.413 -0.1039  0.2835  0.1789
 2792SOL     OW20011   0.050   1.634  12.630 -0.2805  0.1705  0.1787
 2792SOL    HW120012   0.095   1.550  12.640 -0.1798  0.1188 -0.6553
 2792SOL    HW220013   4.693   1.620  12.647 -0.1535 -0.4936  0.3058
 2793SOL     OW20014   3.728   4.628  15.908  0.2221  0.3976 -0.0339
 2793SOL    HW120015   3.822   4.635  15.924  0.5273  0.7427 -1.9971
 2793SOL    HW220016   3.698   4.687  15.977 -3.1652 -1.8375  0.4127
 2794SOL     OW20017   3.906   1.897  14.589  0.2826 -0.2477  0.3083
 2794SOL    HW120018   3.986   1.854  14.561 -0.5579 -1.1243 -0.7104
 2794SOL    HW220019   3.854   1.829  14.632 -1.6086 -0.9019 -3.0553
 2795SOL     OW20020   4.353   0.097   1.164 -0.9129  0.5408 -0.4415
 2795SOL    HW120021   4.420   0.035   1.135 -0.0449  3.1855 -4.1854
 2795SOL    HW220022   4.356   0.164   1.095  1.7219 -0.6419 -1.4695
 2796SOL     OW20023   3.346   0.475   9.276 -0.3123 -0.3860  0.4202
 2796SOL    HW120024   3.396   0.548   9.239 -0.6170 -0.7298 -0.6862
 2796SOL    HW220025   3.419   0.419   9.302  1.8925  0.6156 -3.6008
 2797SOL     OW20026   1.872   1.939  12.022 -0.1910  0.3275 -0.6923
 2797SOL    HW120027   1.777   1.939  12.034 -0.5143  0.4764 -3.2637
 2797SOL    HW220028   1.896   2.002  12.091  2.1015 -1.2015 -0.0935
 2798SOL     OW20029   1.490   4.654   7.084  0.5679 -0.0483  0.1679
 2798SOL    HW120030   1.502   4.686   7.173 -1.6079 -1.7607  1.0791
 2798SOL    HW220031   1.462   4.563   7.093  0.2239 -0.1248 -1.6399
 2799SOL     OW20032   4.115   3.190  11.167  0.0923  0.4290  0.2073
 2799SOL    HW120033   4.142   3.281  11.155  1.7992 -0.2449 -0.9927
 2799SOL    HW220034   4.057   3.192  11.244  1.4164 -0.6697  1.2257
 2800SOL     OW20035   0.037   3.567   3.704 -0.7511 -0.3184  0.4445
 2800SOL    HW120036   0.084   3.491   3.670  0.5989  1.7674 -2.4230
 2800SOL    HW220037   0.092   3.635   3.665 -1.2888 -0.2731 -0.2444
 2801SOL     OW20038   2.555   2.825   9.816 -0.1736  0.0192  0.0354
 2801SOL    HW120039   2.467   2.821   9.780 -0.0811  0.8965 -0.2800
 2801SOL    HW220040   2.540   2.796   9.906 -1.3889  0.4408 -0.0340
 2802SOL     OW20041   4.188   4.277   3.777  0.2733  0.0852  0.4435
 2802SOL    HW120042   4.261   4.228   3.813  0.4541  0.7282  0.9566
 2802SOL    HW220043   4.219   4.312   3.693  1.5208  2.3579  1.8388
 2803SOL     OW20044   0.148   2.116   5.003 -0.4301 -0.3886  0.0577
 2803SOL    HW120045   0.191   2.104   4.919 -0.7091  3.1308 -0.6078
 2803SOL    HW220046   0.205   2.174   5.055  0.0704 -0.5634 -0.2963
 2804SOL     OW20047   2.193   1.418   7.369  0.4370 -0.0993  0.4716
 2804SOL    HW120048   2.150   1.375   7.443  0.4896 -2.1119 -0.6427
 2804SOL    HW220049   2.263   1.356   7.346  1.3919  0.4149  1.9947
 2805SOL     OW20050   4.312   3.551   3.420  0.8213 -0.7765  0.1617
 2805SOL    HW120051   4.393   3.565   3.470 -0.5634 -1.6810  2.6474
 2805SOL    HW220052   4.331   3.457   3.425  0.7235 -0.7979  0.1283
 2806SOL     OW20053   1.078   0.198   5.563  0.3760 -0.0940 -0.0804
 2806SOL    HW120054   1.136   0.130   5.597  3.1061  1.7845 -1.0183
 2806SOL    HW220055   1.055   0.162   5.478  2.7791 -1.2947 -0.2260
 2807SOL     OW20056   1.442   1.883  11.564 -0.9426  0.1927 -0.2347
 2807SOL    HW120057   1.378   1.924  11.622 -2.1997 -2.6396  0.3296
 2807SOL    HW220058   1.435   1.930  11.481 -0.7081  1.3337  0.3922
 2808SOL     OW20059   4.217   4.287  12.667  0.2527 -0.1891 -0.0648
 2808SOL    HW120060   4.302   4.306  12.706 -0.2652  2.7775 -0.4105
 2808SOL    HW220061   4.165   4.305  12.746  0.2424  0.2179 -0.1660
 2809SOL     OW20062   4.332   0.222   2.867  0.4030  0.8780 -0.5269
 2809SOL    HW120063   4.254   0.174   2.837  1.4969 -1.6698  0.6913
 2809SOL    HW220064   4.402   0.165   2.898 -0.2728 -0.4857 -1.4666
 2810SOL     OW20065   2.530   1.787  10.956 -0.5983 -0.6138  0.1206
 2810SOL    HW120066   2.493   1.735  10.885  0.0464 -0.4017 -0.3675
 2810SOL    HW220067   2.577   1.858  10.912 -0.2030  0.1571  1.7697
 2811SOL     OW20068   0.107   2.898   3.648  0.0838  0.1657  0.1779
 2811SOL    HW120069   0.184   2.952   3.630  1.5184 -1.2618  2.1346
 2811SOL    HW220070   0.133   2.825   3.592 -2.1835  0.2104 -0.9355
 2812SOL     OW20071   2.263   1.024   0.876  0.1733  0.6471 -0.2852
 2812SOL    HW120072   2.314   1.090   0.922  0.9645  0.8741 -1.4843
 2812SOL    HW220073   2.325   0.968   0.831  2.4888  2.3106  0.8402
 2813SOL     OW20074   0.713   2.972  10.175 -0.0865  0.3778  0.7896
 2813SOL    HW120075   0.760   2.969  10.258 -0.0849 -0.5998  0.7479
 2813SOL    HW220076   0.623   2.996  10.197  0.0666  0.4456  1.3374
 2814SOL     OW20077   0.576   2.890   0.116  0.3978 -0.0331 -0.2784
 2814SOL    HW120078   0.543   2.905   0.027 -0.8738 -0.2002  0.1690
 2814SOL    HW220079   0.578   2.981   0.144 -1.5946 -0.0036 -0.2271
 2815SOL     OW20080   1.758   3.808  17.568  0.1163 -0.6144  0.3730
 2815SOL    HW120081   1.833   3.753  17.545  0.0349 -0.4475 -0.3045
 2815SOL    HW220082   1.796   3.849  17.645 -0.4042  3.1499 -1.3617
 2816SOL     OW20083   0.363   2.408   6.710 -0.5119  0.0732 -0.3023
 2816SOL    HW120084   0.319   2.367   6.636 -1.3034  1.7349 -0.7482
 2816SOL    HW220085   0.329   2.352   6.781 -0.6994  1.8954  1.0366
 2817SOL     OW20086   1.729   0.051   5.435 -0.3486  0.5194 -0.2614
 2817SOL    HW120087   1.700   0.061   5.344  0.4927  2.8630 -0.2722
 2817SOL    HW220088   1.653   0.074   5.489 -0.0293  0.2220  0.3150
 2818SOL     OW20089   3.872   1.597  17.734  0.2496 -0.0104  0.1648
 2818SOL    HW120090   3.896   1.504  17.734  0.3670  0.0536  4.6193
 2818SOL    HW220091   3.789   1.607  17.687  0.3975 -3.0003 -0.6946
 2819SOL     OW20092   1.662   3.756   4.663 -0.1812  0.7046 -0.1353
 2819SOL    HW120093   1.735   3.697   4.644 -0.0985  1.2997 -1.6370
 2819SOL    HW220094   1.598   3.731   4.596  0.6175  1.6635 -1.2531
 2820SOL     OW20095   0.266   3.940   8.196  0.0345  0.3582 -0.4105
 2820SOL    HW120096   0.256   3.872   8.262  1.5433  1.3088  0.7911
 2820SOL    HW220097   0.350   3.915   8.158 -0.0192 -0.3635 -0.0428
 2821SOL     OW20098   4.446   0.414   8.460 -0.2302 -0.1714  0.3647
 2821SOL    HW120099   4.538   0.421   8.486 -0.8784  0.7362  2.3868
 2821SOL    HW220100   4.459   0.376   8.373 -1.8584  0.2504 -0.0568
 2822SOL     OW20101   0.507   1.536  14.544  0.4613 -0.2825  0.0583
 2822SOL    HW120102   0.541   1.465  14.490  0.7234 -2.3716  2.9679
 2822SOL    HW220103   0.443   1.492  14.600  0.1617  0.0383 -0.0273
 2823SOL     OW20104   2.180   3.610  12.437  0.0166 -0.3076  0.1746
 2823SOL    HW120105   2.171   3.558  12.358  2.5273 -3.7714  2.1819
 2823SOL    HW220106   2.162   3.696  12.399 -2.7741 -0.8723  0.2245
 2824SOL     OW20107   3.489   2.479   5.970 -0.7605 -0.6678  0.3795
 2824SOL    HW120108   3.469   2.386   5.984  0.0656 -0.8212  0.5709
 2824SOL    HW220109   3.546   2.496   6.045 -0.1953 -0.9297  0.0116
 2825SOL     OW20110   2.907   2.978  15.425 -0.1808  0.3030 -0.4131
 2825SOL    HW120111   2.863   2.895  15.406  1.4368 -0.4562 -0.8755
 2825SOL    HW220112   2.995   2.940  15.425  0.3616  1.5679 -0.3078
 2826SOL     OW20113   3.556   4.539   6.300 -0.2138 -0.0070 -0.5518
 2826SOL    HW120114   3.528   4.586   6.221  2.2356  0.0062 -1.4143
 2826SOL    HW220115   3.514   4.453   6.300  1.0431 -0.6113  2.3567
 2827SOL     OW20116   1.416   0.727   3.791  0.2663 -0.5471 -0.1077
 2827SOL    HW120117   1.453   0.815   3.779 -1.1506 -0.1722 -1.6925
 2827SOL    HW220118   1.336   0.747   3.840 -0.6167 -1.2887 -1.2462
 2828SOL     OW20119   4.019   0.119   8.750 -0.7339  0.1399 -0.3141
 2828SOL    HW120120   3.966   0.186   8.706 -0.1501  1.1563  0.5291
 2828SOL    HW220121   3.957   0.092   8.818 -0.1953 -0.3338 -0.0146
 2829SOL     OW20122   1.352   4.515   7.339 -0.1120  0.0388  0.0293
 2829SOL    HW120123   1.383   4.427   7.363  0.4795 -0.0498 -1.0624
 2829SOL    HW220124   1.354   4.560   7.423 -1.9763  1.8839 -0.9267
 2830SOL     OW20125   3.829   2.067   5.817 -0.2781  0.3766  0.2035
 2830SOL    HW120126   3.837   2.008   5.743  0.7361 -0.8384  1.2733
 2830SOL    HW220127   3.887   2.024   5.880 -0.7870 -2.4273 -1.2362
 2831SOL     OW20128   2.503   1.078   3.899 -0.2741  0.1113  0.0928
 2831SOL    HW120129   2.459   1.032   3.972  1.0270 -0.9186  0.2271
 2831SOL    HW220130   2.589   1.095   3.936 -0.4763 -2.8122  1.9325
 2832SOL     OW20131   3.114   4.021  14.675 -0.3356  0.4614 -0.1644
 2832SOL    HW120132   3.135   4.103  14.720 -0.1576 -0.1304  0.8193
 2832SOL    HW220133   3.022   4.031  14.649 -0.7593 -0.9324  0.8496
 2833SOL     OW20134   0.819   4.625   5.130 -0.5219 -0.8809  0.1927
 2833SOL    HW120135   0.858   4.619   5.043  0.6761 -2.3891  0.8270
 2833SOL    HW220136   0.746   4.685   5.119  1.3160  1.5620  1.4716
 2834SOL     OW20137   4.719   1.445   5.098  0.1007 -0.6757 -0.2490
 2834SOL    HW120138   4.635   1.405   5.117 -0.1885  0.2076  0.3508
 2834SOL    HW220139   0.037   1.369   5.120 -0.8564 -1.0416  0.8412
 2835SOL     OW20140   4.489   3.446   4.135  0.1158  0.0372 -0.8884
 2835SOL    HW120141   4.512   3.393   4.211 -1.3605  0.8702  0.1558
 2835SOL    HW220142   4.437   3.523   4.161 -2.1352 -1.9105  0.4099
 2836SOL     OW20143   1.917   2.693   3.706  0.1943  0.4609  0.2010
 2836SOL    HW120144   1.904   2.760   3.638 -0.7282  2.4539  2.3421
 2836SOL    HW220145   1.857   2.624   3.677  1.6239 -1.1457  1.0631
 2837SOL     OW20146   3.261   1.848   5.586 -0.7408  0.4022  0.2353
 2837SOL    HW120147   3.345   1.854   5.632 -0.4199  2.6750 -0.6171
 2837SOL    HW220148   3.214   1.791   5.646 -0.6676  0.2081  0.1063
 2838SOL     OW20149   4.114   3.259  10.838  0.0078  0.1841  0.1487
 2838SOL    HW120150   4.067   3.307  10.907  1.0779  3.3582 -1.3460
 2838SOL    HW220151   4.058   3.182  10.827  1.2052 -0.9210  1.8184
 2839SOL     OW20152   2.043   3.982   8.527 -0.6001  0.3708  0.3384
 2839SOL    HW120153   1.992   3.982   8.445 -0.8417 -0.4792  0.4807
 2839SOL    HW220154   2.117   4.038   8.506 -0.1712 -1.0004 -1.8441
 2840SOL     OW20155   3.620   2.629   2.331 -0.1637  0.0022 -0.1359
 2840SOL    HW120156   3.641   2.690   2.403  0.4660  0.6155 -0.8335
 2840SOL    HW220157   3.542   2.586   2.365 -0.6582  0.9057 -0.1222
 2841SOL     OW20158   2.575   4.376   1.389  0.0782 -0.2303  0.1537
 2841SOL    HW120159   2.527   4.440   1.442  0.1520 -0.1092  0.0734
 2841SOL    HW220160   2.549   4.297   1.437  0.3511  0.2691  1.1174
 2842SOL     OW20161   2.406   0.622  13.773 -0.2288  0.4461 -0.1864
 2842SOL    HW120162   2.357   0.633  13.692 -0.5606 -1.1392 -0.1864
 2842SOL    HW220163   2.453   0.541  13.752  1.1944  1.6252 -1.5350
 2843SOL     OW20164   4.118   4.190   2.545  0.4656  0.0518 -0.5639
 2843SOL    HW120165   4.130   4.274   2.589 -1.8296 -0.9907  1.9841
 2843SOL    HW220166   4.023   4.182   2.541  0.2232  1.8132  1.9298
 2844SOL     OW20167   3.751   4.312   8.260  1.2735  0.0755  0.3991
 2844SOL    HW120168   3.706   4.227   8.254 -0.7155  1.1075  0.5348
 2844SOL    HW220169   3.831   4.297   8.210  2.0079  0.7095  1.3832
 2845SOL     OW20170   2.284   0.977   3.357 -0.0198 -0.5300 -0.4569
 2845SOL    HW120171   2.314   1.029   3.283  1.6270  0.7780  1.1215
 2845SOL    HW220172   2.276   0.896   3.307 -1.5295 -1.1141  0.7197
 2846SOL     OW20173   2.640   4.227  17.154 -0.3779  0.2385  0.1132
 2846SOL    HW120174   2.676   4.295  17.211  2.8960 -1.1768 -0.2705
 2846SOL    HW220175   2.681   4.151  17.195 -3.8808 -0.3430  2.4998
 2847SOL     OW20176   4.001   0.065  12.368 -0.3352 -0.0044 -0.1465
 2847SOL    HW120177   4.089   0.087  12.397  0.1928 -1.5834 -0.5106
 2847SOL    HW220178   4.018   0.013  12.289  0.3189 -0.6236  0.4030
 2848SOL     OW20179   2.774   1.090   8.223  0.3041  0.2619  0.2675
 2848SOL    HW120180   2.863   1.114   8.249  0.5950 -1.2746  0.6659
 2848SOL    HW220181   2.776   1.000   8.191  1.5330  0.4755 -0.2335
 2849SOL     OW20182   2.229   0.471  11.124  0.2476  0.2468 -0.2222
 2849SOL    HW120183   2.248   0.493  11.215  0.6440  0.0529 -0.2556
 2849SOL    HW220184   2.262   0.552  11.087  1.4134  0.5751  1.5416
 2850SOL     OW20185   0.244   3.575   5.371 -0.4208  0.2727 -0.4553
 2850SOL    HW120186   0.196   3.509   5.322 -0.4605  0.5616 -0.7975
 2850SOL    HW220187   0.194   3.656   5.360  0.3766  0.9986  1.2654
 2851SOL     OW20188   2.031   3.046   3.744  0.0082 -0.1529 -0.0534
 2851SOL    HW120189   2.016   3.001   3.662 -0.9584 -1.7181  0.9861
 2851SOL    HW220190   1.966   3.005   3.801  0.0488 -1.6061 -1.0546
 2852SOL     OW20191   2.839   1.324   9.188  0.0472 -0.1843 -0.7037
 2852SOL    HW120192   2.880   1.381   9.252 -0.5553 -0.8846  0.3164
 2852SOL    HW220193   2.753   1.365   9.176  0.5736  1.1047 -0.0259
 2853SOL     OW20194   4.454   2.486  15.657 -0.1904  0.5975  0.4029
 2853SOL    HW120195   4.499   2.408  15.625 -0.4461  0.8552 -0.5943
 2853SOL    HW220196   4.364   2.456  15.664  0.4122 -1.5479 -1.1853
 2854SOL     OW20197   4.653   1.229   3.990 -0.4400  0.1565  0.3154
 2854SOL    HW120198   4.676   1.274   4.071  1.6971 -0.4152  0.0188
 2854SOL    HW220199   4.701   1.147   4.002  1.2772  0.6644 -3.2695
 2855SOL     OW20200   4.574   4.405   7.566 -0.2480 -0.0309 -0.1030
 2855SOL    HW120201   4.615   4.320   7.585 -4.7060 -2.2179 -0.3918
 2855SOL    HW220202   4.639   4.473   7.585  0.3294 -0.7395  0.4703
 2856SOL     OW20203   0.958   0.632   9.842 -0.6928  0.7201 -0.3922
 2856SOL    HW120204   1.027   0.604   9.783 -0.1924  1.6059 -0.2147
 2856SOL    HW220205   0.973   0.726   9.839  0.8985  0.5044  0.9393
 2857SOL     OW20206   4.634   0.749   7.077  0.1635 -0.6059  0.0627
 2857SOL    HW120207   4.621   0.844   7.082 -0.3997 -0.6506 -0.5442
 2857SOL    HW220208   4.724   0.737   7.045  0.6090 -0.2832  1.1735
 2858SOL     OW20209   3.179   2.105   0.354 -0.3977 -0.5733 -0.1340
 2858SOL    HW120210   3.270   2.095   0.325 -0.1796 -1.4387  0.8556
 2858SOL    HW220211   3.124   2.093   0.277  1.4528 -3.2926 -1.0595
 2859SOL     OW20212   4.724   2.037   0.420 -0.8852  0.1535 -0.6753
 2859SOL    HW120213   0.002   1.968   0.484 -0.5576  2.3364  1.6350
 2859SOL    HW220214   4.636   2.014   0.390 -0.3934  0.7225 -2.5044
 2860SOL     OW20215   0.714   3.050   8.392  0.0213  0.1645  0.3239
 2860SOL    HW120216   0.788   3.095   8.433  1.7751 -1.8392 -0.6468
 2860SOL    HW220217   0.648   3.119   8.389  1.5104  1.5420 -0.4531
 2861SOL     OW20218   3.657   1.670  14.915 -0.1287 -0.4322 -0.2408
 2861SOL    HW120219   3.729   1.638  14.862  1.2133  1.0462  0.6639
 2861SOL    HW220220   3.651   1.610  14.989 -0.7773 -0.1191 -0.0349
 2862SOL     OW20221   1.142   1.770   4.802  0.2357 -0.3344  0.4097
 2862SOL    HW120222   1.061   1.802   4.762 -0.4304  1.3410  3.1106
 2862SOL    HW220223   1.139   1.685   4.759 -1.4563 -0.5675  0.9916
 2863SOL     OW20224   2.124   0.808   0.481  0.3462 -0.2228  0.1136
 2863SOL    HW120225   2.104   0.888   0.529  0.6591 -1.1782  1.8391
 2863SOL    HW220226   2.044   0.757   0.489 -0.3243  0.5203 -1.9894
 2864SOL     OW20227   3.679   1.982   3.412  0.1085 -0.1521  0.3925
 2864SOL    HW120228   3.714   2.032   3.339 -2.2600  3.0608  1.4745
 2864SOL    HW220229   3.737   1.906   3.418 -0.4636 -0.6506 -0.4945
 2865SOL     OW20230   2.578   3.145   3.108 -0.3841 -0.3713  0.4873
 2865SOL    HW120231   2.665   3.171   3.077  0.1642 -0.9526  1.5745
 2865SOL    HW220232   2.529   3.151   3.026 -0.1619  3.1374  0.5974
 2866SOL     OW20233   2.413   4.503   1.885 -0.3303  0.0317  0.0945
 2866SOL    HW120234   2.337   4.468   1.931  3.5723 -2.2162  4.8531
 2866SOL    HW220235   2.465   4.549   1.952  0.7457 -1.8520  0.5396
 2867SOL     OW20236   0.816   0.950   3.897  0.0941  0.2328  0.2858
 2867SOL    HW120237   0.860   0.886   3.952  0.1836 -0.9253 -1.1156
 2867SOL    HW220238   0.745   0.906   3.849 -0.1606  1.1803 -0.2117
 2868SOL     OW20239   1.431   0.578   4.480  0.5715  0.4162  0.4807
 2868SOL    HW120240   1.438   0.638   4.555 -1.2176  2.1656 -0.7442
 2868SOL    HW220241   1.507   0.597   4.425 -0.4386  0.3952 -0.9213
 2869SOL     OW20242   2.422   3.956   5.380 -0.0115 -0.0520 -0.1715
 2869SOL    HW120243   2.471   4.018   5.433 -3.6870  1.8725  0.9855
 2869SOL    HW220244   2.341   4.001   5.356 -1.2524 -2.0911  0.1924
 2870SOL     OW20245   2.799   2.980   1.453  0.4067 -0.1018 -0.2004
 2870SOL    HW120246   2.770   2.888   1.452  2.2121 -0.6900  1.1493
 2870SOL    HW220247   2.836   2.992   1.540  1.3520  0.3172 -0.6597
 2871SOL     OW20248   0.139   0.099   0.183  0.1991 -0.9797  0.1727
 2871SOL    HW120249   0.155   0.193   0.177 -2.1830 -0.6088 -0.4707
 2871SOL    HW220250   0.148   0.068   0.093  1.3500  1.2230 -0.4791
 2872SOL     OW20251   1.344   0.487   5.828  0.0921  0.3855  0.5916
 2872SOL    HW120252   1.408   0.443   5.772  1.2572  0.3181  1.9579
 2872SOL    HW220253   1.345   0.572   5.784  1.4315 -0.5456 -1.1779
 2873SOL     OW20254   4.004   0.768  11.811 -0.3631  0.3893  0.3552
 2873SOL    HW120255   4.064   0.703  11.775 -1.3857 -0.9778  1.1462
 2873SOL    HW220256   3.979   0.739  11.899  0.2045 -1.5481 -0.1367
 2874SOL     OW20257   1.840   2.164   4.843  0.4299 -0.8864  0.0805
 2874SOL    HW120258   1.848   2.118   4.759  2.4518 -1.4883  0.5958
 2874SOL    HW220259   1.745   2.176   4.841  0.0418 -4.1230 -1.7509
 2875SOL     OW20260   4.480   0.593   1.860  0.2806 -0.1227  0.2037
 2875SOL    HW120261   4.446   0.678   1.887  0.4536 -0.3161  1.0496
 2875SOL    HW220262   4.568   0.609   1.895  0.2990  0.7329 -0.2353
 2876SOL     OW20263   4.306   3.928   3.444  0.1061 -0.1016 -0.3585
 2876SOL    HW120264   4.399   3.908   3.447 -0.0522 -0.7554  0.0897
 2876SOL    HW220265   4.292   3.944   3.351  1.4356 -2.0335 -0.8922
 2877SOL     OW20266   4.327   2.755   8.558 -0.5418 -0.0948  0.1649
 2877SOL    HW120267   4.353   2.773   8.467  1.0904  1.3889  0.9249
 2877SOL    HW220268   4.276   2.675   8.545  1.6260 -1.4171 -0.3876
 2878SOL     OW20269   2.151   3.580   2.673 -0.5681  0.6297  0.5336
 2878SOL    HW120270   2.101   3.611   2.598  0.9637  0.8502 -0.3917
 2878SOL    HW220271   2.208   3.655   2.690  1.2165 -0.5098 -0.4054
 2879SOL     OW20272   2.385   2.847  10.670 -0.0869  0.2636 -0.8834
 2879SOL    HW120273   2.460   2.818  10.721 -0.7048  1.7620  0.8602
 2879SOL    HW220274   2.405   2.937  10.642 -1.5926  0.2023 -2.2100
 2880SOL     OW20275   3.617   0.453   6.046  0.8761  0.0023  0.6542
 2880SOL    HW120276   3.576   0.443   6.132  0.7117 -2.8035  0.2271
 2880SOL    HW220277   3.563   0.388   6.001  0.9396 -0.5521  1.3771
 2881SOL     OW20278   3.562   2.971   7.289  0.0106  0.0878 -0.0864
 2881SOL    HW120279   3.552   2.925   7.372  0.8983  3.5862  1.9432
 2881SOL    HW220280   3.506   3.047   7.303 -2.4173 -1.8557  0.9253
 2882SOL     OW20281   0.331   2.256   3.146 -0.1438 -0.3949 -0.0590
 2882SOL    HW120282   0.385   2.271   3.068 -0.0286  2.0540  0.4960
 2882SOL    HW220283   0.249   2.236   3.103 -0.7702 -1.5849  1.6892
 2883SOL     OW20284   1.323   4.089   4.101  0.4947  0.3331 -0.2265
 2883SOL    HW120285   1.410   4.073   4.139  0.1993 -2.1048 -0.5784
 2883SOL    HW220286   1.340   4.052   4.015 -2.5938  1.2742 -1.2498
 2884SOL     OW20287   4.361   1.341  12.002 -0.1039 -0.1699 -0.2123
 2884SOL    HW120288   4.284   1.304  12.046  0.3755 -0.6569  0.2295
 2884SOL    HW220289   4.337   1.359  11.912  2.3417 -1.9657 -1.2256
 2885SOL     OW20290   4.332   1.128   7.928 -0.5154  0.4388  0.4416
 2885SOL    HW120291   4.399   1.164   7.871 -0.0508  0.9658  1.3099
 2885SOL    HW220292   4.308   1.201   7.987 -0.3922 -0.1220  1.1857
 2886SOL     OW20293   1.141   4.191  17.628  0.2776 -0.5189  0.7288
 2886SOL    HW120294   1.076   4.219  17.691 -0.3460 -0.6859  0.1581
 2886SOL    HW220295   1.100   4.227  17.549  1.2830  2.3734  1.5281
 2887SOL     OW20296   3.316   2.735   3.218 -0.2613 -0.3447  0.2573
 2887SOL    HW120297   3.246   2.719   3.281 -0.5293  1.8992  0.5310
 2887SOL    HW220298   3.359   2.812   3.256 -0.5420  0.7412 -1.6654
 2888SOL     OW20299   4.625   1.341   5.458 -0.0701 -0.4585  0.5692
 2888SOL    HW120300   4.700   1.357   5.401 -0.1238 -0.3096  0.5398
 2888SOL    HW220301   4.614   1.424   5.504  0.9302  0.4437 -0.8029
 2889SOL     OW20302   3.498   2.867   5.299 -0.0280  0.3577 -0.0210
 2889SOL    HW120303   3.558   2.841   5.369  0.6740  0.0056 -0.7631
 2889SOL    HW220304   3.491   2.961   5.316 -2.6897  0.0086  0.9476
 2890SOL     OW20305   0.280   1.393   2.738 -0.0275 -0.0323  0.5289
 2890SOL    HW120306   0.349   1.347   2.689 -0.6053  1.1694 -1.4402
 2890SOL    HW220307   0.325   1.392   2.822  1.0860  2.2057 -0.0431
 2891SOL     OW20308   1.700   4.092  10.020 -0.1069  0.5052 -0.2069
 2891SOL    HW120309   1.774   4.058  10.069 -1.2016 -0.7009  0.6089
 2891SOL    HW220310   1.729   4.183  10.014  0.3044  0.2921 -1.5271
 2892SOL     OW20311   0.131   0.862   2.320 -0.2197  0.2853 -0.0274
 2892SOL    HW120312   0.182   0.938   2.349  0.4344  0.3289 -1.2862
 2892SOL    HW220313   0.190   0.812   2.265  0.1875  0.4589  0.2522
 2893SOL     OW20314   0.861   1.040   9.466  0.2427 -0.3792 -0.1770
 2893SOL    HW120315   0.920   1.051   9.392 -0.4701 -0.0131 -0.6850
 2893SOL    HW220316   0.878   0.946   9.479  0.6394 -0.7820 -3.7346
 2894SOL     OW20317   3.284   3.852   0.632  0.2563 -0.8374 -0.2826
 2894SOL    HW120318   3.354   3.918   0.634 -0.6119  0.0409  1.4169
 2894SOL    HW220319   3.243   3.874   0.548 -1.7368 -1.1417  0.6277
 2895SOL     OW20320   0.378   0.130  15.510 -0.1934  0.4901 -0.6382
 2895SOL    HW120321   0.321   0.183  15.566 -2.5272 -0.7250 -1.8632
 2895SOL    HW220322   0.316   0.089  15.450 -1.4663  0.6631  0.5532
 2896SOL     OW20323   4.622   4.381   3.115 -0.3003 -0.3442 -0.1515
 2896SOL    HW120324   4.586   4.317   3.054 -2.6055 -0.2767  1.1193
 2896SOL    HW220325   4.619   4.459   3.060  3.8664  1.1771  1.7560
 2897SOL     OW20326   3.363   4.536   6.696 -0.4870 -0.1445  0.2586
 2897SOL    HW120327   3.355   4.609   6.757  0.9543 -0.4720  0.8289
 2897SOL    HW220328   3.339   4.584   6.616 -0.6379 -0.7059 -0.0299
 2898SOL     OW20329   4.059   4.729   5.433 -0.2912 -0.6370  0.0358
 2898SOL    HW120330   4.004   4.726   5.511 -1.5243 -0.3613 -0.8298
 2898SOL    HW220331   3.992   0.014   5.367 -0.6519 -0.2418  0.5335
 2899SOL     OW20332   1.606   1.422   0.061  0.0906 -0.6108  0.5065
 2899SOL    HW120333   1.700   1.404   0.060  0.5403  1.7799 -0.9471
 2899SOL    HW220334   1.596   1.517   0.063 -0.3629 -0.6269 -0.9743
 2900SOL     OW20335   2.658   3.398  10.221 -0.0911 -0.1611 -0.2361
 2900SOL    HW120336   2.748   3.373  10.201 -1.5798 -1.6800 -5.0487
 2900SOL    HW220337   2.608   3.351  10.155 -0.2120 -0.7537  0.2685
 2901SOL     OW20338   2.775   2.547   3.895 -0.0069 -0.0086 -0.3543
 2901SOL    HW120339   2.748   2.633   3.926 -0.6684 -0.1234 -0.6228
 2901SOL    HW220340   2.694   2.498   3.885 -1.4598  2.3988 -0.2438
 2902SOL     OW20341   0.140   2.314  13.352 -0.1535  0.6153 -0.3548
 2902SOL    HW120342   0.177   2.259  13.282 -0.0388 -2.0994  1.8399
 2902SOL    HW220343   0.074   2.370  13.311 -0.2728  0.4843 -0.3419
 2903SOL     OW20344   1.358   4.005   8.300  0.6276 -0.1591  0.4396
 2903SOL    HW120345   1.396   4.093   8.292 -0.2827 -0.0672 -2.6928
 2903SOL    HW220346   1.276   4.035   8.339  0.2658 -1.7898  0.9339
 2904SOL     OW20347   2.164   4.300   6.329  0.1634 -0.3114 -0.3804
 2904SOL    HW120348   2.247   4.263   6.358  1.2501  1.9282 -0.7190
 2904SOL    HW220349   2.124   4.329   6.411 -0.5741  0.6916 -1.1023
 2905SOL     OW20350   1.354   2.216   1.048  0.5614  0.3715 -0.2656
 2905SOL    HW120351   1.260   2.219   1.063  0.6517 -1.6990  0.7050
 2905SOL    HW220352   1.373   2.304   1.081  0.3392 -1.0643  3.7079
 2906SOL     OW20353   2.195   1.637   6.172  0.6883 -0.1737 -0.2866
 2906SOL    HW120354   2.163   1.702   6.109  0.7950  1.7861  1.6666
 2906SOL    HW220355   2.252   1.683   6.234  1.8782 -2.3750  0.2399
 2907SOL     OW20356   1.613   1.416  13.523  0.2093  0.1780  0.0102
 2907SOL    HW120357   1.540   1.466  13.488 -0.5412 -0.7398  0.2385
 2907SOL    HW220358   1.620   1.345  13.459 -1.2278  1.1298 -1.1643
 2908SOL     OW20359   0.494   2.331  10.603 -0.1898 -0.2000 -0.5194
 2908SOL    HW120360   0.555   2.262  10.630 -2.3069 -1.5349  0.8442
 2908SOL    HW220361   0.410   2.285  10.597 -0.5660  0.4254 -0.0689
 2909SOL     OW20362   0.640   4.213   9.528 -0.7489 -0.1718  0.1948
 2909SOL    HW120363   0.566   4.263   9.493 -0.5854  0.4207  0.6916
 2909SOL    HW220364   0.586   4.164   9.589  0.5975 -2.8364 -0.7658
 2910SOL     OW20365   2.591   1.669  13.202 -0.4487 -0.0584  0.4593
 2910SOL    HW120366   2.678   1.648  13.169 -0.7775 -1.0760  0.2270
 2910SOL    HW220367   2.623   1.726  13.271 -1.6922  1.1382  0.0497
 2911SOL     OW20368   3.461   0.734   8.023  0.0152  0.6371 -0.4617
 2911SOL    HW120369   3.434   0.789   8.096  0.0734 -0.5019  0.4136
 2911SOL    HW220370   3.375   0.700   7.998  0.0569 -1.5987  2.5585
 2912SOL     OW20371   0.128   1.943   3.828  0.0833 -0.0795 -0.1572
 2912SOL    HW120372   0.217   1.929   3.862 -0.6024  0.5345  1.8929
 2912SOL    HW220373   0.078   1.956   3.909 -1.4414  1.7930 -1.3859
 2913SOL     OW20374   1.945   2.413   6.816  0.5148  0.0845 -0.2841
 2913SOL    HW120375   1.907   2.428   6.729 -0.1062 -0.0526 -0.0417
 2913SOL    HW220376   1.929   2.318   6.821 -1.7255  0.3931 -1.4155
 2914SOL     OW20377   1.968   3.040   0.301  0.0116 -0.3178 -0.0142
 2914SOL    HW120378   1.943   3.112   0.243  3.4602  0.1423 -0.9327
 2914SOL    HW220379   2.058   3.058   0.330 -0.5815  2.5537  0.0606
 2915SOL     OW20380   2.783   3.255   4.506  0.0145 -0.9918  0.4929
 2915SOL    HW120381   2.761   3.345   4.482 -1.3209 -1.4655 -0.0312
 2915SOL    HW220382   2.739   3.236   4.589 -1.3393 -0.8302 -0.2016
 2916SOL     OW20383   3.211   2.022   9.635 -0.2019  0.1755  0.2433
 2916SOL    HW120384   3.155   2.078   9.688  0.6960 -1.4543  2.8854
 2916SOL    HW220385   3.281   2.084   9.613 -0.3157  0.0336 -0.5233
 2917SOL     OW20386   1.405   3.650   2.410 -0.2852  0.3446  0.0693
 2917SOL    HW120387   1.445   3.582   2.464 -2.3868 -1.4364 -0.6033
 2917SOL    HW220388   1.487   3.693   2.384  0.3039 -0.3481  0.7713
 2918SOL     OW20389   1.939   1.029   9.144 -0.0947  0.7101  0.1289
 2918SOL    HW120390   1.997   1.061   9.074  1.6847 -0.3667  1.1038
 2918SOL    HW220391   1.894   1.106   9.177 -0.2674  0.5260  0.3224
 2919SOL     OW20392   4.368   4.600   4.677  0.1452  0.1720 -0.1594
 2919SOL    HW120393   4.296   4.642   4.630  2.4755  1.6585 -2.4276
 2919SOL    HW220394   4.354   4.508   4.658 -2.3435  0.1746  1.6931
 2920SOL     OW20395   0.935   3.735   5.206  0.2393 -0.0694  0.2923
 2920SOL    HW120396   0.923   3.771   5.294 -2.9744 -0.2161 -0.0814
 2920SOL    HW220397   1.027   3.710   5.221  0.8622  2.0017 -0.0963
 2921SOL     OW20398   0.303   0.062   7.779  0.1558 -0.5240  0.3533
 2921SOL    HW120399   0.240   0.109   7.834  0.5990 -0.6174  0.9487
 2921SOL    HW220400   0.280   0.063   7.686  0.7549 -0.4752  0.2059
 2922SOL     OW20401   4.489   0.637   3.386 -0.3286  0.3403  0.0879
 2922SOL    HW120402   4.584   0.633   3.376 -0.2731 -0.5622  1.0151
 2922SOL    HW220403   4.458   0.637   3.296  0.9231 -0.6360 -0.3448
 2923SOL     OW20404   0.001   0.176   8.718 -0.4802  0.8162 -0.7367
 2923SOL    HW120405   0.043   0.233   8.654  1.6570  0.3683  0.2918
 2923SOL    HW220406   0.068   0.158   8.784  0.5079  2.0322 -1.4177
 2924SOL     OW20407   1.923   3.154  12.909  0.1000  0.0472  0.0453
 2924SOL    HW120408   2.008   3.135  12.870  1.7815  2.4496  2.5351
 2924SOL    HW220409   1.886   3.193  12.830 -1.9555  2.0202  1.9756
 2925SOL     OW20410   2.303   0.063   2.316  0.6856  0.7323 -0.1184
 2925SOL    HW120411   2.274   0.103   2.234  0.0705  1.2909  0.3686
 2925SOL    HW220412   2.337   0.138   2.366  0.8665  0.7009 -0.1966
 2926SOL     OW20413   2.421   3.282  10.780 -0.4647  0.0338 -0.1447
 2926SOL    HW120414   2.448   3.252  10.866  0.3189 -0.3763 -0.5364
 2926SOL    HW220415   2.500   3.273  10.727 -0.4651 -1.4875  0.0974
 2927SOL     OW20416   4.396   1.895   5.931  0.1229 -0.3868  0.2180
 2927SOL    HW120417   4.422   1.909   5.840 -1.0684  1.2450  0.1314
 2927SOL    HW220418   4.376   1.801   5.934  1.9907 -0.7528  1.3577
 2928SOL     OW20419   4.716   4.310   9.775  0.1880  0.3716 -0.1895
 2928SOL    HW120420   0.016   4.224   9.754 -1.2357  0.0256 -1.1869
 2928SOL    HW220421   0.041   4.335   9.844 -0.1319 -1.2434  0.6560
 2929SOL     OW20422   1.997   2.929  11.831 -0.0726 -0.9247 -0.1124
 2929SOL    HW120423   2.078   2.934  11.780 -0.7678 -0.0560 -1.1380
 2929SOL    HW220424   2.030   2.887  11.910  1.0510 -3.4976 -1.9314
 2930SOL     OW20425   1.016   3.242  17.031 -0.2814  0.1714  0.6882
 2930SOL    HW120426   1.032   3.291  17.111 -0.0573 -0.1650  0.8515
 2930SOL    HW220427   1.096   3.191  17.017  0.1443  1.1373 -0.4123
 2931SOL     OW20428   4.673   2.977   8.637  0.0112 -0.2671  0.2128
 2931SOL    HW120429   4.718   3.056   8.609  0.3603  0.1487  1.9342
 2931SOL    HW220430   4.620   3.006   8.711  0.6275  1.1853  0.0750
 2932SOL     OW20431   3.780   1.473   8.375  0.6495 -0.2933 -0.0235
 2932SOL    HW120432   3.699   1.522   8.360  1.4764  1.1227  0.1773
 2932SOL    HW220433   3.755   1.425   8.454  2.6719 -1.4647 -0.1027
 2933SOL     OW20434   2.297   2.516   0.198  0.0615  0.4935 -0.0643
 2933SOL    HW120435   2.279   2.449   0.264  0.2318 -0.7950 -1.3375
 2933SOL    HW220436   2.351   2.585   0.236  0.1996  1.0841 -1.3447
 2934SOL     OW20437   3.298   3.907   7.781  0.3483  0.5423 -0.5173
 2934SOL    HW120438   3.212   3.895   7.821  1.3913  1.3197  1.9398
 2934SOL    HW220439   3.356   3.918   7.857 -0.2668  0.4632 -0.0421
 2935SOL     OW20440   0.408   2.006   4.933  0.3006 -0.6262  0.2549
 2935SOL    HW120441   0.385   1.941   4.998 -2.4521  0.1015 -0.0107
 2935SOL    HW220442   0.345   1.997   4.862  1.8244  0.0819 -1.2059
 2936SOL     OW20443   4.641   1.670   2.224 -0.3267 -0.2634 -0.2752
 2936SOL    HW120444   4.595   1.673   2.308  0.5510  0.3636  0.1816
 2936SOL    HW220445   4.730   1.643   2.248 -0.6659  0.3892  1.7455
 2937SOL     OW20446   0.800   3.526   3.163 -0.0576 -0.1215  0.3132
 2937SOL    HW120447   0.835   3.558   3.080 -1.4687  0.8918  0.1247
 2937SOL    HW220448   0.714   3.493   3.136 -1.0284  1.9278  0.9660
 2938SOL     OW20449   0.446   1.288  13.804  0.6263  0.3225 -0.2410
 2938SOL    HW120450   0.400   1.354  13.752 -1.9238 -0.1201  1.4285
 2938SOL    HW220451   0.480   1.231  13.735  1.5263  0.0356  0.4392
 2939SOL     OW20452   3.980   0.656   0.000 -0.2609 -0.3981 -0.2280
 2939SOL    HW120453   3.969   0.751   0.008  0.5369 -0.4488  1.6440
 2939SOL    HW220454   3.964   0.649  17.650  0.2267  1.1650 -0.4424
 2940SOL     OW20455   3.670   3.472  13.741 -0.0781 -0.0865 -0.8168
 2940SOL    HW120456   3.619   3.550  13.721 -0.1812  0.1994  0.5314
 2940SOL    HW220457   3.762   3.496  13.729 -0.5376  1.6669 -0.7745
 2941SOL     OW20458   4.028   0.954   6.204 -0.1169 -0.1091  0.0599
 2941SOL    HW120459   3.975   0.957   6.283 -1.1228  0.4845 -0.6359
 2941SOL    HW220460   4.116   0.949   6.242 -0.8421  1.4294  1.9100
 2942SOL     OW20461   3.816   4.379   7.122 -0.0237  0.3239  0.4106
 2942SOL    HW120462   3.848   4.305   7.071  0.1680  0.2260  0.6755
 2942SOL    HW220463   3.802   4.331   7.203 -1.4911 -0.2154 -0.1545
 2943SOL     OW20464   2.770   2.634  12.110 -0.1081  0.0551 -0.0627
 2943SOL    HW120465   2.743   2.681  12.031 -1.4047 -3.0783 -1.4807
 2943SOL    HW220466   2.786   2.546  12.075 -2.1669 -1.0266  1.7160
 2944SOL     OW20467   2.180   2.785   4.698 -0.0545 -0.2859  0.5444
 2944SOL    HW120468   2.114   2.853   4.712  1.3845  1.0557  0.8495
 2944SOL    HW220469   2.170   2.731   4.776 -1.5722 -0.5538  0.1613
 2945SOL     OW20470   1.375   4.396   2.602  0.3832 -0.5366  0.8348
 2945SOL    HW120471   1.416   4.448   2.671 -0.3860  1.2989 -0.0921
 2945SOL    HW220472   1.439   4.394   2.530 -0.8530  1.0113 -0.3059
 2946SOL     OW20473   3.967   0.690  14.110 -0.1649  0.1740  0.0340
 2946SOL    HW120474   3.949   0.751  14.039 -0.7842 -1.2448 -1.0395
 2946SOL    HW220475   4.023   0.747  14.163 -0.4208  0.6770 -0.2354
 2947SOL     OW20476   1.487   0.109   7.315  0.3168  0.5003 -0.1484
 2947SOL    HW120477   1.535   0.121   7.397 -0.0407  2.9192 -0.2733
 2947SOL    HW220478   1.420   0.177   7.325 -1.4339 -1.3876  0.9813
 2948SOL     OW20479   3.972   0.481   3.238 -0.4504 -0.0848 -0.7226
 2948SOL    HW120480   4.013   0.564   3.263 -0.9361 -0.3449  0.9518
 2948SOL    HW220481   4.002   0.472   3.148  0.1433  1.2482 -0.6580
 2949SOL     OW20482   1.026   1.565   0.596 -0.1033 -0.0793 -0.0486
 2949SOL    HW120483   1.108   1.614   0.589 -0.0133 -0.3697 -1.0587
 2949SOL    HW220484   0.992   1.590   0.682 -2.3613 -0.4856 -0.8160
 2950SOL     OW20485   3.104   2.334   7.438 -0.2914 -0.2531  0.1814
 2950SOL    HW120486   3.112   2.354   7.345  2.2677  1.4987  0.7876
 2950SOL    HW220487   3.011   2.353   7.448 -0.3747 -1.1818  1.2297
 2951SOL     OW20488   3.570   1.646   4.464  0.1317 -0.1561 -0.4561
 2951SOL    HW120489   3.528   1.717   4.513  0.4289  0.1700 -0.6787
 2951SOL    HW220490   3.508   1.621   4.396 -0.2367  2.6688 -1.1743
 2952SOL     OW20491   1.571   0.773   4.148  0.0012 -0.3894  0.0056
 2952SOL    HW120492   1.502   0.719   4.110  0.3647 -0.3082 -0.7741
 2952SOL    HW220493   1.609   0.725   4.222 -0.1245  1.5202  1.3250
 2953SOL     OW20494   0.105   2.555   8.589  0.0951  0.3548  0.1813
 2953SOL    HW120495   0.114   2.641   8.628  0.3785  0.7014 -0.6346
 2953SOL    HW220496   0.197   2.527   8.598  0.8602  2.6146 -0.6688
 2954SOL     OW20497   2.693   0.405   2.097  0.4580  0.3142 -0.0581
 2954SOL    HW120498   2.664   0.422   2.007 -1.1684  0.6844  0.5431
 2954SOL    HW220499   2.742   0.324   2.087 -1.0594 -0.7654  1.4161
 2955SOL     OW20500   2.910   0.966   3.248  0.1886 -0.5029 -0.5411
 2955SOL    HW120501   2.922   1.008   3.162 -1.4070  0.2787 -0.3889
 2955SOL    HW220502   2.823   0.928   3.238 -0.5838  1.8694 -3.0506
 2956SOL     OW20503   2.400   2.446   4.366 -0.7038 -0.8329  0.0366
 2956SOL    HW120504   2.475   2.458   4.307  0.0608 -0.3715  1.1129
 2956SOL    HW220505   2.361   2.534   4.364  1.1534  0.0457  2.2398
 2957SOL     OW20506   0.532   2.386  17.168 -0.3471  0.5401 -0.2039
 2957SOL    HW120507   0.508   2.463  17.219  1.7120 -0.1344  1.7957
 2957SOL    HW220508   0.620   2.380  17.205 -0.5988 -0.5055  0.2343
 2958SOL     OW20509   2.672   2.490   1.858 -0.7396  0.4812 -0.5018
 2958SOL    HW120510   2.642   2.465   1.770  0.8805 -1.5822 -0.4527
 2958SOL    HW220511   2.616   2.437   1.914 -1.4868  2.0180  0.2209
 2959SOL     OW20512   0.529   1.852   6.138  0.4369 -0.1041  0.0556
 2959SOL    HW120513   0.476   1.776   6.165  0.7510 -0.9668 -1.7947
 2959SOL    HW220514   0.540   1.907   6.216  2.9949 -0.1560 -0.2699
 2960SOL     OW20515   1.303   0.613   2.539 -0.1270  0.2998 -0.3208
 2960SOL    HW120516   1.398   0.598   2.541 -0.2296 -0.4191 -0.7495
 2960SOL    HW220517   1.291   0.671   2.464 -0.2585 -0.1576 -0.6535
 2961SOL     OW20518   3.643   2.009   6.021 -0.4105  0.0701  0.2196
 2961SOL    HW120519   3.634   1.918   5.995  1.0206  0.8040 -2.9368
 2961SOL    HW220520   3.701   2.031   5.947 -1.0094 -0.0681 -0.2935
 2962SOL     OW20521   0.868   3.380   5.990  0.4433  0.3269  0.2984
 2962SOL    HW120522   0.932   3.319   5.953 -1.4693 -2.0358  0.8402
 2962SOL    HW220523   0.796   3.321   6.010  2.0406 -1.5475  0.5969
 2963SOL     OW20524   0.633   1.983   5.900 -0.3923 -0.7043  0.6580
 2963SOL    HW120525   0.559   1.947   5.851 -2.1788  0.1884  2.6960
 2963SOL    HW220526   0.610   1.944   5.984 -2.4356 -0.9610 -0.0269
 2964SOL     OW20527   2.416   2.009   4.030 -0.2825  0.1764 -0.7565
 2964SOL    HW120528   2.469   1.953   4.087 -1.2801  0.3689  0.3767
 2964SOL    HW220529   2.459   2.094   4.038 -1.6844  1.0367 -2.4601
 2965SOL     OW20530   0.680   3.839   1.312 -0.2653  0.2406 -0.1237
 2965SOL    HW120531   0.591   3.810   1.335  0.3682 -0.5214  1.4061
 2965SOL    HW220532   0.682   3.818   1.219 -0.1048 -0.7040  0.0941
 2966SOL     OW20533   0.910   1.654  12.287 -0.3412 -0.8808 -0.0069
 2966SOL    HW120534   0.862   1.686  12.363 -0.5032  2.4944 -1.5108
 2966SOL    HW220535   1.002   1.676  12.303 -0.1029 -1.5294 -0.4771
 2967SOL     OW20536   2.577   0.165  14.371 -0.4739 -0.0598  0.1011
 2967SOL    HW120537   2.482   0.163  14.356 -0.6831 -0.5511  1.5063
 2967SOL    HW220538   2.599   0.075  14.347 -0.2431 -0.0557  0.3035
 2968SOL     OW20539   0.474   1.178  16.989 -0.6688 -0.4687 -0.1881
 2968SOL    HW120540   0.484   1.087  16.960  0.1301 -0.6071  0.5326
 2968SOL    HW220541   0.411   1.213  16.925  1.3851  0.2959 -1.7965
 2969SOL     OW20542   1.032   4.423  14.147 -0.3383 -0.3426  0.6552
 2969SOL    HW120543   1.033   4.424  14.051  1.0857 -1.2761  0.6610
 2969SOL    HW220544   0.938   4.423  14.161 -0.0530  0.4113  2.6182
 2970SOL     OW20545   0.242   4.538   1.405 -0.3687 -0.0933 -0.7066
 2970SOL    HW120546   0.249   4.525   1.500  1.5503  2.0383 -0.5630
 2970SOL    HW220547   0.329   4.575   1.389  0.5003 -1.5674  0.5863
 2971SOL     OW20548   1.748   0.220   6.040  0.0023  0.2440 -0.3187
 2971SOL    HW120549   1.815   0.152   6.047 -1.5646 -1.2872  0.0466
 2971SOL    HW220550   1.718   0.210   5.949  1.0495 -0.1419 -0.6222
 2972SOL     OW20551   4.157   1.013   2.742  0.4733 -0.4816 -0.5098
 2972SOL    HW120552   4.233   0.956   2.745  2.3040  1.8837 -2.3465
 2972SOL    HW220553   4.108   0.957   2.803 -0.4199 -1.5289 -2.1746
 2973SOL     OW20554   2.712   4.617   6.893  0.1058 -0.4917 -0.1289
 2973SOL    HW120555   2.752   4.606   6.807 -3.3634  1.7312 -2.0322
 2973SOL    HW220556   2.754   4.547   6.943 -1.2753 -0.8885  0.4609
 2974SOL     OW20557   1.639   0.555   7.175 -0.3338 -0.1872  0.9765
 2974SOL    HW120558   1.696   0.570   7.100  1.0510 -1.3295  1.8075
 2974SOL    HW220559   1.602   0.640   7.198 -2.0090 -0.1438 -1.9688
 2975SOL     OW20560   4.368   2.774   6.901 -0.4045 -0.2949  0.0746
 2975SOL    HW120561   4.442   2.827   6.871  1.8505 -2.3871  1.9343
 2975SOL    HW220562   4.342   2.828   6.976 -0.0315  1.6523 -1.2029
 2976SOL     OW20563   3.869   2.752   5.577  0.4722  0.1912  0.2284
 2976SOL    HW120564   3.922   2.708   5.510 -1.3155  0.3934 -1.3185
 2976SOL    HW220565   3.870   2.682   5.643 -2.5821  0.1384  0.2131
 2977SOL     OW20566   1.210   0.093   4.597 -0.1884  0.4760 -0.1702
 2977SOL    HW120567   1.256   0.154   4.656 -0.6182 -0.2262  0.8915
 2977SOL    HW220568   1.242   0.126   4.513 -3.2920  1.8312 -0.8256
 2978SOL     OW20569   4.031   0.570   5.459 -0.4908  0.0234  0.6278
 2978SOL    HW120570   4.062   0.567   5.550 -2.0172 -0.2087  1.1391
 2978SOL    HW220571   4.032   0.665   5.446  1.0947  0.2065  2.1082
 2979SOL     OW20572   0.456   1.032   7.956 -0.2004 -0.4813 -0.5811
 2979SOL    HW120573   0.499   1.021   7.871 -0.4290  1.3276 -0.9281
 2979SOL    HW220574   0.526   1.011   8.017 -1.0235  2.2076  1.2615
 2980SOL     OW20575   2.044   0.637   9.077 -0.0346 -0.6036  0.0956
 2980SOL    HW120576   1.961   0.612   9.035  1.3596 -1.5862 -2.0839
 2980SOL    HW220577   2.011   0.684   9.153 -0.0525 -0.5751  0.0701
 2981SOL     OW20578   4.053   0.401  12.236  0.5997  0.3311  0.0910
 2981SOL    HW120579   4.039   0.440  12.150  1.2647  1.2448  0.3922
 2981SOL    HW220580   3.963   0.399  12.268  0.5854 -0.7080 -0.0133
 2982SOL     OW20581   4.694   2.169   8.130  0.0917  0.1490 -0.1160
 2982SOL    HW120582   4.661   2.252   8.096 -1.3414 -0.1609  0.5090
 2982SOL    HW220583   4.715   2.189   8.221 -0.4047  0.8454 -0.1560
 2983SOL     OW20584   1.882   4.616   7.544 -0.0657  0.1165  0.2073
 2983SOL    HW120585   1.905   4.707   7.524  1.9686 -0.7746 -1.5836
 2983SOL    HW220586   1.906   4.616   7.637  0.9871  0.9166 -0.0691
 2984SOL     OW20587   1.269   3.757   4.051  0.2041 -0.0542 -0.2409
 2984SOL    HW120588   1.309   3.674   4.027 -0.6260 -0.3649 -0.5310
 2984SOL    HW220589   1.273   3.809   3.971  0.8574  1.6682  0.8968
 2985SOL     OW20590   1.683   3.703   0.590 -0.6499 -0.1852  0.0589
 2985SOL    HW120591   1.734   3.775   0.553  0.4660 -0.8620  0.2804
 2985SOL    HW220592   1.621   3.758   0.638 -0.7836 -1.0252  0.8436
 2986SOL     OW20593   1.281   1.562   6.927  0.7257 -0.2500  0.1114
 2986SOL    HW120594   1.272   1.466   6.922 -0.6168 -0.1088 -0.0268
 2986SOL    HW220595   1.196   1.590   6.894  2.1912  1.4670 -2.1536
 2987SOL     OW20596   0.121   0.147   4.872  0.2984  0.0261  0.0960
 2987SOL    HW120597   0.068   0.095   4.932 -1.9475  1.0879 -0.9417
 2987SOL    HW220598   0.180   0.189   4.934 -0.7962 -1.4339  2.1027
 2988SOL     OW20599   4.693   1.076   6.675  0.5251 -0.1183 -0.5313
 2988SOL    HW120600   0.017   1.063   6.748  1.3544  0.8294 -1.0398
 2988SOL    HW220601   4.618   1.100   6.729  2.4575  0.7668  1.7335
 2989SOL     OW20602   0.502   3.685   5.121  0.7135 -0.1469 -0.4285
 2989SOL    HW120603   0.561   3.733   5.063  0.3251  1.3391  0.3862
 2989SOL    HW220604   0.515   3.737   5.201  0.5316 -0.6353 -0.0822
 2990SOL     OW20605   1.748   1.223   8.879 -0.3555  0.0358  0.4006
 2990SOL    HW120606   1.843   1.211   8.881 -0.5377 -1.3063  0.4534
 2990SOL    HW220607   1.715   1.141   8.844 -0.5621  1.3600 -2.4860
 2991SOL     OW20608   3.756   4.025   6.716 -0.6904 -0.0736  0.1788
 2991SOL    HW120609   3.676   4.025   6.664 -0.4213 -1.1751 -0.2443
 2991SOL    HW220610   3.781   4.117   6.712 -0.8179 -0.0516 -0.0785
 2992SOL     OW20611   2.795   2.944   5.749  0.4090 -0.1245  0.4825
 2992SOL    HW120612   2.739   2.897   5.686  3.8014 -2.0566 -1.0610
 2992SOL    HW220613   2.883   2.927   5.715  0.7140  1.4134  0.5382
 2993SOL     OW20614   4.011   4.610   6.359 -0.0818  0.5578  0.4785
 2993SOL    HW120615   4.100   4.643   6.349 -0.7365  2.2226  0.1005
 2993SOL    HW220616   4.015   4.550   6.433 -1.8430 -0.9450 -0.6422
 2994SOL     OW20617   0.300   0.093   0.531  0.6274  0.5574 -0.0166
 2994SOL    HW120618   0.276   0.013   0.486 -1.3946  1.8132 -1.1814
 2994SOL    HW220619   0.355   0.060   0.602 -0.3333  0.5045  0.7192
 2995SOL     OW20620   1.968   2.235   1.717  0.1818  0.4074  0.3739
 2995SOL    HW120621   2.059   2.255   1.696 -0.2678 -0.2537 -2.2248
 2995SOL    HW220622   1.926   2.315   1.684 -0.9055  0.2928  1.4969
 2996SOL     OW20623   3.379   3.619   7.652 -0.3218  0.1216 -0.5369
 2996SOL    HW120624   3.464   3.599   7.615 -0.4529  0.0259 -0.7868
 2996SOL    HW220625   3.374   3.714   7.664  1.9845  0.6302 -3.6424
 2997SOL     OW20626   4.728   0.904   7.922  0.2275 -0.1444 -0.0236
 2997SOL    HW120627   4.643   0.886   7.881  0.2893  0.9587 -0.6445
 2997SOL    HW220628   0.017   0.839   7.988  1.2246  0.4050  0.1430
 2998SOL     OW20629   2.150   3.478   0.619  0.6759  0.0463  0.2299
 2998SOL    HW120630   2.054   3.481   0.621  0.6350 -1.9505  1.2651
 2998SOL    HW220631   2.159   3.408   0.684 -1.7971  0.1258  0.6478
 2999SOL     OW20632   1.096   1.485   2.389 -0.1554 -0.1552  0.1885
 2999SOL    HW120633   1.064   1.572   2.415 -1.5101 -0.4489 -0.4620
 2999SOL    HW220634   1.186   1.501   2.361 -0.0356  1.1519  1.3105
 3000SOL     OW20635   4.498   2.197   3.127  0.9943  0.1683  0.7149
 3000SOL    HW120636   4.541   2.171   3.046 -1.1059  1.0548 -0.7027
 3000SOL    HW220637   4.439   2.122   3.133 -0.2756  1.0460 -0.8019
 3001SOL     OW20638   4.425   2.251  15.432 -0.5081  0.1287  0.2560
 3001SOL    HW120639   4.488   2.245  15.504 -1.0355  0.1445  0.7194
 3001SOL    HW220640   4.341   2.270  15.475 -0.3012 -1.6712  1.4649
 3002SOL     OW20641   2.484   2.705   5.206  0.4234  0.4556 -0.2642
 3002SOL    HW120642   2.567   2.709   5.159  2.0275 -1.4338  2.3973
 3002SOL    HW220643   2.474   2.799   5.221 -0.6011  0.6907 -2.3907
 3003SOL     OW20644   4.644   2.557  13.611  0.3109 -0.1758 -0.0259
 3003SOL    HW120645   4.732   2.582  13.639  0.4917 -0.1022 -0.6547
 3003SOL    HW220646   4.599   2.594  13.687 -1.0871  0.7694 -1.3140
 3004SOL     OW20647   3.572   3.321   7.664  0.1000  0.1706  0.3495
 3004SOL    HW120648   3.552   3.313   7.571 -0.5691 -2.2017  0.6981
 3004SOL    HW220649   3.486   3.304   7.702 -0.1895  1.4960  0.2849
 3005SOL     OW20650   2.228   3.097   9.647  0.6381  0.0229  0.0706
 3005SOL    HW120651   2.217   3.126   9.556  1.9082 -0.5405 -0.2677
 3005SOL    HW220652   2.142   3.118   9.683 -0.1480  0.1705 -1.8446
 3006SOL     OW20653   3.041   2.440   4.952  0.3119 -0.2445 -0.8109
 3006SOL    HW120654   3.107   2.447   4.883 -2.0849 -0.5848 -3.1347
 3006SOL    HW220655   3.040   2.347   4.973 -0.4468 -0.3959 -1.5288
 3007SOL     OW20656   1.128   2.182   4.626 -0.4261 -0.3796  0.8946
 3007SOL    HW120657   1.058   2.119   4.607 -1.1875  0.1700  1.8724
 3007SOL    HW220658   1.091   2.262   4.588 -0.1764 -0.0036  1.4470
 3008SOL     OW20659   1.405   3.040  14.883  0.2670  0.4525  0.2975
 3008SOL    HW120660   1.500   3.053  14.885  0.5441 -1.9029  2.3898
 3008SOL    HW220661   1.388   3.114  14.941 -0.8481  1.7585 -1.7129
 3009SOL     OW20662   2.760   3.591   6.355 -0.4085 -0.0847 -0.1550
 3009SOL    HW120663   2.779   3.503   6.324 -0.3779  0.1341 -0.7626
 3009SOL    HW220664   2.755   3.576   6.449  0.3070 -1.0588 -0.2734
 3010SOL     OW20665   1.719   4.235   3.796 -0.4201  0.1538  0.3626
 3010SOL    HW120666   1.715   4.174   3.869  1.6940 -3.4042 -2.4522
 3010SOL    HW220667   1.626   4.242   3.775  0.0736  1.5619 -1.3683
 3011SOL     OW20668   2.000   2.930   3.505 -0.4283 -0.4532 -0.2432
 3011SOL    HW120669   2.040   2.900   3.423  0.3028  0.1785 -0.1249
 3011SOL    HW220670   1.923   2.974   3.468 -0.4293  0.1031  0.4352
 3012SOL     OW20671   3.144   3.635   3.842 -0.7663 -0.0854  0.0409
 3012SOL    HW120672   3.071   3.584   3.878  1.4771 -0.8349  3.4519
 3012SOL    HW220673   3.096   3.712   3.811  2.0986  0.9014 -1.8965
 3013SOL     OW20674   4.652   4.214  12.410 -0.2515 -0.3231  0.0091
 3013SOL    HW120675   4.696   4.198  12.326  0.1606  1.0738 -0.0362
 3013SOL    HW220676   4.701   4.154  12.466 -0.7113 -0.1506  0.5994
 3014SOL     OW20677   1.243   4.204   7.196 -0.3412  0.3088  0.1193
 3014SOL    HW120678   1.315   4.235   7.142 -0.5302 -0.4593 -0.5641
 3014SOL    HW220679   1.167   4.213   7.139  0.4848 -0.4107 -1.0773
 3015SOL     OW20680   2.947   2.133   1.943 -0.0117 -0.7287  0.2030
 3015SOL    HW120681   2.860   2.118   1.907  1.0910 -2.9697 -1.4717
 3015SOL    HW220682   2.957   2.060   2.004 -0.4281 -0.6448  0.3729
 3016SOL     OW20683   1.150   1.126  11.984 -0.0327  0.4357 -0.2371
 3016SOL    HW120684   1.225   1.114  12.042 -1.2336 -0.4488  1.1274
 3016SOL    HW220685   1.078   1.098  12.041 -0.6351  2.0745 -0.1701
 3017SOL     OW20686   4.400   3.218  11.071 -0.1048 -0.6293  0.1566
 3017SOL    HW120687   4.359   3.304  11.061  2.1177  0.2575 -1.2843
 3017SOL    HW220688   4.337   3.169  11.123 -0.2854  1.5067  1.9625
 3018SOL     OW20689   0.874   4.119  14.426 -0.2092 -0.1853 -0.5825
 3018SOL    HW120690   0.791   4.087  14.463 -0.7884  2.0073 -0.0014
 3018SOL    HW220691   0.863   4.108  14.332  0.0080 -0.0265 -0.6271
 3019SOL     OW20692   1.676   1.016   7.112 -0.4312 -0.1528  0.2569
 3019SOL    HW120693   1.706   1.106   7.098 -1.6559  0.2132 -0.0462
 3019SOL    HW220694   1.689   1.008   7.206 -0.3359 -1.4598  0.1298
 3020SOL     OW20695   1.043   4.705   6.824 -1.0841 -0.2804  0.0012
 3020SOL    HW120696   1.117   0.027   6.806 -0.5414 -1.1239 -0.5130
 3020SOL    HW220697   1.034   4.660   6.739 -2.4080 -0.0036 -0.0059
 3021SOL     OW20698   1.379   1.885   7.630  0.4596 -0.9325  0.1765
 3021SOL    HW120699   1.443   1.850   7.692 -0.1052 -2.8340 -0.3203
 3021SOL    HW220700   1.351   1.800   7.598  0.9688 -0.5505 -1.2927
 3022SOL     OW20701   4.434   1.391  17.479 -0.3054  0.0024 -0.1443
 3022SOL    HW120702   4.416   1.431  17.564 -1.3132 -1.2239  0.2208
 3022SOL    HW220703   4.426   1.465  17.420 -1.2840  0.3548  0.4265
 3023SOL     OW20704   0.385   2.416   8.059 -0.6576 -0.4897  0.0695
 3023SOL    HW120705   0.352   2.457   7.979  0.0083 -0.4977 -0.2125
 3023SOL    HW220706   0.468   2.381   8.027 -0.3554 -1.1171  1.5314
 3024SOL     OW20707   1.960   4.411   4.893  0.0665  0.0748  0.2518
 3024SOL    HW120708   1.998   4.461   4.822 -0.6030 -0.4217 -0.4549
 3024SOL    HW220709   1.919   4.335   4.852 -2.4498  0.9143  1.1636
 3025SOL     OW20710   3.029   0.014   1.501 -0.4372 -0.3415  0.0605
 3025SOL    HW120711   2.935   0.023   1.511 -0.5036  1.7408 -2.3853
 3025SOL    HW220712   3.048   4.719   1.589  0.5094  0.9696  0.3247
 3026SOL     OW20713   2.657   2.313   5.088  0.3175 -0.5694 -0.0929
 3026SOL    HW120714   2.587   2.368   5.124 -0.8295 -0.9941 -1.7184
 3026SOL    HW220715   2.668   2.359   5.005 -1.0928 -2.2489 -1.2178
 3027SOL     OW20716   0.040   2.589   4.150  0.4140  0.1077  0.3914
 3027SOL    HW120717   4.702   2.620   4.098  1.1404  1.2762  0.0712
 3027SOL    HW220718   0.044   2.499   4.117 -0.3375 -0.4504  1.7783
 3028SOL     OW20719   2.594   1.415   4.094  0.1472  0.1057  0.6508
 3028SOL    HW120720   2.538   1.369   4.156 -0.3613 -0.6743 -0.3695
 3028SOL    HW220721   2.548   1.391   4.013 -0.6821 -1.4742  1.5845
 3029SOL     OW20722   1.668   3.924   6.065 -0.1498 -0.0713  0.0003
 3029SOL    HW120723   1.750   3.875   6.072  0.0887  0.2922 -0.2486
 3029SOL    HW220724   1.684   3.993   6.130  0.0119  1.4950 -1.7187
 3030SOL     OW20725   1.946   0.254   3.090 -0.1599 -0.0717 -0.2458
 3030SOL    HW120726   1.945   0.342   3.052 -2.4157  0.8912  2.0523
 3030SOL    HW220727   2.034   0.253   3.127  1.2402  1.5264 -3.5071
 3031SOL     OW20728   2.201   1.402   6.295 -0.7520 -0.3650 -0.4296
 3031SOL    HW120729   2.215   1.491   6.264  0.1013 -0.5409 -0.5642
 3031SOL    HW220730   2.106   1.399   6.288 -0.7427 -0.3152 -0.5796
 3032SOL     OW20731   1.172   4.232   6.702 -0.1220 -0.7070  0.4995
 3032SOL    HW120732   1.255   4.193   6.674 -2.0781 -3.4355 -1.4249
 3032SOL    HW220733   1.111   4.162   6.722  0.4039 -0.9595  1.2047
 3033SOL     OW20734   4.358   2.927   8.048  0.2075  0.3905 -0.2162
 3033SOL    HW120735   4.382   2.837   8.071  1.2574  0.4568 -1.0421
 3033SOL    HW220736   4.334   2.962   8.134 -0.9834  0.9589 -0.7967
 3034SOL     OW20737   2.369   4.386  10.189  0.2020  0.0838  0.1953
 3034SOL    HW120738   2.369   4.434  10.272  1.1361  0.5089 -0.0476
 3034SOL    HW220739   2.440   4.323  10.202  0.3684  0.1003 -0.6665
 3035SOL     OW20740   0.520   0.548   2.998 -0.1527  0.2140  0.5649
 3035SOL    HW120741   0.451   0.615   2.994 -1.4204 -1.1915 -0.9726
 3035SOL    HW220742   0.475   0.466   2.980 -0.9434  1.0676 -1.3549
 3036SOL     OW20743   0.912   0.449  13.595  0.1800  0.7763 -0.0949
 3036SOL    HW120744   0.973   0.506  13.642  0.8338  0.4310 -0.5331
 3036SOL    HW220745   0.916   0.376  13.656  1.2022  1.1808  0.3313
 3037SOL     OW20746   0.099   4.019   0.884 -0.4132 -0.1374 -0.3785
 3037SOL    HW120747   0.021   3.966   0.868 -0.4525 -0.0965 -0.3193
 3037SOL    HW220748   0.070   4.033   0.974  0.6537  3.1619 -0.5609
 3038SOL     OW20749   0.687   4.010   6.519 -0.8763 -0.4901  0.4001
 3038SOL    HW120750   0.762   3.955   6.540 -0.2147  0.2089 -0.1681
 3038SOL    HW220751   0.669   4.049   6.604  0.6260  2.6161 -0.7061
 3039SOL     OW20752   3.866   3.379   3.854 -0.0033  0.1765 -0.7488
 3039SOL    HW120753   3.937   3.438   3.833 -0.3778  1.0640  0.4764
 3039SOL    HW220754   3.885   3.372   3.948  0.2404 -1.2410 -0.8995
 3040SOL     OW20755   2.109   3.718   8.567 -0.3557 -0.0737  0.6405
 3040SOL    HW120756   2.074   3.807   8.577 -2.9377 -1.0040 -0.3340
 3040SOL    HW220757   2.141   3.705   8.657  2.7298 -3.4415 -0.9284
 3041SOL     OW20758   1.919   1.546   4.714 -0.0355  0.1229 -0.0716
 3041SOL    HW120759   1.972   1.499   4.779 -0.4456 -0.0175  0.1592
 3041SOL    HW220760   1.957   1.634   4.705  1.2879 -0.4483 -0.0476
 3042SOL     OW20761   4.322   4.729  10.076  0.5728  0.4599 -0.3936
 3042SOL    HW120762   4.364   4.650  10.043  0.0681  0.1917 -0.3821
 3042SOL    HW220763   4.271   0.026  10.002 -1.4209 -0.4019  0.6057
 3043SOL     OW20764   2.420   4.246   9.070  0.0321 -0.1722 -0.3087
 3043SOL    HW120765   2.492   4.261   9.131  0.6851 -1.8877 -0.6875
 3043SOL    HW220766   2.436   4.158   9.037 -1.2384 -0.4651 -0.1477
 3044SOL     OW20767   4.520   2.267  11.829 -0.1009 -0.3621  0.0290
 3044SOL    HW120768   4.547   2.175  11.838 -1.7206 -0.9072 -0.6297
 3044SOL    HW220769   4.490   2.294  11.915  2.1568 -0.9245  0.9974
 3045SOL     OW20770   1.580   0.186   7.814 -0.2673  0.0824 -0.0687
 3045SOL    HW120771   1.586   0.107   7.868  0.0129 -0.1562 -0.4411
 3045SOL    HW220772   1.486   0.206   7.812 -0.7257 -2.0521  0.5142
 3046SOL     OW20773   1.176   1.616   4.279  0.6264  0.2288 -0.1303
 3046SOL    HW120774   1.158   1.533   4.234  0.7277  0.0050  0.2463
 3046SOL    HW220775   1.165   1.676   4.205  0.0989  1.4714  0.9678
 3047SOL     OW20776   1.580   0.883   6.247  0.0725  0.4578 -0.9300
 3047SOL    HW120777   1.544   0.924   6.325  0.2359  0.8245 -1.0462
 3047SOL    HW220778   1.624   0.803   6.275 -1.8673 -0.3515 -0.2286
 3048SOL     OW20779   3.333   2.596   6.752  0.1491 -0.1323 -0.0565
 3048SOL    HW120780   3.417   2.643   6.747  0.5369 -0.4763  2.8592
 3048SOL    HW220781   3.344   2.549   6.835 -1.8054 -0.6483 -0.0949
 3049SOL     OW20782   1.065   4.058   5.076 -0.4869  0.6747 -0.4864
 3049SOL    HW120783   1.113   4.087   5.153 -1.8280 -2.2623  1.4483
 3049SOL    HW220784   1.104   3.971   5.074 -1.4476  0.2021  0.8230
 3050SOL     OW20785   3.131   3.564  14.698  0.1300 -0.4931 -1.1675
 3050SOL    HW120786   3.148   3.630  14.765 -2.7769  1.4187 -2.2949
 3050SOL    HW220787   3.195   3.496  14.720  0.2399  0.0611  0.2334
 3051SOL     OW20788   4.716   1.926   4.063  0.5221  0.0055  0.0530
 3051SOL    HW120789   4.700   1.977   4.143  0.7617  1.2625 -0.7034
 3051SOL    HW220790   4.650   1.856   4.062  0.9056 -0.3380 -1.6289
 3052SOL     OW20791   1.006   4.368   5.351  0.0873 -0.2743 -0.2257
 3052SOL    HW120792   1.054   4.292   5.382 -0.3402 -1.4780 -2.5208
 3052SOL    HW220793   0.921   4.334   5.381  0.4480  0.5166  1.7153
 3053SOL     OW20794   2.822   2.125   7.764 -0.3085 -0.3355  0.1219
 3053SOL    HW120795   2.801   2.108   7.672  0.3666 -1.8443  0.2522
 3053SOL    HW220796   2.766   2.198   7.790 -1.9701 -0.7839 -2.1662
 3054SOL     OW20797   3.278   4.125   8.598 -0.1288  0.0620 -0.3163
 3054SOL    HW120798   3.268   4.030   8.602 -2.9258  0.4224  1.5556
 3054SOL    HW220799   3.370   4.128   8.623 -0.5447 -1.4902  1.4807
 3055SOL     OW20800   3.693   0.034   5.438 -0.4097  0.9312  0.0785
 3055SOL    HW120801   3.634   0.109   5.452  0.3051  1.3980  0.6461
 3055SOL    HW220802   3.736   0.059   5.357 -0.1291 -0.6908 -0.2643
 3056SOL     OW20803   4.355   1.329   8.118  0.2773 -0.2287 -0.1340
 3056SOL    HW120804   4.437   1.367   8.086  0.8751  0.2011  1.9456
 3056SOL    HW220805   4.298   1.399   8.086  1.2181  0.4354 -0.3493
 3057SOL     OW20806   3.076   4.331   8.080  0.2084 -0.4080 -0.5515
 3057SOL    HW120807   3.088   4.264   8.147 -3.1662  0.0523  0.5096
 3057SOL    HW220808   3.006   4.289   8.030 -0.5671  0.5773 -0.2880
 3058SOL     OW20809   4.017   3.680  10.150  0.3784  0.0302 -0.5371
 3058SOL    HW120810   4.000   3.636  10.067  2.1595 -2.1971  0.2556
 3058SOL    HW220811   4.111   3.662  10.161  0.2376 -0.0175  0.5878
 3059SOL     OW20812   3.279   0.858   7.150  0.4085  0.0189  0.3395
 3059SOL    HW120813   3.318   0.924   7.208 -1.8368  1.7328 -0.0852
 3059SOL    HW220814   3.306   0.775   7.190  1.7913  0.3027  0.0032
 3060SOL     OW20815   1.618   2.425   0.259 -0.3580  0.0944 -0.2436
 3060SOL    HW120816   1.572   2.368   0.198  0.8907 -0.3082 -0.7971
 3060SOL    HW220817   1.698   2.441   0.208 -0.0405  1.9099  0.7866
 3061SOL     OW20818   2.937   2.083   5.325  0.2613  0.0386  0.0826
 3061SOL    HW120819   2.978   1.999   5.305 -1.9272 -0.6150 -1.5569
 3061SOL    HW220820   2.903   2.069   5.414 -1.2902  0.2538 -0.4886
 3062SOL     OW20821   2.679   0.849   7.437  0.1054 -0.3510 -0.1665
 3062SOL    HW120822   2.755   0.793   7.451 -0.2558 -0.4171  1.4729
 3062SOL    HW220823   2.623   0.796   7.380 -2.0531 -0.3712  1.9706
 3063SOL     OW20824   2.638   1.422   7.752  0.3217  0.4632 -0.9261
 3063SOL    HW120825   2.668   1.399   7.665  1.7342 -0.5110 -0.1761
 3063SOL    HW220826   2.672   1.511   7.763  1.5958 -0.3967  2.0081
 3064SOL     OW20827   4.591   2.517   0.255 -0.6701  0.1877  0.0008
 3064SOL    HW120828   4.660   2.481   0.310 -0.2183 -0.6351 -1.1198
 3064SOL    HW220829   4.528   2.545   0.322 -2.3182  1.0922 -1.9491
 3065SOL     OW20830   1.751   0.368  11.106  0.4199  0.1672  0.4803
 3065SOL    HW120831   1.668   0.382  11.059  0.9264 -0.7816 -0.6678
 3065SOL    HW220832   1.712   0.286  11.136  1.5708 -0.6952 -0.4380
 3066SOL     OW20833   1.968   2.037  15.256 -0.0467 -0.2506 -1.1442
 3066SOL    HW120834   1.959   1.948  15.222  1.0948 -0.6133 -0.4737
 3066SOL    HW220835   1.975   2.081  15.171  1.2982 -1.5500 -1.7000
 3067SOL     OW20836   4.326   3.508   4.593 -0.5757  0.4193 -0.3582
 3067SOL    HW120837   4.324   3.424   4.639  1.7966 -0.1753 -1.3299
 3067SOL    HW220838   4.248   3.547   4.633 -1.7700  0.0792 -2.3086
 3068SOL     OW20839   2.943   3.965   2.788  0.0438  0.1290  0.1860
 3068SOL    HW120840   2.870   4.014   2.825 -0.8764 -1.0477 -0.0778
 3068SOL    HW220841   3.013   3.968   2.853 -0.0650  2.4682  0.2053
 3069SOL     OW20842   4.235   2.810   5.358  0.0172  0.1499 -0.3742
 3069SOL    HW120843   4.304   2.767   5.408  1.1836 -0.0253 -2.1454
 3069SOL    HW220844   4.190   2.852   5.432  1.4360  0.1215  0.4886
 3070SOL     OW20845   0.099   4.052  13.209  0.4284 -0.6216  0.0271
 3070SOL    HW120846   0.144   3.973  13.239 -1.1833 -1.6691 -0.3451
 3070SOL    HW220847   0.080   4.100  13.290  1.0127 -0.6754  0.1944
 3071SOL     OW20848   4.437   0.921   9.507 -0.3380  0.1376 -0.0457
 3071SOL    HW120849   4.491   0.984   9.459  1.8114 -0.6360  1.3729
 3071SOL    HW220850   4.389   0.985   9.561 -1.4612  0.7591 -1.7450
 3072SOL     OW20851   2.693   1.256   6.231  0.2435  0.2812 -0.1007
 3072SOL    HW120852   2.706   1.318   6.302  0.3636 -0.3522  0.4294
 3072SOL    HW220853   2.598   1.257   6.218 -0.0654  1.2424  2.2476
 3073SOL     OW20854   0.734   3.308   5.045 -0.2985 -0.4200 -0.7501
 3073SOL    HW120855   0.756   3.227   5.093 -2.6752 -0.9025 -0.4613
 3073SOL    HW220856   0.820   3.349   5.039  0.6470 -2.1028  1.0831
 3074SOL     OW20857   2.627   3.713  15.854  0.2502  0.0535 -0.3824
 3074SOL    HW120858   2.697   3.728  15.790  0.8566 -0.1022  0.2372
 3074SOL    HW220859   2.553   3.704  15.794  0.6095 -0.4480 -0.7552
 3075SOL     OW20860   4.661   2.334   0.629 -0.0695 -0.3971 -0.0375
 3075SOL    HW120861   4.580   2.367   0.589  0.4996  0.2919 -0.6231
 3075SOL    HW220862   4.702   2.417   0.653  0.9321 -0.4900 -1.4385
 3076SOL     OW20863   3.850   1.748   2.056  0.1211 -0.1899  0.4120
 3076SOL    HW120864   3.757   1.733   2.075  0.4962 -2.7148  0.2571
 3076SOL    HW220865   3.865   1.842   2.063  4.8069 -0.8363 -1.0854
 3077SOL     OW20866   0.724   0.551   7.901 -0.2471 -0.2335  0.1250
 3077SOL    HW120867   0.801   0.501   7.875  0.7394  0.4152  1.7913
 3077SOL    HW220868   0.740   0.637   7.863  1.6654 -0.9525 -0.7176
 3078SOL     OW20869   4.286   0.999   3.849 -0.4064 -0.1924 -0.1120
 3078SOL    HW120870   4.303   0.993   3.755 -0.7621 -1.1175 -0.1238
 3078SOL    HW220871   4.234   1.079   3.848 -3.3004 -2.0504  0.7975
 3079SOL     OW20872   4.237   0.632  16.574 -0.4158 -0.0411  0.2649
 3079SOL    HW120873   4.314   0.611  16.521 -0.5698 -0.8732  0.3613
 3079SOL    HW220874   4.180   0.675  16.511 -0.3982  1.4359  1.2497
 3080SOL     OW20875   1.368   2.781  13.855  0.3491 -0.8204 -0.2314
 3080SOL    HW120876   1.432   2.794  13.786 -0.8042  0.0237 -1.1457
 3080SOL    HW220877   1.287   2.811  13.815  1.1207  2.5051  0.7659
 3081SOL     OW20878   4.066   1.765  17.484 -0.6547  0.4204  0.0225
 3081SOL    HW120879   3.999   1.700  17.505 -2.8065  2.0190 -2.0032
 3081SOL    HW220880   4.054   1.834  17.550  0.9190 -1.7127  2.5485
 3082SOL     OW20881   2.350   2.200  13.172  0.9083  0.4814  0.0992
 3082SOL    HW120882   2.363   2.257  13.248  0.8437 -2.3897  2.2612
 3082SOL    HW220883   2.402   2.125  13.201 -0.1605  0.5758  2.2709
 3083SOL     OW20884   3.219   3.805   5.834 -0.2240  0.5962 -0.2582
 3083SOL    HW120885   3.262   3.733   5.881 -0.0312  0.2089 -1.0319
 3083SOL    HW220886   3.250   3.885   5.876  1.8651 -0.3081 -0.0763
 3084SOL     OW20887   1.267   3.062   7.582  0.6865  0.0740  0.6001
 3084SOL    HW120888   1.228   2.976   7.567 -0.5930  0.4330  1.8884
 3084SOL    HW220889   1.189   3.107   7.614 -1.1828 -1.1574 -2.2237
 3085SOL     OW20890   1.944   0.527   5.667 -0.4795  0.0292 -0.1444
 3085SOL    HW120891   1.964   0.620   5.667 -0.6049  0.0430  1.8016
 3085SOL    HW220892   1.951   0.488   5.580  0.0253  3.7437 -1.7840
 3086SOL     OW20893   2.993   1.323   1.623  0.6626  0.5099 -0.5963
 3086SOL    HW120894   3.018   1.260   1.556 -0.1136 -1.6047  1.1406
 3086SOL    HW220895   2.933   1.274   1.678 -0.4156  0.5233 -1.7531
 3087SOL     OW20896   2.581   2.743   8.905  0.0103  0.2174 -0.2811
 3087SOL    HW120897   2.590   2.749   8.810 -2.4313  1.1719 -0.4552
 3087SOL    HW220898   2.497   2.698   8.915 -0.4815  1.1030 -0.4068
 3088SOL     OW20899   2.439   1.348   3.872 -0.6907  0.1031  0.8524
 3088SOL    HW120900   2.387   1.356   3.792  0.4126 -0.0323  0.1248
 3088SOL    HW220901   2.444   1.253   3.881 -1.7162 -0.1421 -1.1911
 3089SOL     OW20902   2.361   4.467   8.477 -0.1152  0.4517  0.7089
 3089SOL    HW120903   2.426   4.530   8.447  0.4520 -0.9314 -0.9825
 3089SOL    HW220904   2.301   4.478   8.403  0.7850 -3.1394 -0.5512
 3090SOL     OW20905   1.740   2.367   7.277  0.3521  0.0037  0.3119
 3090SOL    HW120906   1.800   2.356   7.351  0.2409  0.4798  0.4726
 3090SOL    HW220907   1.775   2.439   7.226 -0.5650  1.5753  1.8842
 3091SOL     OW20908   3.169   2.309   1.882 -0.1016 -0.1554 -0.4352
 3091SOL    HW120909   3.104   2.253   1.923 -0.6276 -0.4306 -1.6484
 3091SOL    HW220910   3.251   2.279   1.921 -0.5338  0.9329  1.3183
 3092SOL     OW20911   1.072   2.684   1.949 -0.0713  0.1992  0.7094
 3092SOL    HW120912   1.125   2.709   1.873 -0.3719  0.4135  0.5699
 3092SOL    HW220913   1.137   2.695   2.019 -1.5460  0.7699  1.9767
 3093SOL     OW20914   4.505   4.723   5.822 -0.1792 -0.4377  0.0070
 3093SOL    HW120915   4.557   4.682   5.753  0.6263  2.7026 -1.2697
 3093SOL    HW220916   4.563   4.692   5.891 -1.8552 -1.9025  0.7645
 3094SOL     OW20917   4.389   1.236   6.532  0.1537  0.4695 -0.2961
 3094SOL    HW120918   4.422   1.146   6.525 -0.5567  0.1543  0.4388
 3094SOL    HW220919   4.418   1.278   6.451  0.6797 -1.6473 -1.2216
 3095SOL     OW20920   3.506   3.791   2.224  0.0984  0.1981 -0.6019
 3095SOL    HW120921   3.475   3.858   2.163 -0.2047  1.0876  0.5351
 3095SOL    HW220922   3.584   3.753   2.183  1.2290  3.1531 -1.1992
 3096SOL     OW20923   2.926   4.527   2.202 -0.1765  0.5491 -0.2497
 3096SOL    HW120924   2.903   4.615   2.231  0.0233 -0.0819  1.7966
 3096SOL    HW220925   3.017   4.525   2.230 -0.4166 -0.3091  0.4760
 3097SOL     OW20926   0.134   2.799   9.318 -0.1703  0.1400  0.2409
 3097SOL    HW120927   0.056   2.796   9.262 -0.7519  2.1587  0.9458
 3097SOL    HW220928   0.192   2.768   9.248 -0.8519 -1.3821  0.3580
 3098SOL     OW20929   4.081   4.380  12.463  0.0972 -0.3791  0.0802
 3098SOL    HW120930   4.149   4.341  12.519  1.0729 -2.9325 -2.8794
 3098SOL    HW220931   4.129   4.395  12.381 -0.4386  1.2060  0.0680
 3099SOL     OW20932   2.856   0.341   7.904 -0.0179 -0.5723  0.1598
 3099SOL    HW120933   2.858   0.333   7.999  0.1853  0.0776  0.2128
 3099SOL    HW220934   2.926   0.407   7.900 -0.4478 -0.1554 -0.4903
 3100SOL     OW20935   2.513   2.301   8.762  0.0413 -0.4655 -0.1858
 3100SOL    HW120936   2.520   2.255   8.679 -1.9349 -0.0904 -0.5522
 3100SOL    HW220937   2.445   2.248   8.802 -1.0852  0.2409 -1.1482
 3101SOL     OW20938   2.588   0.623   5.743 -0.5696  0.7459 -0.3607
 3101SOL    HW120939   2.532   0.565   5.691 -0.9260 -0.6888  1.6172
 3101SOL    HW220940   2.564   0.602   5.833 -1.0155  2.4800 -0.0727
 3102SOL     OW20941   4.706   3.263   3.597  0.7090  0.1989 -0.1351
 3102SOL    HW120942   4.691   3.197   3.664 -4.7372 -0.4107 -1.9992
 3102SOL    HW220943   0.064   3.256   3.580  1.2577 -0.4076  3.2120
 3103SOL     OW20944   1.375   2.214   4.725 -0.3789 -0.4606 -0.5541
 3103SOL    HW120945   1.375   2.120   4.742 -0.7408 -0.4214 -0.3334
 3103SOL    HW220946   1.284   2.214   4.694 -0.8014  0.1345  0.6681
 3104SOL     OW20947   3.340   1.077  13.249 -0.2191  0.6076  0.7950
 3104SOL    HW120948   3.333   1.006  13.184  0.7480  0.2742  1.0456
 3104SOL    HW220949   3.250   1.082  13.281 -1.1172  3.2295 -2.1767
 3105SOL     OW20950   4.276   1.716  16.728 -0.2349  0.2423  0.3789
 3105SOL    HW120951   4.266   1.761  16.811  0.8400 -1.3290  1.3722
 3105SOL    HW220952   4.199   1.748  16.682 -1.9387 -2.2744  1.5016
 3106SOL     OW20953   1.349   2.954   1.949 -0.0520 -0.0437 -1.1561
 3106SOL    HW120954   1.378   2.917   1.865  0.4126 -1.7336 -0.2616
 3106SOL    HW220955   1.348   2.879   2.009  0.8061 -0.7362 -1.9882
 3107SOL     OW20956   4.326   4.606   7.155 -0.3239  0.2446  0.6235
 3107SOL    HW120957   4.417   4.582   7.140 -0.5662 -0.5201  0.3882
 3107SOL    HW220958   4.277   4.553   7.092 -0.0124  0.1424  0.4703
 3108SOL     OW20959   2.887   3.068   4.926  0.4339 -0.0292  0.2914
 3108SOL    HW120960   2.920   2.986   4.962 -1.3328 -0.3567  1.1810
 3108SOL    HW220961   2.938   3.131   4.979  1.1056  0.1487 -0.5643
 3109SOL     OW20962   2.220   4.541  15.370  0.1912 -0.3717  0.0068
 3109SOL    HW120963   2.266   4.519  15.451 -1.6617  1.8683  1.6391
 3109SOL    HW220964   2.183   4.626  15.394 -0.6347 -0.9363  0.6863
 3110SOL     OW20965   4.102   0.671   5.691 -0.4860 -0.0868  0.3986
 3110SOL    HW120966   4.137   0.671   5.780  1.8724  1.1845 -0.5269
 3110SOL    HW220967   4.040   0.743   5.703 -1.9533 -1.4012  0.7527
 3111SOL     OW20968   1.653   3.865   9.504 -0.2969 -0.1544 -0.0796
 3111SOL    HW120969   1.597   3.788   9.512  0.4325 -0.5930  0.7648
 3111SOL    HW220970   1.734   3.815   9.513 -0.4333 -0.8463 -2.9240
 3112SOL     OW20971   2.107   0.789  11.751 -0.1955  0.2251  0.1122
 3112SOL    HW120972   2.181   0.830  11.707  0.1868 -0.3519  0.2172
 3112SOL    HW220973   2.115   0.834  11.836 -1.1706  1.6113 -0.5251
 3113SOL     OW20974   1.474   3.187   8.018  0.5768 -0.0500 -0.5056
 3113SOL    HW120975   1.487   3.176   7.924 -0.4538 -1.0509 -0.5327
 3113SOL    HW220976   1.379   3.180   8.028  0.4317  3.0303  0.1996
 3114SOL     OW20977   3.144   0.612   3.106  0.1077 -0.6280  0.1955
 3114SOL    HW120978   3.145   0.659   3.188 -0.3058 -2.0033  0.9919
 3114SOL    HW220979   3.097   0.530   3.123 -0.4252 -0.3636 -0.0004
 3115SOL     OW20980   2.409   2.422   7.216 -0.3212 -0.3892  0.0765
 3115SOL    HW120981   2.485   2.422   7.273 -0.1714 -4.0763 -0.0888
 3115SOL    HW220982   2.436   2.489   7.153 -1.7498 -1.4989 -1.7155
 3116SOL     OW20983   3.322   2.976   3.672 -0.4182  0.1644  0.2520
 3116SOL    HW120984   3.316   2.886   3.639  2.2053 -0.6078  1.8502
 3116SOL    HW220985   3.234   2.981   3.707 -0.6207 -0.3887 -0.1838
 3117SOL     OW20986   1.232   1.418  16.523  0.1961 -0.9366 -0.0798
 3117SOL    HW120987   1.264   1.344  16.574  1.4946 -0.3408 -0.0160
 3117SOL    HW220988   1.269   1.401  16.436 -0.6529 -0.7730 -0.4704
 3118SOL     OW20989   0.694   0.010   8.473  0.0315 -0.2821 -0.0516
 3118SOL    HW120990   0.620   0.003   8.534  1.2104 -1.7340  1.2244
 3118SOL    HW220991   0.693   0.098   8.435 -0.9673 -1.0226 -1.7413
 3119SOL     OW20992   1.040   4.618   4.519 -0.3350 -0.2528  0.0344
 3119SOL    HW120993   1.048   4.581   4.431  0.6688 -0.1548  0.0925
 3119SOL    HW220994   1.093   4.696   4.507 -1.4870  0.3635 -1.0947
 3120SOL     OW20995   2.479   3.485   7.373  0.3212 -0.4383 -0.0919
 3120SOL    HW120996   2.478   3.551   7.303  0.0960  0.5051  0.7904
 3120SOL    HW220997   2.443   3.532   7.449  1.8710 -1.1239  1.0579
 3121SOL     OW20998   2.647   3.660   4.150 -0.6284 -0.0886  0.1592
 3121SOL    HW120999   2.567   3.714   4.145 -1.0537 -0.8759 -1.2696
 3121SOL    HW221000   2.700   3.712   4.089 -1.6080 -1.1400 -1.5676
 3122SOL     OW21001   1.467   3.386  14.072  0.1720 -0.3624  1.1443
 3122SOL    HW121002   1.401   3.348  14.014  1.2360 -0.7262  0.1610
 3122SOL    HW221003   1.543   3.333  14.049  0.0289 -0.4128  0.7974
 3123SOL     OW21004   3.736   3.701   8.826 -0.1800 -0.0627  0.0852
 3123SOL    HW121005   3.644   3.674   8.834 -0.4102  0.6074 -0.3082
 3123SOL    HW221006   3.774   3.613   8.822  0.7820  0.3587  0.0456
 3124SOL     OW21007   2.518   3.671   2.145 -0.6628  0.2490  0.1314
 3124SOL    HW121008   2.472   3.686   2.227 -0.9911 -0.7037  0.1219
 3124SOL    HW221009   2.522   3.575   2.140 -0.7379  0.2081  0.8915
 3125SOL     OW21010   1.923   2.426   8.713 -0.2552  0.4059  0.4414
 3125SOL    HW121011   1.838   2.385   8.721 -0.3492  0.6486  0.6935
 3125SOL    HW221012   1.885   2.514   8.708  1.2334  1.0282 -0.2022
 3126SOL     OW21013   2.088   1.054   0.613  0.4847  0.1004  0.4123
 3126SOL    HW121014   2.084   1.141   0.574 -1.3599 -0.7042 -1.2045
 3126SOL    HW221015   2.170   1.051   0.662  1.2305 -2.3735 -0.9781
 3127SOL     OW21016   0.346   1.004   4.568 -0.1682  0.5778  0.3028
 3127SOL    HW121017   0.410   1.066   4.600 -0.0265 -1.4752  3.9169
 3127SOL    HW221018   0.416   0.939   4.557  0.5633  0.9243  2.9855
 3128SOL     OW21019   1.607   4.195  13.248 -0.3891  0.0899  0.0485
 3128SOL    HW121020   1.629   4.201  13.155  2.3167  3.5268  0.9135
 3128SOL    HW221021   1.512   4.184  13.244 -0.3743 -0.3084  0.7808
 3129SOL     OW21022   4.690   4.671   6.008 -0.7256  0.0198  0.0231
 3129SOL    HW121023   4.660   4.713   6.089 -0.8575  0.5110 -0.2778
 3129SOL    HW221024   0.047   4.655   6.015 -1.2034 -2.3740  0.7319
 3130SOL     OW21025   1.056   4.436  10.186 -0.0329  0.3333 -0.1467
 3130SOL    HW121026   1.038   4.499  10.116  0.2023  0.5715  0.0061
 3130SOL    HW221027   1.149   4.412  10.174 -1.1008 -2.7167 -2.4243
 3131SOL     OW21028   1.440   2.862   1.020  0.0398 -0.1507  0.0531
 3131SOL    HW121029   1.352   2.862   1.058 -0.1536  1.7717 -0.3791
 3131SOL    HW221030   1.444   2.786   0.962  0.0011 -1.1416  1.3520
 3132SOL     OW21031   1.461   0.317   4.139  0.0743 -0.1549 -0.5318
 3132SOL    HW121032   1.417   0.402   4.126  1.3990  0.7766  1.1638
 3132SOL    HW221033   1.551   0.329   4.110  0.9379 -3.6189  0.7781
 3133SOL     OW21034   0.401   1.633  12.603 -0.8216  0.1366  0.2782
 3133SOL    HW121035   0.433   1.689  12.673 -0.9699 -0.0075  0.4609
 3133SOL    HW221036   0.417   1.547  12.642 -0.3434  0.5843  1.0543
 3134SOL     OW21037   4.214   1.293  15.064  0.0326  0.1231 -0.0466
 3134SOL    HW121038   4.229   1.359  14.996  0.2266 -1.5987 -1.6599
 3134SOL    HW221039   4.293   1.303  15.117  0.4781  0.2399 -0.7271
 3135SOL     OW21040   3.102   2.392  12.972 -0.1409  0.2095  0.4680
 3135SOL    HW121041   3.082   2.309  12.929 -0.3624  1.5305 -1.9606
 3135SOL    HW221042   3.086   2.369  13.064 -0.5533 -1.6087 -0.0694
 3136SOL     OW21043   0.952   3.605   6.764  0.2368 -0.7008 -0.1719
 3136SOL    HW121044   0.906   3.526   6.737 -0.6890 -1.0632  2.5015
 3136SOL    HW221045   1.009   3.612   6.688 -1.6849 -2.5312 -1.7988
 3137SOL     OW21046   4.160   4.515   1.709  0.5996 -0.1989  0.2378
 3137SOL    HW121047   4.190   4.586   1.652 -0.9334 -1.6738 -2.4378
 3137SOL    HW221048   4.197   4.532   1.795  1.1640 -0.7977  0.1134
 3138SOL     OW21049   0.803   0.978   9.066  0.5026 -0.1500 -0.2532
 3138SOL    HW121050   0.875   0.953   9.124  0.4235  0.2549  0.0225
 3138SOL    HW221051   0.783   0.895   9.023 -0.7680 -0.0626  0.1599
 3139SOL     OW21052   3.620   4.152   3.629  0.7136  0.2570  0.7197
 3139SOL    HW121053   3.539   4.168   3.582  1.3712  2.2493  0.2772
 3139SOL    HW221054   3.603   4.199   3.710 -2.1150 -2.5993  1.7921
 3140SOL     OW21055   2.256   3.343   2.770  0.2626 -0.1267  0.1860
 3140SOL    HW121056   2.284   3.294   2.693 -0.1873 -0.4710  0.2374
 3140SOL    HW221057   2.234   3.421   2.720 -0.0197 -0.9388 -0.9577
 3141SOL     OW21058   4.310   0.050   8.021 -0.0429 -0.0042  0.4638
 3141SOL    HW121059   4.221   0.062   8.056  0.7099 -0.6494  2.6168
 3141SOL    HW221060   4.341   4.713   8.073 -0.4547 -1.4101 -1.2810
 3142SOL     OW21061   2.411   2.698   4.617 -0.3564 -0.1977 -0.2561
 3142SOL    HW121062   2.401   2.669   4.527  1.6171 -0.9980 -0.2207
 3142SOL    HW221063   2.326   2.737   4.637 -0.1528  0.5267 -0.8238
 3143SOL     OW21064   0.962   0.400   3.627  0.3763  0.0350 -0.3012
 3143SOL    HW121065   0.991   0.354   3.548  0.7452  0.9787 -0.7227
 3143SOL    HW221066   0.929   0.489   3.613  1.1262  0.2478 -0.7337
 3144SOL     OW21067   3.195   2.675  15.141 -0.4169  0.3994  0.0175
 3144SOL    HW121068   3.278   2.660  15.096 -0.8883 -1.2841 -0.3001
 3144SOL    HW221069   3.215   2.626  15.221 -0.5760 -1.5559 -1.1329
 3145SOL     OW21070   1.670   4.150   2.507  0.2083 -0.7340 -0.1561
 3145SOL    HW121071   1.598   4.094   2.534 -0.4919 -0.1013 -0.7093
 3145SOL    HW221072   1.637   4.179   2.422  1.2935  1.9132  0.3200
 3146SOL     OW21073   3.717   3.366  11.514  0.3291 -0.0135  0.6059
 3146SOL    HW121074   3.753   3.291  11.562  2.3221  0.2937 -0.4195
 3146SOL    HW221075   3.767   3.437  11.554  0.8215 -0.5289  0.9073
 3147SOL     OW21076   1.121   0.015   6.082  0.2404 -0.6357 -0.5607
 3147SOL    HW121077   1.167   4.736   5.999  0.6768 -1.2818 -0.2012
 3147SOL    HW221078   1.034   0.047   6.059  0.1768  1.2240  2.2262
 3148SOL     OW21079   2.223   2.817  15.611  0.5484 -0.2871  0.2246
 3148SOL    HW121080   2.139   2.862  15.613  0.2562 -0.8338  0.0868
 3148SOL    HW221081   2.187   2.728  15.615 -1.8752  0.6513 -0.7289
 3149SOL     OW21082   2.098   1.568   4.430  0.0643  0.5709  0.0026
 3149SOL    HW121083   2.164   1.498   4.424  0.8743  1.4679 -1.4814
 3149SOL    HW221084   2.105   1.607   4.343  1.2350  0.1924 -0.0770
 3150SOL     OW21085   3.792   2.289   0.130 -0.1177 -0.9955  0.2727
 3150SOL    HW121086   3.780   2.380   0.157  0.4437 -0.5869 -0.8654
 3150SOL    HW221087   3.734   2.274   0.056  2.5890  1.9544 -2.4145
 3151SOL     OW21088   3.897   1.659   3.452 -0.7756  0.1881  0.0516
 3151SOL    HW121089   3.807   1.661   3.419 -0.6671  0.0500 -0.2602
 3151SOL    HW221090   3.894   1.605   3.531  0.0233  0.0754  0.0036
 3152SOL     OW21091   3.344   4.423   8.410 -0.0578 -0.2559 -0.2016
 3152SOL    HW121092   3.299   4.507   8.402 -1.1824 -1.1163 -2.8695
 3152SOL    HW221093   3.379   4.435   8.498  1.0918 -1.7138 -0.4687
 3153SOL     OW21094   4.247   0.515   2.960 -0.4339  0.4569  0.0066
 3153SOL    HW121095   4.238   0.432   2.912 -1.6005 -0.4928  1.8177
 3153SOL    HW221096   4.159   0.550   2.944 -1.3035 -2.5095 -1.7494
 3154SOL     OW21097   1.113   2.840   7.531 -0.6176 -0.3993 -0.6722
 3154SOL    HW121098   1.078   2.752   7.539  0.1211 -0.6310  0.0002
 3154SOL    HW221099   1.130   2.837   7.437 -0.9794  0.9400 -0.7832
 3155SOL     OW21100   1.002   2.089   5.557  0.4401 -0.2120 -0.0437
 3155SOL    HW121101   1.013   1.996   5.573 -0.5399 -0.2295  0.5393
 3155SOL    HW221102   1.063   2.122   5.623 -2.7717 -1.1518  3.3577
 3156SOL     OW21103   0.587   3.982  15.786 -0.3642  0.2905 -0.0633
 3156SOL    HW121104   0.497   3.953  15.801 -0.4941  0.7702  0.0886
 3156SOL    HW221105   0.619   3.932  15.710 -0.5395  1.7807 -1.1275
 3157SOL     OW21106   0.980   3.612   4.626 -0.4041 -0.5137 -0.0924
 3157SOL    HW121107   0.936   3.677   4.571  1.4810  0.3391 -0.5810
 3157SOL    HW221108   0.926   3.536   4.603  2.2484 -2.4427  0.1273
 3158SOL     OW21109   1.761   3.192  14.242  0.0981  0.1616 -0.1033
 3158SOL    HW121110   1.717   3.161  14.163  0.2670  0.1208 -0.1810
 3158SOL    HW221111   1.690   3.227  14.296 -1.3126 -1.4810 -0.8849
 3159SOL     OW21112   1.888   2.208   6.561  0.3131  0.0538 -0.5211
 3159SOL    HW121113   1.932   2.270   6.503  2.5862  0.9817  2.2410
 3159SOL    HW221114   1.798   2.241   6.570 -0.4164 -1.7593 -1.1133
 3160SOL     OW21115   3.441   2.669   4.303 -0.2483 -0.4246  0.4168
 3160SOL    HW121116   3.458   2.600   4.367 -1.9750 -0.6297  0.6715
 3160SOL    HW221117   3.438   2.747   4.357 -0.6360  0.6247 -1.1209
 3161SOL     OW21118   1.763   3.023  11.793  0.0164  0.6130  0.3142
 3161SOL    HW121119   1.845   2.976  11.772 -0.1755  0.8755 -1.0286
 3161SOL    HW221120   1.715   2.952  11.837 -0.1641  1.1038  0.9046
 3162SOL     OW21121   1.930   3.452   4.187 -0.4096 -0.1887 -0.2055
 3162SOL    HW121122   1.856   3.485   4.136 -0.4157  0.2136  0.0644
 3162SOL    HW221123   1.900   3.446   4.278  1.0305 -0.3589  0.2625
 3163SOL     OW21124   3.298   0.256   6.930  0.6900 -0.4908  0.0408
 3163SOL    HW121125   3.341   0.334   6.896 -0.3253  0.4269  0.8553
 3163SOL    HW221126   3.345   0.247   7.012 -2.6179  1.2380  2.1510
 3164SOL     OW21127   3.921   3.937   5.854  0.2258 -0.2576 -0.3071
 3164SOL    HW121128   3.867   4.008   5.891  0.7115 -0.7341  1.3156
 3164SOL    HW221129   3.912   3.963   5.763  0.7323  2.6174  0.4558
 3165SOL     OW21130   0.521   2.141  12.938  0.2722 -0.8953  0.7469
 3165SOL    HW121131   0.532   2.097  13.022  1.6744  0.1264  1.1072
 3165SOL    HW221132   0.564   2.076  12.882 -0.7664 -1.4662  0.6212
 3166SOL     OW21133   2.891   0.444   6.144  0.0334  0.6806 -0.4612
 3166SOL    HW121134   2.819   0.487   6.190 -1.8223 -0.9367 -1.8942
 3166SOL    HW221135   2.871   0.458   6.052  1.4179 -0.5239 -0.9571
 3167SOL     OW21136   0.964   3.904   6.554  0.4739 -0.3184  0.3703
 3167SOL    HW121137   0.965   3.959   6.633  1.7417  0.3238 -0.1050
 3167SOL    HW221138   0.998   3.964   6.489 -1.7625 -1.6885 -2.0588
 3168SOL     OW21139   0.453   1.005   5.376  0.4960 -0.3220 -0.1937
 3168SOL    HW121140   0.409   1.082   5.338  2.0325 -0.5984 -2.5267
 3168SOL    HW221141   0.393   0.996   5.450  1.8049 -1.2823  0.7391
 3169SOL     OW21142   2.838   3.586  10.071  0.1587 -0.4489 -0.1600
 3169SOL    HW121143   2.776   3.536  10.125 -1.3359  0.6907 -0.8402
 3169SOL    HW221144   2.781   3.622  10.003  0.1108  1.5365  0.9543
 3170SOL     OW21145   4.116   1.432  12.288 -0.6500  0.2223  0.1283
 3170SOL    HW121146   4.200   1.407  12.327 -0.7157 -0.8193 -0.3861
 3170SOL    HW221147   4.072   1.445  12.372 -1.1490 -1.5506  0.1590
 3171SOL     OW21148   4.020   1.135  17.531  0.0260  0.0014 -0.5015
 3171SOL    HW121149   4.002   1.108  17.441 -2.2333  1.2117 -0.4116
 3171SOL    HW221150   4.095   1.077  17.540  0.3274  0.4891  0.1184
 3172SOL     OW21151   3.843   3.149   2.261 -0.2682  0.3068  0.2125
 3172SOL    HW121152   3.907   3.142   2.190  0.0285 -1.6648  0.6736
 3172SOL    HW221153   3.788   3.076   2.230  0.2964 -0.2466  0.5227
 3173SOL     OW21154   0.101   1.971   1.359  0.6505  0.2695  0.3806
 3173SOL    HW121155   0.193   1.979   1.337  1.0353 -0.8314  1.6306
 3173SOL    HW221156   0.107   1.965   1.455 -0.0074 -1.9307  0.2760
 3174SOL     OW21157   2.554   0.452   7.639  0.0486  0.3291 -0.3019
 3174SOL    HW121158   2.568   0.366   7.678 -1.1944 -1.0208 -2.8167
 3174SOL    HW221159   2.486   0.471   7.703 -1.4529 -1.6545 -1.3319
 3175SOL     OW21160   0.311   0.731   6.391 -0.3300  0.3392  0.0294
 3175SOL    HW121161   0.312   0.639   6.419 -2.4542 -0.4526 -2.4932
 3175SOL    HW221162   0.303   0.728   6.296  0.7531 -0.9905 -0.0281
 3176SOL     OW21163   3.214   0.449   3.828 -0.1965  0.3208 -0.1339
 3176SOL    HW121164   3.218   0.529   3.776  2.1249 -0.2197 -0.7738
 3176SOL    HW221165   3.303   0.414   3.819 -0.4617 -0.2276 -0.6552
 3177SOL     OW21166   2.727   2.685  10.436 -0.1643  0.0795  0.0886
 3177SOL    HW121167   2.756   2.772  10.407 -3.6669  1.4810  0.7581
 3177SOL    HW221168   2.807   2.649  10.474 -1.9736 -2.3953  1.5409
 3178SOL     OW21169   4.132   2.925   5.603 -0.1466  0.1637  0.0282
 3178SOL    HW121170   4.185   2.994   5.643  0.7780 -1.1890  1.1005
 3178SOL    HW221171   4.053   2.923   5.657  1.2591 -0.2058  2.0303
 3179SOL     OW21172   0.586   3.504   8.620  0.2419  0.2685  0.2080
 3179SOL    HW121173   0.590   3.429   8.562 -1.5688 -0.7193  1.3739
 3179SOL    HW221174   0.596   3.571   8.553 -1.1412 -0.6376 -0.8777
 3180SOL     OW21175   4.135   0.711  15.896 -0.0926  0.4561 -0.2731
 3180SOL    HW121176   4.194   0.770  15.850 -1.0066 -0.0304 -2.0630
 3180SOL    HW221177   4.101   0.652  15.828 -1.0307 -0.9768  1.4243
 3181SOL     OW21178   2.328   0.979   4.135  0.3711  0.1984 -0.0085
 3181SOL    HW121179   2.396   0.992   4.201  0.2598 -0.9794  0.3441
 3181SOL    HW221180   2.254   0.952   4.188  1.2361 -0.0141  1.1017
 3182SOL     OW21181   2.261   2.339   0.396 -0.4401  0.1497  0.0421
 3182SOL    HW121182   2.229   2.269   0.452  1.1431 -0.0135  0.7446
 3182SOL    HW221183   2.354   2.325   0.413 -0.4576 -1.3601 -1.1587
 3183SOL     OW21184   1.920   0.794   9.289  0.0621  0.0405  0.3524
 3183SOL    HW121185   1.919   0.842   9.371 -1.0426  1.9223 -0.7499
 3183SOL    HW221186   1.930   0.865   9.226  0.9543  0.0599  0.5165
 3184SOL     OW21187   3.406   4.331   7.721 -0.3933  0.5616  0.4055
 3184SOL    HW121188   3.324   4.284   7.738 -1.2164  0.2393 -4.4639
 3184SOL    HW221189   3.377   4.421   7.703  0.0053  0.1128 -2.4967
 3185SOL     OW21190   1.211   4.715   1.593  0.1950 -0.6690  0.1698
 3185SOL    HW121191   1.290   4.732   1.543  0.3706  0.8144  0.9605
 3185SOL    HW221192   1.205   4.619   1.590  1.8611 -0.7098 -1.7249
 3186SOL     OW21193   2.816   2.200  14.846 -0.0459 -0.0383  0.1072
 3186SOL    HW121194   2.779   2.288  14.845 -1.5756 -0.6855 -0.4004
 3186SOL    HW221195   2.795   2.175  14.937  0.8608 -0.0785  0.3070
 3187SOL     OW21196   2.492   0.700   7.302  0.3775  0.4692  0.1559
 3187SOL    HW121197   2.504   0.608   7.325 -1.1195 -0.1923 -1.7121
 3187SOL    HW221198   2.406   0.717   7.339  0.2443 -0.2674  0.1828
 3188SOL     OW21199   0.537   2.312   2.362  0.1433 -0.3168  0.2880
 3188SOL    HW121200   0.559   2.342   2.274  0.1638 -0.8391  0.1135
 3188SOL    HW221201   0.482   2.385   2.391 -0.0345 -0.4598  0.3116
 3189SOL     OW21202   3.058   1.234  10.073  0.2641  0.1138 -0.2555
 3189SOL    HW121203   2.968   1.248  10.044  0.1584 -0.9095 -0.4187
 3189SOL    HW221204   3.082   1.153  10.029 -2.7370 -0.8619 -0.0825
 3190SOL     OW21205   1.880   4.159   4.087 -0.0463 -0.6861 -0.0200
 3190SOL    HW121206   1.951   4.119   4.137  1.4411  0.1115 -1.5007
 3190SOL    HW221207   1.853   4.092   4.023  1.3524  0.3810 -1.7265
 3191SOL     OW21208   2.076   2.538  14.267 -0.3376  0.8324 -1.1273
 3191SOL    HW121209   2.037   2.464  14.220  0.0053 -0.3807  0.4573
 3191SOL    HW221210   2.152   2.563  14.214  0.4495 -2.9921 -1.8368
 3192SOL     OW21211   2.366   4.314   3.562  0.1246  0.1528  0.0686
 3192SOL    HW121212   2.359   4.397   3.609  0.0837 -0.4574  1.1505
 3192SOL    HW221213   2.273   4.290   3.565 -0.1138  1.3383  2.2152
 3193SOL     OW21214   3.698   4.351  16.061 -0.1905 -0.0785  0.4969
 3193SOL    HW121215   3.762   4.371  16.129 -1.5400 -1.6514  2.2401
 3193SOL    HW221216   3.647   4.431  16.078  2.1613  0.8176  3.2979
 3194SOL     OW21217   4.161   1.530   9.166 -0.3040  0.1021  0.0074
 3194SOL    HW121218   4.105   1.577   9.228 -0.6767  0.4487 -0.5978
 3194SOL    HW221219   4.182   1.451   9.216 -2.5429  0.0010  0.8239
 3195SOL     OW21220   1.050   2.234   5.189  0.2610  0.1618 -0.5862
 3195SOL    HW121221   0.962   2.265   5.210  0.6267  1.6009 -1.2124
 3195SOL    HW221222   1.057   2.271   5.101  0.4743  1.3139 -0.0831
 3196SOL     OW21223   1.417   0.824  10.908 -0.3536 -0.1060  0.0763
 3196SOL    HW121224   1.419   0.864  10.995 -1.7126  2.5807 -1.1512
 3196SOL    HW221225   1.325   0.797  10.899 -0.0567 -0.4989 -1.7560
 3197SOL     OW21226   3.482   2.245   3.219  0.1933  0.2769  0.1476
 3197SOL    HW121227   3.444   2.313   3.164 -2.6300 -0.0317  1.7044
 3197SOL    HW221228   3.447   2.163   3.183  0.6580 -0.3228  1.0410
 3198SOL     OW21229   2.942   0.545   5.260 -0.1121  0.3886 -0.0674
 3198SOL    HW121230   2.894   0.509   5.335  2.0863 -1.4281  0.4531
 3198SOL    HW221231   2.879   0.531   5.190 -1.0729 -1.0967  1.0926
 3199SOL     OW21232   2.355   4.559  12.931 -0.4931  0.3834 -0.4057
 3199SOL    HW121233   2.413   4.484  12.943 -1.7222 -0.7230 -1.4831
 3199SOL    HW221234   2.341   4.601  13.016  2.2222  0.8581 -0.1892
 3200SOL     OW21235   3.794   2.936  15.574  0.7664 -0.1163 -0.5791
 3200SOL    HW121236   3.740   2.967  15.501  1.0085  1.7594  0.0349
 3200SOL    HW221237   3.760   2.976  15.654  0.9882  0.2142 -0.6494
 3201SOL     OW21238   1.097   2.418   7.361  0.1924 -0.0778 -0.1351
 3201SOL    HW121239   1.173   2.437   7.307 -0.7211  1.1432 -1.0099
 3201SOL    HW221240   1.135   2.346   7.411 -0.6293 -0.9493 -0.7561
 3202SOL     OW21241   3.725   0.961   0.319 -0.3686  0.0028  0.1843
 3202SOL    HW121242   3.646   0.910   0.298 -0.3213  0.6981 -1.6062
 3202SOL    HW221243   3.706   1.041   0.271  1.4721  0.2115 -0.1862
 3203SOL     OW21244   2.822   2.405   0.764 -0.3750  0.2984 -0.2245
 3203SOL    HW121245   2.871   2.327   0.790 -1.0457  0.3522  1.2064
 3203SOL    HW221246   2.895   2.445   0.716 -0.0979 -1.2457 -1.0822
 3204SOL     OW21247   1.362   1.639   2.220 -0.3268 -0.3390  0.1608
 3204SOL    HW121248   1.452   1.609   2.208 -0.2204 -0.1067  0.3863
 3204SOL    HW221249   1.322   1.590   2.148 -0.1446 -0.2719  0.0126
 3205SOL     OW21250   4.660   4.564   4.718  0.1155 -0.1379  0.1783
 3205SOL    HW121251   4.565   4.559   4.717 -0.0369  2.8804 -0.5664
 3205SOL    HW221252   4.680   4.657   4.736 -2.6630  0.8362 -1.8462
 3206SOL     OW21253   3.831   3.500   7.492  0.2308  0.0651  0.4984
 3206SOL    HW121254   3.812   3.408   7.479  0.8494  0.0357 -0.2592
 3206SOL    HW221255   3.908   3.493   7.549 -1.0825  0.8194  2.3599
 3207SOL     OW21256   1.201   4.411   9.804 -0.5735 -0.0284 -0.3437
 3207SOL    HW121257   1.257   4.481   9.773 -0.3936 -0.7796 -1.7320
 3207SOL    HW221258   1.252   4.344   9.758 -0.7576  0.8681 -1.8801
 3208SOL     OW21259   2.669   2.789   7.901  0.2820 -0.1373  0.3774
 3208SOL    HW121260   2.639   2.853   7.836 -1.0802 -1.6530 -0.4909
 3208SOL    HW221261   2.702   2.720   7.844 -0.2013 -1.4404  1.6791
 3209SOL     OW21262   1.661   0.127   1.199  0.3764  0.0041 -0.3772
 3209SOL    HW121263   1.594   0.131   1.131 -0.2602 -1.4980  0.1450
 3209SOL    HW221264   1.723   0.197   1.182  0.0471 -0.1240 -2.1264
 3210SOL     OW21265   3.276   3.552   4.656 -0.2050  0.5532  0.1432
 3210SOL    HW121266   3.206   3.616   4.667 -0.4471  0.3066  0.0356
 3210SOL    HW221267   3.281   3.545   4.561  0.1075 -0.2692  0.2222
 3211SOL     OW21268   3.189   1.722   3.937  0.2839  0.4581  0.0071
 3211SOL    HW121269   3.267   1.772   3.961  0.8855 -0.0095 -0.9691
 3211SOL    HW221270   3.221   1.659   3.872 -2.8394 -0.3063 -0.8050
 3212SOL     OW21271   2.710   3.330   3.858  0.0776  0.3750  0.5004
 3212SOL    HW121272   2.695   3.240   3.887  0.1143  0.0744 -0.3913
 3212SOL    HW221273   2.752   3.317   3.773  0.3408 -1.6305  0.9231
 3213SOL     OW21274   0.892   4.246   2.892  0.3753  0.4059 -0.4140
 3213SOL    HW121275   0.863   4.333   2.866 -2.0758 -0.0148  0.8603
 3213SOL    HW221276   0.884   4.200   2.808 -2.3191 -2.2864  1.2768
 3214SOL     OW21277   1.338   3.008  11.785 -0.1195  0.3115  0.2653
 3214SOL    HW121278   1.380   3.059  11.716 -0.3112 -1.6213 -1.2627
 3214SOL    HW221279   1.269   2.958  11.743 -0.1572  0.7622 -0.2000
 3215SOL     OW21280   1.630   0.821   3.074  0.4339 -0.2330 -0.7236
 3215SOL    HW121281   1.542   0.784   3.079  0.6508 -0.1715  3.3943
 3215SOL    HW221282   1.662   0.784   3.157  0.5917  0.9654 -0.2508
 3216SOL     OW21283   4.352   4.359   7.427  0.6424 -0.0484  0.4784
 3216SOL    HW121284   4.379   4.356   7.336  2.3568 -2.5326  1.0720
 3216SOL    HW221285   4.438   4.352   7.469  1.5170  0.3082 -1.2792
 3217SOL     OW21286   1.901   1.440   7.468  0.2655  0.1439 -0.7436
 3217SOL    HW121287   1.824   1.470   7.516 -0.6868  0.6071 -2.5605
 3217SOL    HW221288   1.964   1.415   7.535 -1.8995 -2.1473  0.4241
 3218SOL     OW21289   0.307   3.772  16.395  0.3636  0.4440  0.1963
 3218SOL    HW121290   0.307   3.859  16.357  1.5008  0.0332 -0.7142
 3218SOL    HW221291   0.279   3.708  16.330  1.1429 -1.4439  1.6972
 3219SOL     OW21292   0.015   4.660   1.979 -0.7252  0.5033 -0.0368
 3219SOL    HW121293   4.700   0.004   1.991  0.6366  1.3251  0.2968
 3219SOL    HW221294   4.679   4.601   1.959 -1.2731  1.6474 -1.4507
 3220SOL     OW21295   4.675   0.736   4.766 -0.2880 -0.0957 -0.4656
 3220SOL    HW121296   4.711   0.825   4.759  0.0922 -0.0776  1.7538
 3220SOL    HW221297   0.021   0.686   4.761 -0.9585 -1.0757 -1.5996
 3221SOL     OW21298   4.298   0.402   5.338 -0.3987  0.0497  0.5002
 3221SOL    HW121299   4.327   0.444   5.257 -0.4096  0.4430  0.6960
 3221SOL    HW221300   4.208   0.378   5.317 -2.0958  2.6129  4.7351
 3222SOL     OW21301   1.505   1.304   3.717 -0.0893 -0.0635 -0.2899
 3222SOL    HW121302   1.500   1.217   3.677 -1.9610  0.6837 -1.6955
 3222SOL    HW221303   1.501   1.291   3.811  1.2845 -2.4779 -0.5556
 3223SOL     OW21304   4.018   1.779   2.851 -0.1491 -0.3401  0.1041
 3223SOL    HW121305   4.003   1.861   2.898  1.1416 -1.0105  1.7113
 3223SOL    HW221306   4.098   1.751   2.897 -0.8030 -0.4142  1.1949
 3224SOL     OW21307   0.535   1.189   4.680 -0.2844 -0.1072  0.4380
 3224SOL    HW121308   0.610   1.135   4.704 -1.0895 -0.8013  1.3636
 3224SOL    HW221309   0.560   1.281   4.693 -0.1110 -0.0393 -0.3920
 3225SOL     OW21310   4.647   4.710  14.893 -0.3206  0.1957 -0.4014
 3225SOL    HW121311   4.581   0.026  14.847  0.1686  0.6735 -0.5615
 3225SOL    HW221312   4.593   4.647  14.941 -0.1821  0.3978  0.0261
 3226SOL     OW21313   4.338   1.980  16.201  0.1703  0.1862  0.4265
 3226SOL    HW121314   4.365   1.934  16.121 -2.0382  3.4328 -2.2420
 3226SOL    HW221315   4.377   1.921  16.265  3.3940  0.8404 -0.8981
 3227SOL     OW21316   0.224   3.287   8.742  0.0706 -0.4065  0.4434
 3227SOL    HW121317   0.264   3.333   8.817  2.3631  0.9784 -1.6445
 3227SOL    HW221318   0.129   3.293   8.752  0.2170  0.3369  1.4667
 3228SOL     OW21319   2.034   0.932  15.280 -0.5096  0.6671  0.7627
 3228SOL    HW121320   2.061   0.985  15.204  0.0119  1.2829  1.3792
 3228SOL    HW221321   2.090   0.854  15.277 -1.1747  0.2974 -2.6634
 3229SOL     OW21322   0.691   0.581  11.627  0.4076  0.1132 -0.2270
 3229SOL    HW121323   0.745   0.505  11.605 -0.1148 -0.8778  1.9446
 3229SOL    HW221324   0.643   0.565  11.708  2.2395 -0.2054  0.7934
 3230SOL     OW21325   0.569   0.551   9.858 -0.1212  0.0083 -0.1705
 3230SOL    HW121326   0.555   0.591   9.944  1.1521  1.4900 -0.6411
 3230SOL    HW221327   0.483   0.516   9.834  0.0674 -0.4282 -0.1991
 3231SOL     OW21328   2.228   4.614   3.483 -0.1975  0.3924 -0.2376
 3231SOL    HW121329   2.169   4.580   3.416 -0.6827  2.8718 -1.0840
 3231SOL    HW221330   2.170   4.683   3.515 -0.1567  1.0417 -1.5624
 3232SOL     OW21331   3.934   0.312  15.834 -0.4724 -0.0263  0.0353
 3232SOL    HW121332   3.907   0.337  15.923 -1.1383 -1.7396  0.3068
 3232SOL    HW221333   3.858   0.285  15.783  0.8057 -0.1952 -1.7795
 3233SOL     OW21334   4.487   0.942   9.824 -0.3455 -0.1010  0.2406
 3233SOL    HW121335   4.415   0.955   9.886  0.1419  2.9207  0.1609
 3233SOL    HW221336   4.554   0.907   9.883 -1.1279 -2.0751 -0.0358
 3234SOL     OW21337   1.541   4.484  16.356  0.1480  0.2871 -0.8604
 3234SOL    HW121338   1.514   4.482  16.448  0.8420 -1.1718 -0.6990
 3234SOL    HW221339   1.544   4.578  16.338 -1.2451  0.2834 -1.1042
 3235SOL     OW21340   2.544   1.164   1.668  0.3853 -0.2693 -0.8451
 3235SOL    HW121341   2.564   1.156   1.761 -2.2966  2.1679 -0.0650
 3235SOL    HW221342   2.566   1.074   1.646 -0.5647 -0.3025 -1.6643
 3236SOL     OW21343   0.798   0.800   4.863 -0.2950  0.3672 -0.4058
 3236SOL    HW121344   0.887   0.817   4.895  0.2784 -1.1049 -1.1959
 3236SOL    HW221345   0.809   0.759   4.777 -0.4862 -2.6199  0.9787
 3237SOL     OW21346   3.291   3.837   8.753  0.2111  0.4778  0.0696
 3237SOL    HW121347   3.292   3.767   8.817 -1.0600  2.2958  2.0706
 3237SOL    HW221348   3.295   3.910   8.814  2.6700  0.1322  0.3173
 3238SOL     OW21349   2.180   4.193  15.345  1.1729 -0.7481 -0.2541
 3238SOL    HW121350   2.211   4.224  15.259 -2.3713 -0.4172 -1.4189
 3238SOL    HW221351   2.241   4.235  15.405 -0.5774  2.3802 -0.6394
 3239SOL     OW21352   1.160   0.748  12.334 -0.2130 -0.1289  0.6492
 3239SOL    HW121353   1.120   0.670  12.298 -0.6853 -0.8268  2.6947
 3239SOL    HW221354   1.097   0.783  12.397  1.7751  2.0639  1.4258
 3240SOL     OW21355   0.707   3.690   9.683 -0.3212 -0.3652 -0.4552
 3240SOL    HW121356   0.720   3.613   9.627 -0.1317 -0.3874 -0.3798
 3240SOL    HW221357   0.790   3.736   9.672 -1.1400  1.8429  2.9081
 3241SOL     OW21358   4.720   0.294   5.087  0.5156  0.0965 -0.1912
 3241SOL    HW121359   4.663   0.243   5.029 -0.0258  0.1826  0.2547
 3241SOL    HW221360   4.692   0.277   5.177  0.3943 -0.9538 -0.4359
 3242SOL     OW21361   2.666   0.092   5.759  0.4218  0.9705  0.6369
 3242SOL    HW121362   2.646   0.028   5.690 -0.7819  1.6735  0.3251
 3242SOL    HW221363   2.702   0.038   5.830 -1.2033  1.2340  1.6714
 3243SOL     OW21364   0.843   2.433   7.828  0.2872  0.1465  0.0888
 3243SOL    HW121365   0.898   2.379   7.770  1.6988  1.1535  0.4773
 3243SOL    HW221366   0.822   2.499   7.763  0.7723  3.6663  3.5283
 3244SOL     OW21367   1.863   0.709   3.491 -0.3424 -0.6141 -0.1002
 3244SOL    HW121368   1.934   0.764   3.523  1.4406 -2.1847 -1.3600
 3244SOL    HW221369   1.794   0.710   3.557  0.9693 -1.1941  1.2791
 3245SOL     OW21370   1.270   0.496   6.512 -0.2242  0.0204  0.0760
 3245SOL    HW121371   1.340   0.442   6.474  0.0216 -0.2634  0.9374
 3245SOL    HW221372   1.257   0.567   6.448 -3.1389  0.3443  1.0217
 3246SOL     OW21373   3.986   0.737   5.150  0.1195  0.2180 -0.2846
 3246SOL    HW121374   3.927   0.663   5.144  1.1082 -0.5239 -0.8606
 3246SOL    HW221375   3.975   0.763   5.242 -1.3696  3.0710 -1.2551
 3247SOL     OW21376   4.547   1.766   3.107  0.2724  0.3577  0.3909
 3247SOL    HW121377   4.498   1.802   3.033 -1.0312  0.4772  1.3111
 3247SOL    HW221378   4.481   1.714   3.154 -0.4496  0.6377 -0.3015
 3248SOL     OW21379   1.841   3.136  17.629  0.1402 -0.3368  0.5014
 3248SOL    HW121380   1.878   3.199  17.692 -1.7054  1.5376 -0.2854
 3248SOL    HW221381   1.793   3.077  17.687 -2.5035  0.7799 -0.5551
 3249SOL     OW21382   3.913   3.673  10.876 -0.1060  0.0805 -0.4392
 3249SOL    HW121383   3.992   3.672  10.930  0.5457  0.1727 -1.3942
 3249SOL    HW221384   3.893   3.580  10.867  0.9814 -0.3790  1.8978
 3250SOL     OW21385   3.148   3.270   3.227  0.0307 -0.2019  0.2500
 3250SOL    HW121386   3.191   3.216   3.161  2.4936  0.3614  1.3912
 3250SOL    HW221387   3.194   3.240   3.306 -0.4000  0.6416  0.8194
 3251SOL     OW21388   3.483   2.653   8.730 -0.0880 -0.8346  0.1781
 3251SOL    HW121389   3.419   2.657   8.801 -1.0111  0.9230 -0.7424
 3251SOL    HW221390   3.497   2.747   8.715 -0.2320 -0.4787  2.1689
 3252SOL     OW21391   1.336   2.581   5.435 -0.2669 -0.0985  0.8073
 3252SOL    HW121392   1.340   2.491   5.468 -1.3086 -0.7837 -0.9146
 3252SOL    HW221393   1.243   2.589   5.415 -0.3348  2.1874  2.0908
 3253SOL     OW21394   0.048   2.939   3.270 -0.3144  0.0083  0.1637
 3253SOL    HW121395   0.056   2.882   3.194  2.3303 -2.1693  2.1066
 3253SOL    HW221396   0.003   2.885   3.335  0.5191 -0.7661  0.0873
 3254SOL     OW21397   4.617   1.228   1.734  0.7946 -0.1705 -0.3619
 3254SOL    HW121398   4.650   1.142   1.709  2.1887 -0.2908  1.9943
 3254SOL    HW221399   4.676   1.277   1.677  0.2781  1.0882  0.1817
 3255SOL     OW21400   0.611   0.499  14.133  0.0654 -0.8062  0.2639
 3255SOL    HW121401   0.669   0.510  14.058 -0.2324 -0.3362  0.1044
 3255SOL    HW221402   0.662   0.549  14.196 -1.5155  2.3376 -0.9596
 3256SOL     OW21403   2.129   4.688   5.241 -0.3311 -0.0816 -0.2244
 3256SOL    HW121404   2.067   4.633   5.288  0.4089 -0.3531  0.4408
 3256SOL    HW221405   2.192   4.622   5.210 -0.1029  1.1018 -2.2696
 3257SOL     OW21406   3.140   0.002   6.560  0.5528 -0.6428 -0.4337
 3257SOL    HW121407   3.153   4.731   6.465  0.8705 -0.9616 -0.3658
 3257SOL    HW221408   3.193   0.074   6.595  0.7328 -0.6193 -0.7525
 3258SOL     OW21409   3.793   3.687   6.390  0.4428 -0.2415  0.3306
 3258SOL    HW121410   3.816   3.622   6.324 -0.8756  2.1547 -2.4886
 3258SOL    HW221411   3.881   3.688   6.428  0.5506 -0.1772  0.0766
 3259SOL     OW21412   3.684   2.654  10.848 -0.9739 -0.1350  0.7959
 3259SOL    HW121413   3.697   2.728  10.907 -1.7965 -0.4519  1.3793
 3259SOL    HW221414   3.765   2.666  10.799 -0.9205  0.5759  1.0591
 3260SOL     OW21415   1.804   3.942   3.946 -0.1360  0.5655 -0.6482
 3260SOL    HW121416   1.743   3.873   3.919 -0.7447  0.6206  0.5825
 3260SOL    HW221417   1.878   3.882   3.941 -0.4123  0.1149  0.6564
 3261SOL     OW21418   1.191   2.234  16.714 -0.5283 -0.1077 -0.8464
 3261SOL    HW121419   1.256   2.165  16.707  0.6694  0.7778  1.8787
 3261SOL    HW221420   1.137   2.180  16.771 -0.4456  1.5910  0.8711
 3262SOL     OW21421   2.056   0.457   8.724 -0.5911 -0.0952  0.0291
 3262SOL    HW121422   2.023   0.504   8.648 -3.0750 -0.1377  1.0902
 3262SOL    HW221423   2.066   0.371   8.683 -0.7458 -0.8654  1.6026
 3263SOL     OW21424   1.339   2.020   4.509  0.2213 -0.3449 -0.0437
 3263SOL    HW121425   1.297   2.019   4.595 -0.8659 -1.0616 -0.5895
 3263SOL    HW221426   1.273   1.965   4.468  0.5079 -1.3056  0.7790
 3264SOL     OW21427   3.819   3.179   0.715 -0.7079  0.8384 -0.4623
 3264SOL    HW121428   3.761   3.112   0.678  1.2975 -1.2530  0.1346
 3264SOL    HW221429   3.888   3.197   0.651 -0.8697  0.2231 -0.8128
 3265SOL     OW21430   3.790   1.835   7.532  0.0481 -0.4312  0.4094
 3265SOL    HW121431   3.882   1.819   7.554  0.9794  1.9363 -1.7865
 3265SOL    HW221432   3.784   1.919   7.577  0.4269 -0.8112  1.1689
 3266SOL     OW21433   3.939   2.939   3.262  0.2162  0.1121 -0.0054
 3266SOL    HW121434   3.956   3.016   3.316 -0.2108 -1.2411  2.0148
 3266SOL    HW221435   3.921   2.985   3.179  0.4742  4.3157  2.2634
 3267SOL     OW21436   1.102   2.403   6.114  0.0618  0.8855 -0.8700
 3267SOL    HW121437   1.169   2.470   6.128 -0.3699  1.3508 -1.0223
 3267SOL    HW221438   1.026   2.456   6.091 -1.1259 -0.5932 -0.3863
 3268SOL     OW21439   2.343   3.872   1.943  0.7651 -0.2221  0.4237
 3268SOL    HW121440   2.410   3.820   1.897 -0.0780  1.7157 -3.0527
 3268SOL    HW221441   2.307   3.812   2.008 -1.0592  1.7671  1.2547
 3269SOL     OW21442   2.705   0.163  13.018 -0.4402 -0.5447  0.1065
 3269SOL    HW121443   2.752   0.082  13.000 -1.6715 -1.3344  0.4102
 3269SOL    HW221444   2.671   0.192  12.933  1.0981  0.4415 -0.1637
 3270SOL     OW21445   4.211   4.688   4.036 -0.1091 -0.2242 -0.7783
 3270SOL    HW121446   4.194   4.646   4.120 -0.0867  0.5988 -0.3677
 3270SOL    HW221447   4.165   4.638   3.968 -1.8567  0.4096 -0.0525
 3271SOL     OW21448   1.001   2.408   4.939  0.1526 -0.7977 -0.0704
 3271SOL    HW121449   0.984   2.475   4.872 -0.6550 -0.2836  0.6515
 3271SOL    HW221450   0.924   2.352   4.929  0.5050 -0.9554 -1.8270
 3272SOL     OW21451   4.059   1.530  12.539  0.0144 -0.4061 -0.7377
 3272SOL    HW121452   4.001   1.582  12.594 -0.7601 -2.6909  0.5775
 3272SOL    HW221453   4.029   1.441  12.558  1.9407 -1.2651 -1.6583
 3273SOL     OW21454   3.004   3.473   8.670  0.4153 -0.4096 -0.5737
 3273SOL    HW121455   3.021   3.467   8.576  1.7923 -0.3822 -0.3253
 3273SOL    HW221456   2.921   3.521   8.666  0.1771 -0.6775  1.0562
 3274SOL     OW21457   2.290   1.843   2.022 -0.1436 -0.0677  0.0783
 3274SOL    HW121458   2.346   1.920   2.013 -0.2336  0.0759  0.7554
 3274SOL    HW221459   2.235   1.851   1.945 -0.8983 -0.8985  0.5293
 3275SOL     OW21460   3.062   2.449   1.103  0.1421  0.5013  0.3696
 3275SOL    HW121461   3.080   2.503   1.026  1.6114 -0.3757  0.0798
 3275SOL    HW221462   3.110   2.489   1.175  0.3920 -0.9257  1.0041
 3276SOL     OW21463   4.717   0.274   9.152  0.0107  0.4760 -0.1308
 3276SOL    HW121464   0.037   0.338   9.108  0.5286 -0.5855 -0.9828
 3276SOL    HW221465   0.042   0.229   9.210  0.9097 -0.1118 -1.5501
 3277SOL     OW21466   2.788   0.288   9.859  0.1379 -0.0121  0.1194
 3277SOL    HW121467   2.816   0.221   9.797 -1.6502 -0.2678 -0.4133
 3277SOL    HW221468   2.711   0.243   9.895 -2.0567  2.5706 -1.3560
 3278SOL     OW21469   3.222   0.828  13.408  0.3720  0.4851  0.1143
 3278SOL    HW121470   3.255   0.892  13.346 -0.1479  1.1605  0.5346
 3278SOL    HW221471   3.163   0.884  13.459 -0.6991  0.1359 -0.7602
 3279SOL     OW21472   4.186   4.717   8.595  0.3759 -0.6254 -0.3121
 3279SOL    HW121473   4.131   4.717   8.517  1.4043 -1.8646 -1.0400
 3279SOL    HW221474   4.128   0.040   8.643 -2.0112 -3.5429  0.4072
 3280SOL     OW21475   1.508   4.490   1.314  0.0545  0.0458 -0.5790
 3280SOL    HW121476   1.483   4.401   1.340 -1.5219  0.8581  0.6976
 3280SOL    HW221477   1.550   4.473   1.230  1.3320 -1.5752  0.3980
 3281SOL     OW21478   1.301   4.367  10.060 -0.4619 -0.1633  0.1187
 3281SOL    HW121479   1.391   4.353  10.028 -0.8969 -1.4712 -0.5629
 3281SOL    HW221480   1.266   4.408   9.981 -0.2141  2.5297  1.4156
 3282SOL     OW21481   3.044   2.404   5.974  0.1958 -0.2248  0.8002
 3282SOL    HW121482   2.999   2.406   5.889 -0.3487  0.1425  1.1002
 3282SOL    HW221483   3.012   2.484   6.017  0.8826  0.6224 -0.2757
 3283SOL     OW21484   0.033   0.341   5.481 -1.1079  0.1588  0.1837
 3283SOL    HW121485   0.056   0.404   5.413 -0.4480 -1.0123 -0.6971
 3283SOL    HW221486   0.025   0.397   5.558  1.0668  1.2289 -0.3698
 3284SOL     OW21487   3.864   0.127  11.160  0.0212  0.5704 -0.1337
 3284SOL    HW121488   3.888   0.173  11.079 -0.5381  0.4237 -0.3796
 3284SOL    HW221489   3.953   0.100  11.183  0.4390  1.7043 -0.4040
 3285SOL     OW21490   4.652   4.015   5.745 -0.1755 -0.0354  0.0609
 3285SOL    HW121491   4.601   4.069   5.684  0.8900  1.3720  0.4019
 3285SOL    HW221492   0.008   4.020   5.720  0.0969 -1.0170  0.9052
 3286SOL     OW21493   2.784   3.517   4.356 -0.1665 -0.0267 -0.2214
 3286SOL    HW121494   2.816   3.583   4.417 -0.5930  1.4056 -1.5413
 3286SOL    HW221495   2.706   3.562   4.325  0.0116  0.2271 -0.3034
 3287SOL     OW21496   0.127   1.181   3.481  0.3515 -0.0235  0.2435
 3287SOL    HW121497   0.205   1.235   3.497 -0.0786  0.2788  1.3282
 3287SOL    HW221498   0.164   1.102   3.519 -1.9172 -1.0958  0.2123
 3288SOL     OW21499   1.237   3.201   6.480  0.0345  0.0046  0.3441
 3288SOL    HW121500   1.304   3.133   6.478 -1.0307 -1.0355  0.5764
 3288SOL    HW221501   1.252   3.240   6.393 -0.9255 -0.7762 -0.1780
 3289SOL     OW21502   2.258   1.856  13.302  0.2946 -0.4760 -0.4233
 3289SOL    HW121503   2.353   1.861  13.316 -0.0123  0.4726  1.2536
 3289SOL    HW221504   2.237   1.898  13.385 -1.5126  0.1689 -1.2305
 3290SOL     OW21505   0.949   4.566   5.837  0.5020  0.1881 -0.1010
 3290SOL    HW121506   0.999   4.563   5.756  2.2300  0.9324  0.9499
 3290SOL    HW221507   0.889   4.494   5.818 -0.3327 -0.2415  4.0698
 3291SOL     OW21508   2.334   1.947   3.693  0.3096 -0.2680  0.5003
 3291SOL    HW121509   2.347   2.042   3.680 -0.7553 -0.0699  0.9338
 3291SOL    HW221510   2.357   1.932   3.784  0.6029  0.6487  0.5788
 3292SOL     OW21511   2.018   3.233   9.735  0.4335 -0.1989  0.0845
 3292SOL    HW121512   2.016   3.248   9.830 -0.6291 -1.6926  0.3015
 3292SOL    HW221513   2.040   3.320   9.701  0.8446 -1.1801 -2.1342
 3293SOL     OW21514   1.611   1.079   2.735  0.2080  0.3880  0.2024
 3293SOL    HW121515   1.603   1.137   2.659 -0.4759  0.6903  0.5062
 3293SOL    HW221516   1.550   1.125   2.792  0.9184 -0.1976  1.4291
 3294SOL     OW21517   2.329   2.357   6.849 -0.4829  0.0775  0.3318
 3294SOL    HW121518   2.318   2.449   6.825 -1.6438 -0.5675 -1.6474
 3294SOL    HW221519   2.367   2.368   6.936 -0.0698 -2.7285  0.5223
 3295SOL     OW21520   4.105   4.366  10.288 -0.4110 -1.2942 -0.0379
 3295SOL    HW121521   4.135   4.450  10.253  3.6148 -2.3727  0.8493
 3295SOL    HW221522   4.038   4.385  10.353  0.4712  1.1666  0.1420
 3296SOL     OW21523   3.199   0.905   5.740  0.0450 -0.2389 -1.1971
 3296SOL    HW121524   3.160   0.945   5.818  2.5816 -0.5344  0.2125
 3296SOL    HW221525   3.273   0.855   5.774  0.8523  1.5275 -0.3194
 3297SOL     OW21526   2.985   3.479   2.695 -0.9916  0.7190  0.0342
 3297SOL    HW121527   3.012   3.570   2.688 -0.8476  0.7794  1.3114
 3297SOL    HW221528   2.935   3.469   2.777 -0.6745 -1.0706  0.0232
 3298SOL     OW21529   4.456   0.160   5.032 -0.3264  0.0343 -0.4218
 3298SOL    HW121530   4.413   0.098   5.090  0.4565  0.4810  0.6412
 3298SOL    HW221531   4.444   0.114   4.949 -1.5186  2.3709 -1.5433
 3299SOL     OW21532   3.568   1.552   8.568  0.4012  0.3046  0.3639
 3299SOL    HW121533   3.476   1.550   8.592  0.8370 -0.3668  1.9742
 3299SOL    HW221534   3.553   1.578   8.477  0.2065  0.2310  0.3752
 3300SOL     OW21535   2.388   2.630  12.854 -0.4686 -0.0095 -0.1536
 3300SOL    HW121536   2.447   2.555  12.841  0.3856  0.6336  0.0106
 3300SOL    HW221537   2.341   2.600  12.932 -0.3981  0.5347  0.1024
 3301SOL     OW21538   1.112   3.112  10.268 -0.0360 -0.6890 -0.0484
 3301SOL    HW121539   1.197   3.135  10.231 -0.5684 -1.6797 -1.8797
 3301SOL    HW221540   1.047   3.126  10.200  1.0467  1.3787 -0.6598
 3302SOL     OW21541   2.212   0.920   8.465 -0.5626  0.0405 -0.3033
 3302SOL    HW121542   2.283   0.862   8.438  0.1267  1.0252 -0.6000
 3302SOL    HW221543   2.148   0.856   8.498 -1.6688  0.4319 -1.7391
 3303SOL     OW21544   0.527   0.395   7.993 -0.3675 -0.5202 -0.1093
 3303SOL    HW121545   0.603   0.450   7.972 -0.3896 -0.4417  0.0122
 3303SOL    HW221546   0.456   0.444   7.953 -1.2570 -1.1040  0.7680
 3304SOL     OW21547   3.485   0.068   9.322 -0.1940  0.1510  0.9234
 3304SOL    HW121548   3.555   0.032   9.377 -0.4980 -0.6181  0.8025
 3304SOL    HW221549   3.408   0.071   9.378 -1.0905 -1.3871 -0.2361
 3305SOL     OW21550   1.589   3.825  11.933 -0.2513  0.1401 -0.4741
 3305SOL    HW121551   1.513   3.812  11.989  1.0706 -0.1942  1.2376
 3305SOL    HW221552   1.651   3.772  11.983  0.3186  1.0674 -0.1906
 3306SOL     OW21553   1.006   1.397   2.939  0.4553 -0.3397  0.2286
 3306SOL    HW121554   0.996   1.405   2.844 -1.4332 -1.7274  0.3071
 3306SOL    HW221555   1.099   1.420   2.948 -0.9089  5.1778  0.2146
 3307SOL     OW21556   1.054   0.355   6.540 -0.0116 -0.2766  0.1881
 3307SOL    HW121557   1.005   0.437   6.533  0.1347 -0.1707  0.4109
 3307SOL    HW221558   1.143   0.389   6.537 -0.2093  0.4841  2.5999
 3308SOL     OW21559   0.271   1.965   3.539  0.0794  0.2187 -0.0473
 3308SOL    HW121560   0.236   1.951   3.627 -0.1020  0.6286 -0.0533
 3308SOL    HW221561   0.203   2.017   3.496 -2.6423 -0.0375  3.9793
 3309SOL     OW21562   0.113   4.701  15.379  0.1229 -0.1397  0.4914
 3309SOL    HW121563   0.066   0.048  15.367  1.9444  0.9431  0.8353
 3309SOL    HW221564   0.085   4.669  15.293 -1.1981 -0.7199  1.1490
 3310SOL     OW21565   2.430   2.752  10.068 -0.1040 -0.4655 -0.6011
 3310SOL    HW121566   2.336   2.734  10.069  0.1174 -1.5369  0.7339
 3310SOL    HW221567   2.467   2.677  10.116  1.7154  1.8485  1.5781
 3311SOL     OW21568   3.649   4.512  10.478 -0.1276  0.0175  0.3630
 3311SOL    HW121569   3.636   4.533  10.571 -1.5806 -0.6055  0.2829
 3311SOL    HW221570   3.570   4.471  10.445 -1.8312  2.1614  1.7587
 3312SOL     OW21571   1.456   2.404   6.509  0.2570 -0.2096  0.7105
 3312SOL    HW121572   1.431   2.491   6.476 -2.8873 -0.9331  1.1392
 3312SOL    HW221573   1.426   2.357   6.431  0.2278  1.3768 -0.2323
 3313SOL     OW21574   1.191   3.241   0.274  0.1918  0.0536 -0.0605
 3313SOL    HW121575   1.116   3.265   0.328 -0.5792 -0.2403 -0.9974
 3313SOL    HW221576   1.162   3.269   0.187  0.2483  1.0015  0.2309
 3314SOL     OW21577   2.349   3.903   1.637 -0.0270  0.0546  0.2810
 3314SOL    HW121578   2.254   3.899   1.640  0.0597 -3.1613 -1.4396
 3314SOL    HW221579   2.375   3.933   1.724 -0.4431  1.1173  0.0447
 3315SOL     OW21580   0.476   1.756   9.521  0.1174  0.0380  0.3963
 3315SOL    HW121581   0.556   1.738   9.570 -1.3025 -1.3280  2.1573
 3315SOL    HW221582   0.410   1.694   9.550  0.6122 -1.1049 -0.9262
 3316SOL     OW21583   0.109   1.468   6.280  0.9687  0.0839  0.0633
 3316SOL    HW121584   0.110   1.456   6.375  0.0176  2.3150  0.3648
 3316SOL    HW221585   0.180   1.531   6.272 -0.4436  1.8568  1.5663
 3317SOL     OW21586   3.643   1.745   1.265 -0.1641 -0.0750 -0.0796
 3317SOL    HW121587   3.550   1.755   1.246  0.0486  0.0725 -1.0383
 3317SOL    HW221588   3.651   1.808   1.336 -0.7548 -0.0503 -0.0387
 3318SOL     OW21589   4.047   1.711   3.737 -0.0323  0.0840 -0.0059
 3318SOL    HW121590   4.119   1.727   3.798 -1.8560  0.0185  2.1742
 3318SOL    HW221591   4.032   1.616   3.743  1.9113 -0.2374 -0.1119
 3319SOL     OW21592   2.091   4.049   7.698  0.5564 -0.0152  0.1980
 3319SOL    HW121593   2.132   4.019   7.780  0.1816 -0.4632  0.2190
 3319SOL    HW221594   2.071   4.140   7.720 -1.6098 -0.1317 -1.3937
 3320SOL     OW21595   2.081   4.519   6.143 -0.0114 -0.2589 -0.4819
 3320SOL    HW121596   2.075   4.518   6.048 -0.1128 -1.1839 -0.4690
 3320SOL    HW221597   2.120   4.433   6.152 -0.7067 -0.7380 -2.0626
 3321SOL     OW21598   1.685   2.653   4.515 -0.1185  0.1228  0.5976
 3321SOL    HW121599   1.718   2.730   4.468 -0.0052 -0.8776 -0.9377
 3321SOL    HW221600   1.694   2.682   4.606 -1.1106 -1.9451  1.3351
 3322SOL     OW21601   3.930   1.379   5.537  0.2551  0.4907 -0.1502
 3322SOL    HW121602   3.918   1.386   5.443 -0.2094  0.8382 -0.0657
 3322SOL    HW221603   3.842   1.368   5.573  1.1435 -2.4201  1.1228
 3323SOL     OW21604   4.164   0.074   7.021  0.0709 -0.7356  0.2267
 3323SOL    HW121605   4.173   0.030   7.106  1.6114  0.3908  0.6418
 3323SOL    HW221606   4.176   0.165   7.051 -1.6095 -0.4240 -0.0000
 3324SOL     OW21607   4.269   3.614   9.375 -0.0380  0.3424  0.2408
 3324SOL    HW121608   4.271   3.616   9.279  0.9448  0.8101  0.2653
 3324SOL    HW221609   4.291   3.526   9.403 -1.6754  1.0161  3.6526
 3325SOL     OW21610   0.722   0.328   6.504  0.0684 -0.8267  0.3522
 3325SOL    HW121611   0.726   0.303   6.412  2.9660 -2.0950  0.8268
 3325SOL    HW221612   0.719   0.423   6.493 -0.7518 -1.2498 -3.1331
 3326SOL     OW21613   3.342   1.926   0.554 -0.2754  0.1649 -0.1774
 3326SOL    HW121614   3.264   1.951   0.504  1.1436  0.8833 -1.9834
 3326SOL    HW221615   3.307   1.876   0.628 -0.3735 -0.4469 -0.6374
 3327SOL     OW21616   3.067   2.071   1.628  0.1645 -0.0155 -0.3953
 3327SOL    HW121617   3.089   2.084   1.720 -0.4114  0.1021 -0.2720
 3327SOL    HW221618   3.147   2.048   1.581 -0.1779 -0.1896 -0.8945
 3328SOL     OW21619   4.720   2.434  12.463 -0.4385  0.4324 -0.2652
 3328SOL    HW121620   0.058   2.382  12.492 -1.8384 -0.4466  1.7525
 3328SOL    HW221621   0.011   2.521  12.491 -1.0842  0.7388 -0.5762
 3329SOL     OW21622   4.373   2.611   4.999 -0.1563 -0.4050  0.3348
 3329SOL    HW121623   4.410   2.594   4.913 -0.4031 -0.9192  0.3293
 3329SOL    HW221624   4.368   2.706   5.003 -0.0610 -0.3808 -0.2359
 3330SOL     OW21625   2.473   0.168   2.590  0.2405  0.4475  0.0950
 3330SOL    HW121626   2.510   0.090   2.549 -2.0493 -0.5478 -0.0527
 3330SOL    HW221627   2.557   0.197   2.624  0.5724  1.5574 -1.6360
 3331SOL     OW21628   0.236   4.635  10.240  0.0781 -0.5235 -0.4063
 3331SOL    HW121629   0.156   4.627  10.189 -0.6638 -2.3664  1.0736
 3331SOL    HW221630   0.276   4.716  10.207 -1.3343 -0.4952 -2.0494
 3332SOL     OW21631   1.639   1.350   9.665  0.0783  0.3755 -0.1866
 3332SOL    HW121632   1.706   1.411   9.697  0.9135 -0.9772  0.6571
 3332SOL    HW221633   1.603   1.396   9.589  0.3373  0.5684 -0.1928
 3333SOL     OW21634   2.896   1.713   8.633  0.4823  0.0454 -0.8198
 3333SOL    HW121635   2.802   1.728   8.623  0.0864 -1.6969  0.2474
 3333SOL    HW221636   2.898   1.642   8.697 -0.7737 -0.0093 -0.8443
 3334SOL     OW21637   2.337   0.041   8.896 -0.1437  0.0924  0.3145
 3334SOL    HW121638   2.355   0.133   8.915  2.0054 -0.3387  0.4593
 3334SOL    HW221639   2.288   0.013   8.973  2.6780 -0.8525  1.7773
 3335SOL     OW21640   4.348   3.536   5.346  0.0307 -0.3038  0.1657
 3335SOL    HW121641   4.333   3.604   5.280 -1.3612 -0.7849 -0.0053
 3335SOL    HW221642   4.441   3.521   5.327  0.1237  0.9411 -0.4081
 3336SOL     OW21643   1.581   2.038   7.084  0.5759  0.4037 -0.2232
 3336SOL    HW121644   1.507   2.001   7.036  0.5673 -0.1976  0.2627
 3336SOL    HW221645   1.581   2.131   7.064  0.0763  0.0232 -2.0589
 3337SOL     OW21646   0.060   1.496   3.321 -0.2030 -0.6957  0.2010
 3337SOL    HW121647   0.041   1.558   3.391  1.3263 -0.2057  0.1965
 3337SOL    HW221648   4.732   1.506   3.250 -0.9946 -1.0001  0.8775
 3338SOL     OW21649   2.417   4.507   6.894 -0.5879  0.1065 -0.3403
 3338SOL    HW121650   2.497   4.547   6.860 -0.1993 -0.4878 -0.1412
 3338SOL    HW221651   2.348   4.567   6.866  0.4266  1.2207 -0.4250
 3339SOL     OW21652   2.565   4.514   4.153 -0.5127  0.2326 -0.3237
 3339SOL    HW121653   2.629   4.490   4.220  0.5818 -0.7656 -1.7489
 3339SOL    HW221654   2.495   4.453   4.177  0.0149 -0.4257 -0.4737
 3340SOL     OW21655   0.225   1.573   3.629  0.3016  0.3654 -0.0964
 3340SOL    HW121656   0.278   1.638   3.582  0.1075  0.2968 -0.4095
 3340SOL    HW221657   0.140   1.583   3.587 -0.2334 -2.3449  0.3565
 3341SOL     OW21658   2.057   1.264   3.033 -0.5252 -0.0709 -0.1697
 3341SOL    HW121659   1.985   1.202   3.028  0.1336 -0.7958 -0.6717
 3341SOL    HW221660   2.046   1.304   2.947  1.1985  2.7280  0.8971
 3342SOL     OW21661   2.321   3.645   7.554  0.1079 -0.4661  0.3147
 3342SOL    HW121662   2.240   3.603   7.527  0.4996  0.0070 -1.6454
 3342SOL    HW221663   2.315   3.737   7.527  2.2531 -1.1851 -2.6441
 3343SOL     OW21664   3.775   0.175   7.287 -0.5315 -0.1021 -0.4709
 3343SOL    HW121665   3.797   0.082   7.277  0.0263 -0.0086 -0.0839
 3343SOL    HW221666   3.696   0.160   7.339  0.1659 -1.8352  0.0910
 3344SOL     OW21667   1.736   3.491   3.984  0.0562  0.5366  0.1288
 3344SOL    HW121668   1.776   3.532   3.908 -2.0237  0.2280 -1.1494
 3344SOL    HW221669   1.698   3.411   3.947 -0.5201  1.2988 -0.9018
 3345SOL     OW21670   3.381   2.998   3.277  0.1994 -0.1426 -0.0455
 3345SOL    HW121671   3.477   2.988   3.279  0.1627 -0.7414 -0.9270
 3345SOL    HW221672   3.383   3.080   3.325 -0.1650  0.5259 -1.1687
 3346SOL     OW21673   0.790   1.496  16.849  0.3554 -0.3616  0.6593
 3346SOL    HW121674   0.860   1.469  16.790 -0.0319 -4.3860  2.0059
 3346SOL    HW221675   0.714   1.502  16.792  0.9380 -1.6173 -0.2489
 3347SOL     OW21676   0.164   0.165   6.564  0.2539 -0.1524  0.2438
 3347SOL    HW121677   0.168   0.176   6.659  0.6808 -2.2044  0.4796
 3347SOL    HW221678   0.105   0.090   6.555 -2.5633  2.1772 -0.6315
 3348SOL     OW21679   3.445   0.284   5.921  0.0296  0.4502 -0.7185
 3348SOL    HW121680   3.429   0.218   5.989 -0.4760 -0.3972 -1.6442
 3348SOL    HW221681   3.461   0.231   5.843  2.6008  2.0463 -1.2484
 3349SOL     OW21682   2.006   0.518   5.946 -0.4704  0.2122 -0.3211
 3349SOL    HW121683   2.095   0.508   5.980 -0.3115  0.8207 -0.5746
 3349SOL    HW221684   2.016   0.512   5.851 -1.1272 -0.9114 -0.3279
 3350SOL     OW21685   2.445   4.723   8.339 -0.0609  0.9085 -0.5576
 3350SOL    HW121686   2.367   0.042   8.332 -1.1874 -0.1626  3.1147
 3350SOL    HW221687   2.468   4.732   8.432 -0.7301 -2.0760 -0.0818
 3351SOL     OW21688   1.041   1.216   5.849  0.5440  0.4524  0.4019
 3351SOL    HW121689   1.093   1.294   5.866 -0.5092  0.9102  1.4386
 3351SOL    HW221690   1.041   1.165   5.930  1.9627  0.0460  0.1508
 3352SOL     OW21691   3.947   1.300   6.857  0.2151  0.5407 -0.1870
 3352SOL    HW121692   4.030   1.282   6.812  0.9298 -1.5413  1.9718
 3352SOL    HW221693   3.939   1.234   6.926 -1.4022  0.1144 -0.7861
 3353SOL     OW21694   1.906   3.216   7.019  0.6838 -0.0391 -0.3738
 3353SOL    HW121695   1.895   3.311   7.018 -3.0780 -0.4313  0.8230
 3353SOL    HW221696   1.864   3.196   7.103  0.8129  1.5649  0.0738
 3354SOL     OW21697   1.769   2.805  10.297 -0.3536 -0.2041  0.0033
 3354SOL    HW121698   1.718   2.749  10.356 -0.6120 -1.4015 -1.3519
 3354SOL    HW221699   1.831   2.848  10.356  0.5968 -0.7681 -0.5869
 3355SOL     OW21700   0.285   4.454   1.092 -0.0058 -0.8184 -0.0851
 3355SOL    HW121701   0.318   4.412   1.013  0.1884 -0.4187 -0.2201
 3355SOL    HW221702   0.362   4.507   1.114 -0.2255 -0.4385 -0.2444
 3356SOL     OW21703   0.475   1.613   3.825 -0.3371 -0.1576  0.6284
 3356SOL    HW121704   0.415   1.576   3.760  0.3803 -1.8556  0.9320
 3356SOL    HW221705   0.555   1.587   3.778 -0.7598  1.0056 -0.7281
 3357SOL     OW21706   1.225   1.438   9.276  0.1444  0.4907 -0.1601
 3357SOL    HW121707   1.141   1.401   9.250 -0.2802 -0.3798  2.4829
 3357SOL    HW221708   1.210   1.529   9.252 -0.5283  0.9098  1.8784
 3358SOL     OW21709   0.538   4.242  15.457 -0.2270  0.2389 -0.5878
 3358SOL    HW121710   0.487   4.161  15.468  1.9586 -0.9026  1.0891
 3358SOL    HW221711   0.480   4.297  15.405  0.1603  0.2536 -0.9984
 3359SOL     OW21712   2.324   3.973   9.751 -0.2680 -0.1417 -0.4424
 3359SOL    HW121713   2.366   4.059   9.755 -0.9202  0.3166 -3.1641
 3359SOL    HW221714   2.232   3.992   9.769 -0.0814  1.5388 -1.3229
 3360SOL     OW21715   0.617   0.066   1.064  0.3519  0.0936  0.4142
 3360SOL    HW121716   0.684   0.134   1.059  1.2567 -0.7926  0.3329
 3360SOL    HW221717   0.544   0.120   1.091 -0.1576  0.6706 -2.1210
 3361SOL     OW21718   3.753   3.973   6.149  0.3035 -0.4408 -0.0805
 3361SOL    HW121719   3.745   4.048   6.089  1.7726  0.1166  0.4177
 3361SOL    HW221720   3.770   3.899   6.091 -0.0699  0.0682 -0.8515
 3362SOL     OW21721   1.490   4.611   8.587 -0.5176  0.3362  0.3569
 3362SOL    HW121722   1.484   4.654   8.673  0.3075 -4.9053  3.0426
 3362SOL    HW221723   1.400   4.583   8.572 -0.2612 -0.2414 -0.1033
 3363SOL     OW21724   3.188   0.554  11.625  0.1312  0.3097 -0.3134
 3363SOL    HW121725   3.181   0.534  11.531  0.4253 -0.3047 -0.2051
 3363SOL    HW221726   3.191   0.463  11.653 -2.2203  0.6094  0.8956
 3364SOL     OW21727   4.176   3.172   8.114 -0.7212  0.3204  0.1028
 3364SOL    HW121728   4.094   3.171   8.165  0.4751 -1.4153  1.9928
 3364SOL    HW221729   4.187   3.077   8.116 -0.9351  0.2650 -1.6878
 3365SOL     OW21730   0.014   2.076   5.928  0.2784 -0.4583 -0.5536
 3365SOL    HW121731   0.080   2.028   5.879  2.6121  2.0094  0.1408
 3365SOL    HW221732   4.719   2.005   5.985 -0.9656  0.0375 -0.6121
 3366SOL     OW21733   1.582   2.266   4.915 -0.4406 -0.4461  0.3004
 3366SOL    HW121734   1.496   2.264   4.872  0.0482 -0.0613 -0.6926
 3366SOL    HW221735   1.558   2.189   4.968 -2.3711 -0.4763 -0.5872
 3367SOL     OW21736   2.547   0.745   0.233 -0.1228  0.0612 -0.2505
 3367SOL    HW121737   2.454   0.728   0.218 -0.3476  2.6985 -1.8941
 3367SOL    HW221738   2.543   0.829   0.187  1.3487 -0.3528 -1.1272
 3368SOL     OW21739   1.529   1.270   3.204  0.1955 -0.2624  0.0976
 3368SOL    HW121740   1.620   1.287   3.227  0.3414  0.6522 -1.1412
 3368SOL    HW221741   1.480   1.283   3.285 -0.9308 -0.3749 -0.5488
 3369SOL     OW21742   4.553   3.783   7.430  0.1303  0.1108 -0.1025
 3369SOL    HW121743   4.502   3.708   7.460  2.3645 -1.0030  0.9010
 3369SOL    HW221744   4.632   3.730   7.438  0.1514  0.4923  2.2450
 3370SOL     OW21745   3.700   2.962   0.634  1.3530  0.2668  0.1267
 3370SOL    HW121746   3.652   2.931   0.557 -0.5901  0.2949  1.3318
 3370SOL    HW221747   3.724   2.878   0.673 -1.4743 -1.0161 -0.8680
 3371SOL     OW21748   1.874   3.874   1.697  0.1950  0.3159  0.2589
 3371SOL    HW121749   1.933   3.871   1.622  0.8014  0.7633  0.7233
 3371SOL    HW221750   1.932   3.841   1.765 -0.1088  0.7974  0.7452
 3372SOL     OW21751   1.013   3.896   2.579  0.0572 -0.3961 -0.4229
 3372SOL    HW121752   0.924   3.869   2.554  0.2695 -0.5648 -0.9784
 3372SOL    HW221753   0.996   3.983   2.616 -1.2599 -0.9274  0.2213
 3373SOL     OW21754   0.646   0.609   9.173 -0.1254 -0.0591  0.6910
 3373SOL    HW121755   0.588   0.616   9.249 -0.5156 -0.0840  0.3918
 3373SOL    HW221756   0.676   0.519   9.183  1.8688  0.7742  2.3838
 3374SOL     OW21757   1.694   4.088   5.184 -0.0487 -0.5448  0.0182
 3374SOL    HW121758   1.637   4.011   5.193  1.5357 -1.5016  1.8005
 3374SOL    HW221759   1.672   4.113   5.094 -0.9755  0.7571  0.6090
 3375SOL     OW21760   3.396   2.073   3.704  0.1148 -0.5006  0.8500
 3375SOL    HW121761   3.372   2.033   3.621  1.0243  0.5489  0.0744
 3375SOL    HW221762   3.475   2.019   3.714  0.9059  0.6818  0.9791
 3376SOL     OW21763   3.839   0.389  15.547 -0.1071 -0.3972 -0.4150
 3376SOL    HW121764   3.790   0.309  15.568  1.2362 -0.8791  0.8374
 3376SOL    HW221765   3.918   0.362  15.501 -0.2357 -1.1350 -0.2042
 3377SOL     OW21766   4.373   4.628   8.216  0.2199 -0.9027 -0.9848
 3377SOL    HW121767   4.423   4.573   8.276  0.5661  0.9081  0.3488
 3377SOL    HW221768   4.294   4.630   8.269  0.5836  0.0475 -0.4829
 3378SOL     OW21769   2.797   1.569   5.822  0.3467  0.6761 -0.1512
 3378SOL    HW121770   2.748   1.487   5.822  2.7208 -0.7213 -2.3247
 3378SOL    HW221771   2.781   1.590   5.914  1.8067 -3.9202  1.1450
 3379SOL     OW21772   1.939   1.482   3.811  0.2750 -0.3026 -0.1693
 3379SOL    HW121773   2.010   1.478   3.876  0.9137 -3.4417 -1.0963
 3379SOL    HW221774   1.889   1.404   3.835 -0.9132 -0.0995 -2.0297
 3380SOL     OW21775   3.668   4.237   3.896  0.2468 -0.1659 -0.4065
 3380SOL    HW121776   3.747   4.222   3.844 -1.2161  1.4381 -3.0900
 3380SOL    HW221777   3.675   4.331   3.914  3.5639 -0.7431  1.2416
 3381SOL     OW21778   3.817   2.433   7.280  0.0149  0.7859 -0.1623
 3381SOL    HW121779   3.794   2.511   7.230 -0.6371 -0.6481 -2.0734
 3381SOL    HW221780   3.736   2.385   7.263  0.4699 -0.1091  0.2317
 3382SOL     OW21781   2.305   2.519  10.347  0.4809 -0.2044 -0.0442
 3382SOL    HW121782   2.379   2.539  10.288 -0.2779 -1.4767 -1.4492
 3382SOL    HW221783   2.350   2.510  10.431  0.2299 -0.3575  0.0728
 3383SOL     OW21784   0.981   4.301  10.718  0.1626  0.4145  0.4751
 3383SOL    HW121785   0.908   4.255  10.760  0.2294  1.0457  1.3012
 3383SOL    HW221786   0.975   4.274  10.627  1.1933  3.1548 -0.4005
 3384SOL     OW21787   4.138   0.349   6.098  0.2332  0.6856 -0.2710
 3384SOL    HW121788   4.155   0.327   6.190 -0.9783  1.0272  0.0424
 3384SOL    HW221789   4.101   0.263   6.078  1.6925 -0.1759  0.7528
 3385SOL     OW21790   3.572   1.089   6.893  0.2603  0.0749 -0.1319
 3385SOL    HW121791   3.624   1.071   6.815 -1.6817  0.0700 -1.4177
 3385SOL    HW221792   3.517   1.012   6.903 -0.5154  0.6214 -0.2290
 3386SOL     OW21793   0.418   3.269   7.371  0.2948 -0.0234 -0.3484
 3386SOL    HW121794   0.475   3.227   7.307  1.2415 -0.4672  0.7913
 3386SOL    HW221795   0.476   3.327   7.421 -0.7821  2.4427 -1.9534
 3387SOL     OW21796   1.748   3.159   4.526  0.4796  0.0219 -0.2299
 3387SOL    HW121797   1.753   3.193   4.615  0.8743 -1.1075  0.1752
 3387SOL    HW221798   1.661   3.182   4.492 -0.1204 -1.0083  0.6067
 3388SOL     OW21799   0.405   2.843  12.784  0.1188 -0.0400 -0.2316
 3388SOL    HW121800   0.420   2.846  12.689  0.2127  0.7984 -0.1966
 3388SOL    HW221801   0.331   2.903  12.775  0.7855  0.8555  0.2353
 3389SOL     OW21802   2.686   3.258   2.575  0.0764 -0.1632 -0.0490
 3389SOL    HW121803   2.595   3.254   2.547 -0.0047  0.3163  0.1537
 3389SOL    HW221804   2.677   3.340   2.622  2.5130 -0.8178  1.5920
 3390SOL     OW21805   2.502   2.868   8.134 -0.8594 -0.0297  0.2528
 3390SOL    HW121806   2.487   2.874   8.040 -3.0365  2.6749  0.7830
 3390SOL    HW221807   2.411   2.866   8.164 -1.0096 -3.4811 -0.4771
 3391SOL     OW21808   3.575   4.565   9.492 -0.0712  0.2242  0.0819
 3391SOL    HW121809   3.562   4.538   9.401 -1.8492 -1.8991  0.9433
 3391SOL    HW221810   3.641   4.633   9.480 -0.5525  0.6819  0.0028
 3392SOL     OW21811   2.204   1.777   8.933 -0.3492  0.5408  0.1535
 3392SOL    HW121812   2.289   1.808   8.962 -1.9196  2.7049  2.4261
 3392SOL    HW221813   2.228   1.737   8.849  1.3906 -0.1699  0.9824
 3393SOL     OW21814   3.923   2.622   6.785 -0.4231  0.1850 -0.0828
 3393SOL    HW121815   3.830   2.607   6.763 -0.6138  0.4498  0.5490
 3393SOL    HW221816   3.914   2.660   6.872  3.2649  1.3349 -0.2263
 3394SOL     OW21817   3.927   0.147  14.090 -0.2571  0.1563 -1.0373
 3394SOL    HW121818   3.882   0.204  14.152  0.1786 -1.6834  0.9594
 3394SOL    HW221819   3.907   0.058  14.118  0.5149 -0.1296 -1.3780
 3395SOL     OW21820   0.313   0.715   9.570 -0.8434  0.9077 -0.4597
 3395SOL    HW121821   0.311   0.646   9.503 -3.7015 -0.0464  0.6081
 3395SOL    HW221822   0.403   0.747   9.575 -0.4976  0.2703 -2.4626
 3396SOL     OW21823   1.711   2.293   9.531  0.4328 -0.5425  0.1025
 3396SOL    HW121824   1.673   2.378   9.552 -0.9780 -0.5601 -2.4077
 3396SOL    HW221825   1.647   2.255   9.470 -0.9645  2.1802 -0.1232
 3397SOL     OW21826   3.247   3.554   3.356  0.1002 -0.4911 -0.3594
 3397SOL    HW121827   3.189   3.477   3.358 -1.2934  0.5741  0.0668
 3397SOL    HW221828   3.308   3.528   3.425 -0.3726 -0.9124 -0.0902
 3398SOL     OW21829   0.638   1.852   9.330 -0.3490 -0.3665  0.4870
 3398SOL    HW121830   0.564   1.830   9.387  0.5497 -3.9347  0.2694
 3398SOL    HW221831   0.690   1.903   9.392  0.2065 -0.8153  0.3823
 3399SOL     OW21832   2.485   1.051   2.893 -0.0168  0.2196  0.2817
 3399SOL    HW121833   2.564   1.076   2.845 -1.2208  2.2042 -0.6370
 3399SOL    HW221834   2.425   1.116   2.857 -0.5210  0.3518  1.3398
 3400SOL     OW21835   3.146   0.414   1.668 -1.2397  0.3231 -0.9901
 3400SOL    HW121836   3.081   0.344   1.677 -0.2866 -0.6579 -1.8022
 3400SOL    HW221837   3.188   0.399   1.752 -1.6985  1.4879 -0.5506
 3401SOL     OW21838   2.532   1.485   2.327  0.0279  0.4191  0.6882
 3401SOL    HW121839   2.463   1.428   2.359  0.1903  0.5918  1.3502
 3401SOL    HW221840   2.476   1.562   2.312  0.7653  0.8768  0.2641
 3402SOL     OW21841   0.400   3.376   5.685  0.3642 -0.3319 -0.6617
 3402SOL    HW121842   0.441   3.394   5.600  0.4243 -1.1029 -0.7941
 3402SOL    HW221843   0.451   3.304   5.723  2.0128  1.5538  0.6945
 3403SOL     OW21844   1.602   3.449   5.359  0.1670 -0.4291 -0.2298
 3403SOL    HW121845   1.648   3.521   5.403 -1.9296 -0.7952  2.5849
 3403SOL    HW221846   1.541   3.492   5.299  0.4509  1.1676  0.6102
 3404SOL     OW21847   0.446   3.258   5.258  0.3383  0.5088  0.1660
 3404SOL    HW121848   0.462   3.172   5.218 -0.8906  1.3785 -2.2245
 3404SOL    HW221849   0.462   3.310   5.180 -1.0309 -1.1257 -1.2143
 3405SOL     OW21850   2.811   2.330   6.170  0.1736  0.2847  0.2577
 3405SOL    HW121851   2.753   2.318   6.245  2.5113  0.0447  2.0334
 3405SOL    HW221852   2.872   2.257   6.179  0.3491  0.2362 -1.2023
 3406SOL     OW21853   3.987   4.438   5.004 -0.6097  0.1759 -0.3294
 3406SOL    HW121854   4.072   4.479   5.017 -0.8124  0.9280 -1.4442
 3406SOL    HW221855   3.956   4.461   4.917 -2.3087  0.8983  0.4765
 3407SOL     OW21856   4.263   1.441   7.728 -0.3999  0.2935 -0.0647
 3407SOL    HW121857   4.182   1.394   7.747  1.0719 -1.4432  1.8460
 3407SOL    HW221858   4.303   1.460   7.813  0.6794 -2.4251  0.0483
 3408SOL     OW21859   2.578   1.968   7.300  0.2666 -0.3363  0.1495
 3408SOL    HW121860   2.566   1.884   7.344  0.4136 -0.7967 -0.6849
 3408SOL    HW221861   2.491   1.989   7.267  0.7047  0.8205 -0.2777
 3409SOL     OW21862   2.646   3.557   9.447  0.3772 -0.8805 -0.4026
 3409SOL    HW121863   2.690   3.525   9.526  0.3858 -1.5008 -0.6579
 3409SOL    HW221864   2.699   3.637   9.442  1.4438 -1.6087 -0.6510
 3410SOL     OW21865   4.414   1.949   4.480 -0.7464 -0.5027 -0.1323
 3410SOL    HW121866   4.417   1.909   4.567 -0.2811 -1.2286 -0.4786
 3410SOL    HW221867   4.405   1.868   4.428  0.3712 -0.9063  0.2987
 3411SOL     OW21868   2.977   0.151   3.722 -0.3577  0.4161  0.5169
 3411SOL    HW121869   2.934   0.132   3.805 -0.9853 -0.7686 -0.0775
 3411SOL    HW221870   2.944   0.074   3.675 -0.9717  1.4050 -0.6866
 3412SOL     OW21871   3.011   2.745   7.991  0.0427 -0.3214 -0.0822
 3412SOL    HW121872   3.014   2.706   8.079  0.7123  1.6862  0.7930
 3412SOL    HW221873   3.105   2.740   7.974  0.0233  0.2471 -0.3677
 3413SOL     OW21874   0.326   3.628  15.664 -0.4780  0.0252 -0.1260
 3413SOL    HW121875   0.335   3.632  15.759 -0.1976 -1.6080 -0.0864
 3413SOL    HW221876   0.235   3.656  15.656 -0.8308 -1.2946 -0.6751
 3414SOL     OW21877   3.461   4.118   1.726  0.5234 -0.1488 -0.0028
 3414SOL    HW121878   3.438   4.190   1.785  2.3479 -0.2185  0.7886
 3414SOL    HW221879   3.373   4.087   1.703 -0.5600  1.8562  1.4145
 3415SOL     OW21880   1.136   3.848   8.206 -0.5920 -0.3068  1.0269
 3415SOL    HW121881   1.228   3.872   8.206 -0.6153 -0.2004 -0.8732
 3415SOL    HW221882   1.153   3.766   8.160  1.6247  1.0808 -0.6235
 3416SOL     OW21883   0.873   4.722   7.974  0.4389 -0.0318  0.2942
 3416SOL    HW121884   0.897   0.041   8.049 -0.1021 -1.4355  1.5116
 3416SOL    HW221885   0.824   4.650   8.014  0.5798 -1.1988 -1.6360
 3417SOL     OW21886   2.689   0.254   0.030  0.3474  0.2462  0.3133
 3417SOL    HW121887   2.700   0.333   0.082  1.0447  0.0472  0.4665
 3417SOL    HW221888   2.621   0.286  17.714  1.2810  0.3878 -0.6633
 3418SOL     OW21889   0.304   4.365   3.853  0.1076  0.1192  0.0432
 3418SOL    HW121890   0.368   4.437   3.850  0.8513 -0.4921  1.0504
 3418SOL    HW221891   0.352   4.298   3.901 -0.6587  0.5999  1.4911
 3419SOL     OW21892   3.509   3.167  12.134 -0.3056  0.3370 -0.5441
 3419SOL    HW121893   3.467   3.130  12.211  1.4838 -0.7329 -0.0631
 3419SOL    HW221894   3.590   3.116  12.141 -1.7323 -1.2593  3.8650
 3420SOL     OW21895   0.728   2.868   3.036  0.4233 -0.2042  0.0214
 3420SOL    HW121896   0.690   2.918   3.109  0.8273  0.1806 -0.0298
 3420SOL    HW221897   0.688   2.785   3.060  1.3337 -0.6367  0.0248
 3421SOL     OW21898   3.391   2.220   7.430 -0.5370 -0.4825  0.2729
 3421SOL    HW121899   3.328   2.279   7.387  2.1467  2.8742  1.0002
 3421SOL    HW221900   3.385   2.145   7.370 -0.8366  1.4967 -2.1569
 3422SOL     OW21901   3.779   1.807  15.193 -0.4468 -0.6398  0.4917
 3422SOL    HW121902   3.743   1.874  15.135 -1.3890 -1.5015  0.0797
 3422SOL    HW221903   3.709   1.742  15.187 -1.8962  1.0006 -0.3406
 3423SOL     OW21904   3.210   0.095   5.033 -0.1115  0.2895  0.2461
 3423SOL    HW121905   3.123   0.132   5.044 -0.5267 -0.6093  0.0083
 3423SOL    HW221906   3.186   0.025   4.972 -0.2962  0.8320 -0.3034
 3424SOL     OW21907   1.241   1.439   6.223 -0.0516  0.2695  0.1390
 3424SOL    HW121908   1.264   1.530   6.238  0.9830  0.0428 -0.0718
 3424SOL    HW221909   1.212   1.451   6.132 -0.0862 -0.0763  0.1016
 3425SOL     OW21910   0.313   3.392   2.436  0.1216 -0.6237 -0.2503
 3425SOL    HW121911   0.305   3.385   2.531 -0.2974  2.4173 -0.0449
 3425SOL    HW221912   0.379   3.324   2.430 -0.6573 -1.5418  1.4345
 3426SOL     OW21913   3.454   2.927   5.951 -0.9630 -0.4871 -0.0332
 3426SOL    HW121914   3.426   2.862   5.887 -1.5787 -0.4513  0.1980
 3426SOL    HW221915   3.375   2.932   6.006  1.2826  0.1445  3.0854
 3427SOL     OW21916   1.289   1.360   3.070  0.0928 -0.0630  0.0264
 3427SOL    HW121917   1.289   1.456   3.072 -1.8515 -0.0870  1.3588
 3427SOL    HW221918   1.376   1.339   3.103  0.7995  0.7457 -1.2899
 3428SOL     OW21919   1.870   2.619   0.187 -0.0972  0.2895 -0.0596
 3428SOL    HW121920   1.924   2.571   0.125  1.8905  2.2976  0.1237
 3428SOL    HW221921   1.919   2.605   0.268  0.8569  0.3251 -0.6388
 3429SOL     OW21922   3.257   1.060  10.212 -0.0009  0.0126 -0.1270
 3429SOL    HW121923   3.320   1.110  10.264  1.0235 -1.0055 -0.3812
 3429SOL    HW221924   3.248   1.106  10.129 -0.0536  2.6253  1.3329
 3430SOL     OW21925   1.299   1.231   8.320  0.0540  0.3444  0.0112
 3430SOL    HW121926   1.211   1.262   8.341  0.0520 -0.5571  1.3669
 3430SOL    HW221927   1.350   1.312   8.318  0.6840  0.0682  3.2943
 3431SOL     OW21928   1.349   0.334   8.530  0.2553  0.4577 -0.1279
 3431SOL    HW121929   1.430   0.287   8.550 -0.8052 -0.5631  1.7183
 3431SOL    HW221930   1.334   0.389   8.607  1.0884  0.2944  0.1490
 3432SOL     OW21931   0.027   0.299   3.430  0.4345  0.4314  0.3496
 3432SOL    HW121932   0.055   0.208   3.429  0.2277  0.3577  2.1896
 3432SOL    HW221933   0.074   0.333   3.353  0.0630 -0.5872 -0.3240
 3433SOL     OW21934   0.160   4.218   4.274  0.2144 -0.3632 -0.8139
 3433SOL    HW121935   0.076   4.259   4.298 -0.9362 -1.6046 -2.6993
 3433SOL    HW221936   0.214   4.295   4.260 -0.6886  0.1777 -1.3011
 3434SOL     OW21937   4.435   2.557   4.746  0.1138 -0.5674 -0.3903
 3434SOL    HW121938   4.515   2.580   4.698 -0.8244  0.7866 -1.3103
 3434SOL    HW221939   4.374   2.611   4.696  1.6927  1.6644  0.0482
 3435SOL     OW21940   2.702   2.461  15.359  0.6830 -0.0266 -0.1634
 3435SOL    HW121941   2.780   2.515  15.369 -1.2841  2.3404  2.3918
 3435SOL    HW221942   2.704   2.406  15.436  1.0812 -2.6868 -2.0898
 3436SOL     OW21943   0.478   3.197  11.635  0.1423 -0.4784  0.1064
 3436SOL    HW121944   0.545   3.225  11.573 -0.7664 -2.2826 -1.6873
 3436SOL    HW221945   0.471   3.267  11.699 -1.8724 -0.4393 -0.1418
 3437SOL     OW21946   2.121   1.880  13.068 -0.1145 -0.2374  0.6910
 3437SOL    HW121947   2.142   1.963  13.025 -0.9940  0.0866  0.8772
 3437SOL    HW221948   2.174   1.880  13.147  0.8578 -1.4328  0.0484
 3438SOL     OW21949   0.595   0.254  15.360  0.0014 -0.0187  0.0868
 3438SOL    HW121950   0.574   0.341  15.394 -0.2773 -0.7795  1.8414
 3438SOL    HW221951   0.518   0.205  15.389  1.6395 -2.3346  0.5355
 3439SOL     OW21952   4.685   1.876  15.837 -0.0478  0.2129 -0.0037
 3439SOL    HW121953   4.666   1.854  15.746 -3.1614 -0.5020  0.8049
 3439SOL    HW221954   0.021   1.936  15.820 -1.0965  1.2143 -0.9745
 3440SOL     OW21955   2.859   3.483   4.802  0.1539  0.2551  0.0176
 3440SOL    HW121956   2.868   3.550   4.870 -0.6683 -0.6501  1.0323
 3440SOL    HW221957   2.928   3.420   4.825 -0.4226 -1.0560 -1.8767
 3441SOL     OW21958   1.552   0.200   3.636  0.0215  0.2522  0.0062
 3441SOL    HW121959   1.558   0.283   3.683  3.2710  1.2021 -2.0685
 3441SOL    HW221960   1.620   0.154   3.685  1.4228  3.0784  0.7413
 3442SOL     OW21961   2.958   1.052  17.199  0.3797  0.2095 -0.3164
 3442SOL    HW121962   2.956   1.112  17.124  0.5674  0.1995 -0.3292
 3442SOL    HW221963   3.026   0.989  17.175 -0.0221  0.0023 -0.9106
 3443SOL     OW21964   2.891   1.887   4.494 -0.4468 -0.1447  0.3699
 3443SOL    HW121965   2.915   1.894   4.587  1.3282 -0.4660 -0.0778
 3443SOL    HW221966   2.926   1.801   4.472 -0.3144 -0.3818  1.4806
 3444SOL     OW21967   2.299   2.549   8.097 -0.4133  0.4310 -0.2339
 3444SOL    HW121968   2.306   2.640   8.126 -0.1960  0.5629 -0.6984
 3444SOL    HW221969   2.210   2.518   8.112  0.2216 -0.1818  2.2465
 3445SOL     OW21970   0.137   4.390   9.179 -0.1331  0.4022  0.3751
 3445SOL    HW121971   0.202   4.449   9.219 -1.1442  1.4610  0.4674
 3445SOL    HW221972   0.193   4.348   9.114 -2.8237  0.0564 -1.7332
 3446SOL     OW21973   2.557   3.467   3.539 -0.3469  0.1942  0.3241
 3446SOL    HW121974   2.533   3.418   3.618 -1.3279  0.7796  0.3928
 3446SOL    HW221975   2.561   3.399   3.472  2.2700  0.1705  0.5065
 3447SOL     OW21976   0.821   2.968  15.744  0.0691  0.1024  0.2777
 3447SOL    HW121977   0.768   2.994  15.669  0.2410 -1.2297 -0.2961
 3447SOL    HW221978   0.898   2.937  15.696  0.2424 -1.5291  1.6117
 3448SOL     OW21979   4.626   2.688   3.686  0.1191 -0.2253  0.3716
 3448SOL    HW121980   4.590   2.609   3.728 -0.3305  0.7069  1.7239
 3448SOL    HW221981   4.719   2.680   3.705  0.3733  0.1062 -0.7081
 3449SOL     OW21982   2.578   2.472   8.384 -0.6044  0.1714 -0.9288
 3449SOL    HW121983   2.605   2.515   8.465 -1.3338  3.5669 -2.4882
 3449SOL    HW221984   2.657   2.485   8.333  0.0750  0.7570  0.2706
 3450SOL     OW21985   3.263   2.744   6.998 -0.5155  0.2303 -0.2833
 3450SOL    HW121986   3.257   2.734   7.093  0.0556 -1.6277 -0.4300
 3450SOL    HW221987   3.193   2.682   6.976 -1.2294  1.1100 -0.4875
 3451SOL     OW21988   3.522   3.885   6.855  0.4864  0.8168 -0.0040
 3451SOL    HW121989   3.511   3.922   6.768  0.5312  1.2541  0.1728
 3451SOL    HW221990   3.599   3.829   6.852  0.4266  0.8265 -1.7110
 3452SOL     OW21991   3.400   0.238   1.892  0.2057  0.0725 -0.3124
 3452SOL    HW121992   3.436   0.301   1.830  1.2297 -0.1247  0.0772
 3452SOL    HW221993   3.410   0.148   1.861  0.5050  0.2911 -0.8372
 3453SOL     OW21994   1.597   2.628   5.030 -0.1597  0.2434 -0.3835
 3453SOL    HW121995   1.572   2.574   5.105 -0.8578 -0.3905 -1.0707
 3453SOL    HW221996   1.662   2.680   5.077  0.6466 -2.8559  1.9590
 3454SOL     OW21997   1.932   0.233   5.447  0.1695 -0.2202  0.1175
 3454SOL    HW121998   1.857   0.178   5.467  0.5335 -1.0148 -0.7199
 3454SOL    HW221999   1.899   0.272   5.365  0.3573 -0.4205 -0.0537
 3455SOL     OW22000   3.750   2.311   6.888 -0.3159  0.0987 -0.4490
 3455SOL    HW122001   3.811   2.320   6.814 -0.7063 -1.7068 -1.0155
 3455SOL    HW222002   3.801   2.278   6.962 -0.7324 -0.9040 -0.6089
 3456SOL     OW22003   0.266   0.600   1.940 -0.5305 -0.1794 -0.2854
 3456SOL    HW122004   0.357   0.625   1.921 -0.1673 -2.7322 -2.0023
 3456SOL    HW222005   0.272   0.505   1.953  2.0328 -0.5396 -3.8612
 3457SOL     OW22006   4.196   1.367   3.049 -0.1514  0.2019  0.1920
 3457SOL    HW122007   4.151   1.382   3.132  0.8464 -0.8801  0.9354
 3457SOL    HW222008   4.125   1.375   2.986  0.0844 -2.8003 -0.4334
 3458SOL     OW22009   2.484   1.654   3.614  0.0547 -0.6213  0.1074
 3458SOL    HW122010   2.462   1.572   3.658  0.3214 -1.7804 -1.9565
 3458SOL    HW222011   2.410   1.712   3.633 -0.9583 -1.6542 -0.6884
 3459SOL     OW22012   2.389   1.358   8.610  0.2455  0.3428  0.3608
 3459SOL    HW122013   2.364   1.375   8.519  0.2509  2.0476  0.6746
 3459SOL    HW222014   2.361   1.268   8.626 -0.7446  0.4454 -0.7896
 3460SOL     OW22015   0.648   3.456   7.089 -0.2468  0.1655 -0.0065
 3460SOL    HW122016   0.582   3.440   7.021  0.7243  2.3165 -1.4769
 3460SOL    HW222017   0.690   3.536   7.056 -0.7191 -0.1870 -1.4372
 3461SOL     OW22018   2.744   3.143   7.095 -0.6895 -0.3384 -0.1268
 3461SOL    HW122019   2.751   3.222   7.148  2.0806 -0.9338  0.3759
 3461SOL    HW222020   2.752   3.075   7.162  0.5159 -0.1939 -0.1345
 3462SOL     OW22021   4.094   4.468   7.128  0.6606 -0.1881  0.3812
 3462SOL    HW122022   4.001   4.455   7.108  0.1195  1.5582  1.7253
 3462SOL    HW222023   4.131   4.382   7.109 -2.1146 -1.3721  0.3048
 3463SOL     OW22024   4.388   1.418   2.642 -0.5867  0.0840  0.1508
 3463SOL    HW122025   4.403   1.387   2.731  0.4577  0.5110  0.1338
 3463SOL    HW222026   4.478   1.448   2.628 -1.3778  1.7276 -1.3697
 3464SOL     OW22027   4.230   0.293   6.732 -0.1993  0.0608  0.0591
 3464SOL    HW122028   4.288   0.225   6.697 -1.3475 -0.7007 -0.3447
 3464SOL    HW222029   4.279   0.341   6.799  1.4363 -1.3422 -0.1382
 3465SOL     OW22030   2.820   0.846  11.648 -0.2234 -0.0081  0.7194
 3465SOL    HW122031   2.840   0.864  11.740  1.5192 -0.1937  0.3755
 3465SOL    HW222032   2.826   0.751  11.642 -2.1408 -0.1456  1.0905
 3466SOL     OW22033   2.444   4.390   8.712  0.3739  0.0098  0.8059
 3466SOL    HW122034   2.437   4.402   8.617 -2.1435  0.0807  1.0069
 3466SOL    HW222035   2.369   4.332   8.725 -0.4518  1.1000  0.9174
 3467SOL     OW22036   1.590   0.668  10.650 -0.1540 -0.1145  0.0894
 3467SOL    HW122037   1.625   0.645  10.736 -0.9046  0.6752  0.6100
 3467SOL    HW222038   1.673   0.675  10.603  0.5749 -3.4336  0.8558
 3468SOL     OW22039   3.799   0.909  17.129  0.1235  0.5746  0.1066
 3468SOL    HW122040   3.770   0.925  17.039  1.3005 -0.5268 -0.4584
 3468SOL    HW222041   3.717   0.891  17.174 -0.0246 -1.0531 -0.8234
 3469SOL     OW22042   0.380   1.944  13.164  0.5658  0.2418 -0.3262
 3469SOL    HW122043   0.342   1.860  13.136 -0.3632 -0.0503  1.8062
 3469SOL    HW222044   0.456   1.911  13.212 -0.0283 -0.6884 -0.0147
 3470SOL     OW22045   2.069   3.890   1.498  0.1143 -0.1808 -0.1366
 3470SOL    HW122046   2.111   3.858   1.419  0.5249  1.4995 -0.5966
 3470SOL    HW222047   1.998   3.938   1.455  1.7110  1.8178 -0.5308
 3471SOL     OW22048   2.878   3.761   9.488 -0.1539 -0.1677  0.1143
 3471SOL    HW122049   2.884   3.695   9.557  1.5632 -0.6390 -0.4784
 3471SOL    HW222050   2.948   3.736   9.427 -1.5241 -1.2787 -1.0022
 3472SOL     OW22051   1.355   0.897   5.224  0.7033 -0.0433  0.1732
 3472SOL    HW122052   1.340   0.868   5.314  3.1129 -0.5365  0.4049
 3472SOL    HW222053   1.450   0.907   5.223  0.5995  1.0456  1.6547
 3473SOL     OW22054   2.471   4.326   3.056 -0.3393  0.2116  0.1029
 3473SOL    HW122055   2.556   4.330   3.098 -1.2545  1.1245  1.8675
 3473SOL    HW222056   2.483   4.271   2.979 -1.3885 -0.3784  0.3595
 3474SOL     OW22057   0.541   0.331   1.011 -0.5811  0.3223  0.0555
 3474SOL    HW122058   0.568   0.423   1.006 -1.4081  0.6563  1.5446
 3474SOL    HW222059   0.499   0.317   0.926  0.6270  0.5284 -0.5794
 3475SOL     OW22060   2.166   1.320  15.635 -0.6008  0.2828 -0.2116
 3475SOL    HW122061   2.222   1.250  15.601 -0.6035  0.3688 -0.3938
 3475SOL    HW222062   2.137   1.342  15.546  0.6346 -0.0628 -0.6971
 3476SOL     OW22063   1.073   2.653   7.973  0.1123 -0.0793 -0.3882
 3476SOL    HW122064   1.032   2.667   8.059 -0.4738  1.4032 -0.9036
 3476SOL    HW222065   1.028   2.723   7.926 -1.0145 -0.5795 -0.0573
 3477SOL     OW22066   2.322   4.121  15.712  0.7925 -0.0588  0.0490
 3477SOL    HW122067   2.355   4.058  15.648  0.4276  0.2589 -0.4559
 3477SOL    HW222068   2.253   4.072  15.758 -0.0421  1.0694  0.0141
 3478SOL     OW22069   0.214   4.243   2.501 -0.6645 -0.4911 -0.7144
 3478SOL    HW122070   0.178   4.189   2.430 -3.1904  0.7531 -0.3916
 3478SOL    HW222071   0.224   4.328   2.457  0.5571  0.1413  0.8107
 3479SOL     OW22072   1.581   2.664   6.619  0.3615 -0.0955 -0.3459
 3479SOL    HW122073   1.508   2.725   6.609  0.3207 -0.5616 -2.9324
 3479SOL    HW222074   1.544   2.596   6.675  0.9055 -0.7199 -0.7507
 3480SOL     OW22075   3.619   1.950   2.694 -0.6154  0.6290  0.2791
 3480SOL    HW122076   3.712   1.939   2.678 -0.7892  1.4951 -1.3434
 3480SOL    HW222077   3.615   1.993   2.779  1.1329 -1.1840  1.2690
 3481SOL     OW22078   2.750   3.585   5.387 -0.0684  0.9557  0.0192
 3481SOL    HW122079   2.764   3.676   5.413  2.3066  0.9265 -1.1345
 3481SOL    HW222080   2.701   3.597   5.306 -0.5544  1.7932  0.4366
 3482SOL     OW22081   2.953   3.142   5.383  0.4361 -0.6486 -0.2276
 3482SOL    HW122082   3.026   3.171   5.438  0.8060  1.5963 -1.8961
 3482SOL    HW222083   2.992   3.061   5.352  1.4053 -0.3694  0.2705
 3483SOL     OW22084   3.531   1.849  16.703 -0.0219 -0.0978 -0.2698
 3483SOL    HW122085   3.493   1.931  16.734  1.6907  0.0950  1.3074
 3483SOL    HW222086   3.458   1.799  16.665 -0.8109  0.3919  0.6106
 3484SOL     OW22087   1.282   3.111   9.107 -0.8402  0.0208 -0.4683
 3484SOL    HW122088   1.272   3.206   9.099  1.5027  0.2017 -1.1245
 3484SOL    HW222089   1.275   3.085   9.015 -1.1544  1.1650 -0.7596
 3485SOL     OW22090   3.859   0.404   1.253 -0.5592  0.7162 -0.2437
 3485SOL    HW122091   3.862   0.322   1.203  0.5793  0.6960 -0.1363
 3485SOL    HW222092   3.868   0.471   1.186 -2.0011  0.9580 -0.1832
 3486SOL     OW22093   0.570   1.349   4.328 -0.0150 -0.2248  0.1196
 3486SOL    HW122094   0.595   1.327   4.238  1.2488 -0.9970  0.6690
 3486SOL    HW222095   0.589   1.267   4.374  1.0461  0.7438  1.4033
 3487SOL     OW22096   3.213   2.213   0.604  0.7148 -0.1358 -0.3287
 3487SOL    HW122097   3.180   2.179   0.521 -2.8182 -0.1144  1.0667
 3487SOL    HW222098   3.308   2.209   0.594  0.4573 -2.2724 -2.0642
 3488SOL     OW22099   3.533   3.497  17.082 -0.2235 -0.5515 -0.0796
 3488SOL    HW122100   3.532   3.559  17.155  0.3424 -0.4405 -0.1614
 3488SOL    HW222101   3.597   3.534  17.022  0.5522  0.6325  1.4779
 3489SOL     OW22102   0.883   0.477   1.831 -0.1929 -0.6293 -0.1731
 3489SOL    HW122103   0.927   0.458   1.914  0.8095  1.6556 -0.1551
 3489SOL    HW222104   0.933   0.554   1.804  0.8330 -1.1911  0.1259
 3490SOL     OW22105   0.728   2.000   3.602 -0.4211  0.0898 -0.1785
 3490SOL    HW122106   0.650   2.051   3.625  0.0600  0.4056  0.7800
 3490SOL    HW222107   0.733   1.955   3.687 -1.4510  0.4861  0.0996
 3491SOL     OW22108   3.072   3.694   7.129  0.1482  0.5966 -0.2908
 3491SOL    HW122109   3.129   3.771   7.135  0.0424  0.7097 -0.7559
 3491SOL    HW222110   2.995   3.749   7.147  0.2596  0.8844 -0.6821
 3492SOL     OW22111   2.889   2.675   8.468 -0.2085 -0.2212 -0.5653
 3492SOL    HW122112   2.832   2.645   8.539 -0.0261 -0.6510 -0.6063
 3492SOL    HW222113   2.827   2.731   8.420  0.4648  0.4375 -0.6625
 3493SOL     OW22114   2.873   3.893   5.285  0.0668  0.3338  0.6686
 3493SOL    HW122115   2.842   3.859   5.369 -1.9112  2.7681  0.9112
 3493SOL    HW222116   2.959   3.854   5.271 -0.6339 -0.6049 -1.0572
 3494SOL     OW22117   1.651   4.058   5.811  0.5627  0.1068  0.6818
 3494SOL    HW122118   1.641   4.009   5.893  0.6769 -0.0892  0.5787
 3494SOL    HW222119   1.703   4.130   5.847 -0.8538  1.1576  0.6238
 3495SOL     OW22120   4.731   4.711   5.061  0.5813 -0.1104  0.4615
 3495SOL    HW122121   0.050   4.633   5.070  1.3289  0.1079 -2.1097
 3495SOL    HW222122   4.717   4.722   5.155  0.3459  2.3748  0.1361
 3496SOL     OW22123   3.780   0.097   5.799 -0.0240 -0.1947 -0.4237
 3496SOL    HW122124   3.707   0.069   5.744  0.6221 -2.0732 -0.3588
 3496SOL    HW222125   3.805   0.174   5.749  1.7127 -1.1256 -0.9994
 3497SOL     OW22126   3.316   2.465   8.853 -0.1832  0.0131  0.1941
 3497SOL    HW122127   3.304   2.406   8.779 -0.6284 -0.2084  0.4432
 3497SOL    HW222128   3.226   2.499   8.857 -0.1523  0.1139  0.0583
 3498SOL     OW22129   3.036   0.764  15.868 -0.2731 -0.0926 -0.4971
 3498SOL    HW122130   2.960   0.774  15.925  2.2368  1.8299  2.4944
 3498SOL    HW222131   3.102   0.814  15.915 -1.3637 -0.2851  1.2286
 3499SOL     OW22132   3.104   0.648   6.128 -0.3153  0.3164  0.4685
 3499SOL    HW122133   3.047   0.577   6.158  2.1858 -1.4349  1.0916
 3499SOL    HW222134   3.133   0.608   6.046  0.1772  1.8121 -0.0948
 3500SOL     OW22135   1.116   2.895   8.404  0.4656  0.1510 -0.4829
 3500SOL    HW122136   1.197   2.870   8.448 -0.5200  0.0415  1.2480
 3500SOL    HW222137   1.065   2.814   8.412  0.1839  0.6610  2.5889
 3501SOL     OW22138   1.536   2.372  15.291  0.0138  0.0448 -0.1722
 3501SOL    HW122139   1.587   2.313  15.235  0.1917 -1.1895  1.3223
 3501SOL    HW222140   1.518   2.305  15.356 -0.9687  0.0341 -0.4571
 3502SOL     OW22141   2.403   2.154   4.281  0.6160  0.1889 -0.3588
 3502SOL    HW122142   2.308   2.151   4.271  0.6825  0.5114 -1.0982
 3502SOL    HW222143   2.408   2.244   4.313  1.0306  0.1645 -0.3575
 3503SOL     OW22144   3.743   3.120   5.559  0.0117  0.4195 -0.6834
 3503SOL    HW122145   3.774   3.165   5.638  1.3223  0.1761 -1.0527
 3503SOL    HW222146   3.821   3.141   5.508  0.0585  0.0783 -0.7535
 3504SOL     OW22147   2.502   0.440  12.528 -0.5072 -0.2254 -0.7160
 3504SOL    HW122148   2.410   0.439  12.503 -0.1848 -0.6378 -1.8855
 3504SOL    HW222149   2.514   0.349  12.501  0.2124  0.0839 -1.4532
 3505SOL     OW22150   1.881   1.238   8.234 -0.2929 -0.2061  0.5217
 3505SOL    HW122151   1.922   1.324   8.233  0.4962 -0.5990 -1.4884
 3505SOL    HW222152   1.966   1.207   8.264  0.0135  0.8518  0.7431
 3506SOL     OW22153   1.077   4.105   9.558 -0.4265  0.5660  0.2743
 3506SOL    HW122154   0.993   4.066   9.582 -0.9261  1.0466 -0.6634
 3506SOL    HW222155   1.034   4.177   9.511  2.1114  0.9823 -1.4555
 3507SOL     OW22156   1.194   1.196   7.615  0.7652 -0.1020 -0.2466
 3507SOL    HW122157   1.121   1.162   7.668  1.6450 -0.2052  0.8861
 3507SOL    HW222158   1.196   1.282   7.655  0.7310  0.9603 -2.5346
 3508SOL     OW22159   0.512   1.544  13.645 -0.2976 -0.0049 -0.0101
 3508SOL    HW122160   0.523   1.553  13.740  2.0127 -1.6414 -0.1215
 3508SOL    HW222161   0.424   1.506  13.641 -1.4234  2.4119  1.7129
 3509SOL     OW22162   3.586   0.890   4.688  0.3045 -0.0102  0.2223
 3509SOL    HW122163   3.559   0.964   4.634  1.0155  0.8293  1.0060
 3509SOL    HW222164   3.682   0.898   4.687  0.1611  1.3077 -2.4453
 3510SOL     OW22165   4.176   4.353  11.322 -0.0455  0.2450 -0.1245
 3510SOL    HW122166   4.187   4.411  11.397  1.5067 -2.1455  1.4589
 3510SOL    HW222167   4.240   4.284  11.340 -1.3127 -0.8544  0.1444
 3511SOL     OW22168   0.839   1.457   5.220 -0.7802 -0.0113  0.6707
 3511SOL    HW122169   0.815   1.428   5.132 -1.9842  0.6048  0.7934
 3511SOL    HW222170   0.915   1.510   5.194  0.1615 -1.8429 -0.3296
 3512SOL     OW22171   0.612   1.459   4.722 -0.0634  0.8747  0.0950
 3512SOL    HW122172   0.592   1.509   4.643 -1.6074  1.1069  0.6371
 3512SOL    HW222173   0.707   1.469   4.727 -0.1138  0.5729  1.8956
 3513SOL     OW22174   1.913   1.999   5.951  0.5099 -0.4768 -0.4596
 3513SOL    HW122175   1.839   2.053   5.921 -0.2555 -1.3493 -0.1539
 3513SOL    HW222176   1.878   1.912   5.967 -3.3025  1.0168 -0.5803
 3514SOL     OW22177   2.365   3.965   8.666  0.3177 -0.0661 -0.0420
 3514SOL    HW122178   2.312   3.906   8.612  2.0315 -0.9585 -0.7439
 3514SOL    HW222179   2.443   3.975   8.611  1.6228  0.5825  1.9320
 3515SOL     OW22180   2.035   4.411   3.954 -0.4513  0.2487 -0.0560
 3515SOL    HW122181   2.012   4.324   3.986  0.8146  0.0211  0.2632
 3515SOL    HW222182   2.125   4.394   3.925 -0.1292  2.0689 -0.1500
 3516SOL     OW22183   0.763   0.244   4.718  0.0121  0.2824  0.3818
 3516SOL    HW122184   0.745   0.309   4.650  0.5745  0.1596  0.1174
 3516SOL    HW222185   0.752   0.160   4.675  0.2820  0.9452 -0.9888
 3517SOL     OW22186   3.792   2.691   0.608  0.3270 -0.0387  0.4906
 3517SOL    HW122187   3.716   2.710   0.553  1.4002  0.7834 -0.7078
 3517SOL    HW222188   3.814   2.601   0.582  0.1714  0.2113 -0.4869
 3518SOL     OW22189   4.249   1.263   4.957 -0.0055 -0.4671 -0.2909
 3518SOL    HW122190   4.220   1.194   4.897  3.0615 -1.0753 -1.0387
 3518SOL    HW222191   4.211   1.334   4.905 -2.7241 -2.1963 -0.6719
 3519SOL     OW22192   1.743   3.060   1.299 -0.0068 -0.6648 -0.0994
 3519SOL    HW122193   1.706   3.126   1.357 -2.1266 -2.3799  0.5202
 3519SOL    HW222194   1.812   3.020   1.352  1.0315  0.2733 -0.7557
 3520SOL     OW22195   1.489   3.311  12.433  0.2014 -0.0029 -0.2041
 3520SOL    HW122196   1.518   3.259  12.508  2.2492 -0.7130 -1.4984
 3520SOL    HW222197   1.394   3.301  12.442  0.2792 -1.2365 -0.8182
 3521SOL     OW22198   0.546   3.685  14.865 -0.7047  0.4985 -0.3463
 3521SOL    HW122199   0.565   3.652  14.952  0.8816  0.4902 -0.6934
 3521SOL    HW222200   0.459   3.646  14.869  0.1537 -1.2530  0.8834
 3522SOL     OW22201   3.806   1.794   7.245  0.2032  0.1609  0.4588
 3522SOL    HW122202   3.826   1.815   7.336 -0.0343 -3.9463  1.4671
 3522SOL    HW222203   3.896   1.794   7.213  0.1801 -1.5343  0.3519
 3523SOL     OW22204   2.383   2.835   6.404  0.3355  0.3715 -0.0967
 3523SOL    HW122205   2.453   2.771   6.410  0.4495  0.5318  0.2911
 3523SOL    HW222206   2.354   2.831   6.496  0.4419  0.5062 -0.0572
 3524SOL     OW22207   1.496   1.601   7.311  0.7445 -0.0342 -0.1759
 3524SOL    HW122208   1.527   1.659   7.241 -0.4759  1.7156  0.7351
 3524SOL    HW222209   1.460   1.524   7.266 -3.0765  0.3028  2.3045
 3525SOL     OW22210   2.995   1.816   4.747 -0.5418  0.4731 -0.1724
 3525SOL    HW122211   3.022   1.727   4.721 -0.0719  0.3692  0.6777
 3525SOL    HW222212   2.951   1.819   4.832 -1.5941  1.9395 -0.7707
 3526SOL     OW22213   2.987   1.239   1.285 -0.0805  0.3249  0.0778
 3526SOL    HW122214   3.058   1.275   1.337  0.3357  2.2631 -1.8546
 3526SOL    HW222215   2.974   1.150   1.319  1.5034  0.0172 -0.1454
 3527SOL     OW22216   4.231   0.655  10.179  0.1368 -0.4025  0.3941
 3527SOL    HW122217   4.291   0.633  10.108  1.5931  1.8900  0.8959
 3527SOL    HW222218   4.177   0.716  10.129  0.4335 -0.7910 -0.4026
 3528SOL     OW22219   0.694   1.119   8.102  0.3567 -0.7303  0.6009
 3528SOL    HW122220   0.769   1.131   8.043 -0.0623 -2.1483 -0.2215
 3528SOL    HW222221   0.671   1.212   8.108 -1.2067 -0.9535 -1.7393
 3529SOL     OW22222   0.629   2.342  13.225  0.1159  1.0270 -0.0091
 3529SOL    HW122223   0.617   2.287  13.303  0.2048 -0.9881 -1.4380
 3529SOL    HW222224   0.712   2.303  13.201 -0.2115  1.2255 -1.4466
 3530SOL     OW22225   0.981   3.903   0.572 -0.1151 -0.4075 -0.5950
 3530SOL    HW122226   0.894   3.867   0.556 -0.9727  1.7680 -0.9228
 3530SOL    HW222227   1.023   3.897   0.487 -0.9752  0.3820 -1.0880
 3531SOL     OW22228   0.861   1.436   2.206  0.4826 -0.3214  0.3700
 3531SOL    HW122229   0.907   1.483   2.137  0.0128  0.2509  0.4519
 3531SOL    HW222230   0.863   1.506   2.271 -0.3680  0.0269  0.0248
 3532SOL     OW22231   1.419   3.185   5.216 -0.2723  0.2399 -0.5185
 3532SOL    HW122232   1.431   3.183   5.121 -0.2941  1.3977 -0.5480
 3532SOL    HW222233   1.509   3.167   5.244 -0.7943 -3.0474 -0.9380
 3533SOL     OW22234   4.075   3.472   8.081 -0.5642  0.3031 -0.1171
 3533SOL    HW122235   3.986   3.504   8.099 -1.1173 -0.2168 -2.0038
 3533SOL    HW222236   4.059   3.425   8.000  1.2180 -2.5129  1.1450
 3534SOL     OW22237   2.535   2.487  11.821  0.0022  0.1221 -0.0396
 3534SOL    HW122238   2.505   2.507  11.910 -0.1731  1.0429 -0.3044
 3534SOL    HW222239   2.447   2.472  11.788  0.4986  2.0606 -2.2557
 3535SOL     OW22240   3.467   0.750   4.397  0.1088 -0.0257 -0.2821
 3535SOL    HW122241   3.372   0.751   4.412  0.3472 -1.6302  1.4159
 3535SOL    HW222242   3.469   0.831   4.345 -2.3229 -0.8252 -1.5867
 3536SOL     OW22243   0.887   2.461   1.965 -0.1320  0.7117  0.4701
 3536SOL    HW122244   0.952   2.401   1.929 -0.4739  1.1789 -0.9318
 3536SOL    HW222245   0.924   2.548   1.953 -2.7033  1.5777 -1.2213
 3537SOL     OW22246   3.813   3.926   4.989 -0.0770  0.5388  0.1530
 3537SOL    HW122247   3.729   3.964   5.013 -0.3127 -0.2699  0.6248
 3537SOL    HW222248   3.857   4.010   4.980  1.8135 -0.5894 -1.3250
 3538SOL     OW22249   3.988   3.700   9.255 -0.3842  0.3249 -0.0232
 3538SOL    HW122250   4.041   3.623   9.237 -2.1716 -1.4202  2.2624
 3538SOL    HW222251   3.929   3.695   9.180  0.2175  0.0080 -0.4746
 3539SOL     OW22252   1.934   3.339  13.114  0.1546 -0.2988  0.0731
 3539SOL    HW122253   1.911   3.273  13.048 -2.0897 -1.8816  2.4282
 3539SOL    HW222254   1.876   3.310  13.184  0.4049 -0.2701  0.2892
 3540SOL     OW22255   0.552   0.482   7.593 -0.1285  0.0343  0.6686
 3540SOL    HW122256   0.595   0.483   7.508 -0.6847  0.3676  0.3873
 3540SOL    HW222257   0.609   0.427   7.646  0.0025  0.5466  1.0552
 3541SOL     OW22258   1.170   3.206   4.126  0.5432 -0.2738 -0.4279
 3541SOL    HW122259   1.225   3.131   4.104  0.3585 -0.7070  0.6011
 3541SOL    HW222260   1.157   3.186   4.218  0.0647  0.5631 -0.3077
 3542SOL     OW22261   3.182   1.225   5.078  0.6775 -0.0847  0.7229
 3542SOL    HW122262   3.173   1.169   5.154 -1.1298 -0.4985  0.1906
 3542SOL    HW222263   3.133   1.304   5.102  0.8871  0.4413 -0.5733
 3543SOL     OW22264   2.298   0.611   5.717  0.0735  0.1257  0.0799
 3543SOL    HW122265   2.272   0.660   5.639  2.7401  2.4407  0.6452
 3543SOL    HW222266   2.283   0.520   5.692 -0.0243  0.1231  0.1454
 3544SOL     OW22267   0.123   4.317  14.667 -0.0819  0.1449 -0.3505
 3544SOL    HW122268   0.093   4.226  14.664 -0.1530 -0.0342  5.5864
 3544SOL    HW222269   0.039   4.359  14.682  0.8750  0.6022  3.7637
 3545SOL     OW22270   4.439   2.350   3.554 -0.1845 -0.0352 -0.2719
 3545SOL    HW122271   4.504   2.372   3.621 -0.0028  0.8765 -0.7506
 3545SOL    HW222272   4.362   2.372   3.607 -0.0447 -2.1792  0.8303
 3546SOL     OW22273   2.134   3.921  13.331 -0.1344  0.2998  0.0581
 3546SOL    HW122274   2.045   3.927  13.296  0.5603  1.2608 -1.5518
 3546SOL    HW222275   2.169   4.010  13.325 -0.8301  0.5034 -1.0830
 3547SOL     OW22276   0.946   1.148  14.619  0.6977 -0.3036 -0.0332
 3547SOL    HW122277   1.025   1.163  14.567 -0.7597  1.5129 -1.7231
 3547SOL    HW222278   0.973   1.204  14.692 -0.8325  1.3122 -0.6842
 3548SOL     OW22279   4.589   1.115   4.914 -0.1983 -0.4315  0.9005
 3548SOL    HW122280   4.609   1.132   5.006 -1.2706 -0.7900  1.2021
 3548SOL    HW222281   4.529   1.040   4.913 -0.5653 -0.1165 -0.6069
 3549SOL     OW22282   0.265   3.857   7.172 -0.3859 -0.3298 -0.4738
 3549SOL    HW122283   0.266   3.903   7.256  0.1260 -1.6765  0.2466
 3549SOL    HW222284   0.351   3.882   7.140 -0.8382  0.2489 -1.2677
 3550SOL     OW22285   1.295   1.994   5.891  0.0694  0.0254  0.0210
 3550SOL    HW122286   1.290   2.090   5.890 -0.3989  0.0397  3.0397
 3550SOL    HW222287   1.226   1.984   5.957 -0.2190  0.3172 -0.2349
 3551SOL     OW22288   4.107   3.661   9.595  0.2510  0.0104  0.1438
 3551SOL    HW122289   4.154   3.638   9.515 -1.9927 -0.3155 -1.0954
 3551SOL    HW222290   4.038   3.595   9.599 -0.3758  0.5884 -1.1307
 3552SOL     OW22291   4.287   4.479  13.242 -0.1114  0.1350  0.5444
 3552SOL    HW122292   4.283   4.539  13.167 -1.3795  0.2004  0.6742
 3552SOL    HW222293   4.316   4.542  13.308 -1.4673 -0.9403  2.1536
 3553SOL     OW22294   0.143   4.121   7.949 -0.4773  0.0130 -0.7611
 3553SOL    HW122295   0.131   4.087   8.037 -1.2476 -1.7152 -1.5144
 3553SOL    HW222296   0.164   4.212   7.970 -0.9294 -0.3976  1.4395
 3554SOL     OW22297   4.397   2.788   2.586  0.1753 -0.3673  0.1000
 3554SOL    HW122298   4.429   2.773   2.498  1.7032  0.0996  0.5857
 3554SOL    HW222299   4.324   2.729   2.568 -0.7018  0.0747  2.1932
 3555SOL     OW22300   1.461   1.091   4.510 -0.6977 -0.6205  0.9084
 3555SOL    HW122301   1.481   1.083   4.603 -0.1241  0.2720  0.8697
 3555SOL    HW222302   1.528   1.147   4.470 -0.9357 -0.5486  0.6068
 3556SOL     OW22303   3.152   0.205   8.115  0.0333 -0.1885 -0.3742
 3556SOL    HW122304   3.120   0.161   8.193 -1.4643  2.1686  0.3363
 3556SOL    HW222305   3.173   0.138   8.050  1.9496 -2.8842  2.9915
 3557SOL     OW22306   0.921   1.704   3.373 -0.1598 -0.2889  0.5347
 3557SOL    HW122307   0.909   1.798   3.356  0.1567 -0.6233 -1.5853
 3557SOL    HW222308   0.961   1.710   3.460 -1.5005 -0.1540  1.1406
 3558SOL     OW22309   4.195   3.580   7.368 -0.6583 -0.1545 -0.2382
 3558SOL    HW122310   4.288   3.560   7.379 -0.6124 -1.2838 -2.6958
 3558SOL    HW222311   4.182   3.557   7.276 -0.3113  1.1995 -0.6266
 3559SOL     OW22312   3.787   4.464   8.819  0.1104 -0.3040  0.6224
 3559SOL    HW122313   3.727   4.536   8.835  0.6760  0.3648 -0.2960
 3559SOL    HW222314   3.831   4.443   8.901  0.5276  0.3041  0.5467
 3560SOL     OW22315   3.415   2.389   6.296  0.0377  0.0245 -0.3537
 3560SOL    HW122316   3.338   2.351   6.253 -0.5033 -1.0595  1.5952
 3560SOL    HW222317   3.371   2.463   6.336 -0.7932 -0.6612 -0.0082
 3561SOL     OW22318   4.316   1.600   5.904  0.0675 -0.0597  0.4095
 3561SOL    HW122319   4.222   1.581   5.912  0.3400 -1.3154  0.6411
 3561SOL    HW222320   4.352   1.513   5.887 -0.2824 -0.1701  0.2230
 3562SOL     OW22321   3.166   0.781   3.361  0.0985 -0.0835 -0.0816
 3562SOL    HW122322   3.117   0.703   3.388  0.0706  0.7642  2.3319
 3562SOL    HW222323   3.131   0.852   3.414  0.3410  3.8623 -5.2587
 3563SOL     OW22324   1.296   3.505   6.602  0.0624 -0.5863  0.2699
 3563SOL    HW122325   1.208   3.535   6.580 -0.1428  0.3666  2.3930
 3563SOL    HW222326   1.331   3.465   6.522  1.6247  2.1738 -0.4221
 3564SOL     OW22327   0.563   3.538   4.607 -0.2295  0.4813  0.0912
 3564SOL    HW122328   0.487   3.483   4.625  1.4897 -1.8529  0.2232
 3564SOL    HW222329   0.611   3.526   4.688  0.2065  1.7505  0.0206
 3565SOL     OW22330   4.141   4.427   8.333 -0.2245 -0.1936  0.6052
 3565SOL    HW122331   4.185   4.497   8.382  0.6808  0.4956 -1.1906
 3565SOL    HW222332   4.069   4.415   8.395 -1.0657  4.0729  0.4669
 3566SOL     OW22333   2.235   0.134   5.919  0.2688  0.0801  0.3235
 3566SOL    HW122334   2.172   0.181   5.863  0.1779 -1.3001 -0.7409
 3566SOL    HW222335   2.200   0.169   6.000 -0.0582  0.2245  0.1192
 3567SOL     OW22336   2.467   0.166   6.314  0.1819  0.7292 -0.2433
 3567SOL    HW122337   2.452   0.252   6.276  0.3322  1.2812  0.9694
 3567SOL    HW222338   2.421   0.117   6.246  0.6768 -0.6285  0.3869
 3568SOL     OW22339   3.571   0.013   3.460  0.0321  0.0159  0.3026
 3568SOL    HW122340   3.624   0.091   3.440 -2.6119  1.5000 -0.8377
 3568SOL    HW222341   3.503   0.063   3.504  1.8373  1.9268  0.9142
 3569SOL     OW22342   0.459   1.475   4.934 -0.6556  0.2786  0.0159
 3569SOL    HW122343   0.514   1.482   4.856  1.3332 -1.7693  1.2528
 3569SOL    HW222344   0.375   1.463   4.889 -0.4192  2.7401 -1.0726
 3570SOL     OW22345   1.286   4.691   3.572 -0.3732 -0.6065  0.4082
 3570SOL    HW122346   1.368   4.659   3.612 -0.4441 -1.4878 -0.1604
 3570SOL    HW222347   1.256   0.018   3.636  0.9049  0.7231 -0.2939
 3571SOL     OW22348   1.248   3.620   4.531 -0.2470 -0.2479 -0.1512
 3571SOL    HW122349   1.254   3.690   4.466 -1.8125  1.2533  1.3423
 3571SOL    HW222350   1.163   3.642   4.570  0.0880  4.3901 -1.9684
 3572SOL     OW22351   2.363   4.502   3.786  0.1310 -0.4793  0.0082
 3572SOL    HW122352   2.327   4.571   3.842 -1.2169  1.1954 -2.9099
 3572SOL    HW222353   2.458   4.509   3.801  0.3545 -0.0657 -1.5344
 3573SOL     OW22354   3.715   4.667   6.726  0.2669  0.0915 -0.2004
 3573SOL    HW122355   3.791   4.723   6.736  0.9191 -0.7963 -0.1278
 3573SOL    HW222356   3.701   4.666   6.632 -1.9708  0.9558  0.1099
 3574SOL     OW22357   0.634   3.982   5.970  0.1579  0.5194  0.9366
 3574SOL    HW122358   0.622   4.028   6.053 -0.9471  1.5755  0.1903
 3574SOL    HW222359   0.542   3.967   5.948  0.9833 -3.5925  0.3059
 3575SOL     OW22360   3.288   4.372  13.100 -0.5099  0.1630 -0.2110
 3575SOL    HW122361   3.264   4.378  13.007 -2.0396 -0.0187  0.1610
 3575SOL    HW222362   3.223   4.311  13.137  1.1934 -0.8381  1.1116
 3576SOL     OW22363   2.094   3.664   8.285  0.4173 -0.1103  0.1118
 3576SOL    HW122364   2.029   3.593   8.280  1.5509 -1.0739 -0.7456
 3576SOL    HW222365   2.119   3.661   8.378  0.6815  0.3137  0.0516
 3577SOL     OW22366   1.809   3.377   0.839  0.5344 -0.4038  0.2035
 3577SOL    HW122367   1.862   3.302   0.867 -0.1171 -0.6261  0.8240
 3577SOL    HW222368   1.731   3.330   0.807 -0.2844  0.8516  0.3902
 3578SOL     OW22369   1.212   0.891   6.831 -0.5632 -0.5300  0.5048
 3578SOL    HW122370   1.122   0.914   6.855 -1.1563 -0.2156 -1.9657
 3578SOL    HW222371   1.208   0.809   6.782 -2.4813  0.2204 -0.6388
 3579SOL     OW22372   1.963   0.567   5.335 -0.4992 -0.5481  0.1674
 3579SOL    HW122373   2.016   0.505   5.286  0.4792 -1.1736  2.0201
 3579SOL    HW222374   1.876   0.526   5.328 -1.3852  1.2054  0.8647
 3580SOL     OW22375   3.242   2.947   5.162 -0.2306 -0.1523 -0.1058
 3580SOL    HW122376   3.288   3.029   5.141 -0.2922 -0.1051 -0.0546
 3580SOL    HW222377   3.316   2.887   5.160 -1.2205 -1.3386 -1.1234
 3581SOL     OW22378   3.169   1.441   1.953  0.1601 -0.2625 -0.1861
 3581SOL    HW122379   3.162   1.360   1.902 -0.1772  0.6008 -1.4982
 3581SOL    HW222380   3.103   1.427   2.021 -0.1086 -0.8809 -0.5675
 3582SOL     OW22381   1.091   3.573  17.437  0.4529 -0.3347 -0.8025
 3582SOL    HW122382   1.129   3.653  17.400  0.5167  0.3259  0.7166
 3582SOL    HW222383   1.164   3.535  17.485 -0.6516 -1.0057  0.3539
 3583SOL     OW22384   4.469   2.555   5.237 -0.6235  0.2861 -0.2467
 3583SOL    HW122385   4.400   2.571   5.302  1.5056  0.1933  2.0141
 3583SOL    HW222386   4.424   2.575   5.154  0.6759 -0.5319 -1.1425
 3584SOL     OW22387   4.340   0.507  15.597 -0.1606  0.0525 -0.1184
 3584SOL    HW122388   4.357   0.529  15.689  0.3719 -0.1152 -0.1749
 3584SOL    HW222389   4.421   0.528  15.550  1.0309  0.5486  2.1567
 3585SOL     OW22390   0.856   0.183   7.355  0.0207  0.2642 -0.2304
 3585SOL    HW122391   0.897   0.225   7.279 -2.6330  0.2096 -1.6908
 3585SOL    HW222392   0.766   0.157   7.334 -1.1079  0.7384  4.0938
 3586SOL     OW22393   2.556   3.176   6.599 -0.3466  0.4595  0.3995
 3586SOL    HW122394   2.590   3.098   6.644 -0.0798  0.5970  0.4390
 3586SOL    HW222395   2.627   3.237   6.578  0.1400  0.8378  3.1184
 3587SOL     OW22396   3.436   4.218   3.031  0.0933  0.8270 -0.3624
 3587SOL    HW122397   3.413   4.171   3.111 -0.5310  0.4395 -0.7712
 3587SOL    HW222398   3.354   4.246   2.992  1.0451  2.7257 -1.0273
 3588SOL     OW22399   0.893   4.342   4.044  0.3923  0.3442  0.5251
 3588SOL    HW122400   0.870   4.309   3.957  1.4552  3.2911 -0.8475
 3588SOL    HW222401   0.872   4.435   4.043 -0.7795  0.1129  2.1194
 3589SOL     OW22402   4.059   4.129   3.275  0.2024 -0.3336  0.6157
 3589SOL    HW122403   4.036   4.056   3.333  0.3213 -0.4532  0.5132
 3589SOL    HW222404   4.146   4.100   3.247  0.6726  1.4007  0.2693
 3590SOL     OW22405   2.975   1.068  13.606  0.5229  0.7043 -0.6912
 3590SOL    HW122406   2.896   1.066  13.660  0.5936 -1.7383 -0.6554
 3590SOL    HW222407   3.029   1.007  13.655 -1.5246 -0.5376  0.0466
 3591SOL     OW22408   3.815   3.590  10.613 -1.0015  0.0253  0.0404
 3591SOL    HW122409   3.764   3.619  10.538 -0.8200  3.1332  1.1466
 3591SOL    HW222410   3.832   3.669  10.664 -0.5888 -0.2133  0.2801
 3592SOL     OW22411   3.790   2.372   3.647  0.6146 -0.0324  0.2816
 3592SOL    HW122412   3.784   2.422   3.729 -0.5206  0.5625 -0.1722
 3592SOL    HW222413   3.742   2.432   3.591  1.7146 -2.1494 -2.8991
 3593SOL     OW22414   2.983   1.834   0.702 -0.1059 -0.7876  0.0171
 3593SOL    HW122415   2.900   1.863   0.741 -0.5170  0.0791 -1.4832
 3593SOL    HW222416   3.039   1.910   0.719 -0.4952 -0.5079  0.0408
 3594SOL     OW22417   3.843   2.788  17.675 -0.4769 -0.1818 -0.6437
 3594SOL    HW122418   3.906   2.762  17.608  1.5682 -0.5161  1.4230
 3594SOL    HW222419   3.774   2.721  17.667  0.7211 -1.8476  2.8211
 3595SOL     OW22420   1.091   2.296   6.605 -0.5208 -0.5569  0.0457
 3595SOL    HW122421   1.031   2.309   6.532  0.3588  1.0763 -0.3856
 3595SOL    HW222422   1.154   2.238   6.562 -1.4937 -0.6242 -1.3069
 3596SOL     OW22423   3.286   2.328   3.706  0.1429  0.5359  0.2337
 3596SOL    HW122424   3.229   2.324   3.630  2.2550 -1.2566 -1.2484
 3596SOL    HW222425   3.311   2.235   3.701  0.4981  0.6746 -0.4751
 3597SOL     OW22426   2.917   1.406   7.464 -0.3176  0.1576 -0.1813
 3597SOL    HW122427   2.953   1.328   7.423  1.6756  0.8877  0.1613
 3597SOL    HW222428   2.832   1.369   7.487 -1.1486  0.8621 -2.1074
 3598SOL     OW22429   3.952   1.425   3.661  0.6354  0.1404  0.0677
 3598SOL    HW122430   3.866   1.414   3.621  1.1252  2.8467 -1.6941
 3598SOL    HW222431   3.935   1.368   3.737  1.8731 -1.6498 -0.9985
 3599SOL     OW22432   1.400   3.072   5.737  0.7050 -0.1191  0.0541
 3599SOL    HW122433   1.398   3.159   5.697 -0.5323 -1.4057 -2.5895
 3599SOL    HW222434   1.482   3.045   5.695  0.8241 -0.3720  0.4466
 3600SOL     OW22435   3.273   1.427   7.426  0.5658 -0.4472  0.1549
 3600SOL    HW122436   3.211   1.399   7.359  1.4034  0.9518 -1.1961
 3600SOL    HW222437   3.212   1.464   7.491  0.7524  0.8179 -0.3951
 3601SOL     OW22438   2.030   0.532  10.910 -0.6178 -0.1450 -0.2635
 3601SOL    HW122439   2.049   0.624  10.926  0.2473 -0.6212  1.5520
 3601SOL    HW222440   2.077   0.479  10.975  0.6221  0.8170 -0.3741
 3602SOL     OW22441   3.433   1.333   6.228  0.5871 -0.2405  0.6029
 3602SOL    HW122442   3.518   1.334   6.271  1.4377  1.7286 -1.1291
 3602SOL    HW222443   3.441   1.252   6.177 -0.6577  0.8457 -1.3430
 3603SOL     OW22444   2.055   2.092  16.038 -0.0552 -0.6192  0.5527
 3603SOL    HW122445   2.081   2.168  16.090  0.7967 -0.4614 -0.1028
 3603SOL    HW222446   2.025   2.132  15.957 -2.4541 -0.4930  1.5182
 3604SOL     OW22447   2.489   2.981   7.269  0.2554  0.2313  0.6600
 3604SOL    HW122448   2.427   2.923   7.223 -1.4966  2.3840  0.2872
 3604SOL    HW222449   2.467   3.060   7.219 -1.0854  0.6466  1.9129
 3605SOL     OW22450   1.708   2.432   2.054  0.1955  0.4689 -0.1497
 3605SOL    HW122451   1.612   2.431   2.057  0.2041  0.0936 -0.0286
 3605SOL    HW222452   1.722   2.338   2.043 -1.3176  0.1378  0.7642
 3606SOL     OW22453   0.958   3.325   9.103  0.0496 -0.1981  0.0127
 3606SOL    HW122454   0.878   3.319   9.156  1.1805  1.2180  1.8571
 3606SOL    HW222455   0.973   3.418   9.088 -0.9613  0.3524  2.3571
 3607SOL     OW22456   4.252   4.493   5.589  0.5383 -0.2491  0.0264
 3607SOL    HW122457   4.248   4.439   5.510  0.8023 -2.0441  1.2470
 3607SOL    HW222458   4.308   4.444   5.650 -1.9769 -1.7085  1.1760
 3608SOL     OW22459   3.510   1.566  11.440  0.0889  0.0978 -1.0426
 3608SOL    HW122460   3.458   1.486  11.442  0.8226 -0.3652 -0.5740
 3608SOL    HW222461   3.590   1.534  11.480 -0.0411  1.5687  0.4018
 3609SOL     OW22462   0.011   4.729   6.282 -0.1080  0.0505 -0.7594
 3609SOL    HW122463   0.089   4.690   6.322  0.6120  1.2133 -1.0087
 3609SOL    HW222464   0.018   0.083   6.314  0.9347 -0.2144 -0.2418
 3610SOL     OW22465   2.291   0.949   8.130  0.3810  0.5799 -0.3731
 3610SOL    HW122466   2.259   0.863   8.106 -0.4575  1.0256 -0.8404
 3610SOL    HW222467   2.334   0.979   8.051 -1.7913  1.2732 -1.2965
 3611SOL     OW22468   2.437   0.877  12.020 -0.1965  0.4016 -0.3175
 3611SOL    HW122469   2.355   0.829  12.023 -1.6026  2.8302  0.3750
 3611SOL    HW222470   2.435   0.918  11.933 -0.6369  1.1799  0.0602
 3612SOL     OW22471   1.501   0.363   3.198 -0.1909  0.3779  0.1967
 3612SOL    HW122472   1.437   0.408   3.143 -0.0067  0.4461  0.0374
 3612SOL    HW222473   1.450   0.342   3.276 -1.4453  0.4932 -0.6066
 3613SOL     OW22474   3.523   3.356  11.259 -0.4173 -0.2733 -0.3745
 3613SOL    HW122475   3.469   3.279  11.277  0.5317 -0.6116  0.9248
 3613SOL    HW222476   3.452   3.418  11.276  1.0637  1.3758 -0.2939
 3614SOL     OW22477   3.274   2.937   6.144  0.8089  0.8360  0.8370
 3614SOL    HW122478   3.242   2.994   6.214  1.1218  3.0843 -0.8601
 3614SOL    HW222479   3.199   2.893   6.105  0.4954  1.4130  0.7963
 3615SOL     OW22480   0.652   4.707   2.574 -0.1221 -0.0702 -0.5193
 3615SOL    HW122481   0.586   4.642   2.550 -0.2022 -0.0963 -0.2319
 3615SOL    HW222482   0.683   4.673   2.658  0.8767  0.8726 -0.5077
 3616SOL     OW22483   1.175   3.238  14.850 -0.3920  0.3692  0.1387
 3616SOL    HW122484   1.192   3.146  14.830 -1.6482 -0.0776  1.1033
 3616SOL    HW222485   1.088   3.227  14.888 -0.5199  2.4719  0.4585
 3617SOL     OW22486   1.529   0.288   8.910 -0.0089 -0.3482 -0.0055
 3617SOL    HW122487   1.623   0.279   8.895 -0.1963 -2.2307 -0.0093
 3617SOL    HW222488   1.525   0.285   9.006  0.6491  0.1642  0.0390
 3618SOL     OW22489   1.466   4.595   2.806 -0.1807  0.1188  0.1068
 3618SOL    HW122490   1.466   4.628   2.896 -1.4208  0.3128  0.0250
 3618SOL    HW222491   1.548   4.545   2.812 -0.7958 -0.9834 -0.7807
 3619SOL     OW22492   3.831   1.111   5.342  0.6266 -0.3402  0.1433
 3619SOL    HW122493   3.783   1.046   5.290 -0.5050  0.4237  0.2298
 3619SOL    HW222494   3.833   1.183   5.279 -2.9140 -0.1608  0.2278
 3620SOL     OW22495   1.532   0.846  11.164 -0.0551  0.0361 -0.2487
 3620SOL    HW122496   1.566   0.763  11.197 -0.2935 -0.3533 -1.0164
 3620SOL    HW222497   1.518   0.892  11.248 -0.2821 -0.6677  0.0959
 3621SOL     OW22498   1.657   2.195   6.230  0.1097 -0.1876 -0.0609
 3621SOL    HW122499   1.749   2.194   6.202 -0.0447  0.7818 -0.5840
 3621SOL    HW222500   1.670   2.125   6.294 -1.3066 -1.2457 -0.9171
 3622SOL     OW22501   1.382   1.591   7.888  0.2488 -0.1561  0.5073
 3622SOL    HW122502   1.443   1.640   7.833 -2.2027  3.2198  0.7537
 3622SOL    HW222503   1.371   1.639   7.970 -0.2581  0.5460  0.0372
 3623SOL     OW22504   4.266   0.985  17.173  0.0793 -0.3284  0.2457
 3623SOL    HW122505   4.326   1.007  17.245  0.9404 -2.1870  0.0855
 3623SOL    HW222506   4.183   0.981  17.220 -0.3831 -1.8984 -0.7129
 3624SOL     OW22507   1.185   3.083   4.378  0.4939 -0.5498 -0.3687
 3624SOL    HW122508   1.270   3.054   4.410  2.0667  1.1749 -3.0282
 3624SOL    HW222509   1.171   3.167   4.421  1.0966 -0.7680  0.2420
 3625SOL     OW22510   0.698   2.791   8.457 -0.4388 -0.1196  0.4413
 3625SOL    HW122511   0.786   2.777   8.491  0.7592  2.8390 -1.4708
 3625SOL    HW222512   0.694   2.883   8.433  0.1841 -0.2669 -0.2360
 3626SOL     OW22513   3.303   3.530   9.497  0.1510  0.4926 -0.0131
 3626SOL    HW122514   3.250   3.510   9.420  1.5018  0.5757 -0.9773
 3626SOL    HW222515   3.366   3.589   9.455  2.1853 -0.4090  1.7794
 3627SOL     OW22516   1.626   2.915  11.352 -0.0445  0.6174  0.1989
 3627SOL    HW122517   1.578   2.953  11.278 -1.3108 -0.1665  0.6202
 3627SOL    HW222518   1.698   2.879  11.300 -0.9834 -2.4982  1.0846
 3628SOL     OW22519   3.986   2.574   3.783  0.4172 -0.3539 -0.0422
 3628SOL    HW122520   4.043   2.565   3.707  1.3131  1.9011  0.3600
 3628SOL    HW222521   4.019   2.640   3.844 -1.3530  0.6751 -0.1946
 3629SOL     OW22522   4.416   1.082  17.362  0.4491  0.0649 -0.1778
 3629SOL    HW122523   4.416   1.174  17.386 -1.8280 -0.1448  0.6734
 3629SOL    HW222524   4.503   1.055  17.331 -0.0992 -1.2323 -0.5882
 3630SOL     OW22525   0.139   3.223  17.551 -0.6071  0.1473  1.2744
 3630SOL    HW122526   0.170   3.170  17.625  1.3095 -0.3238  0.1344
 3630SOL    HW222527   0.184   3.170  17.485 -0.6962  0.2898  1.0994
 3631SOL     OW22528   3.744   4.672   6.459  0.1859 -0.0126  0.3796
 3631SOL    HW122529   3.683   4.629   6.399  0.3077  1.6019 -0.9125
 3631SOL    HW222530   3.825   4.656   6.410 -1.9275 -0.3053 -3.0166
 3632SOL     OW22531   2.486   2.598  10.586  0.1905 -0.4398 -0.5086
 3632SOL    HW122532   2.434   2.678  10.597 -0.3951 -0.8155 -0.5695
 3632SOL    HW222533   2.565   2.630  10.543 -0.0593 -0.0377 -0.6672
 3633SOL     OW22534   2.313   3.090   4.944  0.0222 -0.1139  0.5329
 3633SOL    HW122535   2.345   3.157   5.006 -1.8300 -0.1859  1.5658
 3633SOL    HW222536   2.381   3.023   4.939  0.1675  0.1577 -1.1796
 3634SOL     OW22537   0.235   4.506   4.272 -0.1585 -0.2296  0.3714
 3634SOL    HW122538   0.295   4.548   4.211  1.3634  0.3591  2.2902
 3634SOL    HW222539   0.276   4.533   4.354 -1.5855 -1.0136  1.3472
 3635SOL     OW22540   0.753   0.738   7.456  0.0036 -0.0103 -0.5965
 3635SOL    HW122541   0.772   0.687   7.378  0.6771  0.5685 -0.8084
 3635SOL    HW222542   0.659   0.740   7.471 -0.0688 -2.2365 -0.7774
 3636SOL     OW22543   1.657   2.613   2.527 -0.1082 -0.1544 -0.1109
 3636SOL    HW122544   1.677   2.703   2.550  0.7885 -1.0811  2.6307
 3636SOL    HW222545   1.562   2.618   2.533  0.0891  1.6000  1.4705
 3637SOL     OW22546   4.067   1.241   0.182 -0.0955 -0.3026 -0.1299
 3637SOL    HW122547   4.108   1.286   0.256  1.2326 -0.3137 -0.8484
 3637SOL    HW222548   4.145   1.195   0.150 -1.0674 -0.9013 -1.6151
 3638SOL     OW22549   0.639   1.877   5.469 -0.2559 -0.9076  0.3337
 3638SOL    HW122550   0.643   1.972   5.458  0.3334 -0.9371  0.3254
 3638SOL    HW222551   0.700   1.834   5.409 -1.6408 -0.6313 -1.2866
 3639SOL     OW22552   3.517   0.353   9.040  0.9115 -0.2171 -0.7550
 3639SOL    HW122553   3.520   0.343   9.136  1.1055  1.1969 -0.6181
 3639SOL    HW222554   3.437   0.305   9.019  0.3167  0.5301 -0.2069
 3640SOL     OW22555   2.712   4.150  15.162  0.1817  0.0665 -0.2627
 3640SOL    HW122556   2.773   4.184  15.096  1.0674  0.3357  0.7075
 3640SOL    HW222557   2.641   4.214  15.172 -0.8314 -0.8065 -1.8119
 3641SOL     OW22558   3.401   3.708   4.861  0.7053  0.5727 -0.0748
 3641SOL    HW122559   3.486   3.743   4.833  0.7407  0.6707  0.1531
 3641SOL    HW222560   3.359   3.697   4.776 -0.4356  1.1837  0.4082
 3642SOL     OW22561   3.888   4.553  10.124 -0.3105 -0.5130  0.6381
 3642SOL    HW122562   3.911   4.633  10.172 -1.4185 -0.2449  0.7199
 3642SOL    HW222563   3.864   4.581  10.036 -0.9338 -0.0358  0.9592
 3643SOL     OW22564   1.323   3.875   8.829 -0.1632  0.0959 -0.7172
 3643SOL    HW122565   1.347   3.879   8.921  1.9384  0.7983 -1.2730
 3643SOL    HW222566   1.300   3.783   8.818  1.4597 -0.6059  1.8883
 3644SOL     OW22567   2.198   4.239   8.489  0.5061  0.0059  0.7778
 3644SOL    HW122568   2.246   4.321   8.501 -0.6188  1.1853 -2.7647
 3644SOL    HW222569   2.247   4.208   8.413  0.4643 -3.6872  2.2574
 3645SOL     OW22570   2.939   1.728   3.242  0.0242  0.1777  0.4001
 3645SOL    HW122571   2.853   1.696   3.216  0.8819 -1.9992  0.2070
 3645SOL    HW222572   2.969   1.675   3.316 -1.6762 -1.0633  0.2035
 3646SOL     OW22573   2.580   0.717   7.047 -0.3943  0.0810 -0.0163
 3646SOL    HW122574   2.533   0.743   7.126  0.1367 -1.5422  0.8266
 3646SOL    HW222575   2.534   0.634   7.036 -0.2458  0.0766 -0.6393
 3647SOL     OW22576   1.649   1.450   9.950 -0.3175  0.1176 -0.0465
 3647SOL    HW122577   1.617   1.363   9.927 -2.5566  1.0566 -0.5206
 3647SOL    HW222578   1.739   1.448   9.918 -0.4246 -0.4463 -0.3083
 3648SOL     OW22579   0.606   0.121   9.343 -0.6312 -0.1700  0.4775
 3648SOL    HW122580   0.601   0.065   9.420 -1.6030 -0.6737  0.0539
 3648SOL    HW222581   0.511   0.136   9.341 -0.4280  1.1043 -0.0009
 3649SOL     OW22582   2.643   3.487   5.612  0.2325  0.2641 -0.1051
 3649SOL    HW122583   2.705   3.432   5.659  1.9859  1.1835 -1.3017
 3649SOL    HW222584   2.696   3.518   5.539  0.9458 -0.0622  0.2777
 3650SOL     OW22585   2.093   1.487  10.661  0.1126  0.4261 -0.1867
 3650SOL    HW122586   2.097   1.582  10.648 -0.4433  0.5653  0.6577
 3650SOL    HW222587   2.163   1.479  10.726  1.6883 -1.2887 -2.0946
 3651SOL     OW22588   0.898   4.574   4.770  0.2966  0.3934  0.3461
 3651SOL    HW122589   0.814   4.615   4.789 -0.0694 -0.1664 -0.0547
 3651SOL    HW222590   0.902   4.600   4.678 -0.0849 -3.7561 -0.8417
 3652SOL     OW22591   4.205   2.416  10.424 -0.8849 -0.1142  0.4802
 3652SOL    HW122592   4.242   2.370  10.349 -0.3622  0.4463  0.3866
 3652SOL    HW222593   4.116   2.404  10.391 -0.1011  1.6021 -2.3150
 3653SOL     OW22594   2.175   2.208   5.963 -0.2216  0.1825  0.0245
 3653SOL    HW122595   2.198   2.117   5.982  0.9993  0.6265  0.6782
 3653SOL    HW222596   2.257   2.251   5.988 -0.9547  0.3369  2.1984
 3654SOL     OW22597   0.627   4.639  13.716 -0.1937  0.5425  0.2673
 3654SOL    HW122598   0.653   4.704  13.651  0.8358  0.7930  0.9267
 3654SOL    HW222599   0.536   4.667  13.727  0.2878  1.8336  0.9664
 3655SOL     OW22600   3.075   2.598  14.879  0.1042  0.4512 -0.4269
 3655SOL    HW122601   3.099   2.614  14.971 -2.4640  4.2853 -0.4395
 3655SOL    HW222602   2.982   2.619  14.871 -0.1622 -0.3761  0.4947
 3656SOL     OW22603   1.484   1.246   6.526 -0.4816 -0.0931  0.5730
 3656SOL    HW122604   1.395   1.281   6.532 -0.8575 -1.3667  2.3998
 3656SOL    HW222605   1.527   1.280   6.604  2.4332 -0.8849 -0.6854
 3657SOL     OW22606   0.787   1.771   6.344  0.0574 -0.4309  0.7165
 3657SOL    HW122607   0.720   1.709   6.371 -0.2247 -0.7080 -0.6104
 3657SOL    HW222608   0.762   1.851   6.390 -1.5575 -0.2922 -0.4257
 3658SOL     OW22609   3.495   2.259  14.776  0.5069 -0.1254 -0.0530
 3658SOL    HW122610   3.493   2.207  14.696  1.5892  0.2939 -0.3527
 3658SOL    HW222611   3.425   2.322  14.758  0.4861 -0.1972 -0.2249
 3659SOL     OW22612   1.325   2.962  10.697  0.1007  0.0130  0.3301
 3659SOL    HW122613   1.384   3.005  10.635 -0.7404  0.1822 -0.3610
 3659SOL    HW222614   1.381   2.892  10.730 -1.1954 -1.4960 -0.6665
 3660SOL     OW22615   0.081   2.287   4.044  0.4526 -0.4443  0.4353
 3660SOL    HW122616   0.002   2.261   3.997  1.0970 -0.2677 -0.7481
 3660SOL    HW222617   0.146   2.218   4.034  0.9869  0.3616 -1.7979
 3661SOL     OW22618   3.021   2.824   1.312 -0.2006 -0.3514  0.1986
 3661SOL    HW122619   3.071   2.887   1.363 -2.9689 -2.0649  5.0510
 3661SOL    HW222620   2.934   2.835   1.349 -0.9495  0.2449 -1.7674
 3662SOL     OW22621   0.913   1.139  15.853 -0.0710 -0.6278 -0.2492
 3662SOL    HW122622   0.981   1.072  15.852 -0.8017 -1.3509 -0.9086
 3662SOL    HW222623   0.949   1.207  15.797 -0.8668 -0.9784 -1.1708
 3663SOL     OW22624   3.423   2.066   8.584 -0.3336  0.6051 -0.3455
 3663SOL    HW122625   3.479   2.081   8.508 -0.2352  1.1786 -0.1648
 3663SOL    HW222626   3.481   2.093   8.656 -0.7901  1.5790 -0.3405
 3664SOL     OW22627   2.902   1.249  16.984  0.2018 -0.8206  0.0363
 3664SOL    HW122628   2.897   1.287  16.897 -2.5410  3.1193  1.9022
 3664SOL    HW222629   2.809   1.237  17.003  0.2255 -3.2215 -1.3853
 3665SOL     OW22630   0.952   1.604   2.031 -0.0577  0.6265 -0.0902
 3665SOL    HW122631   0.923   1.580   1.943  0.3539 -0.4478  0.0616
 3665SOL    HW222632   1.002   1.679   2.000 -1.0155  1.3162  0.0318
 3666SOL     OW22633   2.742   3.447   8.994 -0.1272  0.7962 -0.4054
 3666SOL    HW122634   2.718   3.497   8.916 -1.5689 -0.4924 -0.7901
 3666SOL    HW222635   2.700   3.363   8.975 -0.3713  0.5600  1.1588
 3667SOL     OW22636   1.263   3.449   6.874  0.6677  0.8262 -0.3962
 3667SOL    HW122637   1.326   3.489   6.935  1.1239 -0.6754  0.1254
 3667SOL    HW222638   1.289   3.485   6.789 -0.1081  0.0029 -0.9746
 3668SOL     OW22639   3.779   3.516   5.441  0.2287 -0.6928 -0.5227
 3668SOL    HW122640   3.762   3.465   5.520  0.0225 -1.0586 -0.8054
 3668SOL    HW222641   3.873   3.536   5.443 -0.4397  2.6850 -2.2689
 3669SOL     OW22642   2.584   2.993   6.253 -0.0213  0.2185 -0.1007
 3669SOL    HW122643   2.646   2.945   6.199  0.8885  1.3402 -0.0620
 3669SOL    HW222644   2.510   2.933   6.259  0.3351 -0.1243  0.8949
 3670SOL     OW22645   1.109   3.076   2.263 -0.3517 -0.1136 -0.0609
 3670SOL    HW122646   1.114   3.091   2.169  0.0344 -0.3527 -0.0789
 3670SOL    HW222647   1.032   3.022   2.281 -1.3547  0.5010 -2.5002
 3671SOL     OW22648   1.106   2.387  17.024 -0.2547 -0.1931  0.1927
 3671SOL    HW122649   1.149   2.405  16.941 -0.0754  1.9661  0.7570
 3671SOL    HW222650   1.121   2.465  17.078 -0.9536  1.2687 -1.7141
 3672SOL     OW22651   2.313   3.885   2.812 -0.6278  0.2668  0.2700
 3672SOL    HW122652   2.255   3.959   2.796 -0.4659  0.5096  0.8005
 3672SOL    HW222653   2.277   3.836   2.886 -2.6798 -0.2380 -1.0745
 3673SOL     OW22654   4.632   2.291   3.343 -0.1262  0.4829 -0.1253
 3673SOL    HW122655   4.576   2.254   3.275 -0.5365 -1.7371  1.4293
 3673SOL    HW222656   4.568   2.324   3.406  1.9764 -2.7912  3.7539
 3674SOL     OW22657   1.731   1.481  12.230 -0.1421  0.5114 -0.0234
 3674SOL    HW122658   1.766   1.473  12.141  0.4093  1.5578  0.1034
 3674SOL    HW222659   1.791   1.424  12.278 -0.9377 -0.4459 -0.1593
 3675SOL     OW22660   3.471   3.870   5.305 -0.4100 -0.7709  0.4050
 3675SOL    HW122661   3.537   3.807   5.276 -0.5028 -0.5404 -0.3081
 3675SOL    HW222662   3.416   3.855   5.228  0.7199 -0.9850 -0.3631
 3676SOL     OW22663   1.036   1.778   2.316 -0.8091 -0.1924 -0.2124
 3676SOL    HW122664   1.119   1.800   2.358  0.2875  0.6081 -2.7402
 3676SOL    HW222665   1.011   1.867   2.290  0.3087 -0.4467 -2.1971
 3677SOL     OW22666   0.243   4.496  14.853  0.5941  0.1439 -0.4587
 3677SOL    HW122667   0.229   4.430  14.785  2.8004 -1.6710  0.8270
 3677SOL    HW222668   0.289   4.563  14.804 -3.0827  1.4330 -2.1656
 3678SOL     OW22669   4.669   3.023   8.080 -0.4144 -0.0389 -0.3197
 3678SOL    HW122670   4.583   3.033   8.121 -0.7155 -0.4970 -0.8375
 3678SOL    HW222671   4.674   3.104   8.031 -1.2392  0.9161  1.1656
 3679SOL     OW22672   0.827   1.636   2.395 -0.0827  0.0211 -0.0384
 3679SOL    HW122673   0.749   1.685   2.368  1.6391  2.3289 -0.8511
 3679SOL    HW222674   0.900   1.694   2.373 -0.1135  0.1282  0.1431
 3680SOL     OW22675   0.862   4.588   8.655  0.0507  0.0365 -0.1025
 3680SOL    HW122676   0.823   4.657   8.602  3.5398  2.5909  0.6410
 3680SOL    HW222677   0.940   4.639   8.677 -0.7878  1.6635 -0.9552
 3681SOL     OW22678   4.383   2.870   7.154 -0.0237 -0.0186  0.5580
 3681SOL    HW122679   4.368   2.947   7.099  1.7933  0.4157  0.6850
 3681SOL    HW222680   4.336   2.904   7.231 -2.0709  1.9541 -1.5585
 3682SOL     OW22681   0.791   2.230  14.194  0.0252 -0.0155 -0.1002
 3682SOL    HW122682   0.871   2.197  14.152 -0.7591 -0.3172 -1.3447
 3682SOL    HW222683   0.736   2.267  14.125 -0.5470  1.4880  1.1692
 3683SOL     OW22684   1.360   3.386  17.325  0.3235  0.6051  0.0779
 3683SOL    HW122685   1.349   3.358  17.416 -1.6634  0.9916 -0.0549
 3683SOL    HW222686   1.268   3.386  17.300  0.3196  0.5970  0.0922
 3684SOL     OW22687   4.637   4.631   2.974 -0.2090 -0.2363 -0.9285
 3684SOL    HW122688   4.682   4.677   2.903  0.9971 -2.6622 -1.6924
 3684SOL    HW222689   4.616   4.712   3.022  1.4122  1.0286 -2.3772
 3685SOL     OW22690   3.139   4.690   7.878 -0.5982  0.1279  0.3460
 3685SOL    HW122691   3.063   4.635   7.862 -0.5707  0.0913  0.3417
 3685SOL    HW222692   3.100   0.039   7.857 -1.9023 -0.6129 -0.2016
 3686SOL     OW22693   0.306   2.112  10.483 -0.1841  0.5302  0.2060
 3686SOL    HW122694   0.309   2.078  10.393 -2.6151 -0.2810  0.4375
 3686SOL    HW222695   0.227   2.165  10.475 -1.8914 -2.5400 -3.4178
 3687SOL     OW22696   2.335   0.384   3.833  0.4608  0.2523  0.6962
 3687SOL    HW122697   2.420   0.364   3.795  0.2796  0.6406  0.0795
 3687SOL    HW222698   2.320   0.475   3.806  2.2642  0.2067 -0.4299
 3688SOL     OW22699   1.978   2.355   5.507  0.1397  0.1706  0.3764
 3688SOL    HW122700   2.039   2.407   5.455 -2.6209  1.3441 -1.6760
 3688SOL    HW222701   1.899   2.410   5.508 -0.6325 -0.9097 -3.4156
 3689SOL     OW22702   1.509   3.526   5.625  0.1155  0.2732  0.4941
 3689SOL    HW122703   1.498   3.475   5.706  0.2287  2.6453  2.0070
 3689SOL    HW222704   1.468   3.465   5.564 -3.0590  1.0183  1.8781
 3690SOL     OW22705   3.711   2.454   0.961 -0.4962 -0.0262 -0.0131
 3690SOL    HW122706   3.805   2.448   0.947 -0.9555 -0.2520 -3.0493
 3690SOL    HW222707   3.694   2.363   0.982 -1.7774 -0.0520 -1.1005
 3691SOL     OW22708   0.151   3.247   4.275  0.1016 -0.0619  0.4547
 3691SOL    HW122709   0.202   3.312   4.322  0.2029 -0.8951  1.4988
 3691SOL    HW222710   0.148   3.276   4.184  0.3670 -0.4287  0.3258
 3692SOL     OW22711   3.308   1.349  13.344  0.0177 -0.0029  0.1311
 3692SOL    HW122712   3.348   1.278  13.293 -1.6204 -0.5174 -0.4097
 3692SOL    HW222713   3.288   1.309  13.429 -2.8243  1.4881  0.1588
 3693SOL     OW22714   4.104   3.991   8.487  0.1710  0.5620  0.1952
 3693SOL    HW122715   4.042   3.932   8.443 -0.4053  1.9055 -0.7776
 3693SOL    HW222716   4.125   3.949   8.570 -0.3207 -1.6697 -0.8026
 3694SOL     OW22717   4.101   1.765  14.459  0.1679  0.1117  0.3169
 3694SOL    HW122718   4.190   1.799  14.461  0.5495 -0.7916 -1.5266
 3694SOL    HW222719   4.105   1.702  14.387 -1.4576  0.0525  0.2674
 3695SOL     OW22720   1.631   3.690   3.112  0.6897 -0.1726  0.1778
 3695SOL    HW122721   1.621   3.606   3.156  0.3308 -0.0266  0.3759
 3695SOL    HW222722   1.726   3.683   3.101  0.8655  0.8689  1.1502
 3696SOL     OW22723   3.050   2.537   6.990 -0.4418  0.0024  0.2330
 3696SOL    HW122724   3.028   2.478   6.917  1.8252  2.3212 -2.3110
 3696SOL    HW222725   2.962   2.575   6.990  0.8878  3.1009 -2.9383
 3697SOL     OW22726   3.612   1.799  11.359  0.3096 -0.5976 -0.4348
 3697SOL    HW122727   3.557   1.721  11.369  0.1326 -0.2064  1.5227
 3697SOL    HW222728   3.552   1.871  11.375 -0.1960 -1.5593  1.9899
 3698SOL     OW22729   1.398   3.565  15.095  0.3229 -0.0158 -0.0089
 3698SOL    HW122730   1.440   3.540  15.177 -1.1295 -2.2632  0.0651
 3698SOL    HW222731   1.312   3.524  15.107 -0.3433  1.8638  1.5898
 3699SOL     OW22732   0.199   0.950  14.483  0.4077 -0.1389 -0.2382
 3699SOL    HW122733   0.131   0.944  14.415 -2.0373  1.3639  2.0667
 3699SOL    HW222734   0.246   0.872  14.455  3.6068  1.8167 -0.3471
 3700SOL     OW22735   3.047   2.132   0.104 -0.6281  0.3882 -0.1464
 3700SOL    HW122736   2.986   2.200   0.075 -0.6601  1.8948  3.4492
 3700SOL    HW222737   2.995   2.057   0.074 -1.3201  0.5315  0.6909
 3701SOL     OW22738   2.115   1.078   7.154 -0.1384  0.0122  0.0246
 3701SOL    HW122739   2.151   1.161   7.122 -1.6918  0.4322 -0.6124
 3701SOL    HW222740   2.025   1.103   7.176 -0.6635 -0.5682 -1.5169
 3702SOL     OW22741   1.847   4.087   8.320 -0.2199  0.4210 -0.2141
 3702SOL    HW122742   1.770   4.134   8.287 -0.9455 -1.3265 -1.0321
 3702SOL    HW222743   1.907   4.092   8.246 -0.0733  1.8753  0.0067
 3703SOL     OW22744   0.090   3.609   2.690  0.0101 -0.4929  0.6249
 3703SOL    HW122745   0.107   3.568   2.606 -2.6608  0.6731 -0.4801
 3703SOL    HW222746   0.037   3.539   2.729  0.1250 -2.1707 -2.2476
 3704SOL     OW22747   4.161   0.728   1.418 -0.1062  0.1686 -0.4080
 3704SOL    HW122748   4.089   0.667   1.436 -1.4969  1.4189 -1.7569
 3704SOL    HW222749   4.117   0.812   1.407  2.3522  1.7560  1.8302
 3705SOL     OW22750   0.920   3.268  10.647  0.0511 -0.1933  0.0736
 3705SOL    HW122751   0.874   3.241  10.727  0.2294  2.2594  1.0256
 3705SOL    HW222752   0.958   3.187  10.615 -0.8264 -0.8027  0.5644
 3706SOL     OW22753   3.214   0.821  11.702 -0.5213  0.6666 -0.0767
 3706SOL    HW122754   3.188   0.735  11.670 -1.2269  0.7597  0.2485
 3706SOL    HW222755   3.189   0.825  11.794  1.2993 -1.6546  0.5243
 3707SOL     OW22756   0.989   4.253  17.428  0.2030 -0.0652 -0.2315
 3707SOL    HW122757   0.900   4.265  17.393  1.0597 -0.2463 -2.4966
 3707SOL    HW222758   1.033   4.225  17.348  2.1441 -1.2274  1.2514
 3708SOL     OW22759   0.294   2.653  17.114  0.0823  0.1119  0.0616
 3708SOL    HW122760   0.361   2.607  17.165  0.7846  0.4781 -0.5315
 3708SOL    HW222761   0.229   2.585  17.095 -0.0204  0.3761 -0.5269
 3709SOL     OW22762   1.475   0.404   9.545  0.1589  0.3474 -0.2683
 3709SOL    HW122763   1.396   0.353   9.560  1.7538 -2.3278 -1.0121
 3709SOL    HW222764   1.454   0.443   9.461 -0.4934  1.0514  0.2278
 3710SOL     OW22765   1.533   3.642  14.874  0.1502 -0.5293 -0.0887
 3710SOL    HW122766   1.461   3.578  14.872 -0.7785  0.4907  0.3505
 3710SOL    HW222767   1.544   3.663  14.967  0.4960  1.7018 -0.6487
 3711SOL     OW22768   3.628   2.802   8.022 -0.3620  0.0879 -0.1481
 3711SOL    HW122769   3.605   2.783   8.112 -1.9140 -3.0318 -1.2193
 3711SOL    HW222770   3.695   2.867   8.043 -2.8681  3.4705 -2.4905
 3712SOL     OW22771   3.017   0.895   4.995 -0.3190  0.2811 -0.2196
 3712SOL    HW122772   2.987   0.958   5.059  0.4934  2.6335 -2.1670
 3712SOL    HW222773   3.064   0.954   4.936  0.0021 -0.4941 -0.7597
 3713SOL     OW22774   4.342   2.424   3.151 -0.1216 -0.3564  0.1513
 3713SOL    HW122775   4.399   2.492   3.113  1.2396  0.5181  3.7831
 3713SOL    HW222776   4.402   2.351   3.136 -2.6328 -2.6544  1.3034
 3714SOL     OW22777   0.428   3.614   9.733  0.0920  0.1442  0.4845
 3714SOL    HW122778   0.490   3.627   9.661  0.3065  2.9235  1.1837
 3714SOL    HW222779   0.406   3.705   9.751  1.0563  0.4461  0.1580
 3715SOL     OW22780   1.842   1.938   1.670  0.0618  0.1109  0.2323
 3715SOL    HW122781   1.786   2.016   1.669 -1.2835 -0.7969  2.6809
 3715SOL    HW222782   1.855   1.926   1.764 -1.4280 -2.2420  0.1352
 3716SOL     OW22783   0.582   1.022  17.587  0.3041 -0.1471 -0.8217
 3716SOL    HW122784   0.585   0.974  17.670 -2.2135 -0.8052 -1.1145
 3716SOL    HW222785   0.499   1.069  17.593  0.2276 -0.4292  0.3802
 3717SOL     OW22786   3.430   2.609   2.868  0.1982  0.1924 -0.0420
 3717SOL    HW122787   3.366   2.666   2.824 -0.7856 -0.0573  1.0744
 3717SOL    HW222788   3.496   2.592   2.800  0.5932  0.2271  0.3339
 3718SOL     OW22789   4.026   1.610   2.220 -0.5436  0.1964  0.6281
 3718SOL    HW122790   3.990   1.654   2.143 -0.7540  1.9930  1.7498
 3718SOL    HW222791   3.958   1.637   2.282  0.5356 -0.2464  1.9784
 3719SOL     OW22792   3.825   3.551   8.111  0.6793  0.0586  0.3361
 3719SOL    HW122793   3.795   3.579   8.025  2.3759 -0.5162 -0.4416
 3719SOL    HW222794   3.745   3.527   8.158  1.4566 -1.1741  1.0252
 3720SOL     OW22795   1.242   1.875   5.056  0.0025  0.0251 -0.0006
 3720SOL    HW122796   1.192   1.876   4.974 -0.3411  2.2807  0.2581
 3720SOL    HW222797   1.169   1.895   5.114 -0.3010 -1.7479  0.2312
 3721SOL     OW22798   0.311   2.142   8.058  0.0619  0.4799  0.1143
 3721SOL    HW122799   0.227   2.115   8.095 -0.0463  1.2660  0.4295
 3721SOL    HW222800   0.325   2.232   8.085 -1.1685  1.4762 -2.6102
 3722SOL     OW22801   2.312   4.733   1.410 -0.6809 -0.1942  0.2247
 3722SOL    HW122802   2.376   0.067   1.396 -0.2013 -0.5839  0.4683
 3722SOL    HW222803   2.258   0.029   1.482  0.4519  1.5214  0.2984
 3723SOL     OW22804   0.482   1.173   2.683  0.5928 -0.6340 -0.1703
 3723SOL    HW122805   0.566   1.160   2.638  1.4217 -1.7453  1.7050
 3723SOL    HW222806   0.441   1.092   2.652  0.8066  0.0163 -2.1554
 3724SOL     OW22807   1.645   1.278   2.973  0.0082 -1.0674 -0.7204
 3724SOL    HW122808   1.602   1.280   3.059  1.1987 -0.6521 -0.1215
 3724SOL    HW222809   1.701   1.203   2.992  0.8949 -0.0895  0.6390
 3725SOL     OW22810   2.003   2.458   2.937 -0.5363  0.4126 -0.4217
 3725SOL    HW122811   2.023   2.476   3.029 -0.4805 -2.3258  0.1032
 3725SOL    HW222812   1.909   2.474   2.936 -0.8025 -1.1658 -0.5904
 3726SOL     OW22813   1.378   2.501   3.542 -0.2487  0.1792 -0.5869
 3726SOL    HW122814   1.292   2.476   3.574  0.9252 -1.2870  1.4698
 3726SOL    HW222815   1.399   2.424   3.490  1.9566 -0.3293  1.0499
 3727SOL     OW22816   2.910   1.340   7.009  0.2871 -0.9349  0.5053
 3727SOL    HW122817   2.835   1.284   6.988  0.2769  0.4372 -2.9853
 3727SOL    HW222818   2.970   1.298   6.947  0.2042  2.4359 -1.8289
 3728SOL     OW22819   2.742   4.010  16.741  0.4475 -0.3681  0.4866
 3728SOL    HW122820   2.660   3.980  16.780 -1.3693  0.9664 -2.2860
 3728SOL    HW222821   2.803   3.937  16.748  0.2863 -0.5218  0.2837
 3729SOL     OW22822   1.180   2.832   6.369 -0.3108  0.4343  0.4556
 3729SOL    HW122823   1.198   2.843   6.463  1.4078  0.4303  0.1298
 3729SOL    HW222824   1.267   2.859   6.339  0.1827 -1.0067  0.6012
 3730SOL     OW22825   1.886   1.220   7.261 -0.0220 -0.0112 -0.3795
 3730SOL    HW122826   1.915   1.301   7.303  0.7708 -0.2942 -0.3819
 3730SOL    HW222827   1.802   1.237   7.220 -0.3286 -0.1978  0.1645
 3731SOL     OW22828   1.466   2.417   7.866 -0.1852  0.6482 -0.2011
 3731SOL    HW122829   1.374   2.404   7.841 -0.4750 -0.7143  1.5509
 3731SOL    HW222830   1.456   2.506   7.901 -1.3994  0.6517 -0.5404
 3732SOL     OW22831   4.202   1.901  12.523  0.8013  0.8659  0.0134
 3732SOL    HW122832   4.222   1.994  12.516  1.1750  0.7012 -1.1314
 3732SOL    HW222833   4.111   1.907  12.550  1.0112 -1.2949  1.1912
 3733SOL     OW22834   1.142   4.080   3.840 -0.2876 -0.0451  0.0478
 3733SOL    HW122835   1.170   4.133   3.765 -1.4620  2.9751  1.7094
 3733SOL    HW222836   1.094   4.016   3.788  0.3287  1.3612 -2.2655
 3734SOL     OW22837   4.556   1.466   7.811 -0.3000  0.1493 -0.2441
 3734SOL    HW122838   4.567   1.462   7.906  0.0035  1.1495 -0.2384
 3734SOL    HW222839   4.555   1.560   7.796  1.1611  0.3616  0.9849
 3735SOL     OW22840   4.045   4.134   4.338  0.0769  1.1466 -0.2744
 3735SOL    HW122841   3.974   4.106   4.281 -0.6957  0.5549  0.9739
 3735SOL    HW222842   4.088   4.050   4.355  0.2369  1.7399  2.3156
 3736SOL     OW22843   3.673   3.034   1.596  0.0621  0.4710 -0.0787
 3736SOL    HW122844   3.687   2.940   1.608  0.1963  0.7073  1.6046
 3736SOL    HW222845   3.716   3.070   1.673 -1.6849  0.5084  0.8826
 3737SOL     OW22846   4.358   0.922   0.344  0.1465  0.5664 -0.3397
 3737SOL    HW122847   4.357   0.993   0.407  0.5371 -0.9914  1.4282
 3737SOL    HW222848   4.326   0.843   0.389 -0.8204  1.1601  0.0042
 3738SOL     OW22849   3.968   3.321   4.685 -0.2635 -0.2593  0.3485
 3738SOL    HW122850   4.049   3.299   4.731 -0.2226 -0.6649  0.0822
 3738SOL    HW222851   3.922   3.257   4.739  1.5102  0.2288  2.4509
 3739SOL     OW22852   4.674   2.595   5.847  0.3606 -0.5569  0.3625
 3739SOL    HW122853   4.616   2.660   5.807  0.0231  1.1391  3.5517
 3739SOL    HW222854   0.021   2.639   5.831  0.0035  1.0268  2.8234
 3740SOL     OW22855   4.492   4.577  11.920  0.5810  0.0913  0.6472
 3740SOL    HW122856   4.587   4.568  11.912  0.2896 -1.2620 -1.4856
 3740SOL    HW222857   4.473   4.665  11.950 -0.5090  0.2770 -0.5639
 3741SOL     OW22858   0.085   2.382   4.752 -0.0700  0.2610 -0.3179
 3741SOL    HW122859   0.077   2.323   4.677 -0.1170 -0.3599  0.1763
 3741SOL    HW222860   0.086   2.331   4.833 -0.2912 -1.3376 -1.3382
 3742SOL     OW22861   3.343   3.177   5.082  0.0493  0.4750 -0.1697
 3742SOL    HW122862   3.376   3.229   5.009  1.6807 -0.0034  0.2167
 3742SOL    HW222863   3.254   3.212   5.091 -0.9311 -1.9846 -0.3112
 3743SOL     OW22864   0.546   0.581   5.192  0.1111 -0.3884 -0.3492
 3743SOL    HW122865   0.612   0.596   5.124  0.5507 -0.2309  0.1172
 3743SOL    HW222866   0.595   0.609   5.269  1.4233 -0.7289 -1.0623
 3744SOL     OW22867   3.735   0.713   8.109 -0.5423  0.0698 -0.6263
 3744SOL    HW122868   3.744   0.791   8.164 -0.0118  0.9556 -1.9709
 3744SOL    HW222869   3.644   0.728   8.083 -1.0950 -0.9672  0.6933
 3745SOL     OW22870   1.380   3.742  12.103 -0.7706  0.4939 -0.4180
 3745SOL    HW122871   1.420   3.721  12.187  0.9102  1.3196 -1.0118
 3745SOL    HW222872   1.318   3.671  12.084  0.3996 -0.5464 -0.3148
 3746SOL     OW22873   2.105   4.027   4.151  0.0614 -0.3724 -0.2538
 3746SOL    HW122874   2.152   4.040   4.068 -3.5170  2.1211 -1.8781
 3746SOL    HW222875   2.121   3.934   4.167  1.4294 -0.3855 -1.6377
 3747SOL     OW22876   0.407   1.901   7.483 -0.2721  0.1316  0.1042
 3747SOL    HW122877   0.433   1.810   7.497  2.3657  1.1538  1.9637
 3747SOL    HW222878   0.333   1.914   7.543 -0.2931  1.8446 -0.2779
 3748SOL     OW22879   1.869   1.505   3.555 -0.3260  0.4283 -0.1552
 3748SOL    HW122880   1.946   1.472   3.509 -0.7586 -0.4448 -0.2485
 3748SOL    HW222881   1.901   1.495   3.645  1.6096 -0.1953 -0.9148
 3749SOL     OW22882   3.263   0.189   8.714 -0.2167  0.3739  0.4611
 3749SOL    HW122883   3.292   0.198   8.623  0.2196 -1.3442  0.4249
 3749SOL    HW222884   3.208   0.111   8.707  1.4054 -0.6787 -0.7019
 3750SOL     OW22885   3.617   3.853  12.951  0.1286  0.5874 -0.0723
 3750SOL    HW122886   3.641   3.935  12.907  1.4232 -0.2616 -0.9378
 3750SOL    HW222887   3.609   3.800  12.872  0.7055 -0.1618  0.3726
 3751SOL     OW22888   1.612   4.328  12.988  0.4191  0.2747  0.0689
 3751SOL    HW122889   1.516   4.331  12.979  0.3094 -0.7686  0.8867
 3751SOL    HW222890   1.617   4.419  13.015 -2.0533  0.5814 -0.4342
 3752SOL     OW22891   2.720   3.683   8.160  0.8459  0.5508 -0.5518
 3752SOL    HW122892   2.814   3.682   8.143  1.1644 -1.1444  1.4014
 3752SOL    HW222893   2.703   3.603   8.110  0.2014 -1.0509  2.2850
 3753SOL     OW22894   0.920   2.653  16.899 -0.7150  0.7354  0.3379
 3753SOL    HW122895   0.896   2.699  16.818 -2.2459  0.7803  0.8234
 3753SOL    HW222896   0.847   2.593  16.914  0.1547 -0.4568 -0.1219
 3754SOL     OW22897   0.658   1.095  15.899 -0.4642 -0.1935 -0.0874
 3754SOL    HW122898   0.647   1.121  15.991 -0.5262  0.6560 -0.3350
 3754SOL    HW222899   0.748   1.125  15.891 -0.3399 -0.7855 -0.9623
 3755SOL     OW22900   3.618   0.885   6.091 -0.1995 -0.3040  0.0570
 3755SOL    HW122901   3.698   0.860   6.045  0.4037 -0.8174  1.3803
 3755SOL    HW222902   3.601   0.818   6.157  2.6020  0.4364  1.5245
 3756SOL     OW22903   0.740   1.017   4.699  0.2674 -0.8077  0.2233
 3756SOL    HW122904   0.730   0.977   4.786  0.0741 -0.5493  0.3198
 3756SOL    HW222905   0.833   1.033   4.684  0.3255 -1.5027 -0.1845
 3757SOL     OW22906   0.055   3.946   9.350  0.0693  0.5208  0.5658
 3757SOL    HW122907   0.018   4.025   9.309  3.5167  0.9972 -1.6370
 3757SOL    HW222908   0.145   3.972   9.370 -0.2458  1.5196  0.7190
 3758SOL     OW22909   2.654   1.870   2.728 -0.0744  0.1344  0.0575
 3758SOL    HW122910   2.578   1.928   2.714  1.3269  1.5505 -1.6897
 3758SOL    HW222911   2.647   1.804   2.658  1.9904 -0.2743  0.2630
 3759SOL     OW22912   3.689   2.890   4.267  0.0665  0.2451  0.6433
 3759SOL    HW122913   3.763   2.841   4.232  1.6992  2.6373  0.7054
 3759SOL    HW222914   3.669   2.843   4.348  1.2956  2.3776  2.1793
 3760SOL     OW22915   1.040   2.845   2.629  0.4662 -0.0134  0.5715
 3760SOL    HW122916   0.978   2.918   2.636 -1.9474 -2.0243  0.2047
 3760SOL    HW222917   0.978   2.772   2.629 -1.5267  1.6850 -3.8795
 3761SOL     OW22918   3.572   4.273   7.526  0.5741 -0.0679 -0.3265
 3761SOL    HW122919   3.628   4.202   7.557 -2.2313 -1.9793  0.2887
 3761SOL    HW222920   3.518   4.288   7.603  1.7774 -1.5883  0.8181
 3762SOL     OW22921   0.155   2.418   5.856 -1.0562 -0.0128  0.7665
 3762SOL    HW122922   0.178   2.480   5.787  1.5367 -0.3192  1.3641
 3762SOL    HW222923   0.067   2.446   5.880 -0.4022  0.8120  2.2260
 3763SOL     OW22924   0.323   0.766   7.995  0.0728  0.0969 -0.1197
 3763SOL    HW122925   0.365   0.705   7.935  0.7817 -0.5419  1.0077
 3763SOL    HW222926   0.402   0.819   8.004 -0.0222 -0.1442  2.3151
 3764SOL     OW22927   0.249   1.274  16.873  0.3914 -0.2382 -0.7793
 3764SOL    HW122928   0.222   1.286  16.782  3.9438  1.5534 -1.6016
 3764SOL    HW222929   0.202   1.346  16.913  1.9036  0.9886 -1.2148
 3765SOL     OW22930   3.613   0.914  12.540  0.2785  0.2462  0.2543
 3765SOL    HW122931   3.518   0.925  12.542  0.3273  0.2305  3.0461
 3765SOL    HW222932   3.621   0.832  12.590  0.4052  0.7550  1.0592
 3766SOL     OW22933   2.702   1.508   0.579  0.7146 -0.0333  0.3133
 3766SOL    HW122934   2.747   1.434   0.538  0.8155  0.7217 -0.9558
 3766SOL    HW222935   2.736   1.498   0.668  2.5868  1.5951 -0.2241
 3767SOL     OW22936   0.911   3.856   6.267  0.0280  0.5511  0.0912
 3767SOL    HW122937   0.921   3.784   6.205 -0.5990  1.3746 -0.9539
 3767SOL    HW222938   0.906   3.810   6.351  1.5156  1.1992  0.5439
 3768SOL     OW22939   1.728   2.693  10.707 -0.2118  0.2613 -0.4767
 3768SOL    HW122940   1.755   2.626  10.644  0.7785 -1.2533  1.5643
 3768SOL    HW222941   1.718   2.768  10.649  0.5237 -1.2762 -2.5740
 3769SOL     OW22942   0.347   2.762  16.019  0.7176  0.3607  0.0293
 3769SOL    HW122943   0.268   2.755  15.965  0.1087  0.6075  0.8892
 3769SOL    HW222944   0.420   2.740  15.962 -0.0790 -3.6864  0.5823
 3770SOL     OW22945   2.863   0.528  10.815 -0.2867  0.2037  0.3220
 3770SOL    HW122946   2.900   0.443  10.792 -1.1818 -0.2625  0.6091
 3770SOL    HW222947   2.927   0.570  10.873  0.4428  0.2413 -0.4986
 3771SOL     OW22948   3.523   3.266   3.222  0.2072 -0.0915  0.2582
 3771SOL    HW122949   3.573   3.296   3.146 -1.3964 -1.1247 -1.1931
 3771SOL    HW222950   3.585   3.202   3.258  0.4418  0.0959  0.1887
 3772SOL     OW22951   0.223   2.486   0.262  0.1419 -0.1414  0.4054
 3772SOL    HW122952   0.162   2.433   0.313  2.6974  0.2301  3.9118
 3772SOL    HW222953   0.271   2.419   0.212 -0.8753 -0.4629 -0.1313
 3773SOL     OW22954   4.359   1.225   5.427 -0.0094  0.2157  0.4488
 3773SOL    HW122955   4.299   1.276   5.482 -0.1062  1.3844 -0.7531
 3773SOL    HW222956   4.446   1.254   5.455 -0.5246  2.1549  0.0755
 3774SOL     OW22957   0.568   3.214   4.833 -0.1154  0.1702 -0.0911
 3774SOL    HW122958   0.484   3.258   4.816  0.3044  1.1861  0.4984
 3774SOL    HW222959   0.609   3.276   4.893  0.5850  1.1123 -1.5528
 3775SOL     OW22960   2.142   0.003   4.781  0.2390  0.0900 -0.2853
 3775SOL    HW122961   2.183   0.035   4.701  0.9734 -2.0557 -0.7613
 3775SOL    HW222962   2.119   0.087   4.820  0.9564 -0.7297  1.8913
 3776SOL     OW22963   3.562   1.882  17.153 -0.0992  0.3671 -0.1536
 3776SOL    HW122964   3.486   1.936  17.132 -0.9309 -0.4515  0.7562
 3776SOL    HW222965   3.558   1.832  17.072  2.3853 -0.9719  0.5489
 3777SOL     OW22966   3.780   0.557   5.159  0.1633  0.1689  0.0575
 3777SOL    HW122967   3.705   0.575   5.215 -0.5699  1.8427 -1.4694
 3777SOL    HW222968   3.767   0.463   5.148 -1.3832  0.2539  1.1074
 3778SOL     OW22969   3.977   3.903   6.839 -0.0409  0.3033  0.6426
 3778SOL    HW122970   3.951   3.892   6.931 -0.4022 -1.8346  0.2683
 3778SOL    HW222971   3.889   3.921   6.805  0.3825  2.2193  0.5335
 3779SOL     OW22972   2.023   2.892   2.650 -0.0591 -0.5632  0.4470
 3779SOL    HW122973   2.006   2.838   2.727  0.3480 -0.9069  0.2980
 3779SOL    HW222974   2.118   2.896   2.639  0.3447 -0.4976  4.1105
 3780SOL     OW22975   0.968   1.641  12.778  0.2181 -0.0449 -0.0355
 3780SOL    HW122976   0.948   1.548  12.784  1.5494 -0.3020  0.4286
 3780SOL    HW222977   1.008   1.652  12.692  3.8051 -1.4743  1.4580
 3781SOL     OW22978   3.486   3.733  16.223 -0.0312 -0.1595  0.0750
 3781SOL    HW122979   3.487   3.827  16.239 -0.9930 -0.4549  1.8931
 3781SOL    HW222980   3.404   3.732  16.175 -0.3398  0.2878  0.5895
 3782SOL     OW22981   3.514   2.273   2.819  0.3857  0.7615 -0.6522
 3782SOL    HW122982   3.422   2.299   2.828  0.5463  1.9798 -2.3895
 3782SOL    HW222983   3.514   2.263   2.723 -1.1048  0.4336 -0.6096
 3783SOL     OW22984   2.479   3.633   3.277 -0.5936 -0.2455 -0.1419
 3783SOL    HW122985   2.441   3.692   3.342 -1.7043  1.5451 -2.4202
 3783SOL    HW222986   2.502   3.565   3.341 -1.1897 -1.3058 -1.0468
 3784SOL     OW22987   2.307   2.412   1.359 -0.4616  0.0276  0.0777
 3784SOL    HW122988   2.264   2.483   1.407  0.8807  0.3237  0.8431
 3784SOL    HW222989   2.242   2.342   1.371  0.2526 -0.6305  0.1495
 3785SOL     OW22990   0.899   4.313   8.602 -0.0284 -0.1044 -0.0372
 3785SOL    HW122991   0.878   4.405   8.588  0.0702 -0.1762 -0.6489
 3785SOL    HW222992   0.906   4.286   8.511 -1.8444 -0.4722 -0.0696
 3786SOL     OW22993   0.230   0.656   7.460 -0.1510 -0.0179  0.2429
 3786SOL    HW122994   0.226   0.591   7.390  0.5931 -0.3865  0.5521
 3786SOL    HW222995   0.191   0.601   7.528 -1.3133  1.8804  1.1192
 3787SOL     OW22996   1.026   1.572   6.884  0.3506  0.3791 -0.1671
 3787SOL    HW122997   1.003   1.648   6.830  1.2547  0.6699 -0.1463
 3787SOL    HW222998   0.939   1.536   6.899  0.5658 -0.4936 -1.0049
 3788SOL     OW22999   2.488   0.860  11.454  0.6539 -0.0107 -0.3241
 3788SOL    HW123000   2.464   0.934  11.399  1.0628  0.8847  0.7059
 3788SOL    HW223001   2.559   0.825  11.400  0.1904  0.7419 -1.4097
 3789SOL     OW23002   1.911   2.830   7.206  0.0136 -0.6285  0.0218
 3789SOL    HW123003   1.919   2.762   7.273 -1.6418 -3.6377 -2.8634
 3789SOL    HW223004   1.817   2.827   7.188  0.0303 -1.2936  0.0261
 3790SOL     OW23005   3.500   1.336   2.682 -0.7399 -0.4362  0.6750
 3790SOL    HW123006   3.439   1.394   2.728  0.8720  2.2173 -0.5366
 3790SOL    HW223007   3.553   1.395   2.628 -1.8803  0.0940  0.1076
 3791SOL     OW23008   1.062   1.040   9.212 -0.7007  0.3937 -0.7797
 3791SOL    HW123009   1.138   1.014   9.264 -0.1074  1.1029 -1.2904
 3791SOL    HW223010   1.043   1.132   9.230 -1.8865 -0.6440  3.1850
 3792SOL     OW23011   1.491   3.834   5.711 -0.1164 -0.1456 -0.6795
 3792SOL    HW123012   1.508   3.908   5.652 -0.2981  0.2061 -0.2966
 3792SOL    HW223013   1.572   3.830   5.761 -1.3199  3.4686  1.5870
 3793SOL     OW23014   4.199   1.367   5.591  0.5543 -0.2893 -0.0868
 3793SOL    HW123015   4.236   1.438   5.539 -1.9158  1.1831  0.1280
 3793SOL    HW223016   4.106   1.390   5.583  0.0120 -2.3674  0.2585
 3794SOL     OW23017   1.677   1.264   8.449  0.1138  0.1111  0.3074
 3794SOL    HW123018   1.748   1.265   8.385 -0.0645 -1.1132  0.0891
 3794SOL    HW223019   1.655   1.357   8.442 -0.4165 -0.1485 -1.3084
 3795SOL     OW23020   0.976   0.206   5.825 -0.3545  0.1031 -0.0136
 3795SOL    HW123021   1.002   0.295   5.849 -2.5738  1.0420 -1.0676
 3795SOL    HW223022   0.995   0.218   5.732 -1.4153  1.9944  0.0204
 3796SOL     OW23023   3.924   2.753   7.037 -0.2047 -0.4360  0.1677
 3796SOL    HW123024   4.002   2.698   7.050 -1.7947 -1.9893  3.1952
 3796SOL    HW223025   3.969   2.832   7.007  0.1198 -0.5812  0.2622
 3797SOL     OW23026   1.037   4.001   8.892 -0.3402 -0.5263 -0.0600
 3797SOL    HW123027   1.009   3.920   8.934  0.6852 -0.4451  0.7561
 3797SOL    HW223028   1.120   4.009   8.939 -1.6461  1.3197  1.9404
 3798SOL     OW23029   2.367   4.029   3.599 -0.2621  0.2198  0.5250
 3798SOL    HW123030   2.304   4.012   3.669  0.8566 -0.4418  1.3886
 3798SOL    HW223031   2.370   4.125   3.599 -0.3532  0.2223  0.8120
 3799SOL     OW23032   4.115   4.700   2.956  0.2135  0.4437  0.5261
 3799SOL    HW123033   4.065   4.646   3.016  0.9472 -0.6430  0.1641
 3799SOL    HW223034   4.201   4.659   2.962  0.7380  1.5236  0.5112
 3800SOL     OW23035   1.957   3.886   7.495  0.2995 -0.1612  0.5204
 3800SOL    HW123036   1.940   3.955   7.431  1.0103 -2.0864 -1.7517
 3800SOL    HW223037   1.990   3.939   7.567 -0.2448  3.6891 -2.0439
 3801SOL     OW23038   0.802   3.082   4.566 -0.5272  0.2512 -0.1376
 3801SOL    HW123039   0.734   3.085   4.499 -0.3802 -0.5615 -0.3234
 3801SOL    HW223040   0.805   2.989   4.589  0.8309  0.1014 -0.8894
 3802SOL     OW23041   2.029   0.331   7.692 -0.8960  0.6762  0.2368
 3802SOL    HW123042   2.020   0.236   7.699 -0.0372  0.5487 -0.2567
 3802SOL    HW223043   2.048   0.355   7.782  1.7059 -1.4597  0.2690
 3803SOL     OW23044   2.868   2.779   6.843 -0.0058  0.5598 -0.4338
 3803SOL    HW123045   2.953   2.783   6.799 -0.0669 -1.1763 -0.7122
 3803SOL    HW223046   2.837   2.869   6.831 -2.8617 -0.3841 -0.2118
 3804SOL     OW23047   3.556   3.857   3.861 -0.1538 -0.8632 -0.0655
 3804SOL    HW123048   3.515   3.785   3.909  1.1606 -3.1077 -2.2895
 3804SOL    HW223049   3.514   3.850   3.775 -0.2864 -1.0211  0.0118
 3805SOL     OW23050   1.178   4.112   9.142 -0.0701 -0.1423 -0.0298
 3805SOL    HW123051   1.237   4.187   9.130  0.2377 -0.6159 -1.4948
 3805SOL    HW223052   1.221   4.070   9.217  0.3894 -0.8315 -0.6761
 3806SOL     OW23053   4.181   1.592   8.859  0.4424  0.0963 -0.2903
 3806SOL    HW123054   4.213   1.678   8.885  3.4659 -0.9276 -0.5823
 3806SOL    HW223055   4.171   1.538   8.937 -0.7254 -1.3521 -1.4362
 3807SOL     OW23056   2.520   3.124   7.495  0.8146 -0.1826  0.7229
 3807SOL    HW123057   2.603   3.111   7.450  0.1243  2.5337 -1.3494
 3807SOL    HW223058   2.466   3.078   7.431  1.7521  1.0605 -0.9812
 3808SOL     OW23059   0.807   2.694   9.103  0.0066  0.8091 -0.7567
 3808SOL    HW123060   0.804   2.770   9.045 -0.0793 -0.3763 -2.3243
 3808SOL    HW223061   0.788   2.626   9.037  2.6266 -0.3274 -0.3115
 3809SOL     OW23062   3.900   0.510   2.672 -0.6152  0.3552 -0.0085
 3809SOL    HW123063   3.927   0.435   2.726 -0.4681  1.7423  1.8808
 3809SOL    HW223064   3.978   0.564   2.689  0.7150 -0.7584 -2.6410
 3810SOL     OW23065   4.695   1.533   8.826  0.1186 -0.1715 -0.2681
 3810SOL    HW123066   4.715   1.454   8.775 -0.6455 -0.7541  0.3376
 3810SOL    HW223067   0.035   1.566   8.874 -0.0296  1.0948 -0.9085
 3811SOL     OW23068   3.040   0.404   5.659 -0.1522  0.2162  0.1990
 3811SOL    HW123069   2.977   0.340   5.625 -1.9855  1.8595  0.5110
 3811SOL    HW223070   3.014   0.426   5.748  0.5704  0.3560  0.3741
 3812SOL     OW23071   2.777   1.268   3.889 -0.2386 -0.9581 -0.2687
 3812SOL    HW123072   2.768   1.219   3.971  0.4716  1.7179  1.3853
 3812SOL    HW223073   2.765   1.357   3.921  0.1244 -1.8264  2.2384
 3813SOL     OW23074   3.735   1.099   3.458 -0.3778 -0.2663  0.8163
 3813SOL    HW123075   3.802   1.064   3.516  0.7724 -0.6601 -0.7364
 3813SOL    HW223076   3.782   1.103   3.375 -1.6564  0.5115  0.1340
 3814SOL     OW23077   3.746   3.571   2.450  0.1267  0.0156  0.1090
 3814SOL    HW123078   3.694   3.639   2.494  1.4167  0.5171  0.8433
 3814SOL    HW223079   3.830   3.577   2.496  0.9043 -0.0664 -1.3265
 3815SOL     OW23080   0.150   2.686  12.643  0.3522  0.0729 -0.1342
 3815SOL    HW123081   0.160   2.616  12.708  0.5129  0.0728 -0.1608
 3815SOL    HW223082   0.231   2.669  12.596  0.6026 -1.5270  0.8847
 3816SOL     OW23083   2.701   0.067   0.212  0.0449  0.4475 -0.5356
 3816SOL    HW123084   2.710   0.129   0.140 -1.2727 -1.9484 -2.7864
 3816SOL    HW223085   2.791   0.053   0.239 -0.5651 -0.4359  1.0983
 3817SOL     OW23086   1.060   2.012   8.727 -0.5642 -1.0033  0.1478
 3817SOL    HW123087   1.109   2.080   8.679 -2.0231  0.1765  0.3126
 3817SOL    HW223088   0.980   2.065   8.725  0.3063  0.3668  1.4598
 3818SOL     OW23089   0.358   3.035  16.101 -0.1591 -0.7707  0.4888
 3818SOL    HW123090   0.361   2.941  16.083 -0.1690 -1.0981  2.2355
 3818SOL    HW223091   0.293   3.038  16.171 -0.5849  0.0552  0.0656
 3819SOL     OW23092   0.520   1.328   6.342  0.6490  0.2198 -0.5748
 3819SOL    HW123093   0.595   1.291   6.387  0.6532  1.6315  0.5860
 3819SOL    HW223094   0.539   1.303   6.252  0.7518  1.1080 -0.8012
 3820SOL     OW23095   0.684   1.923  12.831  0.5489 -0.4730  0.3932
 3820SOL    HW123096   0.773   1.891  12.814  0.6966 -0.7270  1.6749
 3820SOL    HW223097   0.687   1.902  12.924  3.4702  0.8188  0.6041
 3821SOL     OW23098   3.449   0.093   5.681 -0.0013 -0.0732  0.0276
 3821SOL    HW123099   3.472   0.002   5.659 -0.6894 -0.4111  0.7082
 3821SOL    HW223100   3.379   0.121   5.623  0.8567  2.6642  0.2962
 3822SOL     OW23101   3.168   0.107  10.522  0.2788 -0.4989 -0.3252
 3822SOL    HW123102   3.229   0.098  10.596  2.3597  0.9517 -1.8623
 3822SOL    HW223103   3.211   0.182  10.480 -1.3161  0.5121 -0.1546
 3823SOL     OW23104   4.649   3.138   5.682 -0.0059  0.3270  0.6507
 3823SOL    HW123105   4.706   3.094   5.745 -1.6467 -1.1173  1.1247
 3823SOL    HW223106   4.672   3.230   5.696  2.1935  0.1813 -1.8220
 3824SOL     OW23107   4.383   4.285   5.132  0.1782 -0.4166 -0.2455
 3824SOL    HW123108   4.456   4.313   5.187 -0.3140  0.1724  0.1030
 3824SOL    HW223109   4.385   4.359   5.072  1.4762 -0.9666 -0.8968
 3825SOL     OW23110   2.302   3.925   7.543  0.2774 -0.0707 -0.4152
 3825SOL    HW123111   2.257   4.002   7.578 -0.0551 -1.2828  1.8609
 3825SOL    HW223112   2.296   3.936   7.448 -1.9306  0.9351 -0.1617
 3826SOL     OW23113   4.168   1.853   1.949 -0.2591 -0.3545  0.2425
 3826SOL    HW123114   4.171   1.936   1.997 -0.4923  0.1739 -0.6337
 3826SOL    HW223115   4.227   1.800   2.002 -0.0878  0.8400  1.2680
 3827SOL     OW23116   1.371   4.168   5.739  0.2457  0.4708 -0.4147
 3827SOL    HW123117   1.383   4.261   5.760 -0.4781  0.8512 -1.6652
 3827SOL    HW223118   1.459   4.132   5.744 -1.1857 -3.4254 -3.3876
 3828SOL     OW23119   4.709   3.594   5.829  0.0416  0.3388  0.5211
 3828SOL    HW123120   0.067   3.588   5.820 -0.2179 -0.9400 -1.5259
 3828SOL    HW223121   4.677   3.526   5.769 -1.5228 -0.3043  2.0658
 3829SOL     OW23122   3.078   3.277   5.098 -0.1693  0.0961  0.1193
 3829SOL    HW123123   3.101   3.343   5.032 -1.3203  0.7312  0.3447
 3829SOL    HW223124   3.034   3.330   5.164  0.3171 -0.4680  0.8939
 3830SOL     OW23125   4.050   0.025  14.358  0.6764  0.3235  0.1384
 3830SOL    HW123126   4.060   4.713  14.275 -0.6058  0.1024  0.1109
 3830SOL    HW223127   3.990   4.705  14.407 -0.9615  1.1664 -0.8670
 3831SOL     OW23128   2.766   3.882   5.795 -0.3940  0.3677  0.1229
 3831SOL    HW123129   2.812   3.862   5.877 -1.7900  2.3759  1.3854
 3831SOL    HW223130   2.735   3.972   5.807  2.3868  1.5880 -1.7802
 3832SOL     OW23131   4.239   1.802   8.120  0.7690  0.1412  0.7286
 3832SOL    HW123132   4.285   1.885   8.131 -0.7520  0.9881  0.5560
 3832SOL    HW223133   4.154   1.825   8.158  0.7323  1.1286  0.0294
 3833SOL     OW23134   1.251   0.182   6.802 -0.2982  0.6805  0.3760
 3833SOL    HW123135   1.273   0.274   6.817  0.7661  0.4421  0.2968
 3833SOL    HW223136   1.263   0.165   6.895 -0.7852  0.4547  0.3971
 3834SOL     OW23137   3.812   0.916   6.989 -0.0652 -0.4457  0.2412
 3834SOL    HW123138   3.782   0.901   6.900 -0.8624 -1.1480  0.6258
 3834SOL    HW223139   3.736   0.888   7.040  0.3552 -0.2212  1.0054
 3835SOL     OW23140   4.524   1.741   7.696  0.0020 -0.1262  0.6734
 3835SOL    HW123141   4.497   1.792   7.773 -3.0409  0.9964 -1.1477
 3835SOL    HW223142   4.439   1.729   7.654 -0.2432 -2.2551  1.7678
 3836SOL     OW23143   1.151   2.799  11.684  0.4263 -0.5949 -0.5958
 3836SOL    HW123144   1.071   2.755  11.713  0.0319  0.6491  0.2078
 3836SOL    HW223145   1.213   2.731  11.660  1.6405  0.7702 -1.3419
 3837SOL     OW23146   2.962   1.167   0.814  0.3852 -0.0537 -0.5140
 3837SOL    HW123147   3.042   1.202   0.776  0.8746 -1.5293 -0.8730
 3837SOL    HW223148   2.905   1.243   0.800 -0.3122 -0.4765  0.0303
 3838SOL     OW23149   2.881   2.576  13.143 -0.0899  0.2592  0.2949
 3838SOL    HW123150   2.891   2.670  13.152 -2.0727  0.5993 -1.1582
 3838SOL    HW223151   2.950   2.543  13.201  0.7512 -0.9797 -1.4276
 3839SOL     OW23152   0.307   1.923   3.138  0.0551  0.1910  0.3156
 3839SOL    HW123153   0.349   1.839   3.121  2.7131  1.5385  0.1772
 3839SOL    HW223154   0.216   1.899   3.155  0.0552  1.0477  1.4652
 3840SOL     OW23155   0.822   1.961   2.964 -0.4103  0.3053 -0.1723
 3840SOL    HW123156   0.812   1.867   2.954 -1.0527  0.0366  2.8495
 3840SOL    HW223157   0.906   1.964   3.009  0.3992 -0.9468 -1.6357
 3841SOL     OW23158   0.157   3.171   5.422  0.0302  0.2753  0.8782
 3841SOL    HW123159   0.240   3.141   5.459 -0.1139  0.4520  1.3499
 3841SOL    HW223160   0.119   3.085   5.403 -0.5764  1.1057 -1.6237
 3842SOL     OW23161   0.874   2.946   6.617 -0.3976  0.0751  0.2662
 3842SOL    HW123162   0.883   3.041   6.611 -0.1741  0.0306 -0.0808
 3842SOL    HW223163   0.823   2.929   6.538 -0.8740  0.5145  0.4796
 3843SOL     OW23164   0.297   4.004   4.220 -0.1231  0.5044 -0.1938
 3843SOL    HW123165   0.242   4.075   4.252  1.9286  2.5391 -1.1417
 3843SOL    HW223166   0.386   4.028   4.246  0.4073 -2.8253  1.1187
 3844SOL     OW23167   3.926   0.838   1.396  0.2784 -0.7633  0.1869
 3844SOL    HW123168   3.915   0.753   1.439 -0.5101 -1.8651 -2.1769
 3844SOL    HW223169   3.833   0.857   1.381  0.4003 -0.7553 -0.5660
 3845SOL     OW23170   2.193   0.092  13.237 -0.1566  0.2255  0.3476
 3845SOL    HW123171   2.209   0.154  13.308  0.1693  2.3912 -1.6061
 3845SOL    HW223172   2.277   0.120  13.201 -0.9378  1.3379 -0.6561
 3846SOL     OW23173   3.477   4.230   9.136 -1.0423  0.3352  0.0560
 3846SOL    HW123174   3.491   4.144   9.096  0.2725  0.1680  0.8720
 3846SOL    HW223175   3.538   4.216   9.209 -0.6156  2.2223  0.0699
 3847SOL     OW23176   2.598   0.310   8.394  0.3448 -0.3077  0.1817
 3847SOL    HW123177   2.601   0.216   8.377  0.4628 -0.0022 -1.4622
 3847SOL    HW223178   2.510   0.321   8.430 -0.4516 -0.5020 -1.6946
 3848SOL     OW23179   2.699   0.559   5.082 -0.1424 -0.0947  0.1275
 3848SOL    HW123180   2.714   0.465   5.090  0.2834 -0.0760 -0.5102
 3848SOL    HW223181   2.645   0.581   5.158  1.1957 -0.1464  1.0890
 3849SOL     OW23182   4.445   1.850  15.977  0.2734 -0.4004  0.1638
 3849SOL    HW123183   4.537   1.862  15.955  0.6805  0.7074  2.4630
 3849SOL    HW223184   4.408   1.874  15.892 -0.1389  2.3043  1.1141
 3850SOL     OW23185   0.111   0.026   3.371 -0.2054 -0.0008 -0.1927
 3850SOL    HW123186   0.076   0.029   3.282 -1.4925 -0.7720  0.2916
 3850SOL    HW223187   0.115   4.668   3.389 -1.6457 -0.5830 -3.0084
 3851SOL     OW23188   3.901   1.948   2.650 -0.1256 -1.1043 -0.0285
 3851SOL    HW123189   3.971   2.006   2.622  0.4074 -2.3594 -1.2896
 3851SOL    HW223190   3.951   1.881   2.696  0.1530 -1.2985 -0.6182
 3852SOL     OW23191   0.792   3.731   8.339 -0.3343 -0.2001  0.4142
 3852SOL    HW123192   0.868   3.776   8.302  0.9752 -1.2838  1.8355
 3852SOL    HW223193   0.769   3.682   8.260  0.0972  0.7050 -0.2775
 3853SOL     OW23194   0.091   3.058  11.480  0.0429 -0.0525 -0.5274
 3853SOL    HW123195   0.105   3.030  11.389 -1.5262  0.3847 -0.8875
 3853SOL    HW223196   0.056   3.146  11.467 -2.5316 -1.0226 -0.1030
 3854SOL     OW23197   1.462   3.574  12.318  0.3606 -0.1201  0.3654
 3854SOL    HW123198   1.432   3.624  12.394 -2.8196 -1.3891 -0.0562
 3854SOL    HW223199   1.500   3.496  12.359  1.2666 -0.1265 -0.4971
 3855SOL     OW23200   1.055   1.544   8.008 -0.2969 -0.3252  0.2975
 3855SOL    HW123201   1.147   1.567   8.002 -0.9751  1.9961 -1.4058
 3855SOL    HW223202   1.064   1.451   8.027 -0.4818 -0.0475  1.7760
 3856SOL     OW23203   3.306   0.525   1.891  0.0128  0.0524  0.6647
 3856SOL    HW123204   3.369   0.499   1.824  1.4118  1.2329  1.5183
 3856SOL    HW223205   3.357   0.579   1.951  0.7594 -0.9423  0.9151
 3857SOL     OW23206   3.280   0.397   2.456  0.2788  0.7182  0.2548
 3857SOL    HW123207   3.229   0.460   2.405  1.0009 -1.4624 -3.1795
 3857SOL    HW223208   3.304   0.446   2.534  0.2556  0.0827  0.6586
 3858SOL     OW23209   0.488   0.119   1.340 -0.1793 -0.4049 -0.1966
 3858SOL    HW123210   0.396   0.108   1.365  0.2121 -3.3321 -0.0523
 3858SOL    HW223211   0.500   0.030   1.307 -0.5539 -0.9413  1.1356
 3859SOL     OW23212   1.704   2.307   5.288 -0.3676 -0.0900 -0.1477
 3859SOL    HW123213   1.635   2.367   5.261 -1.7886 -1.2096  0.9731
 3859SOL    HW223214   1.740   2.265   5.210  0.2898  1.3611 -0.6276
 3860SOL     OW23215   2.001   0.554   8.468  0.1337  0.2788 -0.4078
 3860SOL    HW123216   2.088   0.581   8.439  0.4392  0.0365  0.2790
 3860SOL    HW223217   1.971   0.483   8.411 -0.8606  0.0278  0.4175
 3861SOL     OW23218   2.114   3.910   6.037  0.5690 -0.0535  0.1517
 3861SOL    HW123219   2.120   3.838   5.974 -0.9231  1.0812 -1.2723
 3861SOL    HW223220   2.045   3.881   6.096  0.8750  0.4028  0.7265
 3862SOL     OW23221   2.473   2.638   1.215  0.4468 -0.2352  0.2213
 3862SOL    HW123222   2.407   2.696   1.175 -0.9856 -2.8820 -1.2639
 3862SOL    HW223223   2.440   2.551   1.194 -0.1644 -0.4531  2.0965
 3863SOL     OW23224   4.721   3.829   4.935  0.1183 -0.5244 -0.3263
 3863SOL    HW123225   4.681   3.750   4.898  0.1690 -0.0911 -1.3073
 3863SOL    HW223226   4.682   3.844   5.021  0.8432  2.5153 -0.5302
 3864SOL     OW23227   2.754   1.195   4.862  0.0034  0.5090  0.5567
 3864SOL    HW123228   2.739   1.101   4.852  1.2664  0.7214 -3.2094
 3864SOL    HW223229   2.662   1.216   4.880 -0.5747 -1.0025 -0.6052
 3865SOL     OW23230   4.736   0.578   8.761 -0.0774  0.7248  0.3445
 3865SOL    HW123231   4.641   0.581   8.750 -0.2056 -1.8959  0.6796
 3865SOL    HW223232   0.007   0.633   8.839  2.6829 -3.1446  2.8532
 3866SOL     OW23233   4.633   0.183  13.566 -0.4564  0.2595 -0.4236
 3866SOL    HW123234   4.565   0.187  13.498 -1.6885  2.3859  0.9288
 3866SOL    HW223235   4.687   0.104  13.556  1.2793  1.2487  1.3398
 3867SOL     OW23236   1.555   2.828   3.985 -0.1419  0.5043 -0.4114
 3867SOL    HW123237   1.644   2.804   4.011 -0.5674 -1.2080 -0.5030
 3867SOL    HW223238   1.559   2.819   3.890  2.9594 -2.4163 -0.0006
 3868SOL     OW23239   0.281   1.531  12.970 -0.0607 -0.5917  0.5598
 3868SOL    HW123240   0.254   1.508  13.059  0.3035  0.9658  1.0728
 3868SOL    HW223241   0.275   1.626  12.976 -0.8623 -0.7536  2.4690
 3869SOL     OW23242   4.580   3.716   6.332 -0.3214 -0.4316  0.3840
 3869SOL    HW123243   4.614   3.696   6.245 -2.6287 -0.4769 -0.5182
 3869SOL    HW223244   4.636   3.781   6.373  0.1542 -0.4645 -0.2109
 3870SOL     OW23245   3.405   4.619   3.221  0.2285 -0.1237 -0.4404
 3870SOL    HW123246   3.362   4.697   3.188  0.7384  0.3849  0.0915
 3870SOL    HW223247   3.436   4.653   3.305  2.5958 -1.1985 -0.8801
 3871SOL     OW23248   4.356   1.108   7.254 -0.5510 -0.8783 -0.6168
 3871SOL    HW123249   4.404   1.180   7.212 -1.1983  1.9495  3.5036
 3871SOL    HW223250   4.295   1.155   7.310 -0.5221 -0.0377 -1.2887
 3872SOL     OW23251   3.785   3.741   3.913  0.0287  0.3364  0.4034
 3872SOL    HW123252   3.852   3.782   3.859  0.4337 -1.6141 -0.5568
 3872SOL    HW223253   3.702   3.781   3.888  0.8887  0.9792 -1.3336
 3873SOL     OW23254   3.785   4.262   7.350 -0.4161  0.1471 -0.2333
 3873SOL    HW123255   3.708   4.297   7.393  0.1865 -0.4013  1.2801
 3873SOL    HW223256   3.829   4.202   7.410  2.5593  2.1384 -0.3878
 3874SOL     OW23257   0.630   3.487   2.024  0.1520 -0.3781  0.2651
 3874SOL    HW123258   0.645   3.410   1.970  1.3485  0.7100 -0.9486
 3874SOL    HW223259   0.535   3.484   2.033 -0.2277  1.6628 -3.0766
 3875SOL     OW23260   0.523   4.585   6.629  0.1468 -0.1130  0.2691
 3875SOL    HW123261   0.486   4.673   6.626 -0.9095 -0.5238  1.2779
 3875SOL    HW223262   0.543   4.575   6.536 -0.0531  0.1809  0.1960
 3876SOL     OW23263   0.699   4.703   4.579 -0.4675 -0.0951 -0.4774
 3876SOL    HW123264   0.607   4.711   4.602 -0.9039 -1.9205 -1.6334
 3876SOL    HW223265   0.694   4.637   4.510  0.0960 -0.6588  0.0110
 3877SOL     OW23266   2.580   1.470  13.025 -0.4598  0.1065 -0.1198
 3877SOL    HW123267   2.539   1.553  13.050  1.2609  0.7286  0.6263
 3877SOL    HW223268   2.608   1.440  13.112 -0.3265  0.4954 -0.0283
 3878SOL     OW23269   0.950   0.068   8.980 -0.0038 -0.0792  0.3896
 3878SOL    HW123270   0.958   0.158   9.012 -0.5488 -0.2122  0.8932
 3878SOL    HW223271   0.857   0.059   8.999 -0.2930 -0.6158 -1.3457
 3879SOL     OW23272   2.164   2.992   8.665  0.1900 -0.2243  0.0005
 3879SOL    HW123273   2.161   3.072   8.717  0.3519  0.8036 -1.5527
 3879SOL    HW223274   2.123   2.928   8.723 -0.1590  0.3316  0.3638
 3880SOL     OW23275   0.427   2.125   4.570  0.0615 -0.1546  0.7450
 3880SOL    HW123276   0.466   2.173   4.498  1.4851 -0.2291  1.4650
 3880SOL    HW223277   0.439   2.196   4.634 -0.1235  1.2641 -0.8148
 3881SOL     OW23278   0.732   2.239   5.935 -0.2778 -0.6920  0.0017
 3881SOL    HW123279   0.637   2.244   5.947 -0.3578 -1.6542 -0.2146
 3881SOL    HW223280   0.726   2.154   5.893  1.0300 -0.5356 -0.5161
 3882SOL     OW23281   3.426   3.059   6.670 -0.2565  0.2097 -0.4301
 3882SOL    HW123282   3.422   3.147   6.709  0.6798 -0.3127  0.8384
 3882SOL    HW223283   3.334   3.033   6.675  0.0221 -0.4793  0.9952
 3883SOL     OW23284   0.245   1.079   9.602  0.6597  0.1479 -0.1268
 3883SOL    HW123285   0.325   1.032   9.626  1.2637  1.8353  1.1540
 3883SOL    HW223286   0.276   1.162   9.566  3.1605 -0.2915  0.9855
 3884SOL     OW23287   0.117   4.247   3.249  0.3837  0.2310 -0.0900
 3884SOL    HW123288   0.183   4.278   3.187  2.8379 -0.8128  2.0033
 3884SOL    HW223289   0.049   4.305   3.215  1.5445  1.4955 -0.2535
 3885SOL     OW23290   2.586   3.782   1.840 -0.2163 -0.2245  0.0380
 3885SOL    HW123291   2.637   3.828   1.774  2.4111 -2.2038  0.7006
 3885SOL    HW223292   2.610   3.832   1.919  1.6599  0.3984 -0.9302
 3886SOL     OW23293   1.981   1.901  12.411  0.5067 -0.0181 -0.1956
 3886SOL    HW123294   2.044   1.963  12.375  0.9275  0.0444  0.6596
 3886SOL    HW223295   2.002   1.822  12.360  2.9031  0.1390  0.5501
 3887SOL     OW23296   1.372   0.324   3.452  0.3331  0.1266  0.1602
 3887SOL    HW123297   1.323   0.244   3.433 -0.1653  0.7377 -1.1365
 3887SOL    HW223298   1.424   0.282   3.520  0.8952 -4.2640 -2.9548
 3888SOL     OW23299   1.595   1.931   9.337 -0.1705 -0.2481 -0.1830
 3888SOL    HW123300   1.589   1.897   9.426 -0.7871  0.6889  0.1392
 3888SOL    HW223301   1.593   1.845   9.296  1.6462  0.8153 -2.4865
 3889SOL     OW23302   1.315   2.499   8.638 -0.4576 -0.1517 -0.0547
 3889SOL    HW123303   1.244   2.464   8.583  0.8816 -0.8347 -1.3413
 3889SOL    HW223304   1.320   2.445   8.718 -1.2928 -1.7903 -1.1070
 3890SOL     OW23305   0.077   1.120  13.329  0.3667 -0.1129  0.1137
 3890SOL    HW123306   0.056   1.101  13.238  0.4775 -1.0434  0.2873
 3890SOL    HW223307   4.733   1.150  13.371 -0.1927  2.3603 -2.7257
 3891SOL     OW23308   3.010   0.329   4.849 -0.0644  0.0311 -0.6009
 3891SOL    HW123309   3.048   0.258   4.798  2.1293  0.6022  0.2310
 3891SOL    HW223310   2.992   0.297   4.937  0.9347  0.2801 -0.3026
 3892SOL     OW23311   1.481   0.719  13.368 -0.1348  0.1924  0.1522
 3892SOL    HW123312   1.410   0.729  13.305 -0.2149 -0.0424  0.2030
 3892SOL    HW223313   1.507   0.627  13.367  1.2268  0.5904 -1.6111
 3893SOL     OW23314   4.432   1.404   6.727  0.5374 -0.1915 -0.1802
 3893SOL    HW123315   4.430   1.345   6.652  0.0985  0.9349 -1.0622
 3893SOL    HW223316   4.524   1.427   6.741  0.4379  0.6391 -0.9052
 3894SOL     OW23317   4.225   4.643  16.482 -0.0117  0.2997 -0.1328
 3894SOL    HW123318   4.316   4.614  16.476 -0.7262 -2.2153  1.0832
 3894SOL    HW223319   4.186   4.578  16.424 -3.0227  1.5729  0.4711
 3895SOL     OW23320   1.635   1.940   5.555  0.5954 -0.0751  0.1089
 3895SOL    HW123321   1.619   1.853   5.593 -0.7313  0.0367 -0.1653
 3895SOL    HW223322   1.644   1.916   5.463  0.2655  1.0528 -0.2108
 3896SOL     OW23323   2.164   4.125   6.955  0.3102  0.5561 -0.0074
 3896SOL    HW123324   2.136   4.058   7.018 -1.2126  0.0156 -1.2430
 3896SOL    HW223325   2.217   4.068   6.899  0.3243  0.7456 -0.1872
 3897SOL     OW23326   0.568   2.180   8.889  0.1899  0.2338  0.1435
 3897SOL    HW123327   0.505   2.116   8.919 -0.0767 -0.8340 -2.6532
 3897SOL    HW223328   0.540   2.264   8.926 -0.2781  0.4831 -0.7813
 3898SOL     OW23329   3.821   3.747   1.273 -0.0174  0.5887  0.2733
 3898SOL    HW123330   3.763   3.700   1.213 -0.0833  0.0041  0.7921
 3898SOL    HW223331   3.786   3.836   1.264 -0.8501  0.4554  2.1430
 3899SOL     OW23332   1.503   0.076   9.638 -0.4492  0.1520 -0.5394
 3899SOL    HW123333   1.568   0.145   9.649 -2.0206  1.3625  1.0458
 3899SOL    HW223334   1.422   0.120   9.663  0.1000 -0.6228  2.5726
 3900SOL     OW23335   3.062   2.023   3.732  0.3856  0.1649  0.5592
 3900SOL    HW123336   3.148   2.023   3.774 -0.9323  1.8603  3.2345
 3900SOL    HW223337   3.087   2.055   3.645  1.3119 -1.2535  0.3047
 3901SOL     OW23338   4.483   1.624   6.194  0.0210  0.2414 -0.3518
 3901SOL    HW123339   4.427   1.681   6.142 -0.1631  0.4639  0.0949
 3901SOL    HW223340   4.569   1.625   6.152  0.9713  0.0343  1.6030
 3902SOL     OW23341   3.730   4.449   4.173  0.5410 -0.0367  0.0455
 3902SOL    HW123342   3.767   4.526   4.215  0.1167  0.0481  0.2640
 3902SOL    HW223343   3.811   4.410   4.140  1.2630  1.6111 -0.1385
 3903SOL     OW23344   0.883   2.479   8.755  0.0783 -0.4409 -0.2409
 3903SOL    HW123345   0.924   2.558   8.790 -0.9831  0.8642 -1.9792
 3903SOL    HW223346   0.793   2.492   8.785 -0.1830 -0.9716 -0.8011
 3904SOL     OW23347   3.821   4.107   7.050  0.0390 -0.2705  0.3594
 3904SOL    HW123348   3.763   4.106   6.974  0.8528  1.8903 -0.2699
 3904SOL    HW223349   3.813   4.017   7.083 -0.5120  0.5164  2.3689
 3905SOL     OW23350   3.395   4.381   5.139  0.0082 -0.4699  0.4458
 3905SOL    HW123351   3.398   4.376   5.234  0.2195 -1.9386  0.3597
 3905SOL    HW223352   3.431   4.469   5.128 -0.5868 -0.1815  0.8271
 3906SOL     OW23353   1.278   2.497   5.862  0.1574  0.3735  0.8889
 3906SOL    HW123354   1.292   2.527   5.951  3.5677 -0.8818  0.7811
 3906SOL    HW223355   1.237   2.577   5.829  0.0997  0.2919  0.7619
 3907SOL     OW23356   2.928   0.734   2.907 -0.2004  0.1086 -0.0961
 3907SOL    HW123357   2.898   0.648   2.878 -0.4522 -0.0455  0.6117
 3907SOL    HW223358   2.963   0.705   2.991  2.2240 -0.4401 -1.2938
 3908SOL     OW23359   0.391   3.511   3.215  0.3296  0.2650 -0.3164
 3908SOL    HW123360   0.345   3.496   3.297  0.4670  0.0866 -0.2722
 3908SOL    HW223361   0.337   3.582   3.180 -1.6142 -1.6169 -1.1717
 3909SOL     OW23362   4.615   0.843   6.006 -0.3358 -0.8577  0.5442
 3909SOL    HW123363   4.550   0.777   5.982 -1.1419 -0.2110  0.9826
 3909SOL    HW223364   4.563   0.922   5.995 -2.4037 -2.1790  0.8052
 3910SOL     OW23365   3.024   0.485  16.715  0.1934 -0.1168  0.1611
 3910SOL    HW123366   2.972   0.543  16.659  0.5725  0.8328  0.7954
 3910SOL    HW223367   3.016   0.406  16.663 -0.5833 -0.9350  1.5301
 3911SOL     OW23368   2.979   4.005   8.168 -0.4548  0.4023 -0.1112
 3911SOL    HW123369   2.891   4.002   8.204 -0.2386 -0.4071  0.3416
 3911SOL    HW223370   3.025   3.947   8.229 -0.9994 -0.3906 -0.4550
 3912SOL     OW23371   3.097   2.586   1.993  0.3871 -0.3486  0.1513
 3912SOL    HW123372   3.108   2.492   1.984  0.5332 -0.5281  2.1206
 3912SOL    HW223373   3.183   2.618   2.020  1.1928 -1.9983 -0.4804
 3913SOL     OW23374   1.016   4.414   8.030 -0.2973  0.2480  0.0920
 3913SOL    HW123375   0.945   4.355   8.056 -0.6843  0.2402 -0.9781
 3913SOL    HW223376   1.003   4.423   7.936 -1.0106 -0.3018  0.1394
 3914SOL     OW23377   2.684   2.966   0.471 -0.2734  0.3251  0.2338
 3914SOL    HW123378   2.766   2.975   0.519  1.0912  0.3529 -2.1078
 3914SOL    HW223379   2.703   3.001   0.385  2.7812 -1.3037  0.2513
 3915SOL     OW23380   0.166   2.859   8.064  0.0630 -0.2656  0.4228
 3915SOL    HW123381   0.112   2.780   8.069  0.1453 -0.3620 -0.2106
 3915SOL    HW223382   0.100   2.922   8.092 -0.9043 -2.1734  2.4280
 3916SOL     OW23383   3.387   0.001   1.670 -0.0162 -0.5425 -0.5777
 3916SOL    HW123384   3.428   4.691   1.597 -0.0897 -0.0412 -0.9317
 3916SOL    HW223385   3.453   4.718   1.736 -1.5968 -0.6673  0.9907
 3917SOL     OW23386   1.566   4.163   2.246 -0.0523  1.0658 -0.6214
 3917SOL    HW123387   1.536   4.143   2.157 -2.3225 -0.1140  0.4178
 3917SOL    HW223388   1.652   4.123   2.234  0.7201  2.0866  1.5785
 3918SOL     OW23389   1.192   0.315   8.113 -0.7397  0.1196  0.1821
 3918SOL    HW123390   1.112   0.271   8.142  0.5387 -2.2205  0.1575
 3918SOL    HW223391   1.184   0.392   8.169 -1.8602  0.1472  0.0029
 3919SOL     OW23392   3.285   3.913   3.161  0.3127 -0.6119 -0.6347
 3919SOL    HW123393   3.259   3.929   3.252  2.9975  0.9959 -0.1235
 3919SOL    HW223394   3.373   3.952   3.165 -0.2218  0.5752 -0.5650
 3920SOL     OW23395   0.563   4.083   6.218  0.1046 -0.1344 -0.0389
 3920SOL    HW123396   0.628   4.140   6.260  1.0290 -2.5382  1.8004
 3920SOL    HW223397   0.521   4.048   6.297 -0.4721  0.6491  0.0069
 3921SOL     OW23398   0.921   1.519  17.428 -0.5981 -0.3702  0.3550
 3921SOL    HW123399   0.915   1.459  17.353  1.1652 -2.0203  1.5263
 3921SOL    HW223400   0.830   1.511  17.457 -0.4783  0.4937  0.9379
 3922SOL     OW23401   3.365   3.124  11.315 -0.0583 -0.1912 -0.4265
 3922SOL    HW123402   3.353   3.064  11.388  0.6353 -0.1921 -0.3204
 3922SOL    HW223403   3.300   3.191  11.337 -0.2757 -1.1066  1.6549
 3923SOL     OW23404   0.434   1.669   2.220  0.3565 -0.1223  0.0554
 3923SOL    HW123405   0.499   1.624   2.167  2.0021  1.3598  0.7797
 3923SOL    HW223406   0.499   1.709   2.279 -1.1410 -0.5171  1.9993
 3924SOL     OW23407   0.547   2.690   2.067  0.2806  0.6071  0.6366
 3924SOL    HW123408   0.525   2.657   1.980  1.0466 -0.1772  0.7416
 3924SOL    HW223409   0.642   2.687   2.067  0.3036  1.1667  1.4096
 3925SOL     OW23410   0.277   0.347   8.627  0.5138 -0.0606  0.4418
 3925SOL    HW123411   0.337   0.421   8.627  0.5019 -0.0527 -1.2063
 3925SOL    HW223412   0.232   0.378   8.549  0.4829  0.3607  0.6254
 3926SOL     OW23413   3.235   1.952  10.000  0.3344  0.0755 -0.2374
 3926SOL    HW123414   3.266   1.911  10.081 -2.4500  0.5269  1.0745
 3926SOL    HW223415   3.267   1.887   9.938 -0.1580  0.1136 -0.5342
 3927SOL     OW23416   3.251   1.147   5.611 -0.4117  0.2630 -0.3624
 3927SOL    HW123417   3.207   1.066   5.637  1.1328  0.1454  1.8870
 3927SOL    HW223418   3.331   1.133   5.663 -1.5413 -3.8579  0.3132
 3928SOL     OW23419   1.340   2.994   4.033  0.2329  0.1999  0.1823
 3928SOL    HW123420   1.420   2.944   4.016  0.9702  1.0207  1.2339
 3928SOL    HW223421   1.287   2.983   3.954  1.6694  0.0772 -0.7842
 3929SOL     OW23422   2.669   2.905   8.342  0.4611 -0.0673 -0.3305
 3929SOL    HW123423   2.625   2.893   8.258  1.0067  1.8885 -0.8924
 3929SOL    HW223424   2.610   2.937   8.409  0.6851  1.7137 -0.9971
 3930SOL     OW23425   0.677   3.758   7.892 -0.6398 -0.3803  0.6523
 3930SOL    HW123426   0.686   3.689   7.826 -0.0584 -0.8128  1.1743
 3930SOL    HW223427   0.734   3.828   7.861  0.0995  0.1122  3.0529
 3931SOL     OW23428   0.852   3.465   5.604  0.2498 -0.3692  0.1042
 3931SOL    HW123429   0.774   3.463   5.659  0.1544  1.6696  0.0444
 3931SOL    HW223430   0.899   3.546   5.627  0.4500 -0.4895  0.1215
 3932SOL     OW23431   1.820   0.430   1.979  0.1129  0.2599 -0.0667
 3932SOL    HW123432   1.775   0.470   2.053 -0.7910  1.1249 -1.0832
 3932SOL    HW223433   1.899   0.404   2.026  0.0409  1.4363  0.7196
 3933SOL     OW23434   3.177   4.593   2.334 -0.0262 -0.2450 -0.1760
 3933SOL    HW123435   3.268   4.622   2.337  0.1724 -0.5648 -2.6298
 3933SOL    HW223436   3.171   4.553   2.421 -1.9402  2.6230  0.9987
 3934SOL     OW23437   3.452   2.036   7.036 -0.0996 -0.1760  0.1837
 3934SOL    HW123438   3.512   1.963   7.052 -1.0766 -1.1464 -0.5623
 3934SOL    HW223439   3.419   2.035   7.125 -0.4930  0.8685  0.0458
 3935SOL     OW23440   2.150   0.270   6.160  0.3156 -0.5101  0.2562
 3935SOL    HW123441   2.191   0.356   6.172  0.3045 -0.3671 -0.7000
 3935SOL    HW223442   2.093   0.250   6.235 -0.8948 -2.8748 -1.3093
 3936SOL     OW23443   0.147   4.006   3.845  0.1398 -0.2239  0.0953
 3936SOL    HW123444   0.082   3.991   3.776 -0.9546 -0.1347  1.0928
 3936SOL    HW223445   0.086   4.040   3.911  0.3651 -2.0852  1.2619
 3937SOL     OW23446   4.248   4.340   6.343  0.1740 -0.0990  0.2835
 3937SOL    HW123447   4.311   4.365   6.275  0.4224  0.5486  0.7429
 3937SOL    HW223448   4.258   4.409   6.409 -2.1476  0.3851  0.1346
 3938SOL     OW23449   3.540   4.573  11.118  0.3388 -0.4511  0.3032
 3938SOL    HW123450   3.523   4.520  11.041  0.3692  1.2146 -0.8582
 3938SOL    HW223451   3.622   4.537  11.151 -0.0962 -0.3916  1.4552
 3939SOL     OW23452   3.716   0.752   5.719 -0.0544  0.3719 -0.2302
 3939SOL    HW123453   3.793   0.808   5.731 -1.0622  1.1067  2.7748
 3939SOL    HW223454   3.757   0.673   5.756  2.7402  1.7216 -0.4658
 3940SOL     OW23455   1.023   0.727  13.186 -0.4818 -0.0143  0.3000
 3940SOL    HW123456   0.958   0.759  13.124  0.1527 -1.0669 -0.9073
 3940SOL    HW223457   1.074   0.699  13.110  1.1930  1.4387  0.8982
 3941SOL     OW23458   0.266   3.044  11.721 -0.8099 -0.6401  0.3268
 3941SOL    HW123459   0.195   3.048  11.656 -1.3562 -2.0597  0.8236
 3941SOL    HW223460   0.334   3.091  11.673 -0.3919 -1.6939 -0.1116
 3942SOL     OW23461   2.712   2.726   5.061 -0.1729 -0.0704 -0.6087
 3942SOL    HW123462   2.777   2.744   5.129 -0.1589  1.1924 -0.9469
 3942SOL    HW223463   2.758   2.663   5.006  2.2410 -0.4629  1.8584
 3943SOL     OW23464   3.288   2.394  15.071  0.3315 -0.5439  0.9438
 3943SOL    HW123465   3.292   2.387  14.976  0.2765 -0.4014  0.9304
 3943SOL    HW223466   3.202   2.358  15.089  0.2783 -0.3273  1.1247
 3944SOL     OW23467   1.744   0.398   3.502  0.6388 -0.4223  0.3552
 3944SOL    HW123468   1.720   0.311   3.471  2.3359 -0.5576 -0.5497
 3944SOL    HW223469   1.757   0.445   3.420 -0.3969 -0.8622 -0.0605
 3945SOL     OW23470   4.652   0.554   2.747  0.5136 -0.2945  0.1181
 3945SOL    HW123471   4.600   0.505   2.811 -0.8161 -0.4046 -1.0496
 3945SOL    HW223472   4.641   0.648   2.766  1.2240 -0.3927  1.0105
 3946SOL     OW23473   2.366   2.192   8.028 -0.1133 -1.1709 -0.3835
 3946SOL    HW123474   2.330   2.221   8.112  0.2829 -1.6761 -0.0400
 3946SOL    HW223475   2.442   2.139   8.055 -0.9560 -1.5095  1.3559
 3947SOL     OW23476   0.811   0.330  11.626 -0.5091  0.3461  0.5805
 3947SOL    HW123477   0.886   0.295  11.577 -0.9554 -1.2295  1.0167
 3947SOL    HW223478   0.744   0.262  11.626 -0.3852  0.2241  0.5353
 3948SOL     OW23479   1.083   3.912   3.376 -0.5270  0.5534  0.2496
 3948SOL    HW123480   1.070   4.003   3.401 -1.2375  0.6587 -0.4740
 3948SOL    HW223481   1.002   3.873   3.409  0.0450 -0.7867  0.0839
 3949SOL     OW23482   3.663   1.731   5.978 -0.0464 -0.0879 -0.3472
 3949SOL    HW123483   3.680   1.700   6.067 -0.1634  1.2433  0.1316
 3949SOL    HW223484   3.674   1.644   5.939  1.7324  0.2397 -0.5411
 3950SOL     OW23485   2.446   2.372   3.478 -0.0450  0.3630  0.0029
 3950SOL    HW123486   2.435   2.368   3.573 -2.4622 -1.7206 -0.3549
 3950SOL    HW223487   2.432   2.282   3.448 -1.8048  0.5101  0.3502
 3951SOL     OW23488   4.333   4.085   4.820 -0.4592 -0.1247  0.4711
 3951SOL    HW123489   4.348   4.004   4.770  0.1713  0.1016  0.2932
 3951SOL    HW223490   4.314   4.051   4.907  3.3866 -0.2903  1.2408
 3952SOL     OW23491   0.378   0.463  10.297  0.2988 -0.2662 -0.2600
 3952SOL    HW123492   0.360   0.532  10.361 -0.5316 -1.4607  0.8046
 3952SOL    HW223493   0.390   0.384  10.351  0.7442 -0.3364 -0.4584
 3953SOL     OW23494   0.266   2.911  10.786  0.7592 -0.9864  0.1742
 3953SOL    HW123495   0.344   2.879  10.831 -0.1861 -2.3407  0.8471
 3953SOL    HW223496   0.208   2.837  10.806 -0.2361  0.3368  2.1943
 3954SOL     OW23497   2.585   0.766   2.622 -0.1112  0.4524  0.2676
 3954SOL    HW123498   2.644   0.690   2.629 -0.5113  0.4728  3.8039
 3954SOL    HW223499   2.507   0.734   2.576  0.6327 -0.7581 -0.1661
 3955SOL     OW23500   0.157   1.089   5.459  0.2718  0.4960  0.7952
 3955SOL    HW123501   0.187   1.009   5.416 -0.9615  1.2282 -1.4482
 3955SOL    HW223502   0.068   1.067   5.485  0.2955 -0.7773 -0.1505
 3956SOL     OW23503   2.816   2.346  14.511 -0.1359 -0.1168 -0.0773
 3956SOL    HW123504   2.737   2.370  14.560 -2.1963 -2.0649 -2.4494
 3956SOL    HW223505   2.789   2.262  14.474 -1.2950 -0.0467  0.6025
 3957SOL     OW23506   1.992   0.870  14.318  0.1906  0.5220 -0.1007
 3957SOL    HW123507   1.953   0.958  14.320  0.7724  0.8043 -1.5575
 3957SOL    HW223508   2.079   0.893  14.352 -0.8303  2.7829  1.0246
 3958SOL     OW23509   2.096   2.189   9.488 -0.1080  0.6318 -0.3351
 3958SOL    HW123510   2.119   2.270   9.444 -1.2611  1.6434  0.8867
 3958SOL    HW223511   2.074   2.230   9.572 -0.3692 -1.4516  0.6072
 3959SOL     OW23512   1.356   1.725   8.120  0.3126 -0.6267  0.1505
 3959SOL    HW123513   1.313   1.751   8.202 -1.5760  1.7714 -1.5759
 3959SOL    HW223514   1.445   1.708   8.150  0.6873  0.1141 -0.5373
 3960SOL     OW23515   0.398   1.805  16.180  0.1107 -0.1724 -0.2872
 3960SOL    HW123516   0.462   1.877  16.176 -1.4227  1.0995 -1.5849
 3960SOL    HW223517   0.432   1.755  16.255  2.1989  0.8349 -0.5593
 3961SOL     OW23518   1.628   1.443  12.531 -0.2783 -0.0318  0.8377
 3961SOL    HW123519   1.693   1.511  12.546 -1.0499  1.0485 -0.6862
 3961SOL    HW223520   1.646   1.394  12.611  1.1717  2.1497  1.8380
 3962SOL     OW23521   3.391   0.122   7.935 -0.2483  0.0108  0.4959
 3962SOL    HW123522   3.397   0.076   8.018  0.5537  0.8570  0.8991
 3962SOL    HW223523   3.436   0.204   7.954 -1.6605  0.7663  0.5719
 3963SOL     OW23524   1.317   2.735   8.505  0.1926  0.2441 -0.2475
 3963SOL    HW123525   1.324   2.708   8.414  0.3685 -1.1027  0.1649
 3963SOL    HW223526   1.314   2.650   8.549  0.8242 -1.5619 -3.6983
 3964SOL     OW23527   4.067   1.357   9.375  0.2303 -0.4901  0.2695
 3964SOL    HW123528   4.045   1.272   9.336  0.0369  0.0361 -0.7820
 3964SOL    HW223529   4.049   1.342   9.468 -1.6675 -1.1994 -0.2143
 3965SOL     OW23530   2.130   4.246  14.831 -0.3272  0.2381  0.0804
 3965SOL    HW123531   2.164   4.304  14.763 -1.9393  3.1877  1.7642
 3965SOL    HW223532   2.162   4.162  14.797  0.0989  0.7218 -0.6923
 3966SOL     OW23533   3.524   4.583  10.710  0.8497  0.7590 -0.1770
 3966SOL    HW123534   3.460   4.652  10.693  1.1444  0.6903 -1.5665
 3966SOL    HW223535   3.507   4.555  10.800  0.9451  1.5979  0.0992
 3967SOL     OW23536   0.433   2.253   8.634  0.8394  0.1249 -0.1653
 3967SOL    HW123537   0.495   2.213   8.694  0.9266 -1.1618 -1.1133
 3967SOL    HW223538   0.398   2.179   8.584  0.1198  0.1206  0.3443
 3968SOL     OW23539   4.642   1.025   7.116 -0.1960 -0.6489  0.0632
 3968SOL    HW123540   4.709   1.077   7.160  0.7542 -0.9770 -0.9983
 3968SOL    HW223541   4.558   1.070   7.110  0.4255  0.8847  2.5781
 3969SOL     OW23542   1.449   3.488   8.624 -0.4905 -0.5766  0.5002
 3969SOL    HW123543   1.388   3.438   8.679 -0.2416 -1.0865  0.3127
 3969SOL    HW223544   1.490   3.416   8.576  1.1379  1.1348 -0.6473
 3970SOL     OW23545   4.406   0.434   8.929 -0.4462 -0.3864 -0.2428
 3970SOL    HW123546   4.423   0.476   8.844  2.8763  0.5142  0.8751
 3970SOL    HW223547   4.421   0.342   8.910 -1.0651 -0.2035 -1.6387
 3971SOL     OW23548   1.518   0.107   0.288  0.3881  0.3128  0.5569
 3971SOL    HW123549   1.590   0.128   0.348 -1.7867  2.4920  2.3952
 3971SOL    HW223550   1.495   0.195   0.259 -0.2377  0.1880  0.6874
 3972SOL     OW23551   2.548   1.548   6.244  0.2445 -0.0500 -0.0513
 3972SOL    HW123552   2.618   1.564   6.180 -0.0108  0.4715 -0.2024
 3972SOL    HW223553   2.528   1.455   6.232 -0.0895 -0.0248  0.3319
 3973SOL     OW23554   2.486   3.182   8.039 -0.8134  0.4714  0.2882
 3973SOL    HW123555   2.443   3.267   8.028 -1.5709  0.0787  0.2522
 3973SOL    HW223556   2.572   3.203   8.078  0.4559  0.2766 -2.4262
 3974SOL     OW23557   1.079   4.014   4.102  0.5645 -0.2060 -0.0198
 3974SOL    HW123558   1.169   4.022   4.131  0.4102  0.3658  0.3041
 3974SOL    HW223559   1.094   4.020   4.007  0.4840 -3.4646 -0.2342
 3975SOL     OW23560   3.313   3.892   8.075  0.2251  0.1155 -0.3939
 3975SOL    HW123561   3.376   3.931   8.135 -0.0155  0.0575 -0.1034
 3975SOL    HW223562   3.231   3.938   8.093  0.3288  0.5182 -0.9747
 3976SOL     OW23563   2.128   2.747  15.061  0.1569  0.0232  0.4431
 3976SOL    HW123564   2.047   2.698  15.043 -0.1092  0.3145  0.8437
 3976SOL    HW223565   2.120   2.804  14.985 -1.0488  1.1610  1.4123
 3977SOL     OW23566   0.653   4.709   6.875  0.1978 -0.1613 -0.4556
 3977SOL    HW123567   0.642   4.645   6.805  0.1635 -0.6299 -0.0201
 3977SOL    HW223568   0.651   4.665   6.960  0.5650  0.9661  0.1349
 3978SOL     OW23569   1.300   2.608   7.302  0.3477 -0.3201 -0.0319
 3978SOL    HW123570   1.257   2.611   7.387 -1.4079 -1.7272 -0.8554
 3978SOL    HW223571   1.241   2.662   7.248 -0.1575 -0.8297  0.0070
 3979SOL     OW23572   2.002   1.057   7.994 -0.2656  0.1620 -0.2359
 3979SOL    HW123573   2.017   1.085   8.085  1.2804  0.2786 -0.5205
 3979SOL    HW223574   1.989   0.962   7.999 -2.4347  0.4299 -1.0177
 3980SOL     OW23575   1.297   1.588   5.056 -0.4702  0.7227 -0.3551
 3980SOL    HW123576   1.363   1.544   5.109 -2.3888 -0.9440  0.6185
 3980SOL    HW223577   1.329   1.678   5.064 -0.9041  0.8523 -0.0852
 3981SOL     OW23578   3.397   0.846  14.586 -0.2733  0.6833 -0.1308
 3981SOL    HW123579   3.320   0.875  14.537  0.0350  0.1891 -0.8972
 3981SOL    HW223580   3.382   0.877  14.676 -2.8455  3.3458 -1.4581
 3982SOL     OW23581   0.452   3.766   6.407 -0.7830  0.0240  0.3672
 3982SOL    HW123582   0.494   3.774   6.322  1.7753  1.0039  1.7479
 3982SOL    HW223583   0.501   3.692   6.444  0.6965  0.4053 -0.8321
 3983SOL     OW23584   1.940   1.675   4.126 -0.3147  0.6283 -0.1981
 3983SOL    HW123585   2.035   1.664   4.122 -0.6303 -1.0896 -2.7424
 3983SOL    HW223586   1.950   1.768   4.148 -3.8568  1.1081 -0.6705
 3984SOL     OW23587   1.036   3.091   4.688 -0.1670  0.1419 -0.0550
 3984SOL    HW123588   1.093   3.017   4.667  1.2933  1.5747 -1.1628
 3984SOL    HW223589   0.953   3.086   4.642  0.2900  1.6662 -1.0539
 3985SOL     OW23590   1.825   3.126   4.260  0.0561 -0.3381 -0.1092
 3985SOL    HW123591   1.790   3.134   4.349  0.6798 -1.0447  0.1941
 3985SOL    HW223592   1.920   3.132   4.274 -0.2386  1.8938  0.9084
 3986SOL     OW23593   2.417   2.422   7.865 -0.7103  0.0084  0.2890
 3986SOL    HW123594   2.399   2.340   7.910 -2.1210  0.7305  1.0457
 3986SOL    HW223595   2.379   2.475   7.935  1.6436 -0.8063  2.2016
 3987SOL     OW23596   3.845   3.625   3.471  0.1830 -0.8932  0.2089
 3987SOL    HW123597   3.774   3.623   3.407  1.7022  0.6610 -1.5243
 3987SOL    HW223598   3.878   3.714   3.470 -0.7701 -0.5189  1.2390
 3988SOL     OW23599   1.207   2.764   0.727 -0.1895  0.0537 -0.4188
 3988SOL    HW123600   1.160   2.713   0.660  1.1739  0.0383 -1.3646
 3988SOL    HW223601   1.296   2.734   0.709 -0.5054 -0.2126 -1.5446
 3989SOL     OW23602   3.849   0.189   4.168 -0.4884  0.2921 -0.4135
 3989SOL    HW123603   3.849   0.236   4.251 -1.4615  2.1577 -1.4568
 3989SOL    HW223604   3.922   0.238   4.130 -0.2142 -0.8019 -1.2877
 3990SOL     OW23605   0.527   4.412   7.294  0.1000 -0.2632 -0.0787
 3990SOL    HW123606   0.450   4.435   7.346  2.0754  0.9238  2.3185
 3990SOL    HW223607   0.499   4.336   7.243 -0.7481 -0.6195  0.8954
 3991SOL     OW23608   2.043   3.830   9.083 -0.0565  0.6051  0.2211
 3991SOL    HW123609   2.099   3.894   9.038 -0.1484  1.0911  0.8019
 3991SOL    HW223610   1.991   3.792   9.012 -1.7078  0.4726  1.5137
 3992SOL     OW23611   1.825   1.134  12.276  0.3098 -0.6221  0.4009
 3992SOL    HW123612   1.886   1.061  12.261 -1.9292 -2.0516 -1.9778
 3992SOL    HW223613   1.871   1.190  12.338 -0.5297 -1.0296  1.3880
 3993SOL     OW23614   1.757   3.210   6.621  0.0208 -0.4285 -0.0815
 3993SOL    HW123615   1.714   3.265   6.687 -2.5598 -4.0334  1.2072
 3993SOL    HW223616   1.827   3.178   6.678 -0.8696 -0.0547  1.2035
 3994SOL     OW23617   3.851   1.954  12.285 -0.5535 -1.2934 -0.1052
 3994SOL    HW123618   3.775   1.947  12.343 -1.7217  2.0460 -1.2890
 3994SOL    HW223619   3.868   1.861  12.267  1.9779 -0.4069 -2.2881
 3995SOL     OW23620   3.203   2.640   1.575 -0.1843  0.1485  0.6687
 3995SOL    HW123621   3.186   2.732   1.592  1.1028 -0.0249  2.8818
 3995SOL    HW223622   3.288   2.640   1.530  0.3397  2.1399  1.6789
 3996SOL     OW23623   1.335   2.086   4.141 -0.2333  0.3372 -0.0268
 3996SOL    HW123624   1.240   2.084   4.154 -0.4487 -0.6081 -1.7321
 3996SOL    HW223625   1.358   2.159   4.199 -3.5618  1.1341  0.2822
 3997SOL     OW23626   1.873   3.999   9.189  0.8766 -0.7559 -0.3545
 3997SOL    HW123627   1.932   3.932   9.154  0.4781 -0.4244 -1.6800
 3997SOL    HW223628   1.909   4.071   9.136 -0.0994  0.1980  0.2913
 3998SOL     OW23629   2.152   3.949  15.850  0.8028 -0.6201 -0.0407
 3998SOL    HW123630   2.106   3.867  15.834 -1.4355  0.4374  1.0409
 3998SOL    HW223631   2.163   3.954  15.945  0.5380 -0.3221 -0.0263
 3999SOL     OW23632   2.924   0.158   5.972  0.4471  0.0150 -0.2278
 3999SOL    HW123633   2.872   0.108   6.034  0.8182  0.7311  0.6696
 3999SOL    HW223634   3.013   0.158   6.009  1.5969  0.6193 -2.9834
 4000SOL     OW23635   0.792   3.205   7.054 -0.7458 -0.6323  0.0102
 4000SOL    HW123636   0.825   3.223   6.966 -0.5712 -0.7336  0.0550
 4000SOL    HW223637   0.731   3.278   7.065 -0.5569 -0.9273  2.8514
 4001SOL     OW23638   2.927   1.761   2.462 -0.0754  0.4359  0.1141
 4001SOL    HW123639   2.846   1.742   2.414  0.6209  1.4658 -1.4731
 4001SOL    HW223640   2.957   1.681   2.504  0.2591  0.6851  0.3471
 4002SOL     OW23641   0.383   0.919   7.123 -0.1602 -0.1697 -0.4908
 4002SOL    HW123642   0.404   1.012   7.134 -2.1988  0.2402 -0.1133
 4002SOL    HW223643   0.399   0.903   7.030 -2.7391  0.0002 -0.9774
 4003SOL     OW23644   2.778   3.810   5.517 -0.2512 -0.2030 -0.1614
 4003SOL    HW123645   2.709   3.852   5.570 -1.4409 -1.0835 -1.0182
 4003SOL    HW223646   2.840   3.784   5.585  0.3306  3.7207  0.8190
 4004SOL     OW23647   1.331   4.465   9.470  0.3643 -0.2075  0.1556
 4004SOL    HW123648   1.352   4.433   9.557  1.3613 -1.4868 -0.5599
 4004SOL    HW223649   1.236   4.479   9.469  0.6742  1.8911 -0.0767
 4005SOL     OW23650   2.302   2.012   4.575 -0.2021 -0.0650 -0.6492
 4005SOL    HW123651   2.241   1.941   4.596 -0.2097 -0.5078 -2.2076
 4005SOL    HW223652   2.240   2.085   4.574  3.2363  2.8599 -0.2985
 4006SOL     OW23653   4.029   1.396  12.026  0.2691  0.1112 -0.6051
 4006SOL    HW123654   3.984   1.314  12.046 -2.2351  1.9647  1.3107
 4006SOL    HW223655   4.049   1.417  12.117 -1.5120  1.7258 -0.5861
 4007SOL     OW23656   1.878   1.288   0.113 -0.1644  0.4076  0.1481
 4007SOL    HW123657   1.954   1.230   0.118 -1.0365 -0.7532 -0.0384
 4007SOL    HW223658   1.833   1.282   0.197 -1.5389 -1.3846 -0.7077
 4008SOL     OW23659   1.769   0.559   9.360  0.0229 -0.2304  0.6787
 4008SOL    HW123660   1.811   0.560   9.446 -0.2843 -0.5719  0.8317
 4008SOL    HW223661   1.809   0.640   9.328  1.2115 -1.4087 -0.8175
 4009SOL     OW23662   1.370   2.953   2.348  0.3303 -0.0060  0.2225
 4009SOL    HW123663   1.359   2.927   2.439 -0.5002  1.6297  0.5883
 4009SOL    HW223664   1.280   2.935   2.319 -0.0154  1.5700  0.3125
 4010SOL     OW23665   4.627   1.891   6.700 -0.0394  0.0376  0.5035
 4010SOL    HW123666   4.532   1.883   6.710 -0.0767 -0.4590 -0.2376
 4010SOL    HW223667   4.629   1.839   6.620 -4.2400  0.8997 -0.1864
 4011SOL     OW23668   3.676   0.870  17.603 -0.1756  0.0455  0.0334
 4011SOL    HW123669   3.764   0.882  17.639 -0.5150  0.1642  0.8405
 4011SOL    HW223670   3.692   0.797  17.544 -0.7487 -1.0459  1.2356
 4012SOL     OW23671   0.205   0.206   3.791  0.2332 -0.7414 -0.5110
 4012SOL    HW123672   0.118   0.211   3.829 -0.6242 -2.3648 -2.2590
 4012SOL    HW223673   0.196   0.122   3.746 -1.3766 -0.0826 -1.4073
 4013SOL     OW23674   0.512   4.188   1.967 -0.0363  0.0720  0.0996
 4013SOL    HW123675   0.482   4.103   2.001  1.1278 -0.1582  0.5909
 4013SOL    HW223676   0.481   4.176   1.878  1.8786  1.7664 -0.7930
 4014SOL     OW23677   2.344   4.160  10.851 -0.6274 -0.6126 -0.1257
 4014SOL    HW123678   2.415   4.138  10.791 -0.1439  1.6813 -0.4058
 4014SOL    HW223679   2.317   4.244  10.814 -1.7058 -0.7784  0.2768
 4015SOL     OW23680   1.431   0.486   8.758  0.0787  0.2504 -0.3045
 4015SOL    HW123681   1.461   0.424   8.825 -1.0892 -0.8395 -0.7985
 4015SOL    HW223682   1.474   0.566   8.789  0.0581  0.0633  0.2195
 4016SOL     OW23683   0.232   3.682  14.583 -0.8824  0.4480  0.2809
 4016SOL    HW123684   0.202   3.597  14.614 -0.5565 -0.0530 -0.7981
 4016SOL    HW223685   0.220   3.678  14.489  0.2659 -2.9245  0.2805
 4017SOL     OW23686   1.246   0.497  10.986  0.6026  0.6347 -0.4306
 4017SOL    HW123687   1.218   0.576  10.941 -1.8260 -0.4536 -0.7840
 4017SOL    HW223688   1.162   0.468  11.020 -0.1863  1.6701 -1.5142
 4018SOL     OW23689   1.044   2.066  17.189  0.2083 -0.5136  0.3722
 4018SOL    HW123690   0.984   2.011  17.139 -0.3300 -0.7411  1.2638
 4018SOL    HW223691   1.000   2.081  17.273  1.0332  2.2245  0.3202
 4019SOL     OW23692   1.773   3.494  10.659  0.0373  0.3929 -0.2615
 4019SOL    HW123693   1.864   3.466  10.662  0.1222  0.8112  1.4696
 4019SOL    HW223694   1.778   3.585  10.688 -0.5664  0.5433 -0.6221
 4020SOL     OW23695   4.497   2.958   4.942 -0.1246 -0.0071 -0.2501
 4020SOL    HW123696   4.575   2.920   4.983  0.6325 -0.2983 -1.9207
 4020SOL    HW223697   4.443   2.962   5.020  1.3319  0.6735  0.7243
 4021SOL     OW23698   1.146   3.024   0.705 -0.2516  0.3362 -0.1381
 4021SOL    HW123699   1.150   3.018   0.610  0.1581 -0.1358 -0.0910
 4021SOL    HW223700   1.167   2.931   0.716 -0.8419  0.3112  0.8265
 4022SOL     OW23701   2.047   1.542   6.616  0.0044 -0.4714  0.5380
 4022SOL    HW123702   2.111   1.492   6.565 -0.3903 -0.2828 -0.1322
 4022SOL    HW223703   2.026   1.609   6.551  3.1097 -0.6005 -0.6083
 4023SOL     OW23704   2.681   4.624  15.733 -0.3577 -0.0726  0.2132
 4023SOL    HW123705   2.712   4.559  15.670  0.2874 -0.7741  1.2495
 4023SOL    HW223706   2.728   4.703  15.709 -0.2172 -0.6019 -1.2481
 4024SOL     OW23707   1.865   2.541  14.668 -0.5475 -0.2083 -0.0104
 4024SOL    HW123708   1.771   2.547  14.655 -0.7230 -3.3548 -0.1423
 4024SOL    HW223709   1.872   2.448  14.689 -0.7824  0.3432  2.5376
 4025SOL     OW23710   4.055   4.581   4.771 -0.2942  0.1347  0.0761
 4025SOL    HW123711   4.106   4.624   4.840 -2.1578 -0.0733  1.5787
 4025SOL    HW223712   4.021   4.657   4.723 -0.8943  0.5337  1.1034
 4026SOL     OW23713   3.054   4.228   9.146 -0.1739 -0.4527  0.6065
 4026SOL    HW123714   3.068   4.235   9.240  0.7346 -0.7524  0.4939
 4026SOL    HW223715   3.071   4.318   9.117 -0.9326 -0.4120  0.2881
 4027SOL     OW23716   2.126   4.031   0.525 -0.2774 -0.1664  0.0410
 4027SOL    HW123717   2.092   3.956   0.572 -0.5447 -0.3015 -0.3651
 4027SOL    HW223718   2.045   4.056   0.481 -0.4243 -1.8244 -0.6227
 4028SOL     OW23719   1.820   3.549   4.974  0.1543 -0.1290 -0.7394
 4028SOL    HW123720   1.881   3.613   4.937  0.2245 -0.5530 -1.3423
 4028SOL    HW223721   1.855   3.532   5.062 -1.1186 -0.6389 -0.3289
 4029SOL     OW23722   1.676   2.590   5.907 -0.0413  0.1744  0.2993
 4029SOL    HW123723   1.735   2.662   5.926 -1.1336  1.3366 -0.6796
 4029SOL    HW223724   1.630   2.587   5.991 -2.2210 -0.3069 -0.8954
 4030SOL     OW23725   0.500   3.867   7.527  0.0357  0.5831  0.0782
 4030SOL    HW123726   0.591   3.897   7.522  0.0674  0.4126 -0.4300
 4030SOL    HW223727   0.464   3.925   7.594 -1.3785  0.6876 -0.7822
 4031SOL     OW23728   0.271   3.305   6.044  0.1969  0.2286  0.0901
 4031SOL    HW123729   0.313   3.276   6.126 -0.2301  1.8649  0.8860
 4031SOL    HW223730   0.179   3.306   6.070  0.4134 -0.0686  0.8765
 4032SOL     OW23731   3.433   1.029   7.312 -0.8387  0.9642  0.7698
 4032SOL    HW123732   3.446   1.123   7.305 -1.6009  1.0371  0.4115
 4032SOL    HW223733   3.448   1.015   7.406  0.9428  0.5346  0.4218
 4033SOL     OW23734   3.225   2.473  15.343 -0.6056 -0.6523  0.4599
 4033SOL    HW123735   3.201   2.415  15.270 -0.5406 -0.7209  0.4935
 4033SOL    HW223736   3.217   2.418  15.421  0.3019  1.0105  1.7102
 4034SOL     OW23737   4.712   2.403   7.197  0.3776  1.3807 -0.0991
 4034SOL    HW123738   4.650   2.474   7.215 -1.3543  0.1614 -1.2841
 4034SOL    HW223739   4.650   2.332   7.183 -1.5223  3.0680 -0.2905
 4035SOL     OW23740   1.993   0.588   6.689 -0.3307  0.6452 -0.5113
 4035SOL    HW123741   2.038   0.550   6.764 -0.8480  0.4718 -0.2903
 4035SOL    HW223742   1.966   0.665   6.740  2.1944 -0.3340  2.2572
 4036SOL     OW23743   1.370   2.540   7.591 -0.1317  0.3468  0.1959
 4036SOL    HW123744   1.416   2.616   7.626  1.1072 -0.9635  1.4094
 4036SOL    HW223745   1.302   2.521   7.656  0.1320  0.7042  0.5772
 4037SOL     OW23746   4.552   0.368  15.257 -0.8508 -0.2393 -0.6436
 4037SOL    HW123747   4.562   0.413  15.173  1.5471  1.2494  0.4299
 4037SOL    HW223748   4.560   0.446  15.312  0.8365 -0.9166  0.0861
 4038SOL     OW23749   0.824   3.306   0.202  0.0906 -0.6457 -0.1550
 4038SOL    HW123750   0.779   3.391   0.198  0.4354 -0.5582 -2.0885
 4038SOL    HW223751   0.894   3.338   0.259  1.2615 -0.7306 -1.5457
 4039SOL     OW23752   4.682   4.728  11.722  0.0464  0.1256 -0.8718
 4039SOL    HW123753   0.015   0.010  11.659  2.0927 -2.9937  0.4373
 4039SOL    HW223754   4.733   4.726  11.803 -1.1686 -1.3681 -0.1394
 4040SOL     OW23755   3.570   2.849   0.431  0.0784  0.1740 -0.6714
 4040SOL    HW123756   3.492   2.796   0.413 -0.2186  0.0210  1.0692
 4040SOL    HW223757   3.579   2.891   0.346  1.5324  0.4751 -0.3681
 4041SOL     OW23758   4.445   0.220  10.153  0.3582 -0.0525  0.2730
 4041SOL    HW123759   4.359   0.244  10.185  1.3692  3.0126  0.7416
 4041SOL    HW223760   4.423   0.130  10.128 -0.3568 -0.5143  2.6229
 4042SOL     OW23761   0.939   0.931   3.125 -0.1291  0.1108 -0.2071
 4042SOL    HW123762   0.869   0.951   3.064 -2.3265 -0.0889  2.2420
 4042SOL    HW223763   0.991   1.011   3.134  1.1148 -0.7411  0.1778
 4043SOL     OW23764   0.670   3.967   0.543  0.8957  0.4523 -0.3395
 4043SOL    HW123765   0.612   4.013   0.484 -0.0340  0.6117  0.7049
 4043SOL    HW223766   0.699   4.037   0.602  0.0805  1.3047 -0.9710
 4044SOL     OW23767   3.631   1.682   6.820 -0.0238 -0.4288 -0.2012
 4044SOL    HW123768   3.726   1.678   6.826  0.0933 -0.5051 -2.2102
 4044SOL    HW223769   3.611   1.735   6.898  0.6253 -0.5137  0.0197
 4045SOL     OW23770   2.930   0.068   2.194  0.4180 -0.1534 -0.6172
 4045SOL    HW123771   3.019   0.102   2.181  0.6154  0.2306  1.8781
 4045SOL    HW223772   2.898   0.117   2.269  0.1956  1.7620 -1.9460
 4046SOL     OW23773   0.385   4.221   2.832 -0.3085 -0.3817 -0.1989
 4046SOL    HW123774   0.453   4.234   2.898  0.2439 -2.5819 -0.3479
 4046SOL    HW223775   0.304   4.244   2.877  1.4512  0.9578  2.3247
 4047SOL     OW23776   4.525   1.954   8.182  0.1584  0.6863 -0.0533
 4047SOL    HW123777   4.489   2.016   8.245 -0.1950  0.9788 -0.5409
 4047SOL    HW223778   4.598   2.012   8.162  1.7045 -1.4414 -0.5314
 4048SOL     OW23779   3.365   0.543   5.822 -0.4247 -0.3121 -0.1848
 4048SOL    HW123780   3.275   0.572   5.839 -0.8109 -2.3929  1.3418
 4048SOL    HW223781   3.379   0.454   5.855  1.8168  0.0031 -0.2638
 4049SOL     OW23782   3.999   3.202   0.508 -0.1715  0.0567 -0.2835
 4049SOL    HW123783   3.982   3.295   0.492  2.2641  0.6205  0.3808
 4049SOL    HW223784   4.000   3.173   0.417  0.3860 -1.6156  0.2635
 4050SOL     OW23785   3.241   3.096   4.105 -0.2152  0.3841  0.3138
 4050SOL    HW123786   3.270   3.133   4.022  1.5716 -0.5747  0.5220
 4050SOL    HW223787   3.212   3.178   4.145  1.4761  1.0110  0.2638
 4051SOL     OW23788   0.395   0.001   7.461 -0.0706  0.2219 -0.4708
 4051SOL    HW123789   0.327   4.690   7.412  1.1289 -2.6920  0.6810
 4051SOL    HW223790   0.463   4.727   7.394  0.6797 -2.1270  0.6631
 4052SOL     OW23791   3.862   0.624   4.177  0.1985 -0.3487 -0.0164
 4052SOL    HW123792   3.946   0.641   4.221 -1.6423  0.7654  3.0345
 4052SOL    HW223793   3.889   0.610   4.087  1.2306 -1.0327  0.3912
 4053SOL     OW23794   1.163   2.280  14.457  0.1045 -0.6740 -0.2641
 4053SOL    HW123795   1.207   2.234  14.385  1.0912  1.1425 -0.8048
 4053SOL    HW223796   1.070   2.259  14.447 -0.4151  1.6525 -0.2978
 4054SOL     OW23797   3.605   1.200  13.390  0.3061  0.3920 -0.0037
 4054SOL    HW123798   3.534   1.154  13.345  0.7621 -0.9988  0.6978
 4054SOL    HW223799   3.574   1.206  13.480 -0.9029 -1.7900 -0.2916
 4055SOL     OW23800   4.342   4.111  11.584  0.1269 -0.0227  0.0372
 4055SOL    HW123801   4.402   4.178  11.618  0.2236  0.7815 -1.7361
 4055SOL    HW223802   4.325   4.124  11.491  0.6472 -0.2234 -0.0841
 4056SOL     OW23803   3.120   0.853   9.079  0.2325 -0.5765 -0.2770
 4056SOL    HW123804   3.076   0.813   9.003 -1.3490 -1.9700  1.3796
 4056SOL    HW223805   3.100   0.801   9.156  0.4854 -0.7363 -0.3208
 4057SOL     OW23806   0.120   1.708   6.995 -0.4724 -0.2786 -0.2579
 4057SOL    HW123807   0.154   1.653   7.066 -2.2849  0.3786  1.1012
 4057SOL    HW223808   0.088   1.780   7.050 -1.6399  1.2723 -3.0015
 4058SOL     OW23809   3.653   3.837   3.334 -0.2179  0.6805 -0.2392
 4058SOL    HW123810   3.626   3.916   3.287  2.8644  0.4884 -2.3278
 4058SOL    HW223811   3.664   3.778   3.259 -2.3341  0.1466 -0.1553
 4059SOL     OW23812   1.210   0.801   5.989  0.8845  0.1086 -0.7550
 4059SOL    HW123813   1.283   0.851   6.025 -0.2201  1.6209 -0.5699
 4059SOL    HW223814   1.133   0.851   6.018  1.4174  0.0255  0.7949
 4060SOL     OW23815   4.173   0.502  16.802  0.0922  0.0723  0.0117
 4060SOL    HW123816   4.177   0.538  16.713 -0.2583 -0.0916 -0.0722
 4060SOL    HW223817   4.189   0.410  16.784  0.7603  0.3068 -0.5872
 4061SOL     OW23818   4.688   3.305  17.726  0.0670  0.2640  0.1226
 4061SOL    HW123819   4.636   3.225  17.727  0.7485 -0.1592  2.5215
 4061SOL    HW223820   0.017   3.282  17.660 -1.5926 -3.6949 -0.0812
 4062SOL     OW23821   1.173   3.313   3.619 -0.7549  0.0395 -0.1543
 4062SOL    HW123822   1.171   3.357   3.704  0.3735 -0.3795  0.0882
 4062SOL    HW223823   1.252   3.354   3.584  0.0641 -0.5841  0.9949
 4063SOL     OW23824   1.872   0.484  12.708  0.1428  0.3563  0.7961
 4063SOL    HW123825   1.940   0.419  12.726 -0.2280 -0.4341 -0.6906
 4063SOL    HW223826   1.920   0.567  12.710  0.7145  0.0202  1.1128
 4064SOL     OW23827   1.035   0.841   7.160 -0.2940 -0.2081  0.9923
 4064SOL    HW123828   1.033   0.865   7.253 -0.9817  0.8466  0.7131
 4064SOL    HW223829   0.977   0.766   7.156  0.2355 -0.5756  0.0483
 4065SOL     OW23830   0.479   1.254  10.982  0.5715 -0.5704  0.3081
 4065SOL    HW123831   0.462   1.196  10.907  0.1671 -2.0703  1.5638
 4065SOL    HW223832   0.401   1.310  10.985  1.9628  1.4139 -0.7699
 4066SOL     OW23833   4.101   4.176   9.609 -0.1149  0.3274  0.5321
 4066SOL    HW123834   4.187   4.134   9.612  0.8445  2.2971  0.4371
 4066SOL    HW223835   4.106   4.204   9.700 -0.1490 -1.3466  1.0618
 4067SOL     OW23836   1.994   3.520  14.892  0.8006 -0.7514 -0.5666
 4067SOL    HW123837   1.915   3.517  14.840 -1.2311  0.4420  2.4165
 4067SOL    HW223838   2.020   3.612  14.887 -1.9448  0.0357 -0.5147
 4068SOL     OW23839   4.248   0.460  13.795  0.3051 -0.0309 -0.1088
 4068SOL    HW123840   4.321   0.425  13.847  2.3629  0.9211 -2.3403
 4068SOL    HW223841   4.253   0.395  13.726  1.5661  0.4564 -0.4838
 4069SOL     OW23842   3.644   1.511   5.339  0.4493 -0.2843  0.2648
 4069SOL    HW123843   3.648   1.605   5.320  3.0546 -0.2999  0.7872
 4069SOL    HW223844   3.588   1.495   5.416 -0.7585  1.3348 -0.2666
 4070SOL     OW23845   1.640   0.105  11.378 -0.1381 -0.0032  0.1750
 4070SOL    HW123846   1.642   0.009  11.381 -1.3118 -0.0085  0.7503
 4070SOL    HW223847   1.657   0.116  11.285 -0.4291  3.3742  0.5045
 4071SOL     OW23848   0.523   3.079   8.004 -0.1667 -0.1677 -0.1249
 4071SOL    HW123849   0.466   3.055   7.931 -0.3504 -1.4214  0.4165
 4071SOL    HW223850   0.457   3.085   8.074  1.0481  1.3632  0.8775
 4072SOL     OW23851   0.480   3.041   4.644 -0.0023 -0.2910  0.2041
 4072SOL    HW123852   0.430   2.999   4.714 -1.2540  1.3167  0.2616
 4072SOL    HW223853   0.535   3.100   4.696  0.2647  1.0062 -1.5517
 4073SOL     OW23854   4.110   0.702   3.184  0.1605  0.1937 -0.0355
 4073SOL    HW123855   4.071   0.752   3.113  0.0053  0.8800  0.5309
 4073SOL    HW223856   4.090   0.761   3.257 -0.1055  0.1653 -0.0872
 4074SOL     OW23857   1.254   3.460   9.228 -0.4135 -0.0407 -0.5183
 4074SOL    HW123858   1.291   3.548   9.232  1.1626 -0.7775  1.0906
 4074SOL    HW223859   1.209   3.473   9.144 -1.8475  0.4404  0.3318
 4075SOL     OW23860   4.195   3.206   4.818  0.4569  0.7760  0.1797
 4075SOL    HW123861   4.161   3.151   4.888 -1.5950 -0.8013 -2.0433
 4075SOL    HW223862   4.282   3.170   4.801  0.3721 -0.1659  1.7517
 4076SOL     OW23863   4.256   0.715   8.541  0.7026  0.4187  0.1913
 4076SOL    HW123864   4.233   0.660   8.465 -0.7941  2.3890 -0.7799
 4076SOL    HW223865   4.291   0.793   8.498 -1.7050  0.4172 -1.7988
 4077SOL     OW23866   2.483   4.663   5.478 -0.3407 -0.4576 -0.8629
 4077SOL    HW123867   2.444   4.585   5.437 -0.1129  0.5939 -3.0950
 4077SOL    HW223868   2.547   4.628   5.540 -1.5734  1.3772  1.4475
 4078SOL     OW23869   1.137   4.318   0.915  0.1621 -0.2710  0.3205
 4078SOL    HW123870   1.155   4.276   0.830  2.2519  0.1603  0.5559
 4078SOL    HW223871   1.093   4.250   0.965 -0.8965 -0.3943 -0.7545
 4079SOL     OW23872   3.510   4.002   6.593 -0.2087  0.1771 -0.5914
 4079SOL    HW123873   3.454   4.079   6.579  0.2502  0.0493 -3.2151
 4079SOL    HW223874   3.521   3.952   6.512 -2.9891  0.0434 -0.8969
 4080SOL     OW23875   1.067   3.654   6.517  0.1532 -0.5486 -0.4758
 4080SOL    HW123876   1.044   3.744   6.540  0.0380 -1.3453  2.5117
 4080SOL    HW223877   1.098   3.672   6.428 -0.4879 -1.3523 -0.8533
 4081SOL     OW23878   2.775   3.860   9.199  0.0271  0.0594 -0.0600
 4081SOL    HW123879   2.687   3.843   9.234 -0.4987 -0.5873 -1.6628
 4081SOL    HW223880   2.832   3.898   9.265  0.0838  2.2383 -1.3454
 4082SOL     OW23881   2.560   4.578  11.107 -0.2602 -0.8015 -0.6629
 4082SOL    HW123882   2.569   4.484  11.120  2.6777 -0.5276 -0.5321
 4082SOL    HW223883   2.538   4.593  11.199 -1.8757 -0.7015 -1.0783
 4083SOL     OW23884   4.020   1.640   5.660  0.2043  0.1305  0.1185
 4083SOL    HW123885   3.981   1.726   5.651  1.6450  0.7749 -0.0073
 4083SOL    HW223886   3.997   1.600   5.576  0.7190 -1.0302  0.5205
 4084SOL     OW23887   0.587   1.746   8.108  0.3623  0.2184 -0.0478
 4084SOL    HW123888   0.561   1.668   8.058  1.4509 -0.7007  0.8137
 4084SOL    HW223889   0.542   1.813   8.057  1.3569  0.1144 -1.0532
 4085SOL     OW23890   0.772   0.194  10.037  0.0986  0.6903 -0.0691
 4085SOL    HW123891   0.816   0.278  10.030  0.3797  0.4961 -0.6542
 4085SOL    HW223892   0.690   0.224   9.999  2.5810  3.4409 -3.1955
 4086SOL     OW23893   3.339   0.833   3.112 -0.7171  0.4175  0.4590
 4086SOL    HW123894   3.266   0.821   3.173  0.4806  0.1605  1.8352
 4086SOL    HW223895   3.303   0.804   3.028 -0.0305 -2.2734  1.1054
 4087SOL     OW23896   0.546   0.299   3.234  0.3022 -0.0731 -0.0815
 4087SOL    HW123897   0.617   0.256   3.187  0.6897  0.0864  0.3504
 4087SOL    HW223898   0.471   0.248   3.206 -0.5354  0.3530  1.3611
 4088SOL     OW23899   2.572   1.847   3.379  0.1164 -0.1200  0.2410
 4088SOL    HW123900   2.612   1.782   3.322  1.1943  0.8445 -0.1042
 4088SOL    HW223901   2.567   1.803   3.464  0.1282  2.6497  1.6827
 4089SOL     OW23902   2.335   0.896   1.984 -0.3083  0.4333  0.6723
 4089SOL    HW123903   2.406   0.960   1.976  0.6374 -0.5320  1.2841
 4089SOL    HW223904   2.319   0.903   2.078  3.3143 -0.5792  1.3940
 4090SOL     OW23905   1.927   2.490   2.495 -0.3176  0.2676  0.1145
 4090SOL    HW123906   1.944   2.485   2.401 -0.8398  0.3280  0.0167
 4090SOL    HW223907   1.849   2.546   2.489 -0.3647  0.0569 -1.3632
 4091SOL     OW23908   3.566   2.451  17.526  0.2562 -0.3376  0.3921
 4091SOL    HW123909   3.479   2.472  17.491  0.9136 -1.0347 -1.6530
 4091SOL    HW223910   3.583   2.520  17.590 -2.4529  1.0215 -0.3190
 4092SOL     OW23911   1.230   1.017  10.328 -0.2171 -0.2354 -0.1577
 4092SOL    HW123912   1.226   0.952  10.399 -0.1988  0.3615  0.3938
 4092SOL    HW223913   1.145   1.014  10.285 -0.9689  0.9119  1.2610
 4093SOL     OW23914   2.653   2.758  12.405  0.7464  0.1382  0.2356
 4093SOL    HW123915   2.580   2.696  12.408 -0.3156  1.3249 -1.1266
 4093SOL    HW223916   2.636   2.809  12.326 -1.2604 -1.0058 -0.0610
 4094SOL     OW23917   2.558   3.268   3.347 -0.2374  0.2235 -0.0184
 4094SOL    HW123918   2.484   3.208   3.354  0.3779 -0.4915  0.3986
 4094SOL    HW223919   2.587   3.246   3.259  1.5178 -2.7085  1.2794
 4095SOL     OW23920   2.258   2.841   1.443 -0.1459 -0.0205  0.0453
 4095SOL    HW123921   2.232   2.845   1.351 -0.6291 -2.2986  0.0997
 4095SOL    HW223922   2.350   2.869   1.438 -0.3334  0.8376  1.4116
 4096SOL     OW23923   3.913   1.327  17.730  0.2165  0.2099  0.5019
 4096SOL    HW123924   3.972   1.308   0.059  0.3343 -0.0898  0.3264
 4096SOL    HW223925   3.942   1.258  17.671 -0.3565  0.4719 -0.0738
 4097SOL     OW23926   1.369   1.170   5.800  0.2700 -0.7156 -0.2714
 4097SOL    HW123927   1.310   1.238   5.832  3.4408  1.4435  0.9322
 4097SOL    HW223928   1.413   1.130   5.875 -0.2819  0.0987  0.4856
 4098SOL     OW23929   4.326   4.342   4.477  0.0218  0.1793 -0.7440
 4098SOL    HW123930   4.358   4.252   4.486  1.3869  0.7178 -0.0825
 4098SOL    HW223931   4.241   4.338   4.520 -0.0568  0.4158 -0.8817
 4099SOL     OW23932   1.330   2.146  14.275 -0.8328  0.0261  0.0303
 4099SOL    HW123933   1.419   2.179  14.264 -1.3503  1.0295 -1.2670
 4099SOL    HW223934   1.322   2.102  14.190 -2.6641 -0.2287  0.3261
 4100SOL     OW23935   2.483   4.244   4.269 -0.1591 -0.1778  0.1115
 4100SOL    HW123936   2.561   4.203   4.231 -1.7729 -2.8551 -0.2948
 4100SOL    HW223937   2.432   4.164   4.280  0.1884 -0.4277 -0.1068
 4101SOL     OW23938   2.708   4.705   1.771  0.4444 -0.6053 -0.1738
 4101SOL    HW123939   2.642   4.649   1.729 -0.6458  0.1796  0.4657
 4101SOL    HW223940   2.770   4.652   1.821  2.3263  2.5270  0.7982
 4102SOL     OW23941   0.911   3.101  10.042 -0.2131 -0.0959 -0.0496
 4102SOL    HW123942   0.973   3.030  10.023  1.0949  1.1554 -0.5147
 4102SOL    HW223943   0.839   3.061  10.091 -0.7149  0.8771  0.0033
 4103SOL     OW23944   0.111   1.570   8.042 -0.3247  0.2953 -0.4932
 4103SOL    HW123945   0.165   1.580   7.964 -0.6240 -0.2391 -0.7615
 4103SOL    HW223946   0.093   1.661   8.067 -0.7862 -0.7328  2.9195
 4104SOL     OW23947   1.611   1.874   4.899 -0.7906  0.6346 -0.0056
 4104SOL    HW123948   1.537   1.903   4.847 -0.0440  1.4825 -0.6009
 4104SOL    HW223949   1.610   1.936   4.972 -1.5591  1.5915 -0.8381
 4105SOL     OW23950   1.226   4.082   1.977  0.5005 -0.3126 -0.3493
 4105SOL    HW123951   1.269   4.002   2.007 -0.1130 -0.3630  0.3955
 4105SOL    HW223952   1.306   4.134   1.982  0.1874  0.1022  0.4584
 4106SOL     OW23953   4.001   2.253  16.277  0.2289  0.2856 -0.4347
 4106SOL    HW123954   3.927   2.199  16.304  0.6151  0.2446  0.5327
 4106SOL    HW223955   3.955   2.309  16.214  2.8715  0.6422 -2.0632
 4107SOL     OW23956   3.228   4.448   7.366 -0.1570 -0.1250 -0.1352
 4107SOL    HW123957   3.249   4.534   7.330 -0.0540 -0.0641  0.0691
 4107SOL    HW223958   3.311   4.411   7.396 -1.1281 -2.0303  0.2081
 4108SOL     OW23959   2.042   0.884   1.910  0.0259 -0.4590 -0.3080
 4108SOL    HW123960   2.016   0.851   1.824  0.0652 -1.1847 -0.0457
 4108SOL    HW223961   2.133   0.911   1.905  0.5539 -1.9962  1.2700
 4109SOL     OW23962   3.124   0.089   2.955  0.3668  0.1163 -0.7202
 4109SOL    HW123963   3.190   0.150   2.923 -0.3845  1.1046 -0.3933
 4109SOL    HW223964   3.139   0.080   3.049 -0.3870  1.9633 -0.4254
 4110SOL     OW23965   1.751   4.394   9.401  0.4869 -0.1445 -0.7016
 4110SOL    HW123966   1.765   4.375   9.309  0.3466  0.1801 -0.7902
 4110SOL    HW223967   1.841   4.387   9.434  0.7145  0.6073 -1.1588
 4111SOL     OW23968   1.821   3.555   6.106 -0.3633  0.1016  0.3143
 4111SOL    HW123969   1.845   3.465   6.085 -1.3415 -0.3281  1.0769
 4111SOL    HW223970   1.726   3.563   6.098 -0.5467 -2.4950 -0.0241
 4112SOL     OW23971   2.158   1.627  16.081  0.6170  0.4277 -0.3193
 4112SOL    HW123972   2.115   1.711  16.067 -4.0861 -2.1213 -1.0384
 4112SOL    HW223973   2.134   1.581  16.001  1.2098  0.9415 -0.7908
 4113SOL     OW23974   0.908   3.674   8.579  0.1033 -0.1831  0.0286
 4113SOL    HW123975   0.992   3.715   8.556 -0.7895  2.4012  1.3993
 4113SOL    HW223976   0.853   3.692   8.503  1.1739  0.0000 -0.7084
 4114SOL     OW23977   4.189   0.685   4.174  0.5466  0.4791 -0.0132
 4114SOL    HW123978   4.246   0.712   4.102  1.0884  1.9737  1.0005
 4114SOL    HW223979   4.238   0.604   4.187  3.0533  1.9633 -0.2778
 4115SOL     OW23980   2.351   1.728   6.607  0.2195  0.0557  0.4127
 4115SOL    HW123981   2.321   1.818   6.590  1.5811  0.5789  0.7561
 4115SOL    HW223982   2.301   1.717   6.687 -0.8628  0.5707 -0.1987
 4116SOL     OW23983   3.212   0.100  12.380 -0.5618 -0.3136  0.4484
 4116SOL    HW123984   3.279   0.038  12.349 -0.1653  0.7146 -0.7781
 4116SOL    HW223985   3.128   0.054  12.373  1.0404 -3.4986  2.2964
 4117SOL     OW23986   2.309   0.043   6.502  0.8150 -0.1321  0.4915
 4117SOL    HW123987   2.375   0.086   6.447 -1.2870 -1.3955 -3.0036
 4117SOL    HW223988   2.288   4.697   6.457  0.7278  0.6444 -0.8988
 4118SOL     OW23989   0.458   2.570   3.370 -0.0172 -0.8441 -0.6092
 4118SOL    HW123990   0.536   2.606   3.413 -0.3015 -0.2470 -0.5955
 4118SOL    HW223991   0.439   2.643   3.311 -2.3940 -1.0118 -0.0283
 4119SOL     OW23992   2.556   3.973  15.297 -0.1614  0.4929 -0.7127
 4119SOL    HW123993   2.472   4.019  15.292 -0.8741 -0.5580  1.3279
 4119SOL    HW223994   2.610   4.033  15.247  1.7942 -1.9086 -1.4603
 4120SOL     OW23995   3.845   2.712   1.805  0.5112 -0.2663 -0.1876
 4120SOL    HW123996   3.915   2.766   1.768  0.8071 -0.4392  0.1243
 4120SOL    HW223997   3.875   2.628   1.770 -0.6844  0.0016 -1.8497
 4121SOL     OW23998   3.180   1.628   3.618 -0.1732  0.3182 -0.3754
 4121SOL    HW123999   3.154   1.541   3.647 -2.6791  1.2552  0.1899
 4121SOL    HW224000   3.123   1.641   3.542  0.7138 -2.0544 -1.4493
 4122SOL     OW24001   4.196   0.666   7.871  0.2455 -0.2460 -0.2576
 4122SOL    HW124002   4.101   0.661   7.865  0.2165  1.7314 -1.6362
 4122SOL    HW224003   4.205   0.702   7.959 -1.2412  1.9763 -1.0154
 4123SOL     OW24004   1.293   2.835   3.509  0.2890 -0.3884 -0.1135
 4123SOL    HW124005   1.305   2.854   3.416  0.8496 -0.1328  0.0100
 4123SOL    HW224006   1.374   2.811   3.554 -0.2376 -1.1213  0.4302
 4124SOL     OW24007   2.981   2.063   6.860 -0.1994  0.2215 -0.3746
 4124SOL    HW124008   2.959   2.089   6.771 -3.0323  0.7185  0.4620
 4124SOL    HW224009   2.946   1.974   6.853  1.2971 -0.1646 -2.7480
 4125SOL     OW24010   3.404   3.633  13.421 -0.1082 -0.2148  0.1181
 4125SOL    HW124011   3.315   3.644  13.388  0.3086  0.3165 -0.8280
 4125SOL    HW224012   3.451   3.622  13.339  1.5139  2.0458  0.7623
 4126SOL     OW24013   2.834   2.022   7.146 -0.1854  0.4044 -0.1259
 4126SOL    HW124014   2.867   1.932   7.146 -1.7915 -0.1915 -0.0197
 4126SOL    HW224015   2.742   2.010   7.170  0.8442 -0.8343  3.1867
 4127SOL     OW24016   4.579   1.232   2.258  0.3197  0.1001 -0.1444
 4127SOL    HW124017   4.584   1.305   2.195  1.0129  0.6006  0.4885
 4127SOL    HW224018   4.617   1.279   2.332  1.1604  0.3695 -0.7295
 4128SOL     OW24019   0.594   0.625   6.522 -0.3184 -0.1704  0.1739
 4128SOL    HW124020   0.553   0.671   6.449  2.5143 -1.7623 -2.4231
 4128SOL    HW224021   0.656   0.688   6.559  3.5020 -3.0326 -1.4012
 4129SOL     OW24022   4.393   3.888   2.383 -0.1519 -0.7507  0.2235
 4129SOL    HW124023   4.487   3.898   2.369 -0.1544 -2.2639 -0.9352
 4129SOL    HW224024   4.398   3.812   2.442  1.0431  1.0782  2.4590
 4130SOL     OW24025   1.005   0.377   0.359 -0.1007  0.2263  0.0361
 4130SOL    HW124026   0.911   0.394   0.348 -0.4426 -1.2383  0.7444
 4130SOL    HW224027   1.035   0.385   0.269 -2.0408  1.5760 -0.5060
 4131SOL     OW24028   0.149   0.260   7.905 -0.8218 -0.1903 -0.0397
 4131SOL    HW124029   0.150   0.240   7.998 -1.4641 -5.0918 -1.0741
 4131SOL    HW224030   0.067   0.310   7.901 -1.0835 -0.4967  1.6647
 4132SOL     OW24031   2.455   0.117  17.655  0.1421  0.4101  0.8503
 4132SOL    HW124032   2.490   0.168  17.582 -1.1912  1.5945  1.0328
 4132SOL    HW224033   2.532   0.071  17.688  1.2316  0.7988 -1.1656
 4133SOL     OW24034   4.111   1.202   8.703 -0.4468  0.3613 -0.2250
 4133SOL    HW124035   4.194   1.162   8.729  0.0285  1.0985 -0.6075
 4133SOL    HW224036   4.062   1.121   8.687  2.4737 -1.6283  0.8297
 4134SOL     OW24037   2.411   1.853  16.871  0.3546 -0.0334  0.0279
 4134SOL    HW124038   2.434   1.895  16.788  0.6390  2.5866  1.4498
 4134SOL    HW224039   2.321   1.882  16.886  0.1515 -0.6009 -0.0795
 4135SOL     OW24040   4.638   2.927   4.498 -0.1200  0.2506 -0.3207
 4135SOL    HW124041   4.607   2.941   4.408  0.6976 -1.0512 -0.7948
 4135SOL    HW224042   4.558   2.897   4.542 -0.1182  1.1749  0.3181
 4136SOL     OW24043   4.287   3.954   2.063  0.3675  0.3572 -0.2789
 4136SOL    HW124044   4.300   4.002   2.145 -0.5067 -0.6154  0.4278
 4136SOL    HW224045   4.290   4.020   1.993 -2.8289  1.5797  0.7876
 4137SOL     OW24046   3.407   1.418   5.120  0.3768  0.4733 -0.3700
 4137SOL    HW124047   3.333   1.356   5.121  0.2464  0.6369  0.0398
 4137SOL    HW224048   3.431   1.377   5.203  2.5448  0.7122 -0.8905
 4138SOL     OW24049   1.962   4.156   4.658 -0.3598 -0.2181  0.5604
 4138SOL    HW124050   1.882   4.209   4.650 -0.0545  0.1103 -0.2383
 4138SOL    HW224051   1.987   4.145   4.566 -1.4798  1.2350  0.0895
 4139SOL     OW24052   1.522   3.252   5.527 -0.2255  0.0736  0.1516
 4139SOL    HW124053   1.539   3.176   5.472  1.0395  0.3972  0.1044
 4139SOL    HW224054   1.538   3.322   5.463 -2.8318  1.0247  0.5067
 4140SOL     OW24055   1.373   1.196   9.052  0.3660 -0.3607  0.1477
 4140SOL    HW124056   1.389   1.228   9.141  2.9642  1.8360 -1.0863
 4140SOL    HW224057   1.280   1.206   9.035  0.3760  0.3313  0.4973
 4141SOL     OW24058   0.103   0.499   5.289  0.1634  0.0481  0.0863
 4141SOL    HW124059   0.083   0.489   5.196  1.3402 -1.8080  0.0385
 4141SOL    HW224060   0.162   0.574   5.296  2.8320 -2.0267 -0.1429
 4142SOL     OW24061   2.745   4.701  17.550  0.2857  0.2902  0.7513
 4142SOL    HW124062   2.787   4.644  17.486  1.0105  1.8208 -0.1586
 4142SOL    HW224063   2.673   4.653  17.591 -0.2056 -0.6416 -1.1738
 4143SOL     OW24064   1.206   3.808   4.323  0.1608  0.0667  0.6401
 4143SOL    HW124065   1.294   3.840   4.339  1.0549 -1.4253 -1.2134
 4143SOL    HW224066   1.218   3.775   4.234  4.2769  0.8437  0.9076
 4144SOL     OW24067   2.290   2.198  11.593 -0.4648  0.3596 -0.1619
 4144SOL    HW124068   2.200   2.185  11.624 -0.2611 -2.9330 -0.9788
 4144SOL    HW224069   2.328   2.210  11.681  1.3338 -1.2635 -0.7131
 4145SOL     OW24070   2.310   0.042  12.748 -0.6693  0.6963 -0.0888
 4145SOL    HW124071   2.360   4.708  12.790  1.0937  2.3382  0.5227
 4145SOL    HW224072   2.222   0.020  12.778  0.3379 -2.2440  0.7318
 4146SOL     OW24073   0.843   1.812   4.741  0.0828  0.7416 -0.2264
 4146SOL    HW124074   0.770   1.799   4.801 -0.5695 -2.1471 -1.6401
 4146SOL    HW224075   0.796   1.827   4.659 -0.0712 -0.0977 -0.2907
 4147SOL     OW24076   3.896   1.514   1.873 -0.4494 -0.2762 -0.5358
 4147SOL    HW124077   3.889   1.605   1.902  0.7960 -0.6406  0.9350
 4147SOL    HW224078   3.970   1.520   1.813 -0.0324  1.0342  0.0997
 4148SOL     OW24079   1.132   4.686   2.656 -0.1836  0.2010 -0.5727
 4148SOL    HW124080   1.125   4.629   2.734  0.2608 -0.2785 -0.8816
 4148SOL    HW224081   1.057   4.652   2.607  1.2685 -1.2086 -1.8035
 4149SOL     OW24082   3.404   4.573  10.069 -0.0749 -0.0436  0.0657
 4149SOL    HW124083   3.345   4.501  10.049  0.3936 -0.3430 -0.2372
 4149SOL    HW224084   3.470   4.558  10.001 -0.4493  2.5062 -0.8497
 4150SOL     OW24085   1.492   4.228   1.970  0.0789  0.3442  0.5515
 4150SOL    HW124086   1.558   4.297   1.977 -0.2557  0.5045  2.0392
 4150SOL    HW224087   1.450   4.239   1.885  1.7286  0.5468 -0.2362
 4151SOL     OW24088   4.134   1.928   9.195 -0.2109 -0.6069  0.1729
 4151SOL    HW124089   4.199   1.919   9.265  1.9371 -1.7355 -1.9447
 4151SOL    HW224090   4.185   1.902   9.118  0.0372 -1.8596  0.7494
 4152SOL     OW24091   2.311   3.347  17.599 -0.3331  0.1105 -0.4903
 4152SOL    HW124092   2.240   3.287  17.577  2.0834 -1.9275 -2.6628
 4152SOL    HW224093   2.390   3.294  17.587 -0.7190 -0.0503 -2.4493
 4153SOL     OW24094   0.904   2.629   2.570  0.4653 -0.6336  0.1641
 4153SOL    HW124095   0.918   2.545   2.613 -3.4855 -0.7137  1.2536
 4153SOL    HW224096   0.859   2.610   2.488  1.3480 -1.0205 -0.2339
 4154SOL     OW24097   2.953   1.810   5.412 -0.3785 -0.2488  0.0920
 4154SOL    HW124098   2.890   1.852   5.471 -0.4632 -2.0562  1.2789
 4154SOL    HW224099   2.968   1.726   5.455  0.1021 -0.7461 -1.0357
 4155SOL     OW24100   0.107   2.129   7.279 -0.5934  0.1316 -0.0542
 4155SOL    HW124101   0.093   2.220   7.251  1.1554  0.6023  0.6181
 4155SOL    HW224102   0.106   2.130   7.374 -1.0223  0.0684 -0.0590
 4156SOL     OW24103   1.256   2.079   0.624 -0.5296  0.0863 -0.2039
 4156SOL    HW124104   1.276   2.022   0.699  1.7132  0.1328 -0.7560
 4156SOL    HW224105   1.311   2.038   0.558  0.7536 -0.8837  1.4695
 4157SOL     OW24106   0.542   1.340  12.467  0.0714 -0.4240  0.5377
 4157SOL    HW124107   0.593   1.421  12.472 -0.3885 -0.1665  1.1445
 4157SOL    HW224108   0.570   1.308  12.552  1.2617 -0.8886 -0.0323
 4158SOL     OW24109   0.285   3.537   4.898 -0.4669 -0.1600 -0.0806
 4158SOL    HW124110   0.284   3.631   4.919 -2.1086  0.0327 -1.0037
 4158SOL    HW224111   0.350   3.495   4.954  2.0337  1.1284 -1.9984
 4159SOL     OW24112   1.984   2.938  15.845  0.2963 -0.6112 -0.2033
 4159SOL    HW124113   1.933   2.857  15.851 -1.5143  0.6081  0.7206
 4159SOL    HW224114   2.060   2.904  15.893  0.7709 -0.1590 -0.6367
 4160SOL     OW24115   2.332   3.290  15.406  0.0700  0.1031  0.0749
 4160SOL    HW124116   2.283   3.207  15.401  0.7663 -0.2747 -0.4287
 4160SOL    HW224117   2.338   3.305  15.312  2.0686 -1.1821  0.0022
 4161SOL     OW24118   0.076   4.376   3.722 -0.2747 -0.4126 -0.0364
 4161SOL    HW124119   0.162   4.349   3.754 -0.3337 -0.3846  0.1505
 4161SOL    HW224120   0.044   4.449   3.775  0.0906  0.0982 -0.5215
 4162SOL     OW24121   2.124   1.438   4.003  0.6155  0.0246  0.7192
 4162SOL    HW124122   2.153   1.351   3.976  0.1526  0.0156  0.2621
 4162SOL    HW224123   2.182   1.446   4.079 -0.4585  0.5491  1.4747
 4163SOL     OW24124   3.901   0.559   6.974  0.6172  0.1778 -0.1790
 4163SOL    HW124125   3.914   0.500   6.900 -1.0059  0.8407 -1.0052
 4163SOL    HW224126   3.910   0.501   7.050 -0.6143 -0.1588 -0.2770
 4164SOL     OW24127   4.729   4.412   5.859 -0.0189 -0.2645 -0.0143
 4164SOL    HW124128   4.700   4.499   5.834  0.7728 -0.2745 -0.9624
 4164SOL    HW224129   0.085   4.408   5.835  0.1443 -1.0417  0.7332
 4165SOL     OW24130   0.272   2.611   6.404  0.0497 -0.2707  0.0757
 4165SOL    HW124131   0.234   2.559   6.334  0.9845 -1.5534  0.5259
 4165SOL    HW224132   0.205   2.602   6.472  0.1119 -1.8743 -0.0802
 4166SOL     OW24133   2.153   3.952   3.757  0.3246 -0.1771 -0.3208
 4166SOL    HW124134   2.108   3.872   3.785 -1.2898  0.4989 -1.0157
 4166SOL    HW224135   2.088   4.020   3.772  0.7021  0.0780  0.1340
 4167SOL     OW24136   3.336   3.198   7.180 -0.1519  0.1398  1.0230
 4167SOL    HW124137   3.280   3.121   7.170  1.2020 -0.3785 -2.7090
 4167SOL    HW224138   3.358   3.223   7.090 -4.7998  0.2406 -0.0990
 4168SOL     OW24139   1.703   0.784   2.809  0.7640  0.1883  0.3549
 4168SOL    HW124140   1.689   0.793   2.903  1.7122 -3.3917  0.8337
 4168SOL    HW224141   1.657   0.860   2.773 -1.1618 -0.4150  1.5663
 4169SOL     OW24142   1.171   2.235  12.901  0.8087  0.1375  0.2782
 4169SOL    HW124143   1.122   2.188  12.968 -1.4937  0.1220 -1.4297
 4169SOL    HW224144   1.106   2.283  12.849  1.1052  1.8112  1.4364
 4170SOL     OW24145   4.644   4.148   3.694 -0.0032 -0.2394  0.1538
 4170SOL    HW124146   4.654   4.134   3.599 -1.3810 -0.6395  0.0676
 4170SOL    HW224147   4.699   4.224   3.708  1.2021 -0.5548 -2.7684
 4171SOL     OW24148   2.883   1.008  11.447 -0.3215 -0.1412 -0.3145
 4171SOL    HW124149   2.804   1.060  11.461 -0.5215 -0.5471  0.0767
 4171SOL    HW224150   2.871   0.944  11.518 -0.5099  0.9729  0.6550
 4172SOL     OW24151   0.785   3.792   3.280  0.3077  0.0342  0.1516
 4172SOL    HW124152   0.781   3.697   3.278 -0.9490  0.0579  1.8007
 4172SOL    HW224153   0.809   3.814   3.190 -2.0874 -0.0259 -0.4772
 4173SOL     OW24154   3.716   2.269   4.091 -0.2934  0.3264 -0.1952
 4173SOL    HW124155   3.744   2.183   4.062  2.2864  0.5568  1.5372
 4173SOL    HW224156   3.622   2.254   4.098  0.2132 -1.5818  2.3446
 4174SOL     OW24157   1.946   3.047   9.053 -0.5199  0.0259 -0.9116
 4174SOL    HW124158   1.896   3.106   9.109 -1.0809 -2.2904  1.0425
 4174SOL    HW224159   1.929   2.957   9.083 -0.3107  0.8238  1.5954
 4175SOL     OW24160   2.599   1.334  11.381 -0.3644  0.2968 -0.0990
 4175SOL    HW124161   2.638   1.308  11.465 -1.9033 -0.5004  0.3769
 4175SOL    HW224162   2.572   1.425  11.395  1.8189  0.7490  1.1839
 4176SOL     OW24163   0.340   0.383   1.203  0.3192  0.5718  0.0015
 4176SOL    HW124164   0.273   0.370   1.136  0.0983  1.0270  0.1356
 4176SOL    HW224165   0.420   0.372   1.150  0.3586  0.3422  0.1129
 4177SOL     OW24166   1.846   2.788   9.150  0.4028  0.5346  0.2595
 4177SOL    HW124167   1.782   2.818   9.214 -0.4912  0.2763 -0.5030
 4177SOL    HW224168   1.915   2.751   9.205 -3.1573 -2.3002  2.7890
 4178SOL     OW24169   3.535   2.158  13.785  0.1268 -0.5799 -0.1899
 4178SOL    HW124170   3.533   2.101  13.862  0.4598 -0.9273 -0.4369
 4178SOL    HW224171   3.624   2.145  13.751  0.0325 -2.4401  0.2537
 4179SOL     OW24172   3.201   4.257  14.794 -0.4964  0.4166  0.1192
 4179SOL    HW124173   3.240   4.329  14.746 -0.4923 -0.7329 -1.5757
 4179SOL    HW224174   3.274   4.221  14.844  0.6947  2.1288 -0.3932
 4180SOL     OW24175   2.677   3.982   5.092 -0.4442 -0.2017  0.1165
 4180SOL    HW124176   2.751   3.963   5.150  1.8115  0.2973 -2.6221
 4180SOL    HW224177   2.698   4.070   5.062 -1.9439 -0.1986 -0.9427
 4181SOL     OW24178   1.621   2.971   4.809  0.6541  0.4349 -0.2423
 4181SOL    HW124179   1.678   2.932   4.743 -0.2695 -2.0216  0.4272
 4181SOL    HW224180   1.697   2.991   4.863  0.4436  2.8834 -0.8611
 4182SOL     OW24181   1.288   4.252  15.133  0.3932 -0.6466  0.2409
 4182SOL    HW124182   1.352   4.260  15.203  0.2970  1.4017  0.0912
 4182SOL    HW224183   1.238   4.175  15.161 -1.8877  0.8632  0.3145
 4183SOL     OW24184   3.040   1.398  10.782 -0.0568 -0.0451  0.1957
 4183SOL    HW124185   3.029   1.409  10.688 -1.3266  0.8405  0.4347
 4183SOL    HW224186   3.069   1.307  10.792  0.2167  0.4086  3.3803
 4184SOL     OW24187   2.220   3.676   4.373 -0.6682 -0.2753  0.1034
 4184SOL    HW124188   2.305   3.657   4.415 -1.0417 -0.8031  0.6256
 4184SOL    HW224189   2.171   3.708   4.449 -1.1916  0.3065 -0.4893
 4185SOL     OW24190   0.362   1.149   0.243 -0.4910 -0.2280 -0.1403
 4185SOL    HW124191   0.294   1.089   0.212  0.2652 -0.6499 -0.9988
 4185SOL    HW224192   0.338   1.159   0.335 -0.2825  2.3742 -0.3731
 4186SOL     OW24193   2.524   3.562   1.648 -0.0995  0.0550  0.1200
 4186SOL    HW124194   2.544   3.615   1.725  0.7339 -1.1254  0.7249
 4186SOL    HW224195   2.542   3.472   1.676 -1.0779 -0.3457 -0.5400
 4187SOL     OW24196   2.412   0.159   9.518  0.2189 -0.0176 -0.3050
 4187SOL    HW124197   2.316   0.165   9.522  0.2006  0.7126 -1.8635
 4187SOL    HW224198   2.420   0.066   9.496 -0.7188 -0.1702  0.0025
 4188SOL     OW24199   3.429   4.552   7.087 -0.8467 -0.1683 -0.3499
 4188SOL    HW124200   3.427   4.604   7.167 -0.4039  0.2471 -0.6042
 4188SOL    HW224201   3.438   4.470   7.136  0.4152 -0.1348 -0.5072
 4189SOL     OW24202   3.997   2.690  17.471 -0.1504 -0.2702  0.2998
 4189SOL    HW124203   3.986   2.778  17.436 -0.8042 -0.2093  0.6630
 4189SOL    HW224204   4.030   2.640  17.396 -0.8849 -1.6771  0.8993
 4190SOL     OW24205   3.478   0.331   3.864  0.0581  0.1232  0.4385
 4190SOL    HW124206   3.520   0.381   3.934 -3.1251  1.4365  1.4159
 4190SOL    HW224207   3.552   0.284   3.827  0.4479  0.3268  0.9567
 4191SOL     OW24208   2.679   0.147   6.510 -0.0556 -0.0057  0.3872
 4191SOL    HW124209   2.627   0.145   6.430 -0.8810  2.2976  0.8752
 4191SOL    HW224210   2.751   0.208   6.500 -0.4349  0.2369 -0.8463
 4192SOL     OW24211   2.928   1.360   2.259 -0.1591  0.7482  0.1623
 4192SOL    HW124212   2.884   1.293   2.311 -0.2054 -0.5760 -1.5765
 4192SOL    HW224213   3.016   1.325   2.274 -0.2490  0.7182  0.6302
 4193SOL     OW24214   3.941   2.199  10.626  0.3584 -0.8097  0.2041
 4193SOL    HW124215   3.998   2.273  10.647 -0.0568 -0.0644 -1.2290
 4193SOL    HW224216   3.999   2.130  10.656 -0.9921 -1.7033  0.7557
 4194SOL     OW24217   1.156   3.359   4.446  0.7098  0.2578 -0.4910
 4194SOL    HW124218   1.062   3.362   4.464  0.9988  2.0950  0.7594
 4194SOL    HW224219   1.186   3.449   4.462 -0.2858  0.7554 -1.3906
 4195SOL     OW24220   2.978   4.428   4.196  0.3457 -0.3327  0.4662
 4195SOL    HW124221   3.060   4.378   4.194  1.2703  1.2051 -0.7518
 4195SOL    HW224222   3.003   4.492   4.263  0.1828  0.8523 -0.5785
 4196SOL     OW24223   2.764   0.550   2.632  0.1570 -0.1026 -0.1409
 4196SOL    HW124224   2.723   0.465   2.614 -0.4588  0.5024 -1.5594
 4196SOL    HW224225   2.852   0.531   2.600 -0.1373 -1.2924 -0.2608
 4197SOL     OW24226   3.771   0.893   9.414 -0.0137 -0.9111 -0.6125
 4197SOL    HW124227   3.783   0.799   9.430 -1.1132 -0.9564 -0.0218
 4197SOL    HW224228   3.751   0.922   9.503 -0.7347 -2.3351 -0.3107
 4198SOL     OW24229   4.537   1.194   7.505 -0.2936 -0.2268  0.3655
 4198SOL    HW124230   4.574   1.256   7.442  0.3571  0.2679  1.2487
 4198SOL    HW224231   4.578   1.110   7.485  0.1905  0.2874 -0.7821
 4199SOL     OW24232   0.444   0.327   4.655 -0.1600  0.1136  0.1665
 4199SOL    HW124233   0.448   0.422   4.664  0.9541 -0.0308  1.1989
 4199SOL    HW224234   0.475   0.298   4.740 -0.3996 -2.0065 -0.4735
 4200SOL     OW24235   3.546   4.240   6.242 -0.1905 -0.0576 -0.1199
 4200SOL    HW124236   3.547   4.191   6.324 -2.1952 -0.8422 -0.5633
 4200SOL    HW224237   3.635   4.267   6.221 -0.8876  1.1344 -1.6218
 4201SOL     OW24238   1.646   1.773   8.235 -0.0349  0.5507 -0.1601
 4201SOL    HW124239   1.731   1.732   8.253 -0.8002 -1.1489 -0.3996
 4201SOL    HW224240   1.622   1.799   8.323  1.4717  1.0511  0.1043
 4202SOL     OW24241   1.051   3.121   5.598  0.2116 -0.6306  0.1176
 4202SOL    HW124242   0.995   3.045   5.578  1.0360 -1.2728  0.2378
 4202SOL    HW224243   1.018   3.179   5.530  1.3574  1.0037  0.9695
 4203SOL     OW24244   3.995   0.921  11.602  0.0015 -0.3397 -0.7512
 4203SOL    HW124245   3.999   0.869  11.682 -1.5641  1.6332  0.6132
 4203SOL    HW224246   3.968   0.857  11.537  0.0319 -1.3290  0.2064
 4204SOL     OW24247   3.203   3.031   9.028  0.1614  0.0043  0.5500
 4204SOL    HW124248   3.131   3.005   8.971  0.8543 -1.1811  0.2072
 4204SOL    HW224249   3.274   2.982   8.986 -1.2940 -1.3977 -0.2762
 4205SOL     OW24250   3.855   0.885   4.636 -0.2946  0.0578  0.2929
 4205SOL    HW124251   3.893   0.868   4.722  1.1833 -1.5884 -0.7073
 4205SOL    HW224252   3.916   0.830   4.588 -1.3250 -0.5909 -0.2847
 4206SOL     OW24253   1.403   1.700   4.632 -0.2330  0.6006 -0.0770
 4206SOL    HW124254   1.328   1.641   4.642  2.1198 -2.5234 -1.2290
 4206SOL    HW224255   1.467   1.653   4.684  0.2282 -0.3060 -1.4793
 4207SOL     OW24256   0.442   0.100   6.549  0.0619  0.1999  0.9259
 4207SOL    HW124257   0.506   0.159   6.588  0.5497  0.1080  0.2668
 4207SOL    HW224258   0.357   0.137   6.570  0.1243  1.4062 -0.9468
 4208SOL     OW24259   4.223   3.043   6.605 -0.1769 -0.2692 -0.3280
 4208SOL    HW124260   4.196   3.061   6.515  1.3963  0.1100 -0.7364
 4208SOL    HW224261   4.259   2.954   6.607 -0.6771 -0.4328  1.1005
 4209SOL     OW24262   3.436   1.994   5.168 -0.0308 -0.1365  0.6959
 4209SOL    HW124263   3.521   2.029   5.142 -0.1822  0.5158  1.0697
 4209SOL    HW224264   3.405   2.075   5.209  0.2542 -0.6270  1.8822
 4210SOL     OW24265   0.646   1.729   3.511  0.3432  0.3617 -0.1393
 4210SOL    HW124266   0.685   1.817   3.518  0.8559  0.2756 -2.0421
 4210SOL    HW224267   0.559   1.749   3.476 -0.2015  0.0803  1.0531
 4211SOL     OW24268   3.965   0.677  11.472  0.1778 -0.3776 -0.3062
 4211SOL    HW124269   4.059   0.689  11.458  0.0678  1.9580  1.0688
 4211SOL    HW224270   3.955   0.582  11.485  0.1695 -0.6006 -1.9333
 4212SOL     OW24271   2.713   1.150   2.771 -0.0890 -0.0145 -0.1769
 4212SOL    HW124272   2.709   1.118   2.680 -0.5656 -0.3557 -0.0321
 4212SOL    HW224273   2.783   1.095   2.807  0.5977  1.5993  0.9371
 4213SOL     OW24274   0.468   0.421  17.523 -0.7232 -0.4474 -0.4247
 4213SOL    HW124275   0.536   0.371  17.477  1.7253  2.7745 -0.3739
 4213SOL    HW224276   0.397   0.417  17.459  0.4730  3.9180 -2.0680
 4214SOL     OW24277   1.144   2.257  15.568  0.8585 -0.0365  0.4367
 4214SOL    HW124278   1.214   2.304  15.614  1.0260  0.0115  0.1297
 4214SOL    HW224279   1.066   2.285  15.616  0.8954  0.8663 -0.0245
 4215SOL     OW24280   0.111   4.710  10.712  0.1407  0.4431 -0.3626
 4215SOL    HW124281   0.054   4.688  10.638  0.3363 -2.3949  0.3523
 4215SOL    HW224282   0.051   4.676  10.779 -0.1263  3.1539  0.7637
 4216SOL     OW24283   1.128   1.180   3.591 -0.1545  0.2212 -0.3227
 4216SOL    HW124284   1.054   1.174   3.651  0.4424 -0.4330  0.3337
 4216SOL    HW224285   1.073   1.166   3.513 -0.6444  1.3134 -0.1784
 4217SOL     OW24286   2.307   0.676   3.313 -0.9271 -0.1617  0.0097
 4217SOL    HW124287   2.307   0.669   3.217  2.3292 -2.4237  0.1922
 4217SOL    HW224288   2.402   0.684   3.321 -0.8494 -1.0143 -0.0551
 4218SOL     OW24289   4.116   1.368   8.341  0.0264  0.2381  0.0440
 4218SOL    HW124290   4.066   1.429   8.394 -1.5848 -1.9287  1.0100
 4218SOL    HW224291   4.197   1.419   8.337  0.1450  0.0866  0.6057
 4219SOL     OW24292   3.313   2.606   2.140  0.2618  0.0475  0.0401
 4219SOL    HW124293   3.303   2.520   2.182 -0.1468 -0.3539 -0.8751
 4219SOL    HW224294   3.403   2.604   2.109  0.2574 -0.3321  0.0463
 4220SOL     OW24295   0.224   1.475   8.577 -0.7064  0.2206  0.1369
 4220SOL    HW124296   0.184   1.391   8.598 -0.2913 -0.6731 -2.7371
 4220SOL    HW224297   0.231   1.520   8.661  2.5474  3.2161 -1.7247
 4221SOL     OW24298   3.175   2.892   6.478  0.6390  0.4084 -0.0585
 4221SOL    HW124299   3.175   2.984   6.451  0.3158  0.9592  1.7990
 4221SOL    HW224300   3.106   2.842   6.435  0.6143  1.6057 -1.4161
 4222SOL     OW24301   3.770   2.536   6.070 -0.1372 -0.1718  0.6762
 4222SOL    HW124302   3.724   2.620   6.077  1.4492  0.6975  0.7646
 4222SOL    HW224303   3.769   2.500   6.158 -1.3996 -0.4410  0.5443
 4223SOL     OW24304   3.934   4.016   7.415  0.1586  0.0409  0.3676
 4223SOL    HW124305   3.967   4.000   7.503  0.3579 -1.0693  0.0923
 4223SOL    HW224306   3.859   3.956   7.410 -0.1286  0.3901  0.5622
 4224SOL     OW24307   3.865   1.667   4.461 -0.4692  0.1070  0.8106
 4224SOL    HW124308   3.831   1.597   4.405  0.1699  2.8242 -3.0391
 4224SOL    HW224309   3.808   1.739   4.433  0.7178  0.4947 -0.5961
 4225SOL     OW24310   4.042   2.282  10.231  0.0910  0.0688  0.0551
 4225SOL    HW124311   3.954   2.286  10.269  0.1376 -0.8229  0.2601
 4225SOL    HW224312   4.020   2.285  10.138 -3.3789  0.6327  0.8668
 4226SOL     OW24313   2.140   4.587   6.392  0.7026  0.0969 -0.0533
 4226SOL    HW124314   2.059   4.546   6.422 -0.4021  1.6762 -0.8962
 4226SOL    HW224315   2.113   4.570   6.302  1.6579  0.0355 -0.3332
 4227SOL     OW24316   2.116   3.253  15.018 -0.1341 -0.0111  0.1511
 4227SOL    HW124317   2.042   3.195  14.999  0.0472 -0.0500 -0.4408
 4227SOL    HW224318   2.084   3.337  14.988 -3.0625 -0.8699  0.9331
 4228SOL     OW24319   2.336   2.982   1.747  0.1160 -0.3244 -0.0177
 4228SOL    HW124320   2.280   3.035   1.691  1.1147  0.5445 -0.1851
 4228SOL    HW224321   2.275   2.912   1.771 -0.8384  1.3904  2.5054
 4229SOL     OW24322   0.138   4.366   5.046 -0.0393 -0.2261 -0.2165
 4229SOL    HW124323   0.097   4.284   5.073 -1.9540  1.7245  2.8276
 4229SOL    HW224324   0.109   4.385   4.956 -1.3306 -0.5658  0.1355
 4230SOL     OW24325   1.656   0.476   1.386 -0.0312  0.1838  0.2013
 4230SOL    HW124326   1.645   0.397   1.438 -1.0950 -1.6601 -2.8493
 4230SOL    HW224327   1.609   0.450   1.307 -0.6821  0.1002  0.6146
 4231SOL     OW24328   1.555   1.027   4.780 -0.0374 -0.4032 -0.3843
 4231SOL    HW124329   1.648   1.006   4.776  0.7361  2.6521  1.4968
 4231SOL    HW224330   1.555   1.109   4.831 -1.6486 -0.6891  0.0843
 4232SOL     OW24331   2.935   1.915   2.684 -0.1171 -0.0148  0.3627
 4232SOL    HW124332   2.969   1.878   2.602  1.3869  2.4328 -0.1334
 4232SOL    HW224333   2.870   1.849   2.705 -0.8346  0.5032 -0.1910
 4233SOL     OW24334   1.210   3.735   9.212 -0.3297  0.4895  0.0162
 4233SOL    HW124335   1.295   3.754   9.173  0.3110 -0.8827  0.7563
 4233SOL    HW224336   1.197   3.816   9.261 -2.1443  1.0758 -1.4176
 4234SOL     OW24337   2.838   1.385   8.458 -0.9948  0.2478  0.4003
 4234SOL    HW124338   2.783   1.463   8.467  1.3535  1.5560  3.5203
 4234SOL    HW224339   2.847   1.391   8.363  0.4421 -1.8651  0.4114
 4235SOL     OW24340   2.588   0.583   5.998  0.0453  0.3804  0.8439
 4235SOL    HW124341   2.583   0.492   6.026 -0.2754  0.2069  0.2230
 4235SOL    HW224342   2.522   0.618   6.058 -0.1227 -0.4903  1.1639
 4236SOL     OW24343   2.670   2.634   6.026  0.5357  0.3065 -0.5249
 4236SOL    HW124344   2.654   2.572   5.955 -2.1303  0.6184 -0.1967
 4236SOL    HW224345   2.576   2.642   6.042  0.2623  0.1314 -2.0353
 4237SOL     OW24346   0.488   2.254   4.853  0.1284 -0.0671  0.3668
 4237SOL    HW124347   0.475   2.296   4.938 -0.0372 -0.2623  0.4387
 4237SOL    HW224348   0.466   2.165   4.882 -0.2693  0.1275  0.6664
 4238SOL     OW24349   3.272   1.403   7.784 -0.1310 -0.1551  0.4332
 4238SOL    HW124350   3.233   1.487   7.759  2.0768  0.6686 -0.2720
 4238SOL    HW224351   3.191   1.352   7.792 -1.1466  1.6699  1.7460
 4239SOL     OW24352   0.514   3.436   5.427  0.1186  0.1776  0.0589
 4239SOL    HW124353   0.493   3.361   5.372  1.8206 -1.8509  2.1126
 4239SOL    HW224354   0.460   3.508   5.396 -0.7197  0.1313  1.4195
 4240SOL     OW24355   0.969   2.241   7.701  0.8460 -0.3862 -0.0934
 4240SOL    HW124356   1.030   2.193   7.756  0.2664  2.0372  2.6587
 4240SOL    HW224357   0.888   2.193   7.715  0.7570  0.4001  2.0628
 4241SOL     OW24358   2.687   2.007  14.382 -0.3674  0.6270  0.1035
 4241SOL    HW124359   2.756   2.062  14.346  1.0289  0.3716  2.3616
 4241SOL    HW224360   2.720   2.004  14.472 -1.7680  1.1181  0.6381
 4242SOL     OW24361   0.160   1.483   9.341  0.3577 -0.4357  0.5484
 4242SOL    HW124362   0.138   1.564   9.386 -0.0359 -1.2989  1.9226
 4242SOL    HW224363   0.091   1.422   9.367  1.1721 -0.1114  3.5873
 4243SOL     OW24364   2.683   1.989   8.664 -0.5121 -0.4631  0.4169
 4243SOL    HW124365   2.655   1.901   8.689 -0.2055 -0.6500  0.0839
 4243SOL    HW224366   2.605   2.008   8.612  0.1622  2.8015  0.6035
 4244SOL     OW24367   2.428   1.567  15.668  0.2061 -0.0535  0.3197
 4244SOL    HW124368   2.347   1.617  15.683 -0.0162 -0.8605  1.8880
 4244SOL    HW224369   2.470   1.575  15.754  0.6652 -1.2643  0.2122
 4245SOL     OW24370   0.374   2.820   4.410  0.0554 -0.1877  0.1669
 4245SOL    HW124371   0.357   2.904   4.367  0.1675 -0.3693 -0.2239
 4245SOL    HW224372   0.287   2.778   4.410 -0.9674  1.9108 -0.0016
 4246SOL     OW24373   4.019   3.893   2.071 -0.5569 -0.2733 -0.1871
 4246SOL    HW124374   4.107   3.921   2.048  0.0490 -2.3404 -0.3602
 4246SOL    HW224375   3.963   3.898   1.993  1.6798 -1.1580 -1.8173
 4247SOL     OW24376   1.552   2.313   3.899  0.3242 -0.1106  0.2344
 4247SOL    HW124377   1.491   2.243   3.876  1.7927 -1.0992 -0.6523
 4247SOL    HW224378   1.524   2.331   3.988 -1.0018  0.2520 -0.2646
 4248SOL     OW24379   0.391   2.358   2.049 -0.1047  0.0900 -0.2624
 4248SOL    HW124380   0.408   2.414   1.973 -1.0922 -0.3321 -0.7860
 4248SOL    HW224381   0.379   2.432   2.108  2.6675 -0.2619  0.7332
 4249SOL     OW24382   0.947   3.132   6.414 -0.5474  0.1385 -0.1007
 4249SOL    HW124383   0.943   3.219   6.376  0.8556  0.0095 -0.5264
 4249SOL    HW224384   1.026   3.132   6.468 -0.1057 -0.1722 -0.7376
 4250SOL     OW24385   3.106   0.371   6.735  0.7843  0.3092 -0.8523
 4250SOL    HW124386   3.137   0.334   6.818  1.0193  2.2909 -0.0672
 4250SOL    HW224387   3.141   0.456   6.762  1.2736 -0.3023  0.4364
 4251SOL     OW24388   3.103   3.004  13.660 -0.6173  0.2939  0.2703
 4251SOL    HW124389   3.055   3.048  13.730  0.0645  2.3310 -0.5597
 4251SOL    HW224390   3.197   3.019  13.672 -0.2614 -0.7062 -1.2822
 4252SOL     OW24391   1.170   3.296  12.342  0.1781 -0.0828  0.3132
 4252SOL    HW124392   1.182   3.213  12.388 -1.4075  1.0549  2.7720
 4252SOL    HW224393   1.114   3.258  12.273 -1.5279  1.8447  0.6395
 4253SOL     OW24394   2.773   3.206  15.821  0.6039  0.0670 -0.7340
 4253SOL    HW124395   2.704   3.241  15.764  0.3196 -1.2026 -1.1803
 4253SOL    HW224396   2.792   3.284  15.872  3.1919 -0.9485 -0.1547
 4254SOL     OW24397   1.274   3.978   7.886  0.2714  0.3349  0.1239
 4254SOL    HW124398   1.246   4.034   7.813  0.4968 -1.1481 -1.1037
 4254SOL    HW224399   1.283   4.042   7.957 -0.7971  0.3883  0.2069
 4255SOL     OW24400   2.255   1.977   5.409 -0.5098 -0.1956  0.6977
 4255SOL    HW124401   2.298   2.061   5.392  1.4838 -1.5742 -1.1143
 4255SOL    HW224402   2.187   2.015   5.465 -1.7629 -2.1151  0.4944
 4256SOL     OW24403   1.166   2.538  16.774  0.0444 -0.3763  0.6289
 4256SOL    HW124404   1.119   2.618  16.800  0.7642 -0.2762  1.6020
 4256SOL    HW224405   1.254   2.575  16.779  0.0396 -0.4102  0.9187
 4257SOL     OW24406   2.850   1.510   9.390  0.4641 -0.1715  0.1519
 4257SOL    HW124407   2.766   1.552   9.372 -0.4000 -2.0864 -0.2994
 4257SOL    HW224408   2.843   1.459   9.470  1.0480 -0.4722  0.0135
 4258SOL     OW24409   1.234   0.839   3.986  0.2508  0.4149  0.0095
 4258SOL    HW124410   1.225   0.876   4.074  0.5698 -1.0991  0.6937
 4258SOL    HW224411   1.231   0.925   3.946 -1.8448  0.5150  0.3986
 4259SOL     OW24412   4.669   4.623   7.185  0.3235  0.6027 -0.5751
 4259SOL    HW124413   0.018   4.620   7.141 -0.0004 -0.5417 -1.1252
 4259SOL    HW224414   4.644   4.531   7.195 -0.7599  1.0023  0.4484
 4260SOL     OW24415   1.054   3.453   3.856 -0.4535  0.6190  0.1988
 4260SOL    HW124416   1.056   3.447   3.952  1.1288 -1.1696  0.0459
 4260SOL    HW224417   0.962   3.426   3.847 -0.4255  0.7744 -0.5795
 4261SOL     OW24418   2.904   2.097   4.958 -0.9465 -0.2622 -0.1070
 4261SOL    HW124419   2.929   2.046   5.035  1.2441  1.9853  0.6957
 4261SOL    HW224420   2.841   2.029   4.935  0.2246 -1.4967  0.3125
 4262SOL     OW24421   4.679   3.476  11.256  0.1042 -0.2031 -0.2390
 4262SOL    HW124422   4.625   3.549  11.286  0.0103  0.1428 -1.2322
 4262SOL    HW224423   0.022   3.521  11.227 -0.0424 -0.8275 -1.5979
 4263SOL     OW24424   0.630   1.616   8.440 -0.1190  0.1134 -0.5811
 4263SOL    HW124425   0.580   1.552   8.389 -2.2096  2.6417 -1.6532
 4263SOL    HW224426   0.599   1.575   8.521  3.0133  0.4274  0.7902
 4264SOL     OW24427   0.757   1.080   8.603 -0.4283 -0.1737  0.2880
 4264SOL    HW124428   0.739   1.055   8.512  0.8754  1.3135 -0.3734
 4264SOL    HW224429   0.847   1.110   8.589  0.3685 -2.6252  0.0774
 4265SOL     OW24430   2.807   2.195  15.126  0.2825 -0.1222  0.1026
 4265SOL    HW124431   2.762   2.195  15.211 -0.2507  1.8302 -0.1706
 4265SOL    HW224432   2.842   2.107  15.135 -1.4788 -0.4240  3.7480
 4266SOL     OW24433   0.828   3.102   0.016  0.3076 -0.0245 -0.9983
 4266SOL    HW124434   0.882   3.029   0.046 -2.3462 -1.4430  0.3709
 4266SOL    HW224435   0.844   3.166   0.085  2.5150 -2.2824  0.5670
 4267SOL     OW24436   1.029   2.760   5.062 -0.6371  0.3100 -0.2531
 4267SOL    HW124437   1.003   2.838   5.014 -2.6020 -0.1432  0.0878
 4267SOL    HW224438   0.950   2.732   5.108 -0.8014  0.1256 -0.6505
 4268SOL     OW24439   0.699   1.734   6.702 -0.7422  0.0130  0.3211
 4268SOL    HW124440   0.619   1.714   6.653 -0.0477  0.9753 -1.2260
 4268SOL    HW224441   0.771   1.700   6.649  0.6132  1.2105  1.3957
 4269SOL     OW24442   3.716   3.033   2.704  0.1931 -0.7074  0.4239
 4269SOL    HW124443   3.762   3.103   2.658 -1.1396  0.5764  1.0487
 4269SOL    HW224444   3.633   3.076   2.724  1.8679  1.8717  1.8387
 4270SOL     OW24445   1.139   1.736   3.543 -0.0788 -0.2503 -0.4217
 4270SOL    HW124446   1.196   1.683   3.599 -0.0156 -0.3199 -0.5485
 4270SOL    HW224447   1.196   1.810   3.523 -0.3460  0.9630  3.4402
 4271SOL     OW24448   0.895   1.467  14.452 -0.4035 -0.1893 -0.3764
 4271SOL    HW124449   0.966   1.422  14.497 -1.4225 -1.6281 -0.1966
 4271SOL    HW224450   0.907   1.549  14.499 -0.0536  0.9738 -2.4745
 4272SOL     OW24451   2.154   3.255   0.805 -0.4368 -0.2265  0.0072
 4272SOL    HW124452   2.073   3.205   0.797 -2.0737  2.3452  0.4816
 4272SOL    HW224453   2.168   3.257   0.900  2.0161  0.4085 -0.3614
 4273SOL     OW24454   0.963   3.635   7.979  0.4232  0.5321  0.5113
 4273SOL    HW124455   1.052   3.642   8.014  0.7587  0.4717 -0.3340
 4273SOL    HW224456   0.969   3.583   7.899 -0.5669 -0.7971  1.3043
 4274SOL     OW24457   3.290   0.089   9.967  0.2353  0.1422  0.0896
 4274SOL    HW124458   3.322   0.004   9.995  1.0124 -0.2545 -2.0076
 4274SOL    HW224459   3.251   0.137  10.040  0.6285  1.7990 -0.7763
 4275SOL     OW24460   4.410   3.024   3.566  0.1949 -0.0267  0.3133
 4275SOL    HW124461   4.325   3.019   3.609 -1.8322 -0.7640 -3.7864
 4275SOL    HW224462   4.385   3.021   3.474  1.5519 -0.2717 -0.0534
 4276SOL     OW24463   1.411   2.453   4.542 -0.7485 -0.3064  0.6229
 4276SOL    HW124464   1.458   2.380   4.581 -1.8912 -0.3874  1.8598
 4276SOL    HW224465   1.389   2.502   4.622  0.1387 -0.0700  0.7159
 4277SOL     OW24466   3.648   1.041   1.737  0.7733  0.1459 -0.0295
 4277SOL    HW124467   3.718   1.093   1.698  1.6165  0.7520  2.2615
 4277SOL    HW224468   3.711   0.977   1.773  1.3208  1.4012  1.2679
 4278SOL     OW24469   3.544   3.675   2.610  0.4938  0.1505 -1.0323
 4278SOL    HW124470   3.589   3.744   2.658  3.4710 -1.7604 -1.1145
 4278SOL    HW224471   3.495   3.637   2.684  1.9596 -0.3889 -0.3469
 4279SOL     OW24472   0.695   1.306   7.270 -0.5637 -0.2854  0.6259
 4279SOL    HW124473   0.788   1.300   7.245 -0.8777  0.2105 -0.6791
 4279SOL    HW224474   0.686   1.399   7.248  1.8686 -0.5093 -1.3613
 4280SOL     OW24475   2.474   2.658   7.011 -0.2588  0.5529  0.4929
 4280SOL    HW124476   2.403   2.708   7.051 -1.4759 -1.6438  1.0371
 4280SOL    HW224477   2.480   2.682   6.918 -1.0890  3.0875  1.0939
 4281SOL     OW24478   3.664   4.723  14.006  0.0306  0.5141 -0.0304
 4281SOL    HW124479   3.722   0.058  13.978  0.9664 -0.0496  0.4422
 4281SOL    HW224480   3.724   4.686  14.071  1.1127  1.1968 -0.6320
 4282SOL     OW24481   2.930   4.027   9.428  0.0406  0.0692  0.4534
 4282SOL    HW124482   2.956   3.944   9.467  1.9346  0.7108  0.5401
 4282SOL    HW224483   2.840   4.029   9.460 -0.4893  0.4420 -1.0457
 4283SOL     OW24484   2.649   0.864  17.196  0.3307  0.0722 -0.8657
 4283SOL    HW124485   2.554   0.858  17.193  0.3971 -0.5165 -1.7146
 4283SOL    HW224486   2.662   0.958  17.204 -0.8883 -0.0208  2.3389
 4284SOL     OW24487   4.682   0.164   0.631 -0.0633 -0.0032 -0.2181
 4284SOL    HW124488   4.610   0.102   0.637  1.3603 -1.6443  0.0639
 4284SOL    HW224489   4.701   0.144   0.540 -0.7336  3.0453 -1.0371
 4285SOL     OW24490   2.705   3.300   6.818 -0.3510 -0.0272 -0.4447
 4285SOL    HW124491   2.621   3.302   6.863 -0.6388 -2.5643 -0.8990
 4285SOL    HW224492   2.771   3.282   6.886 -1.2201  0.0931  0.4356
 4286SOL     OW24493   4.079   4.080  10.228  0.3740 -0.0190  0.1174
 4286SOL    HW124494   4.123   4.058  10.146  1.0883 -0.4461  0.6178
 4286SOL    HW224495   4.117   4.167  10.243 -0.9343  0.9662 -2.2733
 4287SOL     OW24496   3.222   2.968  17.485 -0.1007 -0.2527 -0.0785
 4287SOL    HW124497   3.261   3.050  17.455 -1.4251  0.9858  1.6314
 4287SOL    HW224498   3.156   2.957  17.417 -2.0161 -0.2163  1.7560
 4288SOL     OW24499   1.395   2.634   2.637  0.2434  0.0423  0.0030
 4288SOL    HW124500   1.329   2.567   2.658  2.1786 -1.0151  2.6853
 4288SOL    HW224501   1.341   2.702   2.596  2.0610  1.5593  0.1409
 4289SOL     OW24502   4.365   1.836   9.686  0.1499  0.0741 -0.3661
 4289SOL    HW124503   4.273   1.852   9.665 -0.5856  0.1550  2.8804
 4289SOL    HW224504   4.405   1.889   9.617  1.7849  0.5640  0.9476
 4290SOL     OW24505   2.031   4.269   6.573 -0.0335  0.0255 -0.1780
 4290SOL    HW124506   1.966   4.336   6.553  0.3112  0.0869 -1.0894
 4290SOL    HW224507   2.082   4.306   6.645  0.3736  0.6714 -0.8026
 4291SOL     OW24508   2.502   2.968   5.251  0.0911 -0.6563  0.1174
 4291SOL    HW124509   2.423   3.017   5.274  0.1756 -0.3239 -0.2886
 4291SOL    HW224510   2.566   3.037   5.234 -1.4055  1.1375  1.8433
 4292SOL     OW24511   3.015   2.848   5.026  0.3261  0.9294  0.6057
 4292SOL    HW124512   3.101   2.883   5.051 -0.3502  0.5339  3.4749
 4292SOL    HW224513   3.029   2.761   5.063  1.4120  0.2048 -1.4880
 4293SOL     OW24514   0.266   4.555   2.838 -0.0949 -0.4616 -0.8385
 4293SOL    HW124515   0.246   4.561   2.745  1.3824  2.1828 -0.9776
 4293SOL    HW224516   0.224   4.472   2.862  0.5224 -0.4179  0.3879
 4294SOL     OW24517   2.310   1.206  10.547 -0.0120  1.0241 -0.0695
 4294SOL    HW124518   2.284   1.159  10.626 -0.0221  1.0546 -0.0549
 4294SOL    HW224519   2.347   1.288  10.578 -0.4446  1.1574  0.0951
 4295SOL     OW24520   4.066   2.463  10.688 -0.2349  0.3115  0.1771
 4295SOL    HW124521   4.050   2.489  10.778 -1.9673 -0.3465  0.0589
 4295SOL    HW224522   4.148   2.506  10.665 -0.4064  1.2478  1.3638
 4296SOL     OW24523   0.947   1.305   4.088  0.0301  0.3392  0.3984
 4296SOL    HW124524   0.951   1.298   3.993  2.0377  0.5200  0.4769
 4296SOL    HW224525   0.859   1.269   4.102  0.1142  1.0405  2.8552
 4297SOL     OW24526   0.052   2.737   5.240  0.3387 -0.2214 -0.2693
 4297SOL    HW124527   0.115   2.692   5.184  0.0149  2.2195 -2.5821
 4297SOL    HW224528   4.724   2.665   5.244 -1.4274  1.3609 -0.2187
 4298SOL     OW24529   4.196   1.293   5.223 -0.4301 -0.0353  0.0219
 4298SOL    HW124530   4.168   1.228   5.158  2.2138 -2.4119  1.2790
 4298SOL    HW224531   4.241   1.242   5.290  0.3994 -2.0414 -2.0381
 4299SOL     OW24532   3.961   3.561   4.403  0.1701 -0.2122  0.2042
 4299SOL    HW124533   3.951   3.467   4.387  0.4503 -0.4031  1.1695
 4299SOL    HW224534   3.875   3.603   4.395  0.4986 -0.0332 -2.3810
 4300SOL     OW24535   0.969   2.784   1.623  0.2803  0.3244  0.1592
 4300SOL    HW124536   0.876   2.781   1.648  0.4919 -0.2058  0.8806
 4300SOL    HW224537   1.009   2.701   1.647 -3.3413 -0.6395  2.8341
 4301SOL     OW24538   4.286   2.169   4.380  0.2152 -0.1158  0.0247
 4301SOL    HW124539   4.342   2.099   4.415  0.2326 -0.0707  0.0863
 4301SOL    HW224540   4.345   2.242   4.393 -2.1820  1.9025 -0.4159
 4302SOL     OW24541   4.291   4.630   3.593  0.4426  0.2817 -0.2194
 4302SOL    HW124542   4.337   4.688   3.654  0.2205  0.3037 -0.0752
 4302SOL    HW224543   4.203   4.623   3.630  2.1313  0.0070  3.7330
 4303SOL     OW24544   3.847   1.215   1.612  0.2566 -0.5504  0.0644
 4303SOL    HW124545   3.877   1.238   1.700  1.3464  0.1599 -0.4876
 4303SOL    HW224546   3.927   1.233   1.562 -0.6141  0.8229 -0.8175
 4304SOL     OW24547   1.298   2.608  11.552 -0.1282  0.7197  0.9754
 4304SOL    HW124548   1.364   2.634  11.488 -0.7598  0.5993  0.2756
 4304SOL    HW224549   1.326   2.517  11.569 -1.1107  0.5707  1.7807
 4305SOL     OW24550   1.214   4.137  14.241  0.4772  0.4239 -0.2395
 4305SOL    HW124551   1.191   4.230  14.242  0.6168  0.4507  0.4795
 4305SOL    HW224552   1.308   4.154  14.251  0.2686  1.3469  0.1792
 4306SOL     OW24553   2.983   0.978   6.672 -0.6189 -0.3516 -0.3413
 4306SOL    HW124554   2.928   0.907   6.705  1.0238 -0.2256  2.6863
 4306SOL    HW224555   3.044   0.969   6.746  0.2276 -1.9067 -1.2248
 4307SOL     OW24556   4.223   0.386   9.480  0.4823 -0.2164  0.2732
 4307SOL    HW124557   4.265   0.432   9.553  0.3114  0.6173 -0.1591
 4307SOL    HW224558   4.279   0.309   9.470  1.2478  0.7053 -2.3990
 4308SOL     OW24559   2.075   2.137  14.576  0.2397 -0.6419  0.0681
 4308SOL    HW124560   2.106   2.167  14.491 -2.2704  1.2088 -0.1993
 4308SOL    HW224561   2.162   2.116  14.610 -0.0636  0.6370  1.6764
 4309SOL     OW24562   1.494   0.372   0.236  0.7814  0.1247  0.8603
 4309SOL    HW124563   1.463   0.394   0.148  0.7324  0.7194  1.0276
 4309SOL    HW224564   1.479   0.462   0.265  2.1871  0.2788  1.0798
 4310SOL     OW24565   1.716   1.350   6.380 -0.4990  0.2106 -0.8156
 4310SOL    HW124566   1.739   1.387   6.466 -2.4479  0.9159 -0.5860
 4310SOL    HW224567   1.654   1.282   6.407  0.0689  0.8396  2.0624
 4311SOL     OW24568   3.957   2.468   3.301  0.0615 -0.1049  0.6038
 4311SOL    HW124569   3.884   2.414   3.330 -0.5969 -0.3376 -1.5580
 4311SOL    HW224570   3.915   2.533   3.245  2.3854 -0.0942 -1.1466
 4312SOL     OW24571   1.840   3.705   2.304 -0.0100 -0.6878 -0.3018
 4312SOL    HW124572   1.838   3.734   2.213 -0.4594  0.1051 -0.0384
 4312SOL    HW224573   1.780   3.766   2.346 -0.0382  0.3576 -1.8816
 4313SOL     OW24574   1.028   4.486  13.902 -0.3315 -0.0223 -0.7405
 4313SOL    HW124575   1.086   4.436  13.845 -1.2612 -4.5065  2.2209
 4313SOL    HW224576   1.040   4.578  13.879  1.8699  0.1027  0.9205
 4314SOL     OW24577   0.357   2.699   9.170  0.2739 -0.4139  0.6952
 4314SOL    HW124578   0.334   2.753   9.094  0.1255 -0.9859  0.3389
 4314SOL    HW224579   0.431   2.752   9.203 -0.3682 -0.6283  2.4877
 4315SOL     OW24580   2.565   1.603  17.475 -0.1444 -0.0300 -0.0886
 4315SOL    HW124581   2.476   1.590  17.508  1.0996 -4.1768  1.7361
 4315SOL    HW224582   2.561   1.697  17.461 -0.3387 -0.0147  0.0712
 4316SOL     OW24583   1.835   3.656   5.596 -0.1166 -0.3867  0.2297
 4316SOL    HW124584   1.896   3.600   5.548  1.5369  0.7194  1.0442
 4316SOL    HW224585   1.874   3.742   5.581  0.9680 -0.8499  0.3306
 4317SOL     OW24586   3.738   2.006   2.326  0.2550 -0.1639  0.3538
 4317SOL    HW124587   3.741   1.998   2.231 -1.2163  1.3187  0.1877
 4317SOL    HW224588   3.830   1.988   2.346  0.5900 -1.6572 -2.4642
 4318SOL     OW24589   2.813   0.343   9.272 -0.0129 -0.1705 -0.3719
 4318SOL    HW124590   2.751   0.329   9.344  0.8309  0.0072  0.3964
 4318SOL    HW224591   2.891   0.301   9.307 -0.0272  1.5943  1.8699
 4319SOL     OW24592   0.151   2.058   5.283 -0.0979  0.4088  0.6627
 4319SOL    HW124593   0.162   2.039   5.190 -0.6348 -0.9271  0.8742
 4319SOL    HW224594   0.110   2.144   5.278  1.4833  0.9818 -2.4715
 4320SOL     OW24595   2.177   1.570   3.258 -0.3134  0.1173 -0.5095
 4320SOL    HW124596   2.231   1.505   3.303 -0.3929  0.1036 -0.4329
 4320SOL    HW224597   2.227   1.581   3.177 -1.3506  1.3953 -0.9754
 4321SOL     OW24598   2.126   2.121   5.029 -0.0927 -0.4427 -0.7382
 4321SOL    HW124599   2.119   2.025   5.035 -2.3042 -0.2471  0.1805
 4321SOL    HW224600   2.177   2.124   4.949  1.0579  0.5326  0.0345
 4322SOL     OW24601   1.747   4.030   2.813  0.0520 -0.5078 -0.2034
 4322SOL    HW124602   1.747   4.122   2.788 -0.4580  0.4147  3.1959
 4322SOL    HW224603   1.763   4.021   2.907 -1.0884 -1.1080 -0.0783
 4323SOL     OW24604   2.282   4.609  17.434 -0.1092  0.1292  0.0365
 4323SOL    HW124605   2.250   4.676  17.374 -0.8502  1.4734  1.9621
 4323SOL    HW224606   2.343   4.560  17.379 -1.0979 -1.1017  0.0417
 4324SOL     OW24607   3.660   2.070   2.945  0.3201 -0.1833  0.2937
 4324SOL    HW124608   3.615   2.145   2.906 -0.8294 -0.0430  1.8806
 4324SOL    HW224609   3.589   2.023   2.988  0.9184 -1.2089  0.1752
 4325SOL     OW24610   2.699   3.073   3.988 -0.2800  0.0411  0.6284
 4325SOL    HW124611   2.608   3.045   4.002  0.3146 -2.5378 -0.7284
 4325SOL    HW224612   2.725   3.094   4.077  0.0425 -1.0317  0.7827
 4326SOL     OW24613   4.573   2.454   8.580  0.2214 -0.4670  0.0989
 4326SOL    HW124614   4.650   2.476   8.631  1.6230 -0.9001 -1.8212
 4326SOL    HW224615   4.538   2.542   8.565  0.8233 -0.5745 -2.0073
 4327SOL     OW24616   2.852   2.572  13.470  0.7709  0.3390  0.2497
 4327SOL    HW124617   2.913   2.548  13.400 -2.1825 -0.2741 -2.0893
 4327SOL    HW224618   2.907   2.598  13.544  1.1325 -0.2565  0.1852
 4328SOL     OW24619   4.154   3.510   9.140 -0.4460 -0.5703  0.2653
 4328SOL    HW124620   4.128   3.418   9.147  1.3159 -1.1595 -0.8616
 4328SOL    HW224621   4.244   3.483   9.118 -0.1459  1.2178 -0.7000
 4329SOL     OW24622   0.826   3.275   6.774 -0.3515  0.0745 -0.0803
 4329SOL    HW124623   0.782   3.279   6.689  2.2578  2.4265 -1.3154
 4329SOL    HW224624   0.903   3.229   6.740  0.0208  1.0022 -0.4795
 4330SOL     OW24625   3.824   3.131  11.617  0.2268  0.2751  0.3008
 4330SOL    HW124626   3.743   3.091  11.649 -0.3434  1.7136  0.6341
 4330SOL    HW224627   3.877   3.054  11.636 -0.7172 -0.3141  0.5835
 4331SOL     OW24628   0.563   3.813   8.461  0.4604  0.5510 -0.0955
 4331SOL    HW124629   0.648   3.796   8.422 -0.2654  0.5307 -1.6712
 4331SOL    HW224630   0.583   3.837   8.552 -3.0109  0.1820  0.7934
 4332SOL     OW24631   1.825   3.946   5.624 -0.0069  0.8865 -0.5498
 4332SOL    HW124632   1.903   3.998   5.603  1.5987 -1.8758 -1.4112
 4332SOL    HW224633   1.781   4.018   5.669  0.1635  1.6935 -1.6755
 4333SOL     OW24634   3.493   0.828   4.954  0.2417 -0.3392 -0.2462
 4333SOL    HW124635   3.480   0.869   4.869  2.8347  1.6697  0.3078
 4333SOL    HW224636   3.573   0.777   4.942  2.3032  2.6900  0.5788
 4334SOL     OW24637   0.818   2.467   7.227 -0.2429 -0.0845  0.2400
 4334SOL    HW124638   0.783   2.410   7.296 -0.2234  0.0555  0.3631
 4334SOL    HW224639   0.910   2.478   7.249  0.1201  1.7897 -2.2810
 4335SOL     OW24640   0.951   1.037   5.177 -0.4204 -0.6252 -0.8282
 4335SOL    HW124641   0.856   1.048   5.182 -0.3900 -0.8334  0.1289
 4335SOL    HW224642   0.970   0.980   5.251 -0.3629  1.8876  1.0956
 4336SOL     OW24643   3.969   4.478   8.617  0.2687  0.3830 -0.5966
 4336SOL    HW124644   4.054   4.442   8.646 -0.2034 -0.8671 -0.7471
 4336SOL    HW224645   3.941   4.524   8.695  0.5934 -1.0384  0.3612
 4337SOL     OW24646   1.997   2.453   6.059 -0.0932  0.1129 -0.4173
 4337SOL    HW124647   2.036   2.417   5.979 -0.0780 -0.9534  0.0719
 4337SOL    HW224648   2.080   2.478   6.099 -0.6431 -0.2477  0.9452
 4338SOL     OW24649   3.587   2.670   5.123  0.0115 -0.4428 -0.1375
 4338SOL    HW124650   3.565   2.764   5.125  0.8912 -0.3084  4.5143
 4338SOL    HW224651   3.527   2.641   5.192 -0.4108  0.0934 -0.2750
 4339SOL     OW24652   0.580   4.546   9.752 -0.3714 -0.4889  0.1145
 4339SOL    HW124653   0.619   4.458   9.748 -1.5968 -1.0204  0.0262
 4339SOL    HW224654   0.659   4.597   9.772  0.4262 -0.6690 -2.5365
 4340SOL     OW24655   1.045   3.564   7.284  0.0912  0.5306  0.0275
 4340SOL    HW124656   1.046   3.468   7.287  1.5672  0.5408 -0.3403
 4340SOL    HW224657   1.042   3.568   7.188  0.1918  0.7076  0.0332
 4341SOL     OW24658   1.999   1.189   4.466 -0.0785  0.0812 -0.2401
 4341SOL    HW124659   1.946   1.268   4.462 -0.0740  0.1252  0.6028
 4341SOL    HW224660   2.082   1.229   4.491  1.6288 -2.5035 -1.7646
 4342SOL     OW24661   2.279   2.008   6.249  0.1239  0.4926 -0.6053
 4342SOL    HW124662   2.318   1.921   6.256  0.3945  0.8532  2.3462
 4342SOL    HW224663   2.221   2.019   6.324  1.8165  0.3598  0.7358
 4343SOL     OW24664   0.728   1.500   8.806  1.3947 -0.3074  0.1666
 4343SOL    HW124665   0.670   1.511   8.881  0.6907 -1.2081 -0.2512
 4343SOL    HW224666   0.674   1.444   8.750  0.8125  0.9431 -0.5217
 4344SOL     OW24667   0.586   3.498   7.358 -0.2746 -0.4645  0.0714
 4344SOL    HW124668   0.650   3.562   7.388  1.2398 -1.4232 -1.1518
 4344SOL    HW224669   0.591   3.520   7.265 -2.7646  0.4694  0.1551
 4345SOL     OW24670   2.200   0.466   5.248 -0.0368  0.0826 -0.2311
 4345SOL    HW124671   2.203   0.466   5.344  0.8199 -2.8013 -0.2424
 4345SOL    HW224672   2.263   0.395   5.237 -1.6836 -1.4925  0.3292
 4346SOL     OW24673   2.454   4.185   6.163  0.1172 -0.0244  0.3847
 4346SOL    HW124674   2.367   4.152   6.141 -0.0824 -0.2348  1.4855
 4346SOL    HW224675   2.451   4.195   6.258  0.2094 -0.8746  0.4788
 4347SOL     OW24676   1.195   0.620   7.650  0.2222  0.1355  0.0615
 4347SOL    HW124677   1.235   0.706   7.637 -0.5978  0.5214  0.0731
 4347SOL    HW224678   1.245   0.573   7.583  0.9495 -0.1330  0.8004
 4348SOL     OW24679   0.115   2.719  15.875 -0.3119  0.3665  0.0618
 4348SOL    HW124680   0.053   2.782  15.838  0.5262 -0.0845 -2.1190
 4348SOL    HW224681   0.132   2.659  15.802 -0.3491  0.2301  0.1652
 4349SOL     OW24682   3.268   0.123   3.205 -0.2140 -0.5461 -0.0611
 4349SOL    HW124683   3.332   0.189   3.234  0.7925 -0.4396 -2.5648
 4349SOL    HW224684   3.192   0.148   3.257 -1.3871 -0.4905 -1.8027
 4350SOL     OW24685   1.608   4.621   7.583 -0.6661  0.5866  0.5861
 4350SOL    HW124686   1.694   4.605   7.545 -1.3746 -3.4374  0.7094
 4350SOL    HW224687   1.604   4.715   7.561 -1.0487  0.1755 -1.1060
 4351SOL     OW24688   1.023   3.042  16.012 -0.1126 -0.0923  0.8901
 4351SOL    HW124689   0.994   3.100  15.941 -3.6041 -2.0839  0.6785
 4351SOL    HW224690   1.103   3.003  15.977 -0.2647 -0.4159  0.9050
 4352SOL     OW24691   2.668   1.369   5.083  0.0485 -0.7918  0.7011
 4352SOL    HW124692   2.690   1.433   5.015  1.1857 -0.3972  1.4478
 4352SOL    HW224693   2.600   1.325   5.032  2.1251 -2.7030 -0.3993
 4353SOL     OW24694   2.203   1.813  10.377 -0.3812 -0.0341 -0.6523
 4353SOL    HW124695   2.156   1.740  10.335 -0.3762 -0.7672  0.6028
 4353SOL    HW224696   2.197   1.785  10.468 -0.4786 -0.9585 -0.9415
 4354SOL     OW24697   3.406   0.882   8.236  0.3798 -0.2182 -0.1316
 4354SOL    HW124698   3.461   0.840   8.302 -3.1047 -1.2955  2.0903
 4354SOL    HW224699   3.316   0.885   8.268 -0.3317 -0.3746 -2.0979
 4355SOL     OW24700   3.119   2.872   5.397 -0.0815 -0.5128  0.5393
 4355SOL    HW124701   3.152   2.782   5.397  0.2804 -0.3812  0.3011
 4355SOL    HW224702   3.181   2.912   5.336  0.2235  0.0529  1.2097
 4356SOL     OW24703   0.401   4.132  14.852  0.1277  0.3353  0.2879
 4356SOL    HW124704   0.374   4.131  14.760  0.6615  0.4145  0.1285
 4356SOL    HW224705   0.464   4.062  14.835 -0.2329  0.2023 -0.4878
 4357SOL     OW24706   3.908   1.262   3.892  0.1789  0.6540 -0.6702
 4357SOL    HW124707   3.842   1.308   3.943  1.9367  1.2482  1.0419
 4357SOL    HW224708   3.865   1.177   3.884  0.0076  0.7183 -0.3991
 4358SOL     OW24709   1.855   4.392   8.022 -0.2061 -0.0940 -0.5934
 4358SOL    HW124710   1.862   4.362   8.113 -0.4677 -4.6988 -2.0766
 4358SOL    HW224711   1.854   4.311   7.971  0.1865 -0.3931 -0.1260
 4359SOL     OW24712   2.630   1.522   1.652 -0.1502 -0.4787  0.1506
 4359SOL    HW124713   2.555   1.472   1.620  0.3527 -0.6783 -0.7170
 4359SOL    HW224714   2.627   1.505   1.746  0.2613  0.0982  0.2694
 4360SOL     OW24715   3.552   4.371  16.419  0.4011 -0.1867 -0.3310
 4360SOL    HW124716   3.614   4.303  16.447  1.1449  0.5105 -0.2930
 4360SOL    HW224717   3.596   4.404  16.340 -1.8337 -2.2540 -2.4342
 4361SOL     OW24718   2.240   0.222   0.089 -0.0837  0.1422  0.3729
 4361SOL    HW124719   2.315   0.190   0.038  1.2891  0.4989  2.1804
 4361SOL    HW224720   2.267   0.187   0.174  1.0881 -1.8548 -0.7933
 4362SOL     OW24721   2.253   2.856   1.152 -0.1310  0.2098  0.1761
 4362SOL    HW124722   2.232   2.949   1.153 -0.7098  0.0899 -0.4648
 4362SOL    HW224723   2.283   2.856   1.061  0.9165  1.4761  0.5150
 4363SOL     OW24724   4.632   3.484  15.578 -0.0611  0.0848 -0.1340
 4363SOL    HW124725   4.607   3.400  15.540  0.4818  0.1046 -0.5319
 4363SOL    HW224726   4.559   3.510  15.635 -0.7474 -0.5013 -0.7556
 4364SOL     OW24727   4.589   3.057  17.713  0.9405 -0.7874  0.2985
 4364SOL    HW124728   4.665   3.009   0.003  2.4210  1.5532  0.2907
 4364SOL    HW224729   4.594   3.022  17.623 -0.4731  0.7614 -0.3698
 4365SOL     OW24730   1.029   2.506   1.705  0.6119 -0.4526 -0.4367
 4365SOL    HW124731   0.939   2.501   1.673 -0.3577  1.7684  1.9329
 4365SOL    HW224732   1.055   2.426   1.752  0.7035  0.7875  1.6225
 4366SOL     OW24733   2.700   3.612   7.036 -0.1436 -0.2904  0.1550
 4366SOL    HW124734   2.744   3.528   7.021 -0.8099 -0.4845 -0.7386
 4366SOL    HW224735   2.771   3.654   7.085  0.4307 -0.8478 -0.2106
 4367SOL     OW24736   3.362   0.096   8.954 -0.6890 -0.0093 -0.4507
 4367SOL    HW124737   3.332   0.137   8.873 -2.1260 -1.6916 -0.7915
 4367SOL    HW224738   3.310   0.151   9.013  0.1925  1.1306 -0.7552
 4368SOL     OW24739   1.641   1.954  15.384 -0.2799 -0.5716  0.0334
 4368SOL    HW124740   1.710   1.913  15.436 -0.1398 -2.8829 -1.9994
 4368SOL    HW224741   1.617   1.877  15.332 -0.0176 -2.4162  2.5966
 4369SOL     OW24742   1.162   2.481   2.776 -0.2380  0.1591  0.0480
 4369SOL    HW124743   1.086   2.430   2.749 -1.8504  1.4423  2.1860
 4369SOL    HW224744   1.121   2.552   2.825 -0.0954 -0.8876  1.6944
 4370SOL     OW24745   4.488   0.601   6.555  0.2183  0.5134  0.4709
 4370SOL    HW124746   4.403   0.605   6.598  0.3280 -1.8337  0.9067
 4370SOL    HW224747   4.502   0.507   6.547  0.0145  0.3800  1.6418
 4371SOL     OW24748   2.134   3.017   5.899 -0.4326  0.9682 -0.5009
 4371SOL    HW124749   2.154   3.017   5.806  1.2992 -2.2606 -0.0897
 4371SOL    HW224750   2.149   3.111   5.910  0.2554  0.7187  0.7295
 4372SOL     OW24751   2.720   4.347   8.783 -0.1739  0.1089  0.3839
 4372SOL    HW124752   2.729   4.315   8.872  1.1538 -1.0298 -0.1661
 4372SOL    HW224753   2.625   4.357   8.772 -0.1595  1.8561  1.6908
 4373SOL     OW24754   2.648   1.931   7.917  0.5469  0.3628 -0.0534
 4373SOL    HW124755   2.632   1.970   8.003 -0.5454 -0.2436  0.0136
 4373SOL    HW224756   2.675   2.012   7.873 -1.0642  1.1211  0.3500
 4374SOL     OW24757   0.556   2.736   7.444 -0.5969  0.2922  0.1567
 4374SOL    HW124758   0.599   2.777   7.519 -1.1933 -0.7499  1.0800
 4374SOL    HW224759   0.526   2.811   7.393  0.1432 -0.7683 -1.8255
 4375SOL     OW24760   0.842   3.900  16.047 -0.0675  0.1158  0.1353
 4375SOL    HW124761   0.891   3.954  16.108  0.1349 -1.1540  1.0950
 4375SOL    HW224762   0.860   3.953  15.970  2.1846  0.5242  0.9431
 4376SOL     OW24763   0.089   2.095   3.352  0.1676  0.3508 -0.4953
 4376SOL    HW124764   0.042   2.178   3.353  2.6095  1.7263  1.1643
 4376SOL    HW224765   0.165   2.119   3.299  1.0328  2.4119  1.6956
 4377SOL     OW24766   4.352   1.324   2.398  0.2382  0.3997 -0.5144
 4377SOL    HW124767   4.401   1.244   2.385 -0.2139 -0.2024  1.4817
 4377SOL    HW224768   4.354   1.338   2.493  0.0360  3.2861 -0.9161
 4378SOL     OW24769   3.715   0.509  17.155 -0.0257  0.0899  0.5179
 4378SOL    HW124770   3.747   0.466  17.075  1.1880  1.5110  0.2480
 4378SOL    HW224771   3.626   0.477  17.166 -0.2889  0.5120 -0.3951
 4379SOL     OW24772   0.941   3.287   5.400  0.3758 -0.0269  0.0383
 4379SOL    HW124773   0.903   3.351   5.460  2.3059 -1.7460  3.0917
 4379SOL    HW224774   0.947   3.334   5.317 -0.3965  1.2109  0.6953
 4380SOL     OW24775   2.502   3.298   5.421  0.1629 -0.3258 -0.3342
 4380SOL    HW124776   2.546   3.337   5.497 -1.7741  0.5833  0.3199
 4380SOL    HW224777   2.433   3.258   5.473  0.1954 -1.4744 -1.1915
 4381SOL     OW24778   2.880   1.265   5.256 -0.0534 -0.3907 -0.1118
 4381SOL    HW124779   2.808   1.310   5.212  1.0791  2.2021  0.6794
 4381SOL    HW224780   2.857   1.178   5.222 -0.6748  0.5899 -2.1654
 4382SOL     OW24781   4.462   3.329   6.183  0.2209 -0.0346  0.0342
 4382SOL    HW124782   4.472   3.237   6.208 -1.2037  0.3858  2.0755
 4382SOL    HW224783   4.467   3.375   6.267 -2.8987 -0.4304  0.4484
 4383SOL     OW24784   3.419   0.909   9.952  0.2213 -0.3708  0.9272
 4383SOL    HW124785   3.482   0.844   9.922  0.6797  1.0893 -1.2609
 4383SOL    HW224786   3.345   0.897   9.892  0.8107  3.8794 -0.6436
 4384SOL     OW24787   3.522   0.148   2.097  0.4102 -0.4335  0.0658
 4384SOL    HW124788   3.510   0.210   2.169 -0.7347 -0.5881 -0.0027
 4384SOL    HW224789   3.465   0.184   2.030  0.9864 -1.1511 -0.8134
 4385SOL     OW24790   3.741   4.670   2.656  0.1392 -0.2035 -0.7660
 4385SOL    HW124791   3.772   4.727   2.586  0.5442  1.2086  0.5569
 4385SOL    HW224792   3.771   4.586   2.622 -0.9641  0.1654 -2.6388
 4386SOL     OW24793   3.281   0.819   2.675  0.0935  0.2511  0.1947
 4386SOL    HW124794   3.239   0.902   2.656  0.2879  0.3107  0.0289
 4386SOL    HW224795   3.370   0.855   2.682  0.1370 -0.3473  2.8155
 4387SOL     OW24796   2.221   1.166   6.468 -0.2068 -0.3612 -0.4213
 4387SOL    HW124797   2.205   1.225   6.394 -0.7532 -0.7297 -0.5960
 4387SOL    HW224798   2.316   1.156   6.463  0.0213  2.5894 -1.9602
 4388SOL     OW24799   3.196   4.214   8.305  0.0924 -0.0126  0.2741
 4388SOL    HW124800   3.186   4.170   8.390 -0.2335  1.9361  1.2461
 4388SOL    HW224801   3.242   4.294   8.333  1.5224 -0.7293 -0.0330
 4389SOL     OW24802   0.549   3.242  16.022  0.5856 -0.4235 -0.3517
 4389SOL    HW124803   0.518   3.214  16.108  2.0141  0.0093  0.3047
 4389SOL    HW224804   0.627   3.187  16.032 -0.4544 -2.1573 -1.8369
 4390SOL     OW24805   3.203   2.600   4.160  0.4682  0.0205 -0.4195
 4390SOL    HW124806   3.152   2.666   4.207  1.6414 -0.5157  1.6013
 4390SOL    HW224807   3.287   2.630   4.196  0.9370  0.5558 -1.9453
 4391SOL     OW24808   1.758   1.297   3.965 -0.0071 -0.1007  0.0340
 4391SOL    HW124809   1.761   1.313   4.059 -0.9674  0.0420  0.0379
 4391SOL    HW224810   1.663   1.301   3.951 -0.1920 -0.5762  1.2153
 4392SOL     OW24811   1.903   3.695   3.081  0.3188 -0.1030 -0.4324
 4392SOL    HW124812   1.929   3.735   2.998 -0.9690  0.4920 -0.5460
 4392SOL    HW224813   1.921   3.601   3.075  0.9406 -0.1088  1.4466
 4393SOL     OW24814   4.025   4.582   2.422  0.3316  0.1969  0.0849
 4393SOL    HW124815   3.966   4.537   2.483 -0.2691  0.1774 -0.5203
 4393SOL    HW224816   3.981   4.572   2.338 -0.9235 -1.6005  0.9496
 4394SOL     OW24817   3.417   1.301   3.042  0.5531  0.2602 -0.0859
 4394SOL    HW124818   3.386   1.240   3.108  0.8412  1.7496  1.4399
 4394SOL    HW224819   3.497   1.261   3.008  0.0321 -0.2554 -0.7109
 4395SOL     OW24820   2.436   0.425   8.112  0.0040  0.3468  0.5498
 4395SOL    HW124821   2.456   0.332   8.126 -1.0532  0.3315  1.9274
 4395SOL    HW224822   2.516   0.462   8.150 -0.7849  0.4035  2.1309
 4396SOL     OW24823   2.165   3.151   9.132  0.6347 -0.2468 -0.2907
 4396SOL    HW124824   2.102   3.099   9.082 -0.9653 -0.8022  2.2978
 4396SOL    HW224825   2.128   3.236   9.106  0.9815 -0.3342 -1.0704
 4397SOL     OW24826   0.492   2.993   6.714  0.4649  0.0284 -0.5144
 4397SOL    HW124827   0.559   2.924   6.714 -0.3566 -0.7450  1.5480
 4397SOL    HW224828   0.428   2.944   6.662  0.6661 -2.2405  1.3607
 4398SOL     OW24829   4.281   0.762   2.222 -0.5118 -0.4778 -0.3545
 4398SOL    HW124830   4.281   0.691   2.285 -1.4831  0.3869  0.6207
 4398SOL    HW224831   4.236   0.831   2.271  2.1503  1.2661 -0.3622
 4399SOL     OW24832   1.210   2.708   5.720 -0.1781  0.1995  0.1588
 4399SOL    HW124833   1.138   2.722   5.658  0.1191  2.3552  0.2849
 4399SOL    HW224834   1.273   2.759   5.669  2.3578 -2.2038  0.8716
 4400SOL     OW24835   1.226   0.921  11.766  0.2873  0.3241  0.3482
 4400SOL    HW124836   1.216   0.982  11.839  2.9836 -0.5817  1.4823
 4400SOL    HW224837   1.298   0.962  11.720  0.0016 -0.3346 -0.6838
 4401SOL     OW24838   1.596   2.978  13.407  0.1640  0.2984 -0.2935
 4401SOL    HW124839   1.564   2.926  13.334  0.5051 -1.5042  0.8434
 4401SOL    HW224840   1.533   3.051  13.409 -0.6638 -0.4239  0.5046
 4402SOL     OW24841   2.546   4.684   7.136  0.6478 -0.5448  0.2704
 4402SOL    HW124842   2.580   4.658   7.051  0.1132 -2.6483  0.7060
 4402SOL    HW224843   2.630   4.711   7.174  1.4616  0.0374 -1.9580
 4403SOL     OW24844   3.014   3.140   2.822  0.4193 -0.6374  0.7558
 4403SOL    HW124845   3.062   3.065   2.788  2.0180  0.7710 -0.1218
 4403SOL    HW224846   2.977   3.168   2.738 -1.1163  0.4167  1.7626
 4404SOL     OW24847   0.622   1.827  17.477  0.1136 -0.3265  0.0368
 4404SOL    HW124848   0.710   1.793  17.469  0.4863  0.4710  0.7208
 4404SOL    HW224849   0.614   1.881  17.398 -1.2876  0.0500  0.4345
 4405SOL     OW24850   2.369   0.505   7.845  0.3574  0.6044  0.1439
 4405SOL    HW124851   2.300   0.450   7.880 -1.1194  1.8557 -0.7909
 4405SOL    HW224852   2.425   0.515   7.922 -1.0905  1.6994  1.0431
 4406SOL     OW24853   1.741   2.049   0.353 -0.5003 -0.6029  0.0666
 4406SOL    HW124854   1.826   2.006   0.343 -1.1190 -1.5945 -0.9697
 4406SOL    HW224855   1.731   2.060   0.447 -0.4844  1.5086 -0.1690
 4407SOL     OW24856   3.044   0.693   6.533 -0.3573 -0.1661  0.0666
 4407SOL    HW124857   3.089   0.617   6.496  0.1478  0.3829 -0.4225
 4407SOL    HW224858   3.103   0.762   6.504 -1.8012  1.4913  1.0507
 4408SOL     OW24859   2.229   0.855   9.478 -0.4064 -0.5209  0.0366
 4408SOL    HW124860   2.295   0.790   9.454  0.9517  1.0110 -0.3471
 4408SOL    HW224861   2.161   0.796   9.510  0.3232 -1.8502 -0.8638
 4409SOL     OW24862   3.519   2.410   1.678  0.3458  0.0597 -0.1621
 4409SOL    HW124863   3.463   2.435   1.605  2.6286 -2.1937 -2.6862
 4409SOL    HW224864   3.594   2.468   1.666 -0.5883  0.8905 -1.9075
 4410SOL     OW24865   3.572   4.684   8.827 -0.4743 -0.2038  0.0004
 4410SOL    HW124866   3.512   4.691   8.752 -0.2476 -0.4932 -0.2060
 4410SOL    HW224867   3.511   4.711   8.896  0.3262 -1.1365  1.0659
 4411SOL     OW24868   1.135   0.468   0.141 -0.2100  0.1598  0.7910
 4411SOL    HW124869   1.146   0.558   0.172 -0.4654  0.5670 -0.2708
 4411SOL    HW224870   1.213   0.466   0.085  0.7174  0.2812  2.0833
 4412SOL     OW24871   4.465   1.074   6.838 -0.5028  0.2736 -0.1938
 4412SOL    HW124872   4.428   1.156   6.870  0.6162  0.4004  0.7602
 4412SOL    HW224873   4.380   1.033   6.824 -0.5769  0.1461  0.6231
 4413SOL     OW24874   2.847   1.253   5.535 -0.3208  0.3082 -0.5317
 4413SOL    HW124875   2.758   1.227   5.512 -1.0150  0.2182  2.2858
 4413SOL    HW224876   2.888   1.243   5.449 -1.2700 -1.4240 -0.7960
 4414SOL     OW24877   4.307   0.138   0.016 -0.4886  0.2209  0.3649
 4414SOL    HW124878   4.363   0.186  17.699  1.0330 -2.6505 -0.4918
 4414SOL    HW224879   4.301   0.208   0.080 -1.2751  0.1270  0.3959
 4415SOL     OW24880   2.084   4.726  16.365 -0.6605  0.0360 -0.9571
 4415SOL    HW124881   2.043   4.676  16.294 -0.5836  1.3884 -1.9608
 4415SOL    HW224882   2.175   4.710  16.338 -0.2790 -0.7492  0.8020
 4416SOL     OW24883   3.462   4.256  16.009 -0.4731  0.1103 -0.4530
 4416SOL    HW124884   3.550   4.285  16.036  0.1719 -3.6107  1.4181
 4416SOL    HW224885   3.480   4.250  15.916  0.1514  0.7269 -0.3743
 4417SOL     OW24886   1.586   1.793   5.305 -0.8294  0.7368  0.2325
 4417SOL    HW124887   1.576   1.698   5.305 -2.9063  0.9656 -3.4034
 4417SOL    HW224888   1.641   1.813   5.230  0.2058  0.3221  0.8775
 4418SOL     OW24889   2.822   2.733  14.882  0.6436 -0.7215  0.7475
 4418SOL    HW124890   2.816   2.819  14.924 -1.8211  0.0387 -1.1205
 4418SOL    HW224891   2.736   2.709  14.847  0.2711  1.1776  0.3672
 4419SOL     OW24892   2.268   0.552   6.870 -0.2072 -0.2875 -0.3113
 4419SOL    HW124893   2.269   0.472   6.818  1.3987 -1.0173  0.8621
 4419SOL    HW224894   2.318   0.526   6.947  0.0759  0.6244 -0.1775
 4420SOL     OW24895   1.281   3.043   2.845 -0.0740  0.3302 -0.4156
 4420SOL    HW124896   1.212   3.104   2.821 -0.5966 -0.0779  0.0522
 4420SOL    HW224897   1.268   3.032   2.939  0.4841  1.6936 -0.1700
 4421SOL     OW24898   0.596   2.534  13.045 -0.2958 -0.0124 -1.0421
 4421SOL    HW124899   0.608   2.455  13.097 -1.4156  0.3880 -0.1684
 4421SOL    HW224900   0.502   2.524  13.031 -0.2696 -1.2493 -0.3742
 4422SOL     OW24901   0.098   2.170   3.046 -0.5212 -0.4980 -0.3058
 4422SOL    HW124902   0.012   2.208   3.029  0.0485  0.7468 -0.3521
 4422SOL    HW224903   0.081   2.076   3.047  0.4357 -0.6656  0.1930
 4423SOL     OW24904   2.749   2.893   6.013  0.1925  0.1617 -0.2547
 4423SOL    HW124905   2.762   2.908   5.919 -0.9098  1.1810 -0.2461
 4423SOL    HW224906   2.712   2.805   6.004  0.8864  0.1097 -2.5530
 4424SOL     OW24907   0.286   1.353  14.528 -0.1609 -0.0439 -0.0811
 4424SOL    HW124908   0.209   1.339  14.473  0.0398 -3.7697  0.5838
 4424SOL    HW224909   0.309   1.261  14.536 -1.4129 -0.4837 -1.4430
 4425SOL     OW24910   3.391   4.661   4.028  0.3482  0.3276  0.1879
 4425SOL    HW124911   3.465   4.721   4.023 -0.0033  0.8739  1.6676
 4425SOL    HW224912   3.317   4.718   4.010  0.8244  0.8863 -0.0164
 4426SOL     OW24913   1.764   2.030   7.802 -0.8610  1.0362 -0.2571
 4426SOL    HW124914   1.755   1.972   7.727 -3.0701  1.1071 -0.0205
 4426SOL    HW224915   1.704   1.985   7.861 -0.0106 -0.5632 -0.6069
 4427SOL     OW24916   1.339   0.955   4.940 -0.2898 -0.0510 -0.0614
 4427SOL    HW124917   1.306   1.031   4.988 -0.5645 -0.2508  0.0716
 4427SOL    HW224918   1.399   0.987   4.874  0.5953  0.1547  0.8543
 4428SOL     OW24919   1.841   1.393   4.474 -0.7483  0.4984  0.6395
 4428SOL    HW124920   1.756   1.385   4.518 -0.4728 -0.1889  1.0341
 4428SOL    HW224921   1.880   1.470   4.516 -0.8037  0.6938  0.3358
 4429SOL     OW24922   1.338   3.948   7.284 -0.3852 -0.3063 -0.2005
 4429SOL    HW124923   1.285   3.907   7.216 -0.2593 -0.8887  0.0591
 4429SOL    HW224924   1.309   4.039   7.271  0.8330  0.3302  1.5262
 4430SOL     OW24925   0.611   0.070   7.290  0.6759 -0.7171 -0.0106
 4430SOL    HW124926   0.544   0.116   7.241  1.0186  1.9416  2.0299
 4430SOL    HW224927   0.646   0.007   7.226  2.0536  0.8041 -0.7637
 4431SOL     OW24928   4.286   2.124   3.543 -0.3234 -0.0746 -0.2352
 4431SOL    HW124929   4.363   2.169   3.508 -0.1766 -1.6564 -1.9297
 4431SOL    HW224930   4.213   2.162   3.494  0.6438  0.8578 -0.9559
 4432SOL     OW24931   0.393   4.450  13.538 -0.1440  0.2311  0.6576
 4432SOL    HW124932   0.353   4.470  13.622 -1.1233  0.3995  0.1538
 4432SOL    HW224933   0.460   4.388  13.566  0.3136 -0.9241 -2.8840
 4433SOL     OW24934   0.164   3.275   7.027 -0.0823  0.6338 -0.5174
 4433SOL    HW124935   0.098   3.302   7.091  1.5433 -1.2731  1.9492
 4433SOL    HW224936   0.172   3.366   6.998  0.3375  0.2661 -1.5547
 4434SOL     OW24937   4.072   0.816   1.941  0.1782  0.2156  0.1907
 4434SOL    HW124938   4.120   0.887   1.899  3.1631 -0.7652  1.9404
 4434SOL    HW224939   4.031   0.864   2.012  1.5798  0.2736  0.9653
 4435SOL     OW24940   3.248   2.602   5.349  0.2603  0.2038 -0.2110
 4435SOL    HW124941   3.333   2.566   5.325  0.3864 -0.8376  1.7663
 4435SOL    HW224942   3.219   2.537   5.414  0.8505 -0.5404 -0.6860
 4436SOL     OW24943   2.321   1.617   3.047  0.2932 -0.2937  0.1681
 4436SOL    HW124944   2.401   1.565   3.041 -0.3320 -1.2937  0.3267
 4436SOL    HW224945   2.326   1.668   2.966 -2.0257  0.6294  0.6081
 4437SOL     OW24946   4.076   0.295   7.356  0.1380 -0.2314 -0.1916
 4437SOL    HW124947   4.148   0.265   7.411  0.0758  1.5659  0.8586
 4437SOL    HW224948   4.038   0.209   7.334  0.3721 -0.1891 -0.7695
 4438SOL     OW24949   3.004   0.206   1.787  0.3374  0.4212 -0.4014
 4438SOL    HW124950   2.947   0.169   1.855 -0.0512  1.3158 -0.2403
 4438SOL    HW224951   3.051   0.132   1.748 -0.4905 -0.0640 -0.4950
 4439SOL     OW24952   4.723   0.972   1.680 -0.5743 -0.1187  0.5022
 4439SOL    HW124953   4.707   0.951   1.772 -0.3495 -0.2945  0.4982
 4439SOL    HW224954   4.710   0.886   1.640  0.8335  0.0195 -0.2361
 4440SOL     OW24955   2.624   2.254   2.280 -0.0209 -0.3766 -0.2740
 4440SOL    HW124956   2.585   2.167   2.282 -0.8260 -0.0062 -0.0081
 4440SOL    HW224957   2.716   2.233   2.298  0.4133 -0.1584 -2.2405
 4441SOL     OW24958   3.929   0.557   4.777 -0.0980 -0.2097 -0.6854
 4441SOL    HW124959   3.975   0.637   4.752  2.8614 -1.7905 -0.3677
 4441SOL    HW224960   3.992   0.488   4.752  0.1301 -0.1209 -0.3499
 4442SOL     OW24961   1.241   3.621   8.881 -0.6146 -0.5475  0.3283
 4442SOL    HW124962   1.157   3.581   8.862  0.0815 -1.2509 -1.2383
 4442SOL    HW224963   1.292   3.541   8.890  1.0907  0.5638  0.5483
 4443SOL     OW24964   2.221   1.876   2.595  0.0521  0.4218 -0.1692
 4443SOL    HW124965   2.192   1.862   2.505  0.2282 -1.6148  0.0989
 4443SOL    HW224966   2.217   1.972   2.598 -0.7751  0.3723  0.5666
 4444SOL     OW24967   0.483   1.127   5.025  0.0408 -0.4222  0.1118
 4444SOL    HW124968   0.418   1.139   4.956 -0.4773  2.0800  1.0479
 4444SOL    HW224969   0.440   1.176   5.095  0.6708 -0.5844  0.6251
 4445SOL     OW24970   1.556   0.234   5.557  0.4455 -0.0471 -0.4186
 4445SOL    HW124971   1.560   0.319   5.600  1.8074 -0.6216  0.6253
 4445SOL    HW224972   1.519   0.259   5.472 -0.4837 -2.8634 -0.8530
 4446SOL     OW24973   1.771   0.949   7.378 -0.2628  0.1284  0.1094
 4446SOL    HW124974   1.768   0.871   7.433 -0.1023  0.2254  0.2569
 4446SOL    HW224975   1.858   0.982   7.401 -1.3585  1.5008  2.2430
 4447SOL     OW24976   2.629   3.940   3.486  0.3331  0.0072  0.7739
 4447SOL    HW124977   2.649   3.856   3.527  0.7384 -1.2638 -2.0450
 4447SOL    HW224978   2.540   3.956   3.518  0.6226  2.7969  0.1845
 4448SOL     OW24979   0.558   1.295   6.077  0.5163  0.2797 -0.7837
 4448SOL    HW124980   0.466   1.315   6.058  0.5738  1.3549  0.0816
 4448SOL    HW224981   0.592   1.375   6.037 -0.4910  0.9087 -0.3954
 4449SOL     OW24982   1.433   2.778   2.879 -0.8379  0.2506 -0.1979
 4449SOL    HW124983   1.423   2.720   2.804 -0.2593 -0.6259  0.3938
 4449SOL    HW224984   1.356   2.832   2.863 -0.4673  0.1528 -2.3515
 4450SOL     OW24985   2.778   1.199   9.750  0.2950  0.3610 -0.0573
 4450SOL    HW124986   2.804   1.123   9.801 -2.3541 -1.3506 -1.2125
 4450SOL    HW224987   2.862   1.243   9.747  0.2901  0.4453  1.2268
 4451SOL     OW24988   0.470   2.312  10.325 -0.0631  0.1334 -0.4238
 4451SOL    HW124989   0.550   2.261  10.343  0.0934  0.8287  0.8227
 4451SOL    HW224990   0.487   2.375  10.395  1.8099 -1.6158  0.7173
 4452SOL     OW24991   0.622   0.053   3.634  0.5897  0.1264 -0.5384
 4452SOL    HW124992   0.620   0.015   3.722 -1.4642  0.7976 -0.3005
 4452SOL    HW224993   0.551   0.005   3.591  1.1256  0.4497 -1.7732
 4453SOL     OW24994   1.943   1.073   1.030  0.4458  0.4600  0.2206
 4453SOL    HW124995   1.998   1.151   1.022 -1.3500  1.5163 -1.9628
 4453SOL    HW224996   1.971   1.005   0.968 -0.8376  0.6504 -0.5603
 4454SOL     OW24997   4.315   4.587  14.228 -0.6188 -0.3460 -0.3989
 4454SOL    HW124998   4.327   4.510  14.173 -0.9636  0.9331 -2.2667
 4454SOL    HW224999   4.220   4.598  14.217 -0.4787  0.4635 -0.8413
 4455SOL     OW25000   1.964   1.685  13.113 -0.3244  0.1151 -0.4823
 4455SOL    HW125001   1.886   1.720  13.156 -0.0292  1.1301 -0.7562
 4455SOL    HW225002   2.011   1.767  13.095 -1.8772  0.7697 -1.4571
 4456SOL     OW25003   2.767   1.900   1.112  0.1126 -0.2002 -0.6642
 4456SOL    HW125004   2.729   1.977   1.154  2.6924  0.5146  0.3735
 4456SOL    HW225005   2.819   1.864   1.185  0.0548  0.1507 -0.4524
 4457SOL     OW25006   1.223   1.247   3.993 -0.4197  0.3915 -0.1471
 4457SOL    HW125007   1.136   1.260   4.032 -0.8425 -0.5522 -0.7710
 4457SOL    HW225008   1.201   1.198   3.913  2.0369 -1.1174  0.0989
 4458SOL     OW25009   1.180   0.219   2.986  0.4963 -0.0087 -0.0512
 4458SOL    HW125010   1.196   0.243   2.895  1.2825 -0.7572 -0.1071
 4458SOL    HW225011   1.243   0.276   3.030  0.4407 -0.9274  1.2346
 4459SOL     OW25012   1.820   4.357   1.439  0.2158 -0.0915 -0.3614
 4459SOL    HW125013   1.760   4.334   1.510  1.4290  0.6685  0.9123
 4459SOL    HW225014   1.776   4.325   1.361 -1.0497 -0.3570  0.4565
 4460SOL     OW25015   0.023   3.046  10.961  0.3095  0.3825 -0.4041
 4460SOL    HW125016   0.039   3.042  10.867 -0.8648  1.8514 -0.6701
 4460SOL    HW225017   4.733   3.138  10.960 -1.2339 -0.0515  0.2428
 4461SOL     OW25018   3.493   4.552  14.153 -0.1740  0.1467  0.1404
 4461SOL    HW125019   3.521   4.628  14.102  0.8145 -1.2498 -1.3874
 4461SOL    HW225020   3.504   4.479  14.092  2.9844  0.1264  0.7106
 4462SOL     OW25021   2.229   1.870   7.537 -0.3782  0.0557 -0.4682
 4462SOL    HW125022   2.324   1.858   7.547 -0.5732 -0.6828  0.5274
 4462SOL    HW225023   2.216   1.901   7.448  1.1418 -2.5672 -1.6238
 4463SOL     OW25024   0.102   0.062  11.498 -0.6077 -0.3824 -0.3578
 4463SOL    HW125025   0.120   0.156  11.506  0.6044 -0.8429  2.4410
 4463SOL    HW225026   0.192   0.030  11.494 -0.3894  0.1559  0.1243
 4464SOL     OW25027   1.269   3.976   9.390 -0.3662  0.5214 -0.5281
 4464SOL    HW125028   1.355   3.976   9.431 -0.5818  0.5276 -0.0708
 4464SOL    HW225029   1.214   4.021   9.454  1.1116  2.9817 -1.0019
 4465SOL     OW25030   3.217   3.778   1.907 -0.8442  0.1479 -0.2008
 4465SOL    HW125031   3.184   3.799   1.994  2.8430  1.5273  0.8387
 4465SOL    HW225032   3.143   3.795   1.849 -0.8209 -4.0686 -1.4766
 4466SOL     OW25033   1.506   2.537  10.377 -0.0262 -0.2418  0.3434
 4466SOL    HW125034   1.452   2.515  10.301  0.4704 -1.7427  0.4180
 4466SOL    HW225035   1.459   2.501  10.453  2.3738 -0.7365  1.6008
 4467SOL     OW25036   1.512   1.863   5.992  0.3437 -0.0831 -0.1157
 4467SOL    HW125037   1.565   1.927   5.945  0.4163 -0.7268 -0.9137
 4467SOL    HW225038   1.427   1.905   5.978  0.7324  0.7870  0.1179
 4468SOL     OW25039   3.212   2.935  15.755  0.3027  0.5005 -0.2536
 4468SOL    HW125040   3.122   2.955  15.728 -0.3086 -0.3165  1.1793
 4468SOL    HW225041   3.202   2.848  15.795  2.0768 -0.2533 -1.4201
 4469SOL     OW25042   3.556   3.691  17.317  0.2488 -0.0597 -0.3750
 4469SOL    HW125043   3.558   3.759  17.384 -1.4155  0.9287 -1.3328
 4469SOL    HW225044   3.605   3.623  17.363  1.9568  0.0130 -2.0697
 4470SOL     OW25045   3.395   2.943   4.443  0.7578  0.2563  0.0773
 4470SOL    HW125046   3.467   2.996   4.409 -0.6687  1.2518 -1.3585
 4470SOL    HW225047   3.318   2.987   4.406  0.7081  1.3670  1.5001
 4471SOL     OW25048   2.219   1.900   1.742  0.0261 -0.2075  0.1558
 4471SOL    HW125049   2.224   1.812   1.704 -1.7499 -1.3735  2.6721
 4471SOL    HW225050   2.301   1.938   1.709  1.5363 -2.9019  0.7884
 4472SOL     OW25051   4.085   0.251   8.471  0.2079 -0.0684  0.4163
 4472SOL    HW125052   3.990   0.241   8.468  0.1930  0.1290  0.2191
 4472SOL    HW225053   4.092   0.325   8.531 -1.1449  0.9819 -0.7199
 4473SOL     OW25054   0.209   2.256   4.288 -0.5642  0.1123 -0.0296
 4473SOL    HW125055   0.149   2.280   4.218 -1.2229 -1.0368  0.1319
 4473SOL    HW225056   0.202   2.160   4.295 -0.7889  0.0975 -0.5257
 4474SOL     OW25057   4.162   0.524   8.925  0.2200  0.0362  0.0442
 4474SOL    HW125058   4.249   0.485   8.931  0.0984 -0.7880 -3.6586
 4474SOL    HW225059   4.113   0.462   8.979  1.5537 -0.5280  0.5867
 4475SOL     OW25060   1.362   0.505  10.657 -0.5227 -1.0504 -1.1009
 4475SOL    HW125061   1.441   0.539  10.616 -1.2827 -0.4638 -2.0780
 4475SOL    HW225062   1.385   0.413  10.671 -0.9643 -1.0415 -0.3069
 4476SOL     OW25063   4.347   4.401   2.737 -0.0262  0.3008  0.6577
 4476SOL    HW125064   4.263   4.359   2.752  0.3521 -0.6842  0.0156
 4476SOL    HW225065   4.367   4.365   2.650 -2.5049 -1.3231  0.7644
 4477SOL     OW25066   3.103   1.525   4.191 -0.0602  0.4233  0.0976
 4477SOL    HW125067   3.010   1.524   4.170 -0.1394  1.4411  0.4217
 4477SOL    HW225068   3.131   1.449   4.139  1.5000  0.3562  1.0295
 4478SOL     OW25069   0.416   0.739   2.252 -0.1482 -0.0055  0.1753
 4478SOL    HW125070   0.462   0.823   2.257  1.0748 -0.6578  0.0442
 4478SOL    HW225071   0.487   0.675   2.251 -1.1886 -1.1498 -0.9702
 4479SOL     OW25072   2.636   0.031   3.731  0.1426 -0.2717  0.4068
 4479SOL    HW125073   2.627   4.686   3.781 -0.9546 -1.1399 -1.1914
 4479SOL    HW225074   2.727   0.020   3.702 -0.6229  0.8038 -2.4039
 4480SOL     OW25075   0.156   1.808   2.505 -0.0208  0.3269 -0.1510
 4480SOL    HW125076   0.160   1.742   2.574  0.1185 -0.1570 -0.6218
 4480SOL    HW225077   0.129   1.760   2.426 -0.5450  2.0959 -1.0432
 4481SOL     OW25078   4.356   3.686   2.048  0.3345 -0.0409 -0.2787
 4481SOL    HW125079   4.272   3.651   2.079  0.0684  1.1667  0.3464
 4481SOL    HW225080   4.342   3.778   2.070 -1.6188 -0.8935  1.9937
 4482SOL     OW25081   1.268   0.117   9.122  0.1946 -0.6281 -0.3832
 4482SOL    HW125082   1.282   0.059   9.048  0.8084 -1.7435  0.6098
 4482SOL    HW225083   1.289   0.058   9.194  0.3985  0.8901  0.8214
 4483SOL     OW25084   2.449   1.651   5.178 -0.1051  0.4359 -0.4215
 4483SOL    HW125085   2.521   1.676   5.120  0.4346  0.2611  0.1674
 4483SOL    HW225086   2.493   1.647   5.263 -0.0972  1.9123 -0.3502
 4484SOL     OW25087   4.645   1.636  15.072 -0.3818  0.2350  0.0901
 4484SOL    HW125088   4.595   1.650  15.152 -2.5027 -0.5146 -1.0986
 4484SOL    HW225089   4.694   1.716  15.053 -1.7315  0.8492 -0.7671
 4485SOL     OW25090   1.561   3.919   9.858  0.2858 -0.1199 -0.3569
 4485SOL    HW125091   1.485   3.914   9.917  0.4992 -2.0996 -0.2502
 4485SOL    HW225092   1.625   3.964   9.912 -1.0130  2.6318 -1.1234
 4486SOL     OW25093   0.488   2.044   2.253  0.0498 -0.0002 -0.3700
 4486SOL    HW125094   0.519   2.129   2.285  0.0903  1.8049 -5.1343
 4486SOL    HW225095   0.430   2.021   2.326 -2.2025 -1.7385 -2.7072
 4487SOL     OW25096   4.472   1.873   7.180  0.1466 -0.6523  0.5071
 4487SOL    HW125097   4.420   1.863   7.100 -0.5187  0.2450  0.8308
 4487SOL    HW225098   4.415   1.859   7.255 -0.3884 -1.4116 -0.0406
 4488SOL     OW25099   3.067   1.973   3.285  0.1110 -0.1478  0.5751
 4488SOL    HW125100   3.015   1.894   3.275 -1.1426  0.6467  0.8192
 4488SOL    HW225101   3.130   1.955   3.215  1.4163  1.0255  1.4429
 4489SOL     OW25102   2.320   4.115   2.448  0.1189  0.5801  0.0252
 4489SOL    HW125103   2.299   4.103   2.540 -2.3382 -1.2699 -0.7612
 4489SOL    HW225104   2.236   4.090   2.409  0.7742 -0.9243 -0.4101
 4490SOL     OW25105   4.379   1.559   7.059  0.4106 -0.6090  0.3104
 4490SOL    HW125106   4.312   1.554   6.991 -0.2336  1.0744  0.8223
 4490SOL    HW225107   4.436   1.618   7.010 -1.2119  0.2728 -0.5251
 4491SOL     OW25108   0.732   4.263   5.973 -0.0156  0.2880 -0.0863
 4491SOL    HW125109   0.822   4.232   5.975  0.3639  1.4611  0.8045
 4491SOL    HW225110   0.712   4.223   5.889 -0.3218  0.1264  0.0629
 4492SOL     OW25111   1.808   4.048   2.151  0.1455 -0.2316  0.2849
 4492SOL    HW125112   1.793   4.106   2.076 -0.9169 -0.0331  0.6430
 4492SOL    HW225113   1.792   3.961   2.116  1.0893 -0.5746  0.7209
 4493SOL     OW25114   1.148   1.321   1.878 -0.4373  0.1336 -0.3252
 4493SOL    HW125115   1.057   1.337   1.853 -0.2936  0.4626 -0.6348
 4493SOL    HW225116   1.161   1.229   1.853 -1.7197 -0.3187  0.6501
 4494SOL     OW25117   0.359   1.493   0.221 -0.0115  0.3576  0.5049
 4494SOL    HW125118   0.278   1.482   0.271  0.0356  1.9335  0.9430
 4494SOL    HW225119   0.392   1.404   0.232  1.7574  0.8019 -1.0743
 4495SOL     OW25120   0.220   1.826   5.931  0.1859  0.3611 -0.4184
 4495SOL    HW125121   0.182   1.746   5.894 -2.1418  1.7314 -0.9526
 4495SOL    HW225122   0.235   1.803   6.023 -1.9424  0.1177 -0.1245
 4496SOL     OW25123   4.094   1.262   6.530  0.3013  0.0281  0.2057
 4496SOL    HW125124   4.086   1.344   6.481 -1.2771 -0.0855  0.2614
 4496SOL    HW225125   4.189   1.250   6.536  0.5922  1.9970 -0.3250
 4497SOL     OW25126   1.872   4.238   1.924 -0.5688 -0.1872  0.4275
 4497SOL    HW125127   1.817   4.214   1.849 -1.9069  1.8306  0.7790
 4497SOL    HW225128   1.818   4.314   1.947 -1.1508 -0.5605  0.2997
 4498SOL     OW25129   1.841   0.797   2.569  0.4173  0.7562  0.2357
 4498SOL    HW125130   1.894   0.719   2.588 -1.0113  0.1737  1.8457
 4498SOL    HW225131   1.801   0.795   2.656  1.2700 -0.7849  0.6023
 4499SOL     OW25132   3.421   1.208   4.717  0.5283 -0.0584 -0.0091
 4499SOL    HW125133   3.471   1.218   4.798  0.4526  0.2395  0.0017
 4499SOL    HW225134   3.470   1.274   4.669 -0.3392  2.4447  2.5551
 4500SOL     OW25135   0.739   4.083   4.214  0.1452  0.1945 -0.3488
 4500SOL    HW125136   0.808   4.104   4.152 -0.6681 -0.4488 -1.4708
 4500SOL    HW225137   0.755   3.988   4.210  1.6790  0.5171 -1.4722
 4501SOL     OW25138   0.412   2.629  10.537 -0.4915 -0.3754  0.0444
 4501SOL    HW125139   0.445   2.543  10.562  1.5315 -0.6529 -3.5749
 4501SOL    HW225140   0.442   2.688  10.606  2.0831 -2.3378  0.6167
 4502SOL     OW25141   3.048   2.656  15.631  1.0008 -0.0670  0.5329
 4502SOL    HW125142   2.986   2.698  15.691  1.4944  0.1030  0.9245
 4502SOL    HW225143   3.107   2.727  15.603  1.2914  0.5103  2.6120
 4503SOL     OW25144   4.593   4.708   9.860 -0.1770 -0.6552 -0.0823
 4503SOL    HW125145   4.512   4.656   9.856  0.5713 -1.7508 -0.9636
 4503SOL    HW225146   4.578   0.039   9.794  1.6480 -0.9608 -0.7895
 4504SOL     OW25147   3.556   4.118   5.334  0.0023 -0.4384  0.4042
 4504SOL    HW125148   3.579   4.107   5.242 -0.0617 -2.7919  0.6781
 4504SOL    HW225149   3.508   4.035   5.336 -0.6193 -0.1267 -1.7065
 4505SOL     OW25150   1.739   2.796   5.197  0.0846 -0.2189  0.4251
 4505SOL    HW125151   1.658   2.832   5.233  0.2758  1.9391 -1.2876
 4505SOL    HW225152   1.796   2.782   5.273 -0.9278  0.1220  1.2332
 4506SOL     OW25153   4.514   2.896   8.402 -0.3440 -0.1260 -0.1201
 4506SOL    HW125154   4.576   2.898   8.475  0.1619  6.1203 -0.7172
 4506SOL    HW225155   4.563   2.835   8.347  0.2960  0.5503 -0.3033
 4507SOL     OW25156   3.573   3.530   9.719  0.1339  0.1746  0.2508
 4507SOL    HW125157   3.532   3.535   9.806 -0.1679  1.0028  0.0611
 4507SOL    HW225158   3.661   3.560   9.743 -0.4446  1.0653  1.2792
 4508SOL     OW25159   2.729   4.431  15.900  0.4239  0.1195  0.2626
 4508SOL    HW125160   2.690   4.499  15.846  1.4652 -1.2597 -2.2516
 4508SOL    HW225161   2.752   4.484  15.976 -1.5438 -1.2112  1.7916
 4509SOL     OW25162   1.569   1.469  13.142  0.6289 -0.4315 -0.2521
 4509SOL    HW125163   1.572   1.503  13.052 -2.5981  1.2322  0.2753
 4509SOL    HW225164   1.599   1.381  13.122 -0.8461 -0.4553 -2.3305
 4510SOL     OW25165   2.769   3.808   6.549  0.1004 -0.3409  0.1673
 4510SOL    HW125166   2.748   3.789   6.640  0.1681  1.5439  0.5660
 4510SOL    HW225167   2.850   3.857   6.561  0.4619 -0.9903  0.3698
 4511SOL     OW25168   2.190   4.621  11.532 -0.1401  0.3888 -0.4601
 4511SOL    HW125169   2.263   4.583  11.483 -0.1374 -2.4056  1.7153
 4511SOL    HW225170   2.113   4.570  11.505 -1.2379  2.7679 -1.8375
 4512SOL     OW25171   1.022   2.337   3.261 -0.1816  0.4552  0.0870
 4512SOL    HW125172   1.047   2.260   3.312  0.8105  1.9414  1.8445
 4512SOL    HW225173   1.002   2.301   3.175  2.0172  0.7850 -0.5706
 4513SOL     OW25174   3.524   2.389   8.511 -0.3083 -0.1924 -0.2999
 4513SOL    HW125175   3.527   2.430   8.424 -3.4393  0.8962  0.1069
 4513SOL    HW225176   3.448   2.426   8.556  0.7624 -4.3054  4.8205
 4514SOL     OW25177   1.900   3.603   7.457  0.5131  0.0614 -0.0316
 4514SOL    HW125178   1.977   3.554   7.486  0.3194 -1.1633 -1.5658
 4514SOL    HW225179   1.901   3.695   7.481 -2.7108  0.9057 -3.0735
 4515SOL     OW25180   0.515   1.126   5.702  0.4987 -0.2145 -0.3911
 4515SOL    HW125181   0.513   1.031   5.717  0.2751  0.2180  2.2686
 4515SOL    HW225182   0.571   1.152   5.775 -1.5116 -0.1194  1.1392
 4516SOL     OW25183   3.062   1.440  13.798 -0.4322  0.5698 -0.4159
 4516SOL    HW125184   3.128   1.507  13.811  1.0511 -1.5867  3.1203
 4516SOL    HW225185   3.053   1.404  13.886  1.7366 -1.1981 -0.9151
 4517SOL     OW25186   0.283   1.944   2.841 -0.5683 -0.1164 -0.2617
 4517SOL    HW125187   0.284   1.965   2.935  2.4111 -2.9712  0.3533
 4517SOL    HW225188   0.357   1.883   2.843  0.3915  1.0483 -0.0854
 4518SOL     OW25189   1.495   4.406   4.070  0.2703 -0.2337 -0.2317
 4518SOL    HW125190   1.459   4.456   4.144 -1.6327 -2.1391  0.1455
 4518SOL    HW225191   1.547   4.346   4.124 -1.7237 -0.6160  1.2641
 4519SOL     OW25192   2.525   0.475   6.663 -0.0158  0.2694  0.6865
 4519SOL    HW125193   2.528   0.406   6.729  0.3009 -1.8030 -1.5015
 4519SOL    HW225194   2.610   0.519   6.664  0.7365 -1.1915  1.4968
 4520SOL     OW25195   0.004   0.478  13.038  0.0811 -0.2129 -0.0985
 4520SOL    HW125196   4.663   0.534  13.039 -0.3810 -0.8285 -1.0493
 4520SOL    HW225197   0.075   0.540  13.021 -0.1652  0.4965  1.5772
 4521SOL     OW25198   0.437   0.141   2.102  0.0984 -0.8189  0.2226
 4521SOL    HW125199   0.373   0.125   2.172 -0.1248 -1.2785 -0.0885
 4521SOL    HW225200   0.515   0.097   2.137 -0.2124  0.0042  1.9898
 4522SOL     OW25201   1.563   2.905   2.158  0.4269  0.1216 -0.3991
 4522SOL    HW125202   1.495   2.936   2.217  1.9020  2.3750  0.1167
 4522SOL    HW225203   1.563   2.815   2.191 -1.2558  0.5693  0.8246
 4523SOL     OW25204   3.192   2.730   7.530  0.4081  0.4414 -0.0410
 4523SOL    HW125205   3.115   2.676   7.545 -0.8560  2.0498 -0.7166
 4523SOL    HW225206   3.253   2.684   7.588 -2.4454 -1.8609  1.1579
 4524SOL     OW25207   0.554   1.535   8.993  1.2464  0.0442  0.1618
 4524SOL    HW125208   0.568   1.619   9.035  1.3751 -0.1248  0.4579
 4524SOL    HW225209   0.563   1.477   9.068 -1.0655 -0.6982 -0.1045
 4525SOL     OW25210   0.971   3.773  10.002 -0.3804  0.3362 -0.4869
 4525SOL    HW125211   1.040   3.816  10.054 -2.0959  3.3451 -0.7109
 4525SOL    HW225212   1.015   3.698   9.961 -0.8328  0.6194 -1.4582
 4526SOL     OW25213   1.229   1.727   0.581 -0.2759  0.2798 -0.0134
 4526SOL    HW125214   1.272   1.768   0.656 -0.1591  1.2412 -0.6015
 4526SOL    HW225215   1.203   1.804   0.530  0.0118  0.0888 -0.4571
 4527SOL     OW25216   1.676   1.478   5.042 -0.5397 -0.0348 -0.4392
 4527SOL    HW125217   1.682   1.569   5.069 -1.6476 -0.0593 -0.1367
 4527SOL    HW225218   1.742   1.445   5.103 -0.9181  0.7834  0.3979
 4528SOL     OW25219   4.686   3.330   6.036 -0.1392  0.3922 -0.3248
 4528SOL    HW125220   4.686   3.264   5.966 -0.7607  0.5700 -0.4948
 4528SOL    HW225221   4.599   3.315   6.074 -0.3520 -3.0481 -2.1281
 4529SOL     OW25222   3.924   4.060   6.388 -0.0355 -0.4211 -0.0300
 4529SOL    HW125223   3.877   4.012   6.456 -1.3827  0.9319  0.0021
 4529SOL    HW225224   3.891   4.012   6.312 -0.9887  2.4821 -1.4691
 4530SOL     OW25225   2.809   2.129   1.531 -0.3066  0.1191  0.3396
 4530SOL    HW125226   2.900   2.103   1.538 -0.4873 -0.5944  0.0042
 4530SOL    HW225227   2.822   2.214   1.574  1.1741 -0.1105  0.3385
 4531SOL     OW25228   0.256   3.533  16.682  0.4806  0.2390  0.3132
 4531SOL    HW125229   0.337   3.534  16.633 -1.0196 -1.9209 -2.1996
 4531SOL    HW225230   0.287   3.585  16.756  3.5551  1.4028 -1.8657
 4532SOL     OW25231   1.579   2.038  12.242  0.0052  0.3165  0.2942
 4532SOL    HW125232   1.667   2.068  12.265  0.1763 -0.6221  0.8811
 4532SOL    HW225233   1.528   2.067  12.317  2.0061 -1.3546  2.3081
 4533SOL     OW25234   3.355   3.850   5.563  0.1543 -0.1033 -0.3857
 4533SOL    HW125235   3.412   3.892   5.500  0.2745 -0.9311 -0.8234
 4533SOL    HW225236   3.396   3.869   5.648 -1.1029  0.9839 -0.0287
 4534SOL     OW25237   0.475   2.868  11.823 -0.5273 -0.1661  0.4502
 4534SOL    HW125238   0.430   2.937  11.774  0.3179 -1.3917 -2.0891
 4534SOL    HW225239   0.425   2.793  11.792  1.1785 -1.8988  1.9441
 4535SOL     OW25240   2.582   3.096   9.867 -0.1838  0.0037  0.6200
 4535SOL    HW125241   2.561   3.004   9.884 -0.7583 -0.0804 -0.5718
 4535SOL    HW225242   2.605   3.094   9.774  0.3222  0.1406  0.7439
 4536SOL     OW25243   1.022   0.723   1.770  0.3860  0.1097  0.1911
 4536SOL    HW125244   0.995   0.815   1.776 -0.1340  0.0796 -1.5537
 4536SOL    HW225245   1.108   0.726   1.727  1.3015  0.8264  2.0671
 4537SOL     OW25246   2.117   0.131  12.537 -0.2438  0.7409  0.7420
 4537SOL    HW125247   2.203   0.096  12.560  0.5058 -0.2881 -3.5019
 4537SOL    HW225248   2.089   0.066  12.472  1.1605  0.1476  0.7369
 4538SOL     OW25249   0.339   0.931  14.913  0.0954  0.1096  0.5281
 4538SOL    HW125250   0.376   0.936  14.825 -1.4813  0.1388 -0.1442
 4538SOL    HW225251   0.413   0.945  14.972  0.2022 -3.9563  1.3323
 4539SOL     OW25252   1.150   2.652  17.157  0.1234 -0.6978  0.3405
 4539SOL    HW125253   1.176   2.712  17.086  0.7914 -2.2593 -0.7326
 4539SOL    HW225254   1.218   2.671  17.222  2.3123 -3.3442 -1.1822
 4540SOL     OW25255   0.019   4.661   6.612  0.1085  0.4781  0.6870
 4540SOL    HW125256   4.705   4.670   6.693 -0.7950 -2.8109  0.4786
 4540SOL    HW225257   0.102   4.631   6.650  0.2116  0.4196  0.4135
 4541SOL     OW25258   2.228   1.009   2.276  0.6890  0.3686 -0.1357
 4541SOL    HW125259   2.273   1.071   2.220  0.4742  2.4074  1.9237
 4541SOL    HW225260   2.196   1.068   2.345 -1.4344 -3.1030  1.8851
 4542SOL     OW25261   2.763   3.215   8.108  0.0563 -0.1124 -0.2412
 4542SOL    HW125262   2.807   3.212   8.193  1.5004  0.5886 -0.9671
 4542SOL    HW225263   2.789   3.133   8.065 -0.7027 -0.6578  0.3466
 4543SOL     OW25264   4.029   1.035   5.959  0.0452  0.0229  0.3835
 4543SOL    HW125265   4.026   1.129   5.979  0.4652 -0.1869  1.3918
 4543SOL    HW225266   4.034   1.000   6.047  0.0318 -0.4776  0.1818
 4544SOL     OW25267   3.085   0.586   0.926  0.2591 -0.0710 -0.6986
 4544SOL    HW125268   3.118   0.673   0.902  0.5551 -0.0201 -0.1006
 4544SOL    HW225269   3.153   0.527   0.892 -0.2426 -0.3564 -1.2004
 4545SOL     OW25270   2.286   3.044   2.137  0.1848 -0.2548 -0.7918
 4545SOL    HW125271   2.267   3.138   2.138 -0.1733 -0.3218 -1.5210
 4545SOL    HW225272   2.366   3.047   2.085  0.6450 -0.8597 -0.1058
 4546SOL     OW25273   4.002   0.678  17.471 -0.0024  0.5788 -0.8126
 4546SOL    HW125274   3.912   0.648  17.485  0.0790  0.5050 -0.4591
 4546SOL    HW225275   4.033   0.615  17.405  1.5174 -0.7280  1.1667
 4547SOL     OW25276   4.427   3.500   5.655 -0.1131 -0.0200  0.3269
 4547SOL    HW125277   4.422   3.582   5.703  1.2314 -0.6082  1.4579
 4547SOL    HW225278   4.478   3.527   5.578  2.0077 -0.2042  1.6707
 4548SOL     OW25279   1.200   4.425  17.014  0.4473 -0.6155  0.0708
 4548SOL    HW125280   1.282   4.473  17.007  0.5858 -0.8793 -0.0953
 4548SOL    HW225281   1.151   4.465  16.941 -0.0178  1.0140  1.2671
 4549SOL     OW25282   0.761   2.424  14.748  0.0387 -0.4574 -0.7412
 4549SOL    HW125283   0.830   2.441  14.812 -2.0056  1.2843  0.9688
 4549SOL    HW225284   0.793   2.484  14.681 -0.2918  1.3066  0.6942
 4550SOL     OW25285   3.129   4.639  17.240  0.3260  0.3249 -0.0710
 4550SOL    HW125286   3.033   4.643  17.240  0.1945 -2.9781 -0.1536
 4550SOL    HW225287   3.145   4.669  17.330 -0.6359  0.7101 -0.0247
 4551SOL     OW25288   2.523   2.142  12.707  0.5978  0.5304 -0.4308
 4551SOL    HW125289   2.486   2.182  12.786  2.2829  1.9549 -0.3680
 4551SOL    HW225290   2.445   2.089  12.694  0.1946  1.1459 -0.5079
 4552SOL     OW25291   2.508   1.108   5.895 -0.0943 -0.1435  0.2851
 4552SOL    HW125292   2.489   1.046   5.825 -1.6776  0.9970 -0.3035
 4552SOL    HW225293   2.427   1.128   5.942 -0.2337  0.9542 -0.4245
 4553SOL     OW25294   1.462   1.700   3.146 -0.2691 -0.2938 -0.2198
 4553SOL    HW125295   1.494   1.680   3.234  1.0125  1.0146 -0.4056
 4553SOL    HW225296   1.409   1.777   3.164 -0.5595 -0.2529 -1.2259
 4554SOL     OW25297   1.215   2.228   7.507  0.0762  0.2043 -0.0787
 4554SOL    HW125298   1.209   2.198   7.598  1.0822 -0.7235 -0.3250
 4554SOL    HW225299   1.172   2.155   7.464  2.7415 -2.1008  1.1793
 4555SOL     OW25300   1.341   0.741   3.000  0.1435  0.6789 -0.0356
 4555SOL    HW125301   1.349   0.836   3.011 -0.2151  0.7295 -0.2013
 4555SOL    HW225302   1.284   0.741   2.923  0.4610  0.0877 -0.2773
 4556SOL     OW25303   0.816   2.152   9.005  0.3428  0.0686 -0.0534
 4556SOL    HW125304   0.843   2.176   8.916 -0.9018 -1.1508 -0.7554
 4556SOL    HW225305   0.721   2.158   8.996  0.2720  1.6764  1.8714
 4557SOL     OW25306   1.167   3.681   6.248 -0.2709  0.0646  0.2248
 4557SOL    HW125307   1.249   3.718   6.215 -0.2136 -0.5938 -0.3743
 4557SOL    HW225308   1.157   3.596   6.206 -0.4191 -0.0799  0.5551
 4558SOL     OW25309   1.403   0.580  14.629  0.2477  0.2279  0.2678
 4558SOL    HW125310   1.390   0.546  14.540 -1.5650  1.2090  0.1786
 4558SOL    HW225311   1.316   0.605  14.659  0.4473  0.2028  0.8694
 4559SOL     OW25312   0.123   3.754  14.301  0.2899  1.0393  0.1177
 4559SOL    HW125313   0.175   3.695  14.247  0.7182  2.2043 -0.7571
 4559SOL    HW225314   0.036   3.742  14.262  0.5947  0.9814 -0.5434
 4560SOL     OW25315   3.373   1.671   1.676 -0.5182  0.0546 -0.2292
 4560SOL    HW125316   3.278   1.672   1.690 -0.2377  1.2433  1.5432
 4560SOL    HW225317   3.393   1.583   1.643  1.1850 -0.2030  1.4695
 4561SOL     OW25318   2.117   3.182  17.515  0.3687  0.0370  0.4232
 4561SOL    HW125319   2.057   3.231  17.458  1.1637  0.4082 -0.0855
 4561SOL    HW225320   2.055   3.133  17.570  0.1784  2.7012  2.6034
 4562SOL     OW25321   4.113   2.507  17.672 -0.7026  0.5481 -0.3851
 4562SOL    HW125322   4.078   2.570  17.609 -1.4931 -0.5539 -1.0438
 4562SOL    HW225323   4.200   2.483  17.639  1.2206  2.2108  3.4246
 4563SOL     OW25324   1.930   3.255   0.110  0.1715  0.0184  0.0786
 4563SOL    HW125325   1.887   3.341   0.111  0.2049  0.0087  2.3301
 4563SOL    HW225326   2.007   3.289   0.155 -0.8411  2.1591  0.2294
 4564SOL     OW25327   2.824   0.220   7.459 -0.9577  0.0077  0.2400
 4564SOL    HW125328   2.808   0.305   7.418 -0.3135  0.4286  0.8617
 4564SOL    HW225329   2.739   0.189   7.491 -0.6350 -1.3265 -0.2193
 4565SOL     OW25330   3.078   2.547   3.546 -0.3382 -0.4467  0.2908
 4565SOL    HW125331   3.110   2.469   3.501  1.6005  0.2752  0.4369
 4565SOL    HW225332   3.055   2.607   3.475  0.0984  1.1701  1.5121
 4566SOL     OW25333   3.701   1.904   1.469  0.5651  0.4368 -0.0644
 4566SOL    HW125334   3.791   1.929   1.449  1.0399 -0.4752  0.9319
 4566SOL    HW225335   3.662   1.990   1.489 -0.3350 -0.3217  1.4633
 4567SOL     OW25336   1.134   2.176   7.890  0.3391  0.4400 -0.0023
 4567SOL    HW125337   1.090   2.134   7.964 -0.8483 -0.1474 -1.0250
 4567SOL    HW225338   1.226   2.161   7.908  1.1410 -0.0184 -4.5112
 4568SOL     OW25339   2.200   1.457  12.228  0.1084  0.9080 -0.0267
 4568SOL    HW125340   2.250   1.511  12.167  0.7870  2.7354  2.1222
 4568SOL    HW225341   2.275   1.410  12.264 -1.1152 -0.2754  0.9743
 4569SOL     OW25342   3.161   4.345   7.095  0.0835  0.2827  0.0314
 4569SOL    HW125343   3.081   4.294   7.097  0.3517 -0.0742  1.4262
 4569SOL    HW225344   3.228   4.296   7.142 -0.3432  1.2181  1.5860
 4570SOL     OW25345   3.547   2.225   7.644  0.3597 -0.2393 -0.3696
 4570SOL    HW125346   3.493   2.228   7.564 -0.3078  0.2832  0.1015
 4570SOL    HW225347   3.497   2.164   7.698 -0.2867 -2.0379 -3.0226
 4571SOL     OW25348   1.051   0.381   8.783  0.0794 -0.2592  0.2587
 4571SOL    HW125349   1.122   0.322   8.758  0.1053  0.8707 -2.2932
 4571SOL    HW225350   1.076   0.409   8.871 -0.1839 -0.4262  0.3890
 4572SOL     OW25351   2.378   2.061   8.972 -0.2149  0.0712 -0.2440
 4572SOL    HW125352   2.367   2.109   9.054 -1.1054  1.9635 -1.4769
 4572SOL    HW225353   2.448   2.000   8.996 -0.0376  0.6728  0.7318
 4573SOL     OW25354   3.523   2.719   1.220 -0.3802  0.4511  0.2994
 4573SOL    HW125355   3.524   2.810   1.247  0.2980  0.3087  0.7329
 4573SOL    HW225356   3.596   2.719   1.159 -1.7595  2.4017 -1.3583
 4574SOL     OW25357   2.187   0.160   2.068 -0.4960 -0.4847 -0.3006
 4574SOL    HW125358   2.241   0.179   1.991 -0.1790 -3.7281 -0.8713
 4574SOL    HW225359   2.138   0.088   2.030 -0.5475 -1.1659  1.0921
 4575SOL     OW25360   3.787   1.608   4.729  0.6296 -0.3340  0.1889
 4575SOL    HW125361   3.848   1.619   4.657  0.3316 -3.5005 -0.5645
 4575SOL    HW225362   3.708   1.652   4.697  1.2592  0.5224 -0.1928
 4576SOL     OW25363   4.565   3.998  16.272 -0.7264  0.2064  0.7155
 4576SOL    HW125364   4.515   3.975  16.194  0.3334  0.9121 -0.1669
 4576SOL    HW225365   4.624   4.056  16.224  0.6012 -0.2335  1.8252
 4577SOL     OW25366   0.747   0.007  12.864 -0.4669 -0.0834 -0.0365
 4577SOL    HW125367   0.675   0.071  12.858 -0.1434  0.4026  1.3783
 4577SOL    HW225368   0.824   0.063  12.874 -0.2045 -0.5167  0.3566
 4578SOL     OW25369   4.228   0.540   3.450 -0.4111 -0.7034 -0.0576
 4578SOL    HW125370   4.197   0.618   3.498 -0.4717 -1.2933  0.8674
 4578SOL    HW225371   4.318   0.564   3.430 -0.2778  0.0970  1.4634
 4579SOL     OW25372   0.472   1.398   8.385  0.8440 -0.5138  0.1512
 4579SOL    HW125373   0.497   1.363   8.299 -2.1666 -1.5849 -0.2851
 4579SOL    HW225374   0.384   1.361   8.388 -0.5225  2.8562  2.4043
 4580SOL     OW25375   3.220   3.732   8.506  0.1460 -0.0054 -0.5089
 4580SOL    HW125376   3.216   3.733   8.602  1.8485 -1.6083 -0.4249
 4580SOL    HW225377   3.314   3.721   8.499  0.3652 -0.5412  3.4317
 4581SOL     OW25378   4.299   2.067   7.556  0.0087 -0.1600 -0.3682
 4581SOL    HW125379   4.213   2.110   7.555 -0.4176 -1.0184 -0.0141
 4581SOL    HW225380   4.291   2.000   7.488 -1.2077 -0.7840  0.3985
 4582SOL     OW25381   0.239   1.639  15.147 -0.3576  0.2907 -0.4515
 4582SOL    HW125382   0.232   1.572  15.079  0.7708 -0.3935  0.0897
 4582SOL    HW225383   0.197   1.709  15.098 -1.3543  0.7945  1.1298
 4583SOL     OW25384   0.272   3.081   3.515  0.6415 -0.2413  0.1259
 4583SOL    HW125385   0.277   3.128   3.431  1.9162 -0.5684  0.0109
 4583SOL    HW225386   0.334   3.126   3.572 -1.9903  2.6195  0.6859
 4584SOL     OW25387   2.931   2.224   0.973  0.5958 -0.2733 -0.0892
 4584SOL    HW125388   2.948   2.317   0.987 -3.2018  0.7927 -2.6541
 4584SOL    HW225389   2.849   2.210   1.021 -0.0935 -1.0966 -1.4954
 4585SOL     OW25390   2.984   4.140   8.789  0.2594 -0.4705  0.2286
 4585SOL    HW125391   3.009   4.181   8.706  1.3582 -1.7875 -0.0784
 4585SOL    HW225392   2.955   4.220   8.834 -0.5685  0.2981 -1.6594
 4586SOL     OW25393   2.289   3.070   3.817 -0.0131 -0.9258  0.0097
 4586SOL    HW125394   2.310   3.163   3.806 -0.2312 -0.7606  1.0210
 4586SOL    HW225395   2.194   3.068   3.812 -0.0598  1.3975 -0.0523
 4587SOL     OW25396   4.189   1.516   4.123  0.2805  0.5674  0.0514
 4587SOL    HW125397   4.130   1.590   4.110 -1.0571 -0.0153  2.7945
 4587SOL    HW225398   4.165   1.476   4.206 -0.9258 -0.0175 -0.5722
 4588SOL     OW25399   0.337   3.515   2.099  0.1684  0.2476 -0.1845
 4588SOL    HW125400   0.382   3.564   2.167 -0.3447  0.3509  0.0829
 4588SOL    HW225401   0.325   3.426   2.131 -0.1855  0.6734  0.8653
 4589SOL     OW25402   4.336   0.762  16.793 -0.1418 -0.6470 -0.3464
 4589SOL    HW125403   4.324   0.850  16.758  1.3608 -0.3016  0.0283
 4589SOL    HW225404   4.292   0.712  16.724  0.1126 -1.0272 -0.2368
 4590SOL     OW25405   4.273   1.527   7.318 -0.4500  0.1640 -0.0933
 4590SOL    HW125406   4.312   1.538   7.231  0.7855 -1.5494  0.2462
 4590SOL    HW225407   4.196   1.476   7.294 -1.2974  1.3622  0.1131
 4591SOL     OW25408   3.586   2.064  13.214  0.0294 -0.1545  0.5295
 4591SOL    HW125409   3.679   2.042  13.210 -0.2791 -1.0888 -1.6589
 4591SOL    HW225410   3.569   2.069  13.308  5.7925  0.0568  1.5610
 4592SOL     OW25411   3.895   2.476   0.492 -0.2100  0.0481  0.6795
 4592SOL    HW125412   3.918   2.387   0.519  0.6841 -0.0963 -0.5425
 4592SOL    HW225413   3.986   2.506   0.494  0.0865 -0.6870 -1.4887
 4593SOL     OW25414   2.809   2.390   1.237 -0.0823  0.4801  0.3113
 4593SOL    HW125415   2.862   2.423   1.165  0.3012 -1.5854 -0.3660
 4593SOL    HW225416   2.852   2.437   1.309 -0.1842  0.7445  0.1970
 4594SOL     OW25417   3.690   3.203   5.026  0.4746 -0.4751 -1.1776
 4594SOL    HW125418   3.731   3.280   5.065  0.2202 -2.2553  2.6666
 4594SOL    HW225419   3.624   3.247   4.972 -0.1983  1.7625  1.4758
 4595SOL     OW25420   4.027   2.292   5.702  0.2027 -0.0977 -0.0121
 4595SOL    HW125421   4.116   2.263   5.724  0.0885 -0.1603  0.3601
 4595SOL    HW225422   3.975   2.230   5.753 -1.5437  1.9388  0.6595
 4596SOL     OW25423   3.035   3.815  12.328  0.3436 -0.0538 -0.0857
 4596SOL    HW125424   3.068   3.875  12.260 -0.0928 -1.9818 -1.9869
 4596SOL    HW225425   2.976   3.873  12.376  4.0140  2.5241  1.3606
 4597SOL     OW25426   1.801   3.666  14.765 -0.8904 -0.1394  0.7893
 4597SOL    HW125427   1.784   3.759  14.759 -1.7768 -0.2747  1.2158
 4597SOL    HW225428   1.716   3.641  14.801 -1.9657 -1.3225 -2.5558
 4598SOL     OW25429   1.587   4.026  13.482  0.4384 -0.1019 -0.6168
 4598SOL    HW125430   1.593   4.116  13.450  0.2790  0.7116  1.6064
 4598SOL    HW225431   1.551   4.040  13.570 -1.3536  0.3856 -1.4077
 4599SOL     OW25432   0.216   2.672   7.028 -0.2994  0.0459  0.3687
 4599SOL    HW125433   0.215   2.713   7.115 -1.2233  2.8114 -0.9664
 4599SOL    HW225434   0.304   2.703   7.007 -0.8674  1.6128  0.3122
 4600SOL     OW25435   1.441   1.243   5.338 -0.2375 -0.1014  0.0475
 4600SOL    HW125436   1.486   1.159   5.326 -0.2248 -0.2084  0.8427
 4600SOL    HW225437   1.354   1.212   5.367  0.4902 -1.7537  0.5073
 4601SOL     OW25438   0.498   4.351   5.356 -0.4523  0.6702 -0.5428
 4601SOL    HW125439   0.476   4.371   5.265  1.0820  0.8820 -0.8678
 4601SOL    HW225440   0.536   4.433   5.389 -0.4071  0.2966  0.3434
 4602SOL     OW25441   3.610   0.858  16.909  0.0034  0.4291  0.0911
 4602SOL    HW125442   3.572   0.868  16.821  1.3659 -1.4674 -0.7078
 4602SOL    HW225443   3.581   0.773  16.940 -2.2275  1.0085 -0.3655
 4603SOL     OW25444   3.110   3.296  17.217  0.0373  0.3669 -0.5638
 4603SOL    HW125445   3.143   3.385  17.226 -0.8766  0.5571  0.9988
 4603SOL    HW225446   3.159   3.263  17.293 -3.1299  0.3035  1.4309
 4604SOL     OW25447   4.630   0.815   5.567 -0.3934  0.0344 -0.3023
 4604SOL    HW125448   4.717   0.836   5.532  0.9591 -4.2217  0.5261
 4604SOL    HW225449   4.584   0.899   5.573 -0.9763 -0.3257  0.3092
 4605SOL     OW25450   0.901   4.159  10.176  0.0304  0.6077  0.2010
 4605SOL    HW125451   0.964   4.216  10.132 -0.3395  1.7016  1.1098
 4605SOL    HW225452   0.886   4.210  10.255  1.1930  0.4921  0.4957
 4606SOL     OW25453   3.395   1.821   9.708  0.3759  0.2780  0.0956
 4606SOL    HW125454   3.429   1.793   9.623 -0.3974 -2.6024  0.7568
 4606SOL    HW225455   3.314   1.869   9.689 -0.1820 -0.5168  0.4920
 4607SOL     OW25456   4.361   0.229  15.672 -0.1630  0.0434 -0.1874
 4607SOL    HW125457   4.365   0.310  15.621  1.5537 -1.8880 -3.1232
 4607SOL    HW225458   4.270   0.199  15.668 -0.4606  1.0081 -0.6351
 4608SOL     OW25459   2.818   0.792  10.741 -0.4348 -0.1218 -0.1624
 4608SOL    HW125460   2.817   0.697  10.754 -0.4393 -0.0322  0.4915
 4608SOL    HW225461   2.843   0.797  10.649 -3.4062  1.1410 -0.9064
 4609SOL     OW25462   2.659   0.100   5.400  0.6371  0.4033  0.6281
 4609SOL    HW125463   2.599   0.026   5.410 -2.8778  3.0467 -0.7762
 4609SOL    HW225464   2.683   0.086   5.308  0.2519  0.2105  0.5569
 4610SOL     OW25465   1.403   3.003   6.456 -0.1018 -0.2849  0.1758
 4610SOL    HW125466   1.403   2.957   6.540  1.5072  0.9939  0.8797
 4610SOL    HW225467   1.472   2.952   6.413 -0.2167  0.9605 -1.4689
 4611SOL     OW25468   2.363   3.315   7.616 -0.0199  0.2463 -0.2152
 4611SOL    HW125469   2.319   3.245   7.665  2.1746  1.3591  3.3806
 4611SOL    HW225470   2.436   3.266   7.577  1.0190 -0.4819  2.6508
 4612SOL     OW25471   4.150   0.318   1.935 -0.0605  0.3117  0.3482
 4612SOL    HW125472   4.227   0.335   1.880  0.5304  2.2570  1.7960
 4612SOL    HW225473   4.147   0.404   1.976 -1.5028 -1.1451  3.2810
 4613SOL     OW25474   1.016   4.220   5.922 -0.4405  0.2862 -0.0164
 4613SOL    HW125475   1.044   4.134   5.953  0.7980  0.5893 -0.2976
 4613SOL    HW225476   1.090   4.273   5.953  0.9706 -1.1661 -0.9224
 4614SOL     OW25477   3.108   2.264  11.036  0.1230 -0.3821 -0.0626
 4614SOL    HW125478   3.128   2.327  10.967  4.2136 -2.4061 -0.7671
 4614SOL    HW225479   3.120   2.300  11.124 -1.0084 -0.7333  0.2355
 4615SOL     OW25480   4.482   2.586  13.395  0.5097 -0.0814 -0.5562
 4615SOL    HW125481   4.521   2.561  13.479 -1.8352 -1.8542 -0.0007
 4615SOL    HW225482   4.549   2.551  13.336  2.0703 -0.5244  1.4990
 4616SOL     OW25483   1.754   1.747  12.399  0.3182 -0.0926  0.4091
 4616SOL    HW125484   1.757   1.711  12.310  0.9578  0.4762  0.1944
 4616SOL    HW225485   1.830   1.805  12.410  0.1484  0.3177 -0.5603
 4617SOL     OW25486   2.147   3.269   2.159 -0.0495 -0.0498 -0.0806
 4617SOL    HW125487   2.107   3.277   2.072  2.2208 -2.0875 -1.3138
 4617SOL    HW225488   2.069   3.304   2.203 -0.2012 -1.9404  1.1198
 4618SOL     OW25489   3.168   2.525  13.971 -0.1406  0.4750 -0.1324
 4618SOL    HW125490   3.205   2.528  14.059 -2.5468 -2.0499  0.9986
 4618SOL    HW225491   3.116   2.604  13.983 -0.5809  0.2605 -0.6193
 4619SOL     OW25492   3.010   4.343  11.371 -0.3917 -0.0738 -0.0297
 4619SOL    HW125493   3.000   4.420  11.315 -1.1111 -0.0877  0.0735
 4619SOL    HW225494   3.101   4.355  11.395 -0.1652  0.3939 -1.1191
 4620SOL     OW25495   3.749   1.025  14.721  0.3186 -0.0167 -0.2310
 4620SOL    HW125496   3.736   0.967  14.796  3.2392  1.2246  1.2436
 4620SOL    HW225497   3.835   1.062  14.742 -0.0646 -0.6605  2.4933
 4621SOL     OW25498   0.788   4.690   9.849 -0.1578  0.0332  0.5728
 4621SOL    HW125499   0.805   0.034   9.899  0.5691 -0.0329  0.4313
 4621SOL    HW225500   0.835   4.628   9.906  0.0687  0.4690  0.8581
 4622SOL     OW25501   2.167   3.738  13.759  0.1751 -0.2553 -0.8480
 4622SOL    HW125502   2.104   3.748  13.830  0.2034 -1.6660 -0.6092
 4622SOL    HW225503   2.113   3.694  13.694 -1.4399 -0.2108  0.4837
 4623SOL     OW25504   0.421   4.441   5.094  0.1446 -0.0747  0.4974
 4623SOL    HW125505   0.397   4.402   5.010 -0.0041 -1.8621  1.3624
 4623SOL    HW225506   0.357   4.510   5.111  0.4168 -0.0158  1.2957
 4624SOL     OW25507   4.667   0.355   9.480  0.1589 -0.9279 -0.4370
 4624SOL    HW125508   4.606   0.343   9.407 -0.4752 -0.9812  0.0975
 4624SOL    HW225509   4.650   0.449   9.493  1.2587 -0.9788  1.3361
 4625SOL     OW25510   3.587   0.128   6.247 -0.5633  0.6623  0.2310
 4625SOL    HW125511   3.580   0.223   6.258 -1.1678  0.4874  1.4439
 4625SOL    HW225512   3.682   0.121   6.238 -0.4633 -0.6950  2.2382
 4626SOL     OW25513   0.445   1.821  15.067  0.9443  0.4424 -0.1548
 4626SOL    HW125514   0.390   1.889  15.027  0.4272  1.3452  2.0989
 4626SOL    HW225515   0.373   1.760  15.083  0.3347  1.2307  0.0746
 4627SOL     OW25516   2.181   2.604   1.525  0.5249 -0.0154 -0.1224
 4627SOL    HW125517   2.216   2.689   1.498 -0.4765 -0.1741 -1.9268
 4627SOL    HW225518   2.091   2.622   1.496  0.8186  1.7563  0.0826
 4628SOL     OW25519   2.767   1.097   6.009  0.0038 -0.2718 -0.4203
 4628SOL    HW125520   2.685   1.093   5.960  0.3398  2.2739 -1.1873
 4628SOL    HW225521   2.741   1.143   6.089  0.2583  1.0878 -1.1192
 4629SOL     OW25522   0.843   0.813  16.512 -0.1420  0.1433 -0.0759
 4629SOL    HW125523   0.920   0.768  16.479 -0.2224 -0.2316  0.2559
 4629SOL    HW225524   0.782   0.739  16.509 -0.4620  0.4048 -0.1225
 4630SOL     OW25525   0.885   3.375   4.502  0.5856 -0.3609 -0.3750
 4630SOL    HW125526   0.801   3.349   4.464 -0.1983 -0.1805  1.2234
 4630SOL    HW225527   0.883   3.316   4.578  0.9579  0.1971  0.0729
 4631SOL     OW25528   2.107   0.284   3.483 -0.5797 -0.0928 -0.3321
 4631SOL    HW125529   2.077   0.368   3.447 -0.3812 -0.2503 -0.8712
 4631SOL    HW225530   2.186   0.261   3.434 -0.5553  0.9482 -0.7758
 4632SOL     OW25531   1.878   4.101  15.154  0.0241 -0.0199 -0.0251
 4632SOL    HW125532   1.824   4.146  15.089  1.8808  0.7711 -1.0215
 4632SOL    HW225533   1.965   4.134  15.134  0.0413  0.3640  0.6986
 4633SOL     OW25534   0.210   4.723   6.983  0.2190  0.3112 -0.2974
 4633SOL    HW125535   0.219   4.701   7.076 -3.5401  3.8597  0.8809
 4633SOL    HW225536   0.169   4.644   6.947  0.3848  1.1878 -2.3776
 4634SOL     OW25537   2.227   2.371   2.385 -0.0114 -0.2096  0.2417
 4634SOL    HW125538   2.244   2.434   2.315 -0.3416 -2.2263 -1.6465
 4634SOL    HW225539   2.236   2.436   2.455 -0.5891 -0.4200  0.5129
 4635SOL     OW25540   3.647   3.223  16.168 -0.3669 -0.0111  0.5158
 4635SOL    HW125541   3.589   3.169  16.222 -0.3355 -0.8322 -0.2661
 4635SOL    HW225542   3.607   3.310  16.164  2.0078  0.9477 -1.8724
 4636SOL     OW25543   2.094   0.935   8.816  0.0703  0.4574  0.4446
 4636SOL    HW125544   2.137   0.860   8.857  2.2508  0.6902 -1.4488
 4636SOL    HW225545   2.015   0.896   8.780  0.6180  0.7519 -1.0577
 4637SOL     OW25546   2.986   0.403   9.039  0.2606  0.1389 -0.4429
 4637SOL    HW125547   2.993   0.489   8.997 -1.7006 -0.4740 -1.9748
 4637SOL    HW225548   2.926   0.417   9.112  2.5040  0.5333  1.3648
 4638SOL     OW25549   2.616   4.201   9.239 -0.1040 -0.2286 -0.8182
 4638SOL    HW125550   2.618   4.164   9.328  2.0838  0.0125 -0.7711
 4638SOL    HW225551   2.682   4.270   9.241 -1.1904  0.8160 -1.3945
 4639SOL     OW25552   2.681   4.463   3.255 -0.4740 -0.0947  0.4683
 4639SOL    HW125553   2.668   4.452   3.349 -1.0146  1.7844  0.6302
 4639SOL    HW225554   2.621   4.536   3.242 -0.7851 -0.4720 -0.1602
 4640SOL     OW25555   2.451   1.092  11.266 -0.4743 -0.4552  0.5437
 4640SOL    HW125556   2.511   1.166  11.255 -0.4901 -0.6115 -0.5776
 4640SOL    HW225557   2.375   1.129  11.220  0.9661  1.5412 -0.2434
 4641SOL     OW25558   0.934   0.467   2.135 -0.2668 -0.5733  0.2372
 4641SOL    HW125559   0.871   0.485   2.205 -0.2797  2.4591 -0.5723
 4641SOL    HW225560   0.945   0.558   2.107  2.2175 -1.3183 -1.1275
 4642SOL     OW25561   2.132   0.643  13.784 -0.6478 -0.3127  0.6009
 4642SOL    HW125562   2.224   0.654  13.806 -1.0300  2.2594  0.8289
 4642SOL    HW225563   2.137   0.682  13.697  1.4813 -3.5281 -0.6955
 4643SOL     OW25564   1.748   4.734   4.109 -0.0826 -0.5370 -0.1470
 4643SOL    HW125565   1.842   4.718   4.104  0.0417  0.5159 -1.1299
 4643SOL    HW225566   1.737   4.729   4.204  0.2111  1.1980 -0.0241
 4644SOL     OW25567   0.622   4.433  16.007  0.0424  0.0755 -0.4072
 4644SOL    HW125568   0.666   4.362  15.961  1.3040  0.3911  0.3071
 4644SOL    HW225569   0.535   4.412  15.973  0.7119 -2.0160 -0.8200
 4645SOL     OW25570   0.781   4.181  11.174  0.6966 -0.4174 -0.3257
 4645SOL    HW125571   0.869   4.206  11.148  1.0968 -3.0477 -1.4516
 4645SOL    HW225572   0.784   4.146  11.263  0.6477  0.7855  0.1585
 4646SOL     OW25573   3.495   3.620   8.892 -0.2283  0.0735  0.7548
 4646SOL    HW125574   3.452   3.667   8.964 -0.9746  0.0290  0.3297
 4646SOL    HW225575   3.456   3.534   8.905  0.3282 -0.1803  0.7726
 4647SOL     OW25576   4.312   0.150   5.577  0.0323  0.5954  0.1197
 4647SOL    HW125577   4.362   0.096   5.517 -1.2112 -0.0715 -0.3175
 4647SOL    HW225578   4.244   0.171   5.513  0.0147  3.1442  0.9543
 4648SOL     OW25579   0.883   0.500  16.752  0.6462 -0.4534 -0.1645
 4648SOL    HW125580   0.891   0.426  16.812  1.7473 -1.4301 -1.5212
 4648SOL    HW225581   0.934   0.466  16.679 -0.1574 -1.6790 -0.1668
 4649SOL     OW25582   4.114   4.700  11.077  0.2408 -0.1368 -0.0372
 4649SOL    HW125583   4.073   4.703  10.991  0.3688 -0.4765 -0.1094
 4649SOL    HW225584   4.187   0.025  11.075  1.0890 -1.1120  0.8865
 4650SOL     OW25585   1.695   1.405  16.705 -0.6166 -0.0201 -0.4004
 4650SOL    HW125586   1.705   1.452  16.622 -1.2144  1.8376  0.6007
 4650SOL    HW225587   1.635   1.337  16.673  0.7621 -0.7832 -1.3602
 4651SOL     OW25588   4.589   3.002   6.519  0.1425  0.7232  0.4318
 4651SOL    HW125589   4.613   3.093   6.540 -0.0431  0.8642  0.0405
 4651SOL    HW225590   4.586   2.970   6.609  1.4711 -0.4265  0.0685
 4652SOL     OW25591   0.363   4.522  11.756 -0.7369  0.3716 -0.8255
 4652SOL    HW125592   0.447   4.481  11.779  0.1721  1.3335 -2.4930
 4652SOL    HW225593   0.314   4.510  11.837  1.2244  1.2641  0.5010
 4653SOL     OW25594   0.519   4.351  14.265  0.3258 -0.2433  0.2198
 4653SOL    HW125595   0.463   4.286  14.308 -0.8942 -0.1257 -1.1754
 4653SOL    HW225596   0.501   4.412  14.337  0.3911 -0.2076  0.2055
 4654SOL     OW25597   1.912   0.791   5.107  0.0103  0.4035 -0.3195
 4654SOL    HW125598   1.898   0.869   5.160 -0.1722 -0.2158  0.5447
 4654SOL    HW225599   1.945   0.721   5.163  3.8676  1.0134 -1.8678
 4655SOL     OW25600   3.173   2.940   1.925  0.0908 -0.1424  0.6887
 4655SOL    HW125601   3.161   2.968   1.834 -0.4311 -0.4076  0.6759
 4655SOL    HW225602   3.208   3.021   1.963 -0.2435  0.7206 -0.8464
 4656SOL     OW25603   0.673   4.156  15.195 -0.2977  0.2430 -0.1525
 4656SOL    HW125604   0.697   4.176  15.285  0.2566  1.1910 -0.5073
 4656SOL    HW225605   0.581   4.181  15.190 -0.8235 -1.4317  1.1227
 4657SOL     OW25606   2.222   2.191  11.112 -0.2443 -0.1799 -0.6194
 4657SOL    HW125607   2.243   2.188  11.019  0.8928 -0.9531 -0.3535
 4657SOL    HW225608   2.208   2.097  11.127  1.6488 -0.2006  1.0871
 4658SOL     OW25609   3.098   2.830   1.013  0.0178  0.1590  0.2922
 4658SOL    HW125610   3.155   2.904   1.032  0.5061 -0.0847 -0.2138
 4658SOL    HW225611   3.058   2.815   1.099 -0.6431  0.0085 -0.0393
 4659SOL     OW25612   1.095   1.691   5.740 -0.1316  0.0341  0.0469
 4659SOL    HW125613   1.047   1.765   5.775  0.0262 -0.1694  0.6964
 4659SOL    HW225614   1.040   1.670   5.664  0.8547  0.2332 -0.7231
 4660SOL     OW25615   1.243   2.077   6.437 -0.2209 -0.3414  0.0255
 4660SOL    HW125616   1.204   2.069   6.350  0.4378 -0.2890 -0.2825
 4660SOL    HW225617   1.310   2.137   6.403 -0.0085  0.4039  1.8013
 4661SOL     OW25618   4.574   4.130   6.037  0.5846 -0.5487  0.0241
 4661SOL    HW125619   4.529   4.166   5.961 -0.9914 -2.5968 -0.0105
 4661SOL    HW225620   4.505   4.133   6.104 -0.5250  1.6530 -1.2375
 4662SOL     OW25621   3.007   3.423   8.403  0.1605  0.0798 -0.4124
 4662SOL    HW125622   3.011   3.438   8.308  1.7575  2.1157 -0.0410
 4662SOL    HW225623   2.916   3.403   8.424 -0.1313  0.9401 -0.8592
 4663SOL     OW25624   4.264   4.679   6.337  0.4902  0.3284  0.0674
 4663SOL    HW125625   4.350   4.677   6.378 -0.5962 -0.3563  2.3156
 4663SOL    HW225626   4.272   4.708   6.246  0.0548 -0.2878 -0.1737
 4664SOL     OW25627   0.247   1.203   5.802  0.4008 -0.0363 -0.1616
 4664SOL    HW125628   0.330   1.168   5.770 -0.0746 -0.6003 -0.7960
 4664SOL    HW225629   0.199   1.124   5.828  0.0126  0.0311 -0.6726
 4665SOL     OW25630   0.233   1.025   1.031 -0.2320 -0.2210  0.3164
 4665SOL    HW125631   0.267   1.041   1.119 -0.2217 -1.7283  0.5840
 4665SOL    HW225632   0.183   0.946   1.049 -0.5503  0.0534  0.6449
 4666SOL     OW25633   0.317   1.555   8.862  0.3453  0.1138  0.5435
 4666SOL    HW125634   0.398   1.554   8.914 -0.2103 -0.7893  1.4149
 4666SOL    HW225635   0.255   1.587   8.928 -0.1164  2.0203 -0.8594
 4667SOL     OW25636   4.586   1.472   7.319 -0.2356  0.1024 -0.0894
 4667SOL    HW125637   4.493   1.495   7.324  1.0970  5.3147  0.7676
 4667SOL    HW225638   4.628   1.513   7.395 -0.7510 -0.8805  0.7154
 4668SOL     OW25639   1.450   3.969  15.058  0.0788 -0.1546 -0.5127
 4668SOL    HW125640   1.461   3.917  15.138 -0.3406  1.5231  0.6289
 4668SOL    HW225641   1.355   3.962  15.052 -0.0652 -0.9729  2.7813
 4669SOL     OW25642   3.435   2.688  17.406 -0.1283  0.1698 -0.2753
 4669SOL    HW125643   3.512   2.656  17.358  1.7263  1.5337  1.7930
 4669SOL    HW225644   3.366   2.660  17.346 -0.1099  2.3407 -1.3235
 4670SOL     OW25645   2.827   3.452  16.887 -0.2340 -0.4783 -0.4651
 4670SOL    HW125646   2.866   3.419  16.805 -0.8340  0.6195 -1.1939
 4670SOL    HW225647   2.748   3.492  16.852  0.3306  0.5388 -0.5651
 4671SOL     OW25648   3.074   2.217   9.822  0.1421  0.1247  0.0925
 4671SOL    HW125649   2.986   2.255   9.819  0.6935  1.4107 -0.0859
 4671SOL    HW225650   3.052   2.134   9.863 -1.1684  1.0112  1.2104
 4672SOL     OW25651   0.508   3.098  17.572  0.6112 -0.2693 -0.0759
 4672SOL    HW125652   0.488   3.186  17.603 -1.1655 -0.7573  0.1685
 4672SOL    HW225653   0.429   3.055  17.537  0.2026  0.4419 -0.0337
 4673SOL     OW25654   0.262   3.647   7.984  0.1849  0.1483  0.0366
 4673SOL    HW125655   0.269   3.734   7.944 -1.7521  0.2972  0.0249
 4673SOL    HW225656   0.294   3.593   7.911  1.9129 -1.2468  1.8463
 4674SOL     OW25657   0.032   4.370  11.696 -0.5247  0.2105 -0.5971
 4674SOL    HW125658   0.057   4.400  11.608  2.9717 -2.0525 -0.3724
 4674SOL    HW225659   0.099   4.305  11.716 -0.4692 -0.1183 -1.8553
 4675SOL     OW25660   2.210   4.218   3.262  0.1212  0.1128 -0.3731
 4675SOL    HW125661   2.236   4.135   3.223  2.6415  0.1507  1.2111
 4675SOL    HW225662   2.202   4.201   3.355 -4.3625  1.0436 -0.6228
 4676SOL     OW25663   2.815   1.402   0.830 -0.5010  0.7359  0.1295
 4676SOL    HW125664   2.878   1.447   0.885 -1.4671  1.4803  0.6289
 4676SOL    HW225665   2.739   1.395   0.889 -0.2183 -0.8410  0.3048
 4677SOL     OW25666   1.509   2.631  11.405  0.0949 -0.1988 -0.2363
 4677SOL    HW125667   1.559   2.712  11.398 -0.6250  0.4656  2.2085
 4677SOL    HW225668   1.517   2.601  11.315 -0.8991  0.3490 -0.5057
 4678SOL     OW25669   2.954   2.818  13.190  0.6175  1.0623 -0.1430
 4678SOL    HW125670   2.956   2.908  13.159  0.3792  1.5094  1.1353
 4678SOL    HW225671   2.981   2.834  13.281 -0.5197 -1.5379  0.6562
 4679SOL     OW25672   3.289   4.363   9.825 -0.2218 -0.1961 -0.3391
 4679SOL    HW125673   3.279   4.374   9.919 -0.7440 -1.3724 -0.2487
 4679SOL    HW225674   3.253   4.276   9.808 -1.6160  0.1747  0.7316
 4680SOL     OW25675   1.934   2.482   7.078 -0.3196  0.1656 -0.1362
 4680SOL    HW125676   1.922   2.474   6.983 -2.9784  1.2011  0.0900
 4680SOL    HW225677   1.967   2.396   7.100 -0.4541  0.1936  0.1806
 4681SOL     OW25678   2.177   2.385   1.848  0.2427  0.1483  0.2238
 4681SOL    HW125679   2.267   2.417   1.852 -0.1985  1.4584 -0.2706
 4681SOL    HW225680   2.122   2.461   1.828 -0.2817 -0.3517 -0.2377
 4682SOL     OW25681   2.892   2.732  16.617 -0.1164  0.2749 -0.0426
 4682SOL    HW125682   2.970   2.688  16.651 -0.7062 -0.2304  0.6557
 4682SOL    HW225683   2.899   2.816  16.661 -2.6126  1.8384 -2.6205
 4683SOL     OW25684   4.205   1.708   3.086 -0.0927 -0.1924 -0.6684
 4683SOL    HW125685   4.136   1.714   3.152  2.1364 -1.5145  1.7682
 4683SOL    HW225686   4.214   1.613   3.090  1.5114  0.0137  0.4561
 4684SOL     OW25687   1.817   2.837  17.520  0.0401 -0.6140  0.5723
 4684SOL    HW125688   1.849   2.846  17.609 -1.2623 -0.7157  1.0482
 4684SOL    HW225689   1.891   2.784  17.490 -1.8727 -3.0611  0.0954
 4685SOL     OW25690   2.026   0.819   2.185  0.2711  0.5540 -0.5942
 4685SOL    HW125691   2.020   0.826   2.090  1.7909  1.4358 -0.6199
 4685SOL    HW225692   2.048   0.911   2.200 -0.4306  0.4280  1.2254
 4686SOL     OW25693   3.974   2.124   6.878 -0.5259 -0.2453  0.3486
 4686SOL    HW125694   3.961   2.176   6.957 -1.3567  1.7459 -1.0911
 4686SOL    HW225695   4.065   2.141   6.854 -1.1525  0.7274 -1.3560
 4687SOL     OW25696   0.185   1.936   7.630  0.5059 -0.1174 -0.0360
 4687SOL    HW125697   0.165   2.025   7.599 -0.2595 -0.3801 -0.2816
 4687SOL    HW225698   0.124   1.918   7.700 -0.9610 -1.0017 -1.5463
 4688SOL     OW25699   1.978   2.950   1.436  0.4736  0.6089  0.0493
 4688SOL    HW125700   1.978   2.904   1.520  2.2922  0.1607 -0.2051
 4688SOL    HW225701   2.035   3.022   1.464  1.3536 -0.7411  1.7143
 4689SOL     OW25702   0.916   4.173   9.146 -0.8640 -0.5211 -0.4694
 4689SOL    HW125703   0.870   4.128   9.075 -1.7163 -0.4012  0.0038
 4689SOL    HW225704   1.008   4.164   9.124 -0.5968 -3.2838  1.7762
 4690SOL     OW25705   4.664   3.473  10.381 -0.0549  0.0642  0.1204
 4690SOL    HW125706   4.610   3.453  10.457 -2.1599 -0.8201 -1.6093
 4690SOL    HW225707   0.014   3.464  10.422 -0.8298 -0.5024  1.6225
 4691SOL     OW25708   2.587   1.150   5.529  0.3079  0.2088  0.5477
 4691SOL    HW125709   2.576   1.103   5.612  0.7122 -0.3427  0.2884
 4691SOL    HW225710   2.502   1.127   5.493 -0.7748  1.3941  2.3494
 4692SOL     OW25711   0.421   3.580  11.046  0.0768  0.4135  0.4520
 4692SOL    HW125712   0.363   3.530  11.104 -0.0512  1.3360  1.1158
 4692SOL    HW225713   0.387   3.668  11.062  0.6625  0.5835  0.7666
 4693SOL     OW25714   2.478   4.134  13.730  0.1718  0.0228  0.4585
 4693SOL    HW125715   2.442   4.048  13.710  1.3645  0.1102 -1.9892
 4693SOL    HW225716   2.501   4.106  13.819 -0.4722  0.7493  0.8608
 4694SOL     OW25717   2.243   0.734   6.654  0.0267 -0.0210  0.3408
 4694SOL    HW125718   2.268   0.709   6.743  1.3158 -3.0520 -0.9080
 4694SOL    HW225719   2.173   0.669   6.646 -1.3783  1.7488 -1.7170
 4695SOL     OW25720   1.189   4.005   5.648  0.3263 -0.2982  0.0712
 4695SOL    HW125721   1.164   3.964   5.732  0.8896 -0.0603  0.3556
 4695SOL    HW225722   1.256   4.068   5.676 -1.1952  1.2675  0.1737
 4696SOL     OW25723   3.759   1.935  15.725  0.6674  0.2870 -0.5121
 4696SOL    HW125724   3.704   2.002  15.766  0.4007 -0.8501  0.9838
 4696SOL    HW225725   3.741   1.949  15.632 -2.6935 -0.3472  0.0577
 4697SOL     OW25726   1.375   4.208   5.391 -0.1330 -0.1504  0.6734
 4697SOL    HW125727   1.446   4.147   5.415 -0.2164 -0.9932 -1.2237
 4697SOL    HW225728   1.310   4.186   5.457  0.3690  0.1409  1.2677
 4698SOL     OW25729   3.633   1.439   1.040  0.8104  0.4361 -0.1876
 4698SOL    HW125730   3.688   1.517   1.034 -2.1168  2.2975 -2.3387
 4698SOL    HW225731   3.602   1.442   1.131  0.8172  0.5889 -0.1915
 4699SOL     OW25732   4.650   0.135   4.675 -0.2017  0.3215 -0.1492
 4699SOL    HW125733   4.726   0.167   4.723  0.2017 -0.4502 -0.2759
 4699SOL    HW225734   4.692   0.122   4.590  1.7886  3.0316  0.4059
 4700SOL     OW25735   2.491   0.884  12.780  0.2400 -0.4397 -0.5954
 4700SOL    HW125736   2.506   0.911  12.870 -1.2839 -2.7988  0.3707
 4700SOL    HW225737   2.568   0.924  12.740  0.3476 -0.3872 -0.3311
 4701SOL     OW25738   2.129   1.529  15.834  0.5946  0.0694 -0.5799
 4701SOL    HW125739   2.126   1.444  15.789 -3.9831  1.7602 -3.4818
 4701SOL    HW225740   2.151   1.592  15.766  0.6832  0.7609  0.0908
 4702SOL     OW25741   3.533   3.142   5.278  0.8678  0.1874 -0.3584
 4702SOL    HW125742   3.602   3.177   5.222  2.1544 -0.1130  1.0455
 4702SOL    HW225743   3.466   3.161   5.212  0.0619 -0.4663  0.2816
 4703SOL     OW25744   4.156   1.444  15.733  0.3789 -0.3492 -0.3768
 4703SOL    HW125745   4.140   1.501  15.658 -0.6271 -1.7701 -1.2413
 4703SOL    HW225746   4.132   1.357  15.702  0.5332 -0.4048 -0.3405
 4704SOL     OW25747   1.261   0.249   7.409 -0.2550  0.1140 -0.0342
 4704SOL    HW125748   1.183   0.279   7.362  0.2935  0.4197 -0.7470
 4704SOL    HW225749   1.287   0.314   7.474 -4.5113  1.3973  0.3717
 4705SOL     OW25750   3.304   4.195   6.404  0.0785 -0.6838 -0.1317
 4705SOL    HW125751   3.284   4.270   6.348 -1.7147  0.2112  1.6614
 4705SOL    HW225752   3.266   4.222   6.488 -1.1481  0.2226 -0.9699
 4706SOL     OW25753   4.145   1.258   9.049  0.2117 -0.1308  0.0285
 4706SOL    HW125754   4.061   1.303   9.047 -0.9913 -2.4703 -1.0809
 4706SOL    HW225755   4.117   1.169   9.064  0.4092  0.1962  2.2390
 4707SOL     OW25756   3.075   0.646   7.570  0.1321 -0.2386  0.0884
 4707SOL    HW125757   3.081   0.579   7.502 -0.9003 -0.0954 -0.1520
 4707SOL    HW225758   2.982   0.639   7.591 -0.1476 -0.0118 -1.0576
 4708SOL     OW25759   0.416   0.990   7.414  0.3898  0.5439 -0.7212
 4708SOL    HW125760   0.395   0.898   7.397  0.4322  0.3323  0.3639
 4708SOL    HW225761   0.436   1.023   7.326  0.7661  1.1801 -0.4046
 4709SOL     OW25762   3.247   4.107  11.257  0.5638 -0.2823  0.1941
 4709SOL    HW125763   3.194   4.186  11.250  0.2411 -0.4804  0.4218
 4709SOL    HW225764   3.219   4.067  11.340  0.0338 -1.1257 -0.3900
 4710SOL     OW25765   2.058   2.864  11.487  0.3019  0.3716 -0.1079
 4710SOL    HW125766   2.102   2.933  11.438  1.7313 -0.9032 -0.5961
 4710SOL    HW225767   2.121   2.852  11.558 -1.2607 -0.0592  1.2024
 4711SOL     OW25768   1.465   0.954   1.002  0.4009 -0.0836 -0.4849
 4711SOL    HW125769   1.372   0.976   1.001  0.4315  0.1114  0.8170
 4711SOL    HW225770   1.463   0.867   0.964  1.5440 -0.2251 -0.2193
 4712SOL     OW25771   2.392   1.724   7.753 -0.3159  0.2112 -0.0023
 4712SOL    HW125772   2.386   1.697   7.844 -0.2513 -0.9084 -0.3276
 4712SOL    HW225773   2.300   1.746   7.739 -0.6517 -0.8159  0.5909
 4713SOL     OW25774   3.901   2.974   2.990 -0.2575 -0.1712 -0.0990
 4713SOL    HW125775   3.906   3.040   2.921 -0.7375 -1.8919 -1.7901
 4713SOL    HW225776   3.816   3.004   3.022 -0.6052 -0.1138 -1.0986
 4714SOL     OW25777   2.891   3.725  10.373  0.4356 -0.9845 -0.8882
 4714SOL    HW125778   2.888   3.630  10.377 -0.9439 -0.8253  1.7284
 4714SOL    HW225779   2.978   3.738  10.410 -1.0156  1.3092  1.7937
 4715SOL     OW25780   3.578   1.721  16.955 -0.3028  0.1275 -0.3292
 4715SOL    HW125781   3.661   1.673  16.954 -0.3091  0.0977  1.0518
 4715SOL    HW225782   3.571   1.754  16.865  1.1358 -0.7695 -0.7710
 4716SOL     OW25783   1.509   1.494   4.260  0.7305 -0.2316 -0.0664
 4716SOL    HW125784   1.500   1.571   4.317 -0.8449 -0.0017 -0.6449
 4716SOL    HW225785   1.556   1.532   4.186  1.8054 -1.6486 -0.0986
 4717SOL     OW25786   1.918   2.777  14.826  0.5904  0.0606  0.6534
 4717SOL    HW125787   1.975   2.817  14.761  0.2781 -0.6562 -0.0634
 4717SOL    HW225788   1.866   2.720  14.768  2.8184  0.4753 -1.7363
 4718SOL     OW25789   2.316   4.515  10.429  0.0561 -0.0339 -0.6109
 4718SOL    HW125790   2.338   4.603  10.400  0.3311  0.6036  1.4847
 4718SOL    HW225791   2.298   4.542  10.519  0.4789  2.5571 -1.3180
 4719SOL     OW25792   2.401   1.885   8.560  0.0831  0.1074 -0.2434
 4719SOL    HW125793   2.343   1.836   8.618 -0.2935  1.5736  0.6031
 4719SOL    HW225794   2.341   1.957   8.542 -0.8776 -0.7232 -0.3364
 4720SOL     OW25795   3.360   3.325   8.841 -0.6406 -0.8430  0.2136
 4720SOL    HW125796   3.319   3.240   8.822 -1.6270 -0.2498 -0.2762
 4720SOL    HW225797   3.280   3.369   8.871 -0.2464 -0.5672  0.8619
 4721SOL     OW25798   3.187   2.370   1.625  0.4819  0.1675 -0.4349
 4721SOL    HW125799   3.195   2.464   1.610 -1.7947  0.7094  1.4997
 4721SOL    HW225800   3.197   2.363   1.720  3.5102 -0.1487 -0.7855
 4722SOL     OW25801   1.270   0.049   2.104  0.0118  0.0494 -0.3090
 4722SOL    HW125802   1.355   0.022   2.138  1.1388  0.8726 -2.4616
 4722SOL    HW225803   1.286   0.132   2.059  0.4649  0.8245  1.3082
 4723SOL     OW25804   4.646   3.177   6.909 -0.0585 -0.3238 -0.8446
 4723SOL    HW125805   4.599   3.260   6.915  1.2352  0.4027 -0.7053
 4723SOL    HW225806   4.718   3.192   6.971 -1.4044  3.1141 -0.0928
 4724SOL     OW25807   1.258   2.448   6.918  0.4511 -0.1526 -0.4794
 4724SOL    HW125808   1.164   2.455   6.929  0.7337  2.2722  0.3255
 4724SOL    HW225809   1.260   2.370   6.863  0.7157 -0.9468  0.6495
 4725SOL     OW25810   4.522   2.284  12.364 -0.5817 -0.1782 -0.0281
 4725SOL    HW125811   4.468   2.275  12.442 -0.8050  1.7470  0.0453
 4725SOL    HW225812   4.577   2.360  12.385 -1.4931  0.2949  0.6434
 4726SOL     OW25813   2.492   0.438   7.367 -0.2987 -0.3516  0.7126
 4726SOL    HW125814   2.526   0.431   7.456  0.1609 -1.2005  0.4706
 4726SOL    HW225815   2.397   0.427   7.369 -0.4420  0.5795 -0.6645
 4727SOL     OW25816   3.346   0.570   2.938  0.2424 -0.4568  0.2702
 4727SOL    HW125817   3.275   0.577   3.001  0.8691  0.9648  0.8192
 4727SOL    HW225818   3.374   0.481   2.956 -2.0876 -1.4640 -1.0221
 4728SOL     OW25819   0.708   1.217   2.228 -0.2979 -0.0772 -0.1480
 4728SOL    HW125820   0.621   1.254   2.243 -0.5833  0.4964 -3.2923
 4728SOL    HW225821   0.762   1.296   2.232 -0.6613  0.0894  1.4423
 4729SOL     OW25822   4.397   4.372  12.909 -0.4199  0.1307  0.6002
 4729SOL    HW125823   4.405   4.460  12.946 -0.9137  1.3092 -2.0736
 4729SOL    HW225824   4.490   4.356  12.893 -0.4603 -0.0305  0.5179
 4730SOL     OW25825   2.833   4.291   1.980 -0.0303 -0.2485 -0.9023
 4730SOL    HW125826   2.842   4.200   1.954  0.8465 -0.6066  0.6720
 4730SOL    HW225827   2.767   4.284   2.049  0.1462 -1.4756 -0.8581
 4731SOL     OW25828   2.645   2.240   6.979 -0.0080 -0.2333 -0.2319
 4731SOL    HW125829   2.665   2.283   7.062 -2.3983 -3.1944  1.8619
 4731SOL    HW225830   2.722   2.185   6.969  0.0161 -0.8930  3.7023
 4732SOL     OW25831   3.306   1.666   7.192  0.6043  0.4833 -0.3528
 4732SOL    HW125832   3.382   1.612   7.215  1.6648  1.3031 -1.9404
 4732SOL    HW225833   3.321   1.686   7.100 -1.5912  1.0680 -0.5727
 4733SOL     OW25834   4.037   0.851   5.396  0.2109  0.0625  0.5685
 4733SOL    HW125835   4.103   0.891   5.453  0.9430  1.9234 -1.5736
 4733SOL    HW225836   3.974   0.923   5.403 -0.6575 -0.7613  1.3162
 4734SOL     OW25837   2.373   2.386   6.033  0.1166  0.1818  0.0848
 4734SOL    HW125838   2.436   2.419   5.970 -1.0771  0.9554 -0.7061
 4734SOL    HW225839   2.359   2.450   6.103 -0.3504 -0.9171  0.9856
 4735SOL     OW25840   3.498   0.841   5.542  0.6181  0.0428 -0.3813
 4735SOL    HW125841   3.424   0.783   5.560  1.1289 -0.3055  0.5834
 4735SOL    HW225842   3.566   0.809   5.601  0.0742  1.3680  0.9646
 4736SOL     OW25843   1.041   3.450   8.696  0.7313  0.5789 -0.1874
 4736SOL    HW125844   0.970   3.417   8.752  1.8976  1.9544  2.1010
 4736SOL    HW225845   0.996   3.527   8.660  1.0618  1.1197  0.5432
 4737SOL     OW25846   3.530   4.032   2.349  0.2779  0.2835 -0.3173
 4737SOL    HW125847   3.573   4.054   2.432 -0.6785  2.1349 -0.3024
 4737SOL    HW225848   3.525   3.937   2.343 -1.2029  0.2967  0.8030
 4738SOL     OW25849   0.342   3.858  11.049  0.3512 -0.3453  0.2939
 4738SOL    HW125850   0.371   3.912  10.975  0.1359 -0.1797  0.3286
 4738SOL    HW225851   0.333   3.917  11.124  2.0200 -0.3697  0.5221
 4739SOL     OW25852   2.767   2.846  14.616 -0.7037 -0.4858 -0.4809
 4739SOL    HW125853   2.851   2.811  14.585  0.0380  0.1261  0.8388
 4739SOL    HW225854   2.776   2.808  14.703  1.7337  0.1298 -0.4483
 4740SOL     OW25855   0.087   1.583   8.371  0.0150  0.4953 -0.0657
 4740SOL    HW125856   0.149   1.578   8.444  0.4395 -0.8182 -0.5076
 4740SOL    HW225857   0.119   1.505   8.326  0.3267  0.2025  0.6638
 4741SOL     OW25858   0.245   4.653   6.372  0.0695  0.5061 -0.0706
 4741SOL    HW125859   0.285   4.567   6.360  2.5782  1.7079 -0.2818
 4741SOL    HW225860   0.295   4.689   6.445 -3.8996  0.0329  2.8989
 4742SOL     OW25861   0.466   2.623   5.513 -0.2432  0.3872  0.6880
 4742SOL    HW125862   0.386   2.667   5.484 -1.0674  0.2815  2.8663
 4742SOL    HW225863   0.471   2.652   5.604  0.8169 -0.7769  1.0003
 4743SOL     OW25864   1.636   2.025   2.402 -0.5760 -0.1513 -0.4486
 4743SOL    HW125865   1.686   2.075   2.466  0.8418  0.7708 -2.2602
 4743SOL    HW225866   1.580   2.092   2.364  1.9745  1.7200 -0.9308
 4744SOL     OW25867   0.305   0.197   3.174 -0.2222 -0.3603 -0.5960
 4744SOL    HW125868   0.296   0.111   3.131  0.9296 -1.4063  1.2488
 4744SOL    HW225869   0.219   0.233   3.154 -1.6115 -3.7597 -0.7871
 4745SOL     OW25870   2.878   1.585   5.272 -0.5776 -1.1666 -0.0986
 4745SOL    HW125871   2.877   1.671   5.313  0.7150 -0.0870 -2.3186
 4745SOL    HW225872   2.792   1.588   5.229  0.5787 -1.1652 -2.4346
 4746SOL     OW25873   1.064   3.594   7.006 -0.6068 -0.8482 -0.0311
 4746SOL    HW125874   1.014   3.615   6.928  2.4435 -2.0195 -2.2878
 4746SOL    HW225875   1.117   3.530   6.958  0.7663 -0.9195  1.5882
 4747SOL     OW25876   2.006   3.562  14.587  0.0085  0.0222  1.0428
 4747SOL    HW125877   1.966   3.478  14.565  0.3220  0.2187 -0.2502
 4747SOL    HW225878   1.943   3.603  14.646 -0.8464 -0.3586  0.3900
 4748SOL     OW25879   2.024   2.352   4.359  0.5357  0.3813  0.6316
 4748SOL    HW125880   2.064   2.381   4.277 -2.1453  1.3451 -0.3384
 4748SOL    HW225881   2.001   2.439   4.391  1.8478  1.4008 -1.1837
 4749SOL     OW25882   1.567   0.799   8.574 -0.0625 -0.2110  0.0867
 4749SOL    HW125883   1.497   0.829   8.516 -0.0085  1.0340  0.6838
 4749SOL    HW225884   1.622   0.757   8.507  0.0500 -0.7489  0.5074
 4750SOL     OW25885   3.055   2.919  17.295 -0.9504 -0.1026 -0.3699
 4750SOL    HW125886   3.085   2.942  17.207  1.8836  0.1867  0.6662
 4750SOL    HW225887   2.986   2.856  17.275 -1.3711  0.7053 -1.5025
 4751SOL     OW25888   0.392   3.687   6.798  0.5490 -0.0497 -0.3290
 4751SOL    HW125889   0.325   3.664   6.863  0.0603  1.3406 -0.3314
 4751SOL    HW225890   0.462   3.628   6.824 -0.8490 -0.7579  1.7497
 4752SOL     OW25891   4.511   0.814  15.147  0.8014 -0.3429 -0.5667
 4752SOL    HW125892   4.551   0.900  15.159  2.2055 -1.2465  1.0750
 4752SOL    HW225893   4.511   0.816  15.051 -1.2047  1.5353 -0.5352
 4753SOL     OW25894   2.743   4.085   2.952  0.4699  0.3228 -0.3235
 4753SOL    HW125895   2.762   4.131   3.033  0.1351 -1.0340  0.5226
 4753SOL    HW225896   2.673   4.136   2.912 -0.3467 -0.0827  0.6073
 4754SOL     OW25897   1.869   2.435  15.442 -0.0228 -0.3002 -0.2287
 4754SOL    HW125898   1.824   2.351  15.432 -1.4707  0.0439  3.1661
 4754SOL    HW225899   1.812   2.489  15.497 -0.0701  0.5349 -1.1017
 4755SOL     OW25900   4.066   4.273   4.565 -0.3198 -0.4210 -0.1775
 4755SOL    HW125901   4.053   4.218   4.488  1.2780  1.2692 -1.6548
 4755SOL    HW225902   3.998   4.339   4.552  0.7393  0.6228 -0.3766
 4756SOL     OW25903   1.668   2.889   1.907  0.0796  0.0529  0.4541
 4756SOL    HW125904   1.629   2.931   1.984  0.2113 -1.4764  1.3598
 4756SOL    HW225905   1.714   2.814   1.944  0.3192  0.8184  1.7044
 4757SOL     OW25906   0.257   4.420  15.598 -0.0721 -0.0105 -0.3198
 4757SOL    HW125907   0.183   4.477  15.617 -1.9797 -1.7946 -2.3396
 4757SOL    HW225908   0.233   4.382  15.513  4.7539 -0.4698 -1.4734
 4758SOL     OW25909   1.010   3.708   4.102 -0.2571 -0.2204  0.1086
 4758SOL    HW125910   1.087   3.760   4.124  0.3821 -1.1782  0.1101
 4758SOL    HW225911   1.043   3.620   4.120  0.5664  0.4566  1.8652
 4759SOL     OW25912   2.937   0.867  17.422 -0.3425  0.3130 -0.2090
 4759SOL    HW125913   2.945   0.935  17.355 -0.6037 -0.1051 -0.6734
 4759SOL    HW225914   3.025   0.852  17.455 -0.7938 -1.4634  0.1726
 4760SOL     OW25915   1.922   0.393   6.945  0.1291  0.3222  0.1676
 4760SOL    HW125916   1.844   0.449   6.939 -1.8730 -2.4519  0.6147
 4760SOL    HW225917   1.922   0.347   6.861  1.5798  1.7689 -0.6310
 4761SOL     OW25918   2.688   4.108   6.451  0.0450  0.0959  0.7672
 4761SOL    HW125919   2.684   4.012   6.446  1.2571  0.1402 -0.9602
 4761SOL    HW225920   2.726   4.140   6.370 -1.8406 -1.0019 -0.5376
 4762SOL     OW25921   2.574   3.078  14.862  0.2885  0.2993 -0.4518
 4762SOL    HW125922   2.483   3.051  14.846  0.3505  0.1293 -0.5128
 4762SOL    HW225923   2.599   3.022  14.936  0.0098  0.6123 -0.1171
 4763SOL     OW25924   4.198   0.009   8.922  0.0321  0.5479  0.3643
 4763SOL    HW125925   4.267   4.725   8.859  0.2377 -2.6198  1.6109
 4763SOL    HW225926   4.143   0.066   8.869  0.3496 -1.3252 -1.9945
 4764SOL     OW25927   4.502   1.917   7.915 -0.3044 -0.1374  0.1941
 4764SOL    HW125928   4.485   1.940   8.006 -0.0188  2.3035 -0.3763
 4764SOL    HW225929   4.468   2.002   7.887 -3.8707 -0.9295  2.1555
 4765SOL     OW25930   1.005   4.278   8.869 -0.2443  0.1919  0.2774
 4765SOL    HW125931   0.986   4.186   8.889 -2.3115  0.7543  0.8525
 4765SOL    HW225932   0.934   4.300   8.809  0.1278  3.4818  1.0364
 4766SOL     OW25933   1.948   2.856   0.059 -0.1971  0.2618 -0.5796
 4766SOL    HW125934   1.987   2.908   0.130 -0.8169 -0.6726  0.4490
 4766SOL    HW225935   1.921   2.778   0.107  0.1050  0.6945  0.2952
 4767SOL     OW25936   2.587   2.376   6.651 -0.4067 -0.1145  0.4036
 4767SOL    HW125937   2.562   2.301   6.706  0.3705 -1.7059 -1.3982
 4767SOL    HW225938   2.511   2.431   6.667  0.9132  2.1450 -1.0328
 4768SOL     OW25939   4.279   4.039   5.115  0.1671 -0.3119  0.0588
 4768SOL    HW125940   4.324   4.123   5.122 -0.4952  0.1989 -1.9799
 4768SOL    HW225941   4.203   4.070   5.067 -0.0410 -0.5342  0.2374
 4769SOL     OW25942   2.480   1.881   3.050  0.5686  0.2399 -0.3534
 4769SOL    HW125943   2.515   1.835   3.126 -1.4527 -1.5657 -0.5052
 4769SOL    HW225944   2.396   1.900   3.092 -0.6520 -1.5207 -2.0099
 4770SOL     OW25945   0.254   4.349   7.376 -0.6615 -0.0576  0.0335
 4770SOL    HW125946   0.182   4.288   7.360 -1.0334  0.4379 -0.1709
 4770SOL    HW225947   0.264   4.348   7.472  0.8835  2.1603 -0.1083
 4771SOL     OW25948   3.927   0.533   0.384  0.5281 -0.1806 -0.0259
 4771SOL    HW125949   4.006   0.480   0.373  0.9891 -0.0687  2.6463
 4771SOL    HW225950   3.921   0.524   0.480 -1.9643 -0.0072 -0.1537
 4772SOL     OW25951   0.845   4.471   2.487  0.1103  0.2441  0.3932
 4772SOL    HW125952   0.937   4.455   2.507 -0.3376 -0.0386  2.1706
 4772SOL    HW225953   0.851   4.561   2.454  0.4251  0.3879  0.8577
 4773SOL     OW25954   4.109   1.994  15.108 -0.8877  0.3594 -0.4643
 4773SOL    HW125955   4.086   2.084  15.132 -1.6124 -0.0841  0.4846
 4773SOL    HW225956   4.088   1.943  15.185  0.8137  0.8198  0.2941
 4774SOL     OW25957   1.943   1.900   5.312 -0.6556 -1.0456 -0.3104
 4774SOL    HW125958   2.029   1.909   5.272 -1.3783  0.2335 -1.5594
 4774SOL    HW225959   1.886   1.961   5.265 -0.7472 -1.2132 -0.4180
 4775SOL     OW25960   0.017   2.648   8.914 -0.2914  0.2854 -0.5387
 4775SOL    HW125961   4.710   2.660   8.830 -1.1960  0.8931  0.0101
 4775SOL    HW225962   4.710   2.583   8.970  0.6461  0.0551 -0.0788
 4776SOL     OW25963   3.313   0.511   4.610 -0.4855 -0.0597  0.0105
 4776SOL    HW125964   3.313   0.473   4.697  2.0711 -0.2875 -0.0942
 4776SOL    HW225965   3.283   0.601   4.623  0.3253  0.0275  1.2877
 4777SOL     OW25966   0.323   1.820   5.112 -0.0189  0.3700 -0.1204
 4777SOL    HW125967   0.357   1.745   5.159  1.1988  1.1100  0.1878
 4777SOL    HW225968   0.234   1.788   5.097 -0.1915  0.3782  0.9518
 4778SOL     OW25969   2.364   4.214   7.361  0.3040  0.1778 -0.3487
 4778SOL    HW125970   2.360   4.157   7.284  1.4772 -2.7869  1.8066
 4778SOL    HW225971   2.354   4.302   7.326  0.6480 -0.5565 -2.3265
 4779SOL     OW25972   2.062   0.726   2.765 -0.2290 -0.1803  0.3204
 4779SOL    HW125973   2.032   0.679   2.688  0.4014 -1.7103  1.0054
 4779SOL    HW225974   2.158   0.721   2.764 -0.2268  0.3699 -1.4942
 4780SOL     OW25975   0.751   0.612   2.566 -0.2058  0.0177  0.4097
 4780SOL    HW125976   0.731   0.650   2.651 -0.2332 -1.6506  1.1445
 4780SOL    HW225977   0.673   0.563   2.541  0.3712 -0.1474 -1.0750
 4781SOL     OW25978   3.575   2.687   3.102 -0.0382 -0.2689 -0.3798
 4781SOL    HW125979   3.531   2.644   3.028  3.0040 -1.3649 -1.5568
 4781SOL    HW225980   3.514   2.666   3.172 -0.0634 -0.7033 -0.5303
 4782SOL     OW25981   2.307   1.135   6.795  0.1366 -0.5610 -0.5368
 4782SOL    HW125982   2.213   1.130   6.777 -0.1726 -0.7298  1.0439
 4782SOL    HW225983   2.342   1.078   6.727  1.6149  1.6415 -1.6165
 4783SOL     OW25984   3.090   3.739   2.720 -0.1161  0.1313 -0.5690
 4783SOL    HW125985   3.110   3.726   2.813 -0.7440  0.6201 -0.3618
 4783SOL    HW225986   3.016   3.800   2.718  0.1971  0.5925  1.4562
 4784SOL     OW25987   4.173   3.697   6.869  0.0743 -0.0639  0.2192
 4784SOL    HW125988   4.225   3.746   6.934  3.6636 -3.3513 -0.1596
 4784SOL    HW225989   4.112   3.764   6.839  0.7777  0.1657 -0.7086
 4785SOL     OW25990   3.475   0.924   9.118  0.1149  0.1367 -0.5020
 4785SOL    HW125991   3.544   0.989   9.110 -0.0509  0.3450 -0.2184
 4785SOL    HW225992   3.407   0.951   9.056  0.0435  3.6158  1.1254
 4786SOL     OW25993   2.248   2.696  15.334 -0.7482  0.1805 -0.1837
 4786SOL    HW125994   2.158   2.681  15.361 -0.9852  0.7834 -0.6458
 4786SOL    HW225995   2.229   2.715  15.242 -0.2243 -1.2147 -0.5838
 4787SOL     OW25996   4.057   2.610  17.201  0.0463 -0.2277  0.0557
 4787SOL    HW125997   4.139   2.661  17.205 -0.4895  0.6852 -0.6385
 4787SOL    HW225998   4.052   2.594  17.107 -2.0833 -0.4916  0.2113
 4788SOL     OW25999   0.169   0.325   9.748  0.1434  0.0932  0.2983
 4788SOL    HW126000   0.123   0.406   9.768  1.8023  0.7507  1.5201
 4788SOL    HW226001   0.236   0.328   9.816  1.7939  0.0615 -1.3076
 4789SOL     OW26002   0.717   2.632  15.839 -0.6200 -0.4819 -0.2098
 4789SOL    HW126003   0.782   2.687  15.883 -0.4311 -2.8618  2.4422
 4789SOL    HW226004   0.658   2.703  15.811 -1.6583 -1.8099 -1.3844
 4790SOL     OW26005   2.397   3.847  13.994 -0.0197  0.1475 -0.3185
 4790SOL    HW126006   2.465   3.912  13.979  0.2360 -0.0513 -0.0112
 4790SOL    HW226007   2.323   3.900  14.023 -0.3218 -0.0209 -0.7732
 4791SOL     OW26008   3.091   1.092   1.493  0.1298 -0.4106  0.2245
 4791SOL    HW126009   3.095   0.997   1.484 -0.0855 -0.3651 -0.4010
 4791SOL    HW226010   3.169   1.110   1.545  0.7470  3.7460 -2.0707
 4792SOL     OW26011   1.431   4.562   4.796 -0.4708 -0.0823  0.3863
 4792SOL    HW126012   1.348   4.603   4.823 -0.5110  0.3879 -0.4427
 4792SOL    HW226013   1.409   4.469   4.786  2.1404 -0.4431 -2.0004
 4793SOL     OW26014   3.961   3.337   5.585  0.4132 -0.3245 -0.6260
 4793SOL    HW126015   4.015   3.408   5.619  0.4581 -0.3142 -0.7218
 4793SOL    HW226016   4.021   3.322   5.512  0.0874 -1.9053 -0.5824
 4794SOL     OW26017   2.416   3.912  17.104  0.0452  0.0404 -0.2712
 4794SOL    HW126018   2.456   3.837  17.061 -0.4035 -0.2001 -0.2659
 4794SOL    HW226019   2.444   3.914  17.196 -1.2928 -1.2120  0.1553
 4795SOL     OW26020   0.447   2.783   6.995 -0.3899 -0.3179 -0.5715
 4795SOL    HW126021   0.486   2.719   7.053 -0.8208 -1.6424 -1.7459
 4795SOL    HW226022   0.518   2.846   6.988 -0.6990  0.0287 -0.6146
 4796SOL     OW26023   3.816   1.341   5.196 -0.1536  0.4522 -0.3589
 4796SOL    HW126024   3.756   1.407   5.231 -0.1272  0.3455 -0.1072
 4796SOL    HW226025   3.819   1.371   5.106 -0.2728 -3.0959 -1.5464
 4797SOL     OW26026   2.347   1.044  11.788  0.4070 -0.6047 -0.3886
 4797SOL    HW126027   2.371   1.081  11.703 -0.3472  0.0934 -0.2988
 4797SOL    HW226028   2.286   1.109  11.823  2.5531  0.4385  1.3774
 4798SOL     OW26029   1.294   2.927   2.603  0.5717 -0.0997  0.1376
 4798SOL    HW126030   1.297   2.966   2.691  2.5801 -0.5632  0.2863
 4798SOL    HW226031   1.204   2.900   2.619  0.3410  1.2004  1.1113
 4799SOL     OW26032   3.158   3.787  14.861  0.1490  0.3286 -0.6973
 4799SOL    HW126033   3.196   3.864  14.818 -1.1965  1.1412 -0.4284
 4799SOL    HW226034   3.077   3.820  14.900  1.3943  1.9178  0.5538
 4800SOL     OW26035   3.844   0.085   2.890  0.2569 -0.4276 -0.5100
 4800SOL    HW126036   3.894   0.008   2.915  0.0870 -0.6100 -0.7275
 4800SOL    HW226037   3.792   0.044   2.820 -0.6729 -2.1170  1.1982
 4801SOL     OW26038   3.589   0.403   4.839  0.2394  0.3101  0.0293
 4801SOL    HW126039   3.609   0.478   4.783  0.2846 -0.8854 -1.5664
 4801SOL    HW226040   3.500   0.433   4.858 -0.6094 -0.0667 -3.3944
 4802SOL     OW26041   1.337   4.110   4.955  0.1273 -0.3330 -0.3823
 4802SOL    HW126042   1.433   4.107   4.956  0.1146 -0.6300  0.6876
 4802SOL    HW226043   1.325   4.139   5.045  0.4665  0.0888 -0.4740
 4803SOL     OW26044   1.433   1.902   8.820  0.0220 -0.3054 -0.1723
 4803SOL    HW126045   1.479   1.868   8.897  1.2769  0.4310 -0.6157
 4803SOL    HW226046   1.457   1.995   8.820 -0.7393 -0.0988  0.8877
 4804SOL     OW26047   3.123   3.726   8.991 -0.1046  0.1833 -0.3535
 4804SOL    HW126048   3.077   3.661   9.045 -2.5074 -0.0977 -2.7194
 4804SOL    HW226049   3.190   3.764   9.047  1.3450 -0.8545 -1.4006
 4805SOL     OW26050   3.807   4.422   2.951 -0.6662  0.0207 -0.3979
 4805SOL    HW126051   3.729   4.474   2.972 -0.1078 -0.2350  2.2745
 4805SOL    HW226052   3.823   4.397   3.042 -1.5999 -0.0727 -0.2611
 4806SOL     OW26053   1.766   3.243   1.853  0.2647 -0.0450  0.1569
 4806SOL    HW126054   1.679   3.260   1.816  0.2019  0.4591  0.5266
 4806SOL    HW226055   1.747   3.187   1.928 -0.9275  0.3200  0.1199
 4807SOL     OW26056   1.721   2.869   2.612 -0.3085 -0.2073  0.7880
 4807SOL    HW126057   1.686   2.873   2.701 -2.2286  0.7585 -0.0156
 4807SOL    HW226058   1.660   2.936   2.582  1.2251 -0.2929 -2.4280
 4808SOL     OW26059   4.016   3.804   5.538 -0.1265 -0.0247 -0.4568
 4808SOL    HW126060   4.066   3.785   5.618 -0.5803  2.0555  0.3018
 4808SOL    HW226061   4.010   3.898   5.555 -0.2417 -0.0766 -0.2092
 4809SOL     OW26062   3.582   2.551  15.702 -0.6021  0.9283 -0.3643
 4809SOL    HW126063   3.625   2.551  15.787  0.3113 -1.8312 -0.8082
 4809SOL    HW226064   3.539   2.465  15.699  0.2968  0.4062  2.0596
 4810SOL     OW26065   1.468   3.981   0.985 -0.5894  0.0247  0.6027
 4810SOL    HW126066   1.483   3.908   0.925 -1.9247 -0.1153  0.4449
 4810SOL    HW226067   1.452   4.056   0.928 -0.0180  1.6540  2.5730
 4811SOL     OW26068   1.895   4.005   2.572 -0.1439 -0.5912 -0.1537
 4811SOL    HW126069   1.824   4.065   2.549 -0.2492 -0.4990  0.4082
 4811SOL    HW226070   1.865   3.975   2.658  2.1105  0.3467  0.9438
 4812SOL     OW26071   0.090   4.179  10.202 -0.1801  0.1836  0.2542
 4812SOL    HW126072   0.019   4.175  10.266  1.3958  0.1549  1.9928
 4812SOL    HW226073   0.162   4.165  10.262  1.7457 -1.1354 -2.3629
 4813SOL     OW26074   2.665   0.564   4.733 -0.3032 -0.1869 -0.3144
 4813SOL    HW126075   2.673   0.471   4.710  0.4611 -0.3731  0.6981
 4813SOL    HW226076   2.747   0.593   4.773 -1.3056  3.6091 -1.0653
 4814SOL     OW26077   3.048   4.469   1.537 -0.1096 -0.4744 -0.2412
 4814SOL    HW126078   2.969   4.511   1.504 -0.2316  0.9736  1.8649
 4814SOL    HW226079   3.055   4.514   1.622  0.8140 -1.7539  0.3703
 4815SOL     OW26080   2.963   1.017   2.986 -0.0307 -0.0702  0.0543
 4815SOL    HW126081   2.965   0.926   2.956 -0.4142  0.7360 -2.4778
 4815SOL    HW226082   3.019   1.062   2.922 -1.7712  0.0969 -1.3481
 4816SOL     OW26083   1.783   2.345   4.067 -0.7144  0.2182  0.0518
 4816SOL    HW126084   1.844   2.320   3.998 -0.9678  0.4006 -0.2393
 4816SOL    HW226085   1.709   2.356   4.007 -1.7841  3.5226  1.9659
 4817SOL     OW26086   3.849   4.661   9.864 -0.3145 -0.2498  0.1509
 4817SOL    HW126087   3.896   4.686   9.785  0.0951  2.5238  1.2529
 4817SOL    HW226088   3.794   0.002   9.879  2.6929  1.5091  1.9366
 4818SOL     OW26089   0.948   3.083   2.997 -0.1310  0.2622 -0.1662
 4818SOL    HW126090   0.876   3.023   3.018 -0.5495  1.6190  2.2713
 4818SOL    HW226091   0.953   3.099   2.903 -0.0933  1.1149 -0.0194
 4819SOL     OW26092   0.440   3.240   9.058  0.1647  0.0247 -0.3173
 4819SOL    HW126093   0.350   3.212   9.075  0.0567  0.8587  0.4918
 4819SOL    HW226094   0.478   3.154   9.039  0.2849 -0.5312  2.3923
 4820SOL     OW26095   2.112   1.160   0.161 -0.1733  0.2235  0.1249
 4820SOL    HW126096   2.138   1.092   0.099  0.9003  0.9026 -0.1666
 4820SOL    HW226097   2.185   1.162   0.223 -0.1103 -0.7593  0.0826
 4821SOL     OW26098   1.939   3.061   1.723 -0.5108  0.0687 -0.3414
 4821SOL    HW126099   1.958   3.044   1.816  1.9948  0.7806 -0.7027
 4821SOL    HW226100   1.879   3.133   1.740 -2.7893 -1.5239 -1.6757
 4822SOL     OW26101   3.163   1.477  14.560  0.0531  0.0053 -0.6421
 4822SOL    HW126102   3.234   1.494  14.621 -1.8364 -3.7412  2.6100
 4822SOL    HW226103   3.195   1.406  14.504  2.1951  0.4770 -0.0221
 4823SOL     OW26104   0.277   3.574  14.149 -0.0879 -0.2580 -0.2606
 4823SOL    HW126105   0.352   3.606  14.199 -1.1323  0.9828  0.5124
 4823SOL    HW226106   0.301   3.581  14.057  0.3145  0.4585 -0.1031
 4824SOL     OW26107   1.151   0.052   7.864  0.4302 -0.2308  0.3988
 4824SOL    HW126108   1.128   4.702   7.898 -1.0248  0.1160  0.3123
 4824SOL    HW226109   1.187   0.024   7.781  0.5522  1.7791 -0.2358
 4825SOL     OW26110   1.717   0.192   2.773  0.9422 -0.1569 -0.4023
 4825SOL    HW126111   1.642   0.241   2.806 -0.5447 -0.9800 -2.5998
 4825SOL    HW226112   1.717   0.107   2.818  0.0269  1.0063  1.7653
 4826SOL     OW26113   1.559   0.496   5.626  0.0989 -0.0071  0.3824
 4826SOL    HW126114   1.508   0.498   5.545 -0.0909 -0.8381  0.4840
 4826SOL    HW226115   1.606   0.578   5.609 -1.1593  0.6590  0.0573
 4827SOL     OW26116   3.020   2.262  14.650  0.1365  0.1700 -0.6496
 4827SOL    HW126117   2.958   2.302  14.588 -1.6084 -1.8058 -0.1494
 4827SOL    HW226118   2.962   2.220  14.712 -0.4357 -0.1677 -1.4196
 4828SOL     OW26119   2.773   1.996  11.141  0.4076  0.4705 -0.2841
 4828SOL    HW126120   2.701   2.058  11.155 -0.6690 -0.8214 -0.1541
 4828SOL    HW226121   2.736   1.918  11.182 -1.0417  0.5876 -1.3649
 4829SOL     OW26122   3.324   2.267  17.040  0.1771  0.0220 -0.2347
 4829SOL    HW126123   3.351   2.184  17.079  0.3746  0.0947 -0.2187
 4829SOL    HW226124   3.404   2.319  17.045  0.2336 -0.3089  2.2924
 4830SOL     OW26125   3.350   1.247   3.743  0.3038 -0.2016  0.3255
 4830SOL    HW126126   3.408   1.277   3.814  0.6890 -0.5986  0.1816
 4830SOL    HW226127   3.281   1.311   3.761 -0.1303 -0.5061 -0.2522
 4831SOL     OW26128   0.665   3.619   1.066  0.3503  0.1511 -0.0384
 4831SOL    HW126129   0.736   3.643   1.006 -0.4389 -1.7830 -1.7220
 4831SOL    HW226130   0.596   3.595   1.004 -0.0431  1.3525 -0.0561
 4832SOL     OW26131   3.507   1.616   8.304 -0.4062  0.1352  0.1435
 4832SOL    HW126132   3.449   1.693   8.306 -0.6490  0.0173 -2.5747
 4832SOL    HW226133   3.479   1.573   8.224  0.2779 -1.2119  0.6426
 4833SOL     OW26134   0.029   1.831   4.521 -0.3101  0.2186 -0.2000
 4833SOL    HW126135   0.008   1.764   4.456 -1.9855 -0.9875  1.5768
 4833SOL    HW226136   4.717   1.904   4.482  2.3799  1.4122 -1.2850
 4834SOL     OW26137   3.522   2.489   9.231 -0.3083 -0.4364 -0.2149
 4834SOL    HW126138   3.512   2.431   9.156 -0.1277 -1.2280  0.3795
 4834SOL    HW226139   3.614   2.514   9.223 -0.4629  0.3068  0.2098
 4835SOL     OW26140   3.007   0.905   5.530 -0.3492 -0.2385 -0.6759
 4835SOL    HW126141   3.069   0.905   5.603 -1.0683  1.5661 -0.0763
 4835SOL    HW226142   2.928   0.871   5.572  0.5124 -0.0196  1.1204
 4836SOL     OW26143   0.484   4.146   7.921 -0.0604 -0.0255 -0.3665
 4836SOL    HW126144   0.528   4.076   7.969  1.0280  1.9986  1.6012
 4836SOL    HW226145   0.486   4.217   7.985 -1.4150 -2.4630  2.3596
 4837SOL     OW26146   2.728   3.802   2.979 -0.6322 -0.2591  0.2643
 4837SOL    HW126147   2.729   3.892   2.948 -1.9940 -0.1441  0.5249
 4837SOL    HW226148   2.728   3.806   3.075  1.3112  2.1554  0.1337
 4838SOL     OW26149   4.263   3.768   4.818 -0.1603  0.0583 -0.1517
 4838SOL    HW126150   4.195   3.733   4.762  1.2826 -2.9621 -0.0345
 4838SOL    HW226151   4.249   3.715   4.897  2.8510 -1.3353 -0.5568
 4839SOL     OW26152   3.518   3.945   7.155 -0.1057  0.2272 -0.2251
 4839SOL    HW126153   3.556   4.025   7.119 -0.0037  0.2567 -0.0507
 4839SOL    HW226154   3.507   3.897   7.073  3.2682  0.4828 -0.8242
 4840SOL     OW26155   3.489   4.088   3.292  0.4406  0.0241 -0.0997
 4840SOL    HW126156   3.417   4.149   3.308  0.8334  0.0088  1.6668
 4840SOL    HW226157   3.560   4.152   3.290 -0.1353  0.6684  0.0611
 4841SOL     OW26158   3.137   1.711   9.526  0.0872  0.6940  0.1993
 4841SOL    HW126159   3.151   1.805   9.516 -0.7062  0.6709 -1.1727
 4841SOL    HW226160   3.043   1.715   9.513  0.2454  0.2643 -1.1532
 4842SOL     OW26161   1.356   3.651   4.846  0.1075 -0.5242  0.4178
 4842SOL    HW126162   1.346   3.741   4.817 -1.4601 -0.5394  0.8946
 4842SOL    HW226163   1.265   3.630   4.869  0.2574 -0.0729  1.4237
 4843SOL     OW26164   2.341   0.460   2.785  0.7429 -0.0520  0.5521
 4843SOL    HW126165   2.252   0.437   2.758  0.4933  1.9108 -0.2807
 4843SOL    HW226166   2.391   0.485   2.707 -0.0295 -0.9363 -0.2104
 4844SOL     OW26167   3.197   2.980   7.146 -0.0544  0.1359 -0.4392
 4844SOL    HW126168   3.199   2.921   7.070  0.3951  1.8898 -1.8000
 4844SOL    HW226169   3.232   2.938   7.225  0.4541  0.5215 -0.4589
 4845SOL     OW26170   2.065   1.608   5.399  0.2772 -0.4780  0.1060
 4845SOL    HW126171   1.973   1.626   5.418 -0.0148 -1.1651 -0.6561
 4845SOL    HW226172   2.091   1.690   5.357 -3.4928  1.7789  2.2588
 4846SOL     OW26173   1.712   0.349   5.788 -0.1470 -0.0161 -0.2819
 4846SOL    HW126174   1.798   0.385   5.767 -0.3797  0.0690 -1.1016
 4846SOL    HW226175   1.653   0.413   5.747  3.5939  1.8779 -2.7311
 4847SOL     OW26176   0.499   2.758  15.760  0.0693 -0.9268  0.6149
 4847SOL    HW126177   0.501   2.738  15.666 -2.0530 -0.2066  0.4372
 4847SOL    HW226178   0.489   2.852  15.771 -0.8246 -1.0148  0.5201
 4848SOL     OW26179   4.348   3.060   6.962  0.2141 -0.7958  0.9439
 4848SOL    HW126180   4.318   3.138   7.009 -0.8241 -0.8371  0.3589
 4848SOL    HW226181   4.399   3.097   6.890  0.5403  0.2337  1.6974
 4849SOL     OW26182   3.432   1.665   9.918  0.0381  0.7500 -0.6913
 4849SOL    HW126183   3.524   1.639   9.917 -0.5836 -1.4441 -0.5560
 4849SOL    HW226184   3.419   1.716   9.838 -0.6462  0.4385 -0.7796
 4850SOL     OW26185   0.615   1.151  16.154 -0.1001  0.0141 -0.4521
 4850SOL    HW126186   0.628   1.163  16.248 -0.5770 -1.2757 -0.2176
 4850SOL    HW226187   0.526   1.182  16.135  0.2703  1.6012  0.3658
 4851SOL     OW26188   0.724   0.303   1.339 -0.6956  0.1546  0.5963
 4851SOL    HW126189   0.730   0.321   1.433 -1.3391  1.1201  0.4498
 4851SOL    HW226190   0.639   0.259   1.340  0.2699 -1.6757  2.7984
 4852SOL     OW26191   0.258   0.867   1.555 -0.7133 -0.0555 -0.3649
 4852SOL    HW126192   0.224   0.778   1.556 -0.3222 -0.2071 -0.5756
 4852SOL    HW226193   0.241   0.896   1.466 -1.6550  1.3614  0.2667
 4853SOL     OW26194   1.933   3.376   2.267 -0.1327  0.4882 -0.4173
 4853SOL    HW126195   1.894   3.309   2.323 -0.0598 -0.7288 -1.8428
 4853SOL    HW226196   1.910   3.460   2.309 -0.0208 -0.0067  0.6213
 4854SOL     OW26197   3.982   0.502  11.162  0.0495  0.0846 -0.0704
 4854SOL    HW126198   4.000   0.464  11.248 -1.7935  1.0124  0.7149
 4854SOL    HW226199   3.892   0.522  11.187 -0.6539 -1.8723 -1.0647
 4855SOL     OW26200   2.570   4.271   2.094 -0.2053 -0.1052  0.0610
 4855SOL    HW126201   2.590   4.364   2.093 -1.2810  0.1417  1.8656
 4855SOL    HW226202   2.483   4.274   2.134 -0.0126 -0.5031  0.5043
 4856SOL     OW26203   3.090   2.768   0.682 -0.5305 -0.2661  0.8836
 4856SOL    HW126204   3.132   2.715   0.749 -0.8460 -4.1358 -2.0353
 4856SOL    HW226205   3.160   2.788   0.620 -0.6917 -0.4021  0.6579
 4857SOL     OW26206   1.065   2.440   8.526  0.5435 -0.4755  0.1408
 4857SOL    HW126207   1.044   2.494   8.450 -0.4276  2.1165  2.2524
 4857SOL    HW226208   0.983   2.438   8.575  2.0345 -0.4402  2.6736
 4858SOL     OW26209   2.058   3.679  12.046 -0.4776 -0.2385 -0.0329
 4858SOL    HW126210   2.064   3.593  12.087  0.1160  1.3069  3.0602
 4858SOL    HW226211   2.129   3.726  12.090  1.6522 -1.1660 -2.4329
 4859SOL     OW26212   4.053   1.011   1.560 -0.1521 -0.6522  1.0485
 4859SOL    HW126213   4.006   0.954   1.499 -1.0074  0.9989  0.1716
 4859SOL    HW226214   4.061   1.087   1.502  3.1354 -0.9546  1.1402
 4860SOL     OW26215   3.101   4.684   1.749  0.1427  0.3925 -0.1736
 4860SOL    HW126216   3.039   4.670   1.820  0.5753 -0.5971  0.0029
 4860SOL    HW226217   3.187   4.691   1.790  2.0610  1.8121 -4.3964
 4861SOL     OW26218   2.694   0.485   8.181 -0.4513  0.4586  0.5761
 4861SOL    HW126219   2.787   0.503   8.198 -0.1433 -0.1617 -0.4998
 4861SOL    HW226220   2.669   0.417   8.243  0.5155 -0.7265 -0.3348
 4862SOL     OW26221   4.154   2.058   5.060 -0.2543 -0.4626  0.5417
 4862SOL    HW126222   4.182   2.128   5.119 -1.0894 -1.8839  2.6321
 4862SOL    HW226223   4.061   2.075   5.045  0.3701  1.5587 -1.0944
 4863SOL     OW26224   1.613   3.635   1.923  0.3172 -0.1589 -0.3498
 4863SOL    HW126225   1.520   3.613   1.913  0.0188  0.7323  0.4104
 4863SOL    HW226226   1.655   3.568   1.976 -0.2915 -1.3160 -1.3354
 4864SOL     OW26227   3.505   3.450   7.974 -0.0111  0.2374 -0.3792
 4864SOL    HW126228   3.564   3.521   7.949 -1.0818  0.6488 -1.7256
 4864SOL    HW226229   3.417   3.482   7.958 -0.7613 -2.4051 -1.4519
 4865SOL     OW26230   4.369   4.658  13.420 -0.2301  0.1906 -0.5857
 4865SOL    HW126231   4.463   4.649  13.403 -0.0320 -0.7006  0.9080
 4865SOL    HW226232   4.365   4.712  13.499 -0.3023  0.2877 -0.6576
 4866SOL     OW26233   0.921   3.660   2.960 -0.2616  0.0147 -0.2801
 4866SOL    HW126234   0.945   3.752   2.953  2.2127 -0.4631  2.0311
 4866SOL    HW226235   0.839   3.664   2.910 -1.0448 -0.3485  0.9772
 4867SOL     OW26236   3.667   1.064   3.059 -0.3528  0.0834  0.7893
 4867SOL    HW126237   3.748   1.068   3.110 -0.9266  2.1507  1.5504
 4867SOL    HW226238   3.693   1.091   2.971 -0.5779  1.8855  1.2823
 4868SOL     OW26239   0.026   0.902   8.273  0.0867  0.4244  0.6703
 4868SOL    HW126240   0.023   0.831   8.210 -0.3316  2.2627 -1.3623
 4868SOL    HW226241   0.091   0.956   8.228  0.1511  1.3892  1.8935
 4869SOL     OW26242   4.517   4.705   6.419 -0.7847 -0.2937 -0.0065
 4869SOL    HW126243   4.593   4.692   6.362  1.2531 -2.7623  3.2917
 4869SOL    HW226244   4.557   4.726   6.503  0.2068 -1.3909 -0.2111
 4870SOL     OW26245   4.731   0.593   1.980  0.0681 -0.2926 -0.6526
 4870SOL    HW126246   0.005   0.515   2.034  0.9901 -0.8024 -1.5511
 4870SOL    HW226247   0.087   0.606   1.957 -0.3608  2.2926 -0.9545
 4871SOL     OW26248   0.260   1.415   9.925 -0.3350 -0.4121 -0.1100
 4871SOL    HW126249   0.184   1.414   9.867 -0.5565  1.1414  0.1594
 4871SOL    HW226250   0.262   1.321   9.942 -0.3981 -0.5196 -0.6840
 4872SOL     OW26251   4.009   3.270   4.408 -0.2791 -0.3847 -0.0095
 4872SOL    HW126252   3.998   3.252   4.502  0.3488  1.7108  0.4506
 4872SOL    HW226253   4.103   3.255   4.397 -0.3389  0.0153 -1.0390
 4873SOL     OW26254   1.975   0.608   4.780 -0.6000 -0.5417 -0.3324
 4873SOL    HW126255   2.039   0.612   4.850 -0.1632 -1.9289 -0.6479
 4873SOL    HW226256   1.962   0.513   4.786  0.5628 -0.7668 -1.2498
 4874SOL     OW26257   2.314   0.904   3.608  0.4769 -0.5645 -0.0397
 4874SOL    HW126258   2.323   0.933   3.517  0.8887  1.6633  0.7175
 4874SOL    HW226259   2.388   0.945   3.653  2.1252 -0.2570 -3.0107
 4875SOL     OW26260   3.113   1.565   4.690  0.3022  0.0483 -0.3333
 4875SOL    HW126261   3.133   1.483   4.645  0.6468  0.3665 -0.7654
 4875SOL    HW226262   3.108   1.547   4.784 -2.3339 -4.5720 -1.3612
 4876SOL     OW26263   1.767   2.428  15.005  0.4974 -0.2089 -0.0235
 4876SOL    HW126264   1.812   2.387  14.932 -2.8636 -2.2209 -0.9404
 4876SOL    HW226265   1.749   2.362  15.072 -0.1846 -0.1814 -0.1751
 4877SOL     OW26266   0.813   3.968  15.045  0.3919 -0.7437 -0.3544
 4877SOL    HW126267   0.869   4.042  15.023  1.0124 -1.5952 -1.6481
 4877SOL    HW226268   0.742   4.020  15.082  1.9518  0.3964  1.0513
 4878SOL     OW26269   1.817   2.181   6.869 -0.0901  0.5653 -0.4796
 4878SOL    HW126270   1.756   2.137   6.810 -0.5418 -0.7107  0.9428
 4878SOL    HW226271   1.757   2.219   6.933 -0.3079  0.9292 -0.8987
 4879SOL     OW26272   0.428   3.912   4.737 -0.0546  0.2652  0.0605
 4879SOL    HW126273   0.509   3.881   4.779 -0.8579  0.4842  1.8028
 4879SOL    HW226274   0.371   3.873   4.804 -2.2372 -0.3999 -2.1999
 4880SOL     OW26275   2.152   0.393   7.991 -0.1890  0.0393 -0.0768
 4880SOL    HW126276   2.165   0.318   8.048 -1.9958 -0.6603 -0.5754
 4880SOL    HW226277   2.113   0.453   8.055  0.0078 -2.0906  2.0343
 4881SOL     OW26278   1.858   1.121   2.491  0.2099 -0.2906  0.3188
 4881SOL    HW126279   1.826   1.033   2.509 -0.3197 -0.1308  0.1547
 4881SOL    HW226280   1.791   1.176   2.532  0.5957  1.5284 -1.4888
 4882SOL     OW26281   3.246   3.381   2.664 -0.2308 -0.0284 -0.2213
 4882SOL    HW126282   3.160   3.413   2.637 -0.2384 -0.2181 -0.4203
 4882SOL    HW226283   3.296   3.399   2.585  0.7504 -0.7272  0.2341
 4883SOL     OW26284   2.416   1.645   1.422  0.0607 -0.1114  0.5388
 4883SOL    HW126285   2.475   1.708   1.464  0.2813 -0.5964  0.9579
 4883SOL    HW226286   2.467   1.630   1.342 -1.1127  0.3273 -0.2861
 4884SOL     OW26287   0.751   1.411   3.021  0.5948 -0.4564  0.2297
 4884SOL    HW126288   0.764   1.469   3.096 -2.3636 -1.1873  1.3024
 4884SOL    HW226289   0.843   1.390   3.007  0.2503 -0.6698 -1.6829
 4885SOL     OW26290   0.019   1.898   7.163  0.3813 -0.3136  0.0517
 4885SOL    HW126291   4.661   1.894   7.147  0.1704 -1.6523  1.6667
 4885SOL    HW226292   0.028   1.966   7.229 -1.7192 -0.1994  0.1965
 4886SOL     OW26293   2.931   2.592   4.616 -0.7783  0.3291  0.1846
 4886SOL    HW126294   2.838   2.609   4.600 -1.2899 -1.1353  1.6493
 4886SOL    HW226295   2.961   2.682   4.634 -0.5581  0.3292 -0.1880
 4887SOL     OW26296   0.658   2.880   6.435 -0.5950 -0.3390 -0.4180
 4887SOL    HW126297   0.713   2.827   6.377  0.5600  1.3906 -0.9142
 4887SOL    HW226298   0.575   2.876   6.386 -0.4477 -2.0026 -0.5333
 4888SOL     OW26299   1.989   1.500   8.830  0.1237 -0.6785 -0.2322
 4888SOL    HW126300   2.070   1.546   8.807 -0.4483  0.1510 -0.5912
 4888SOL    HW226301   2.015   1.410   8.849  2.8551 -0.0522 -1.0123
 4889SOL     OW26302   0.156   2.655   3.501  0.1549 -0.1277  0.3933
 4889SOL    HW126303   0.073   2.650   3.453  2.3881  1.4007 -3.5681
 4889SOL    HW226304   0.207   2.601   3.441  0.9275  2.4632 -1.3028
 4890SOL     OW26305   4.308   1.777   5.652  1.1263  0.0298  0.1292
 4890SOL    HW126306   4.309   1.726   5.571  0.7338  0.4370 -0.1274
 4890SOL    HW226307   4.267   1.717   5.715  0.4754 -1.1586 -1.4421
 4891SOL     OW26308   2.955   1.822   1.688  0.3427  0.4543  0.1884
 4891SOL    HW126309   2.945   1.802   1.595  0.3596  1.7848 -0.1026
 4891SOL    HW226310   2.977   1.915   1.683  0.1017  0.6690  2.8754
 4892SOL     OW26311   1.454   3.949   6.659 -0.7433  0.0332 -0.2320
 4892SOL    HW126312   1.439   3.865   6.616  1.8865 -0.7347  0.3051
 4892SOL    HW226313   1.548   3.947   6.681 -0.6266  0.4794 -0.6990
 4893SOL     OW26314   4.656   3.293  11.066 -0.1919 -0.3354  0.6958
 4893SOL    HW126315   4.666   3.353  11.140  0.1453 -0.8667  1.0789
 4893SOL    HW226316   4.570   3.266  11.096 -0.1721 -0.1225  0.9430
 4894SOL     OW26317   3.147   4.273   2.935 -0.6004 -0.0542 -0.2995
 4894SOL    HW126318   3.060   4.262   2.896 -0.6240 -1.4589  0.1458
 4894SOL    HW226319   3.168   4.362   2.908 -0.1044 -0.7239 -2.1434
 4895SOL     OW26320   4.010   2.792   0.735 -0.0723  0.2013  0.3730
 4895SOL    HW126321   3.926   2.766   0.698  0.6097  1.0207 -1.7319
 4895SOL    HW226322   4.070   2.749   0.674 -2.1790 -2.4205  0.1695
 4896SOL     OW26323   0.751   3.288   9.257 -0.3304 -0.1044  0.2284
 4896SOL    HW126324   0.706   3.283   9.342  1.3791 -2.6134  0.9769
 4896SOL    HW226325   0.679   3.342   9.225  0.9606  1.5559  0.1272
 4897SOL     OW26326   0.527   0.676   1.931 -0.5772  0.1303 -0.1814
 4897SOL    HW126327   0.532   0.590   1.972 -0.3550  0.3719  0.3005
 4897SOL    HW226328   0.518   0.731   2.009 -2.0772 -2.6709  1.6063
 4898SOL     OW26329   3.520   0.345   2.996  0.0676 -0.0134  0.3222
 4898SOL    HW126330   3.563   0.392   2.924 -2.5355  2.6670  0.5385
 4898SOL    HW226331   3.543   0.394   3.075 -1.4732  2.8397 -0.9806
 4899SOL     OW26332   1.083   3.471   2.005  0.3011  0.2726 -0.3119
 4899SOL    HW126333   1.014   3.536   2.010  1.3528  1.4442 -1.1396
 4899SOL    HW226334   1.039   3.398   1.960  1.8057 -0.1121 -1.1766
 4900SOL     OW26335   4.687   4.610   5.656  0.2340  0.0781  0.0693
 4900SOL    HW126336   0.024   4.550   5.642  0.6996  0.6128  0.1584
 4900SOL    HW226337   4.702   4.677   5.589 -0.8197  0.5435  0.3030
 4901SOL     OW26338   3.871   2.670   5.129  0.1712 -0.1113 -0.4718
 4901SOL    HW126339   3.845   2.761   5.112 -1.1160 -0.5199 -0.6803
 4901SOL    HW226340   3.782   2.638   5.115 -0.2118  1.4842 -1.7318
 4902SOL     OW26341   2.778   1.064   7.595  0.5314 -0.4962 -0.2526
 4902SOL    HW126342   2.751   0.988   7.543 -0.2563 -1.5085  1.6640
 4902SOL    HW226343   2.720   1.066   7.671  2.3155  2.1208  1.0225
 4903SOL     OW26344   3.233   1.285   0.779  0.4020 -0.3512  0.1798
 4903SOL    HW126345   3.329   1.284   0.788  0.5138  1.7526 -0.7128
 4903SOL    HW226346   3.216   1.298   0.872  2.7007 -0.8873  0.6861
 4904SOL     OW26347   3.613   1.818   7.065 -0.0761 -0.0204 -0.5214
 4904SOL    HW126348   3.601   1.757   7.137  0.4838  0.4195 -0.0546
 4904SOL    HW226349   3.697   1.854   7.093  0.5118 -1.7731 -0.0489
 4905SOL     OW26350   4.189   1.921   7.775  0.0911  0.2632 -0.1204
 4905SOL    HW126351   4.231   1.974   7.707  1.3261 -1.1024 -0.4358
 4905SOL    HW226352   4.138   1.995   7.808 -0.0453 -0.9269  2.3136
 4906SOL     OW26353   1.695   4.651   9.317  0.0099 -0.2020  0.1904
 4906SOL    HW126354   1.713   4.566   9.359 -0.1852 -1.2615 -1.8590
 4906SOL    HW226355   1.694   4.627   9.224  2.2090  2.0255 -0.3904
 4907SOL     OW26356   3.704   0.095   9.481 -0.6010  0.0552 -0.0248
 4907SOL    HW126357   3.750   0.088   9.565 -2.2007 -0.0115  0.8443
 4907SOL    HW226358   3.755   0.167   9.443  0.1507  0.0582  0.9752
 4908SOL     OW26359   3.275   0.678  11.298  0.0077  0.3679  0.4487
 4908SOL    HW126360   3.337   0.608  11.277 -0.4931 -0.4089  1.5403
 4908SOL    HW226361   3.287   0.732  11.220 -1.6236 -0.0262 -0.0740
 4909SOL     OW26362   3.591   1.524   3.663  0.5182  0.1186  0.4695
 4909SOL    HW126363   3.633   1.487   3.585  0.9651  1.6584 -0.0329
 4909SOL    HW226364   3.503   1.486   3.665  0.6624 -0.2821 -0.5321
 4910SOL     OW26365   3.726   0.659  17.409 -0.1096 -0.6355  0.6196
 4910SOL    HW126366   3.664   0.715  17.362 -0.2048  0.2375  1.7798
 4910SOL    HW226367   3.742   0.597  17.338  1.1465  1.5119 -0.9889
 4911SOL     OW26368   4.413   0.993   5.140 -0.4163 -0.3394  0.3322
 4911SOL    HW126369   4.438   0.934   5.068  1.2185  0.8767 -0.1021
 4911SOL    HW226370   4.321   0.968   5.144 -0.5050 -0.4136 -1.8165
 4912SOL     OW26371   3.295   4.009   2.632 -0.0202 -0.2678  0.0945
 4912SOL    HW126372   3.273   3.983   2.721 -2.3899 -0.4116 -0.5447
 4912SOL    HW226373   3.281   3.930   2.581  0.6406  0.2469 -0.8826
 4913SOL     OW26374   2.838   2.684   0.982  0.2380  0.6730 -1.1984
 4913SOL    HW126375   2.886   2.753   0.934  1.6330  0.8386  0.4312
 4913SOL    HW226376   2.744   2.695   0.991  0.2724 -0.6482  0.8351
 4914SOL     OW26377   2.449   0.471   9.954 -0.6527  0.2056  0.3188
 4914SOL    HW126378   2.516   0.496  10.017 -0.2249 -0.4910  0.1291
 4914SOL    HW226379   2.453   0.539   9.887  0.8396  1.6839  1.9201
 4915SOL     OW26380   0.591   0.132   5.317 -0.8202 -0.0509  0.0627
 4915SOL    HW126381   0.658   0.199   5.324 -2.3688  1.2974  1.9046
 4915SOL    HW226382   0.645   0.064   5.358 -1.0600 -0.6539 -0.6277
 4916SOL     OW26383   1.290   2.658   2.105 -0.1715  0.2422  0.4209
 4916SOL    HW126384   1.252   2.675   2.191 -0.5856 -0.4810  0.3810
 4916SOL    HW226385   1.312   2.567   2.125  0.0856  0.7888  2.6596
 4917SOL     OW26386   2.087   0.114   5.036  0.0690  0.2006  0.0960
 4917SOL    HW126387   2.174   0.154   5.029  1.7454 -3.0776  2.5022
 4917SOL    HW226388   2.100   0.048   5.104  0.9795 -1.2911 -1.5293
 4918SOL     OW26389   2.475   0.224   1.415 -0.3898 -0.1358 -0.2142
 4918SOL    HW126390   2.501   0.316   1.420  0.1140 -0.2718 -0.3571
 4918SOL    HW226391   2.558   0.181   1.437 -0.5542 -1.3523 -1.9698
 4919SOL     OW26392   4.655   1.082   5.584 -0.0509 -0.1525  0.0649
 4919SOL    HW126393   4.615   1.152   5.533  0.3923  0.6276  0.7747
 4919SOL    HW226394   4.644   1.123   5.670 -1.6925  0.8659 -0.6302
 4920SOL     OW26395   4.423   1.658   4.923  0.1891 -0.2285 -0.2096
 4920SOL    HW126396   4.472   1.581   4.892 -0.8824 -0.2713 -1.8368
 4920SOL    HW226397   4.391   1.695   4.840 -1.4213  0.5621  0.7604
 4921SOL     OW26398   1.429   4.048   3.555  0.2262  0.1124  0.9609
 4921SOL    HW126399   1.352   4.104   3.560  1.6081  1.9421  1.7607
 4921SOL    HW226400   1.492   4.106   3.512 -0.5523  0.4320  0.2483
 4922SOL     OW26401   2.062   2.227   2.071  0.3112 -0.6163  0.2686
 4922SOL    HW126402   2.041   2.150   2.019  3.4606 -1.2928  0.0163
 4922SOL    HW226403   2.091   2.288   2.004  0.4739 -1.0673 -0.0653
 4923SOL     OW26404   0.949   0.825  12.503 -0.4711 -0.0742  0.3516
 4923SOL    HW126405   0.970   0.747  12.554 -0.8981 -0.8711 -0.6738
 4923SOL    HW226406   0.909   0.885  12.565  2.4423 -1.1359  3.2298
 4924SOL     OW26407   0.165   2.292   2.581 -0.3286  0.0927 -0.3349
 4924SOL    HW126408   0.258   2.286   2.603  0.1729  1.8731 -2.0107
 4924SOL    HW226409   0.141   2.217   2.527 -0.1193 -0.9675  1.0306
 4925SOL     OW26410   2.137   1.230  13.132 -0.1535 -0.0470  0.4117
 4925SOL    HW126411   2.209   1.286  13.161  1.0206 -1.0212 -0.6346
 4925SOL    HW226412   2.178   1.180  13.061  2.1445 -0.6569  2.1818
 4926SOL     OW26413   3.334   0.961   5.290 -0.0960 -0.3769 -0.2528
 4926SOL    HW126414   3.260   1.016   5.316 -1.4093 -2.5535  0.6696
 4926SOL    HW226415   3.317   0.877   5.333 -1.0791  0.8768  1.8186
 4927SOL     OW26416   2.897   0.344   2.475 -0.6808  0.2352  0.5807
 4927SOL    HW126417   2.991   0.355   2.488 -0.5375 -2.5148  1.8999
 4927SOL    HW226418   2.879   0.404   2.403  1.2308 -0.4586 -0.4819
 4928SOL     OW26419   3.074   1.343   0.565  0.3972  0.1016 -0.4460
 4928SOL    HW126420   3.141   1.304   0.622 -2.8960 -1.8795  2.0560
 4928SOL    HW226421   3.043   1.416   0.618  3.4374  2.0595 -1.3329
 4929SOL     OW26422   1.984   4.106   7.336  0.7692  0.0766 -0.7396
 4929SOL    HW126423   1.918   4.162   7.295  2.1577  2.4759  0.3225
 4929SOL    HW226424   2.058   4.164   7.353 -0.4805  1.2243  0.7361
 4930SOL     OW26425   2.032   2.485   7.838  0.3813  0.1457 -0.7412
 4930SOL    HW126426   2.100   2.456   7.777  2.0032 -0.8721  1.5153
 4930SOL    HW226427   1.989   2.400   7.851  1.2581 -0.2552 -0.4758
 4931SOL     OW26428   1.750   0.481   4.629 -0.3436 -0.2296 -0.6384
 4931SOL    HW126429   1.690   0.462   4.557  1.9859  0.9433 -2.8776
 4931SOL    HW226430   1.828   0.432   4.602  0.1343 -0.4245  1.0565
 4932SOL     OW26431   1.597   1.937   4.387  0.5151 -0.1530 -0.2353
 4932SOL    HW126432   1.554   2.004   4.440  1.2268  0.0468  0.0809
 4932SOL    HW226433   1.522   1.880   4.366  0.4053 -0.2704  0.4938
 4933SOL     OW26434   2.605   2.145   0.860 -0.2033 -0.6762  0.2154
 4933SOL    HW126435   2.541   2.170   0.794  1.2443  2.6868  0.0732
 4933SOL    HW226436   2.626   2.226   0.906  2.0032 -0.9725 -0.2543
 4934SOL     OW26437   3.735   0.580   7.409  0.2901 -0.0716 -0.4155
 4934SOL    HW126438   3.721   0.674   7.418  2.1936  0.4229 -2.6348
 4934SOL    HW226439   3.786   0.581   7.328  0.9287  0.5739 -0.0090
 4935SOL     OW26440   1.188   4.088   9.847 -0.2660 -0.1631 -0.3563
 4935SOL    HW126441   1.182   4.128   9.760  1.5027 -0.1775 -0.4737
 4935SOL    HW226442   1.106   4.113   9.891 -0.6706 -0.7610 -0.7725
 4936SOL     OW26443   0.570   3.154   2.767  0.3987  0.0628  0.3076
 4936SOL    HW126444   0.519   3.161   2.686  3.1087 -0.5174 -1.4414
 4936SOL    HW226445   0.516   3.112   2.835  1.4174 -1.3214  0.2570
 4937SOL     OW26446   1.774   2.579   6.444  0.7002 -0.0251 -0.8527
 4937SOL    HW126447   1.828   2.657   6.458 -0.2111  0.7848 -1.8685
 4937SOL    HW226448   1.702   2.608   6.499  1.4403 -0.6030  0.4167
 4938SOL     OW26449   0.329   0.898   1.811 -0.0839  0.1310 -0.1777
 4938SOL    HW126450   0.276   0.823   1.839  0.8168 -0.3228  0.2968
 4938SOL    HW226451   0.339   0.887   1.716  0.6635 -1.1990  0.0563
 4939SOL     OW26452   4.258   1.658  14.049 -0.2671  0.1065 -0.1358
 4939SOL    HW126453   4.195   1.686  13.984  2.5372  1.3421 -2.3348
 4939SOL    HW226454   4.340   1.679  14.003  0.1423 -1.9773 -0.3754
 4940SOL     OW26455   3.097   0.646   8.267  0.3868  0.2285 -0.0869
 4940SOL    HW126456   3.164   0.669   8.204 -0.1187  0.4183 -0.5522
 4940SOL    HW226457   3.107   0.724   8.321 -1.0602 -0.0316  0.5595
 4941SOL     OW26458   1.164   4.436   3.701  0.0958  0.0310  0.0571
 4941SOL    HW126459   1.171   4.405   3.792 -0.5892  1.6377  0.6439
 4941SOL    HW226460   1.201   4.524   3.703 -2.1232  0.9054  1.7163
 4942SOL     OW26461   3.733   2.514   0.273 -0.3640 -0.1823  0.3245
 4942SOL    HW126462   3.818   2.492   0.310  0.2706  0.1372 -0.9676
 4942SOL    HW226463   3.686   2.470   0.344 -1.7400  0.1136 -0.4011
 4943SOL     OW26464   3.004   3.955   6.534  0.0156 -0.0204 -0.4259
 4943SOL    HW126465   3.094   3.924   6.530 -0.2785 -0.7024 -1.8619
 4943SOL    HW226466   3.004   4.010   6.612 -1.3311  0.8890 -1.0676
 4944SOL     OW26467   1.903   0.013   6.120  0.0731  0.5595  0.0070
 4944SOL    HW126468   1.980   4.700   6.091 -0.9036 -0.4512 -0.8339
 4944SOL    HW226469   1.932   0.041   6.207 -0.3130 -0.2130  0.3849
 4945SOL     OW26470   4.193   1.265  10.666  0.4223 -0.0026  0.2110
 4945SOL    HW126471   4.283   1.238  10.686  0.0970 -1.7654 -0.6676
 4945SOL    HW226472   4.160   1.175  10.664 -1.2649  0.6254  0.5781
 4946SOL     OW26473   1.744   2.018   3.859  0.0356  0.0047 -0.7543
 4946SOL    HW126474   1.714   1.980   3.941  0.4210 -0.7130 -0.9492
 4946SOL    HW226475   1.775   1.943   3.809 -0.5108 -1.6549  1.4052
 4947SOL     OW26476   3.854   3.205   2.512 -0.3410  0.0533 -0.0391
 4947SOL    HW126477   3.837   3.182   2.420 -1.1095  0.5229 -0.0174
 4947SOL    HW226478   3.949   3.219   2.509 -0.6547  2.1663 -0.6560
 4948SOL     OW26479   1.839   0.913   5.477 -0.1244  0.3535  0.2365
 4948SOL    HW126480   1.921   0.888   5.435  0.3009 -0.9070  1.8225
 4948SOL    HW226481   1.864   0.919   5.569  0.2426 -0.4420  0.1874
 4949SOL     OW26482   0.630   1.381   7.718 -0.8486  0.0907 -0.1474
 4949SOL    HW126483   0.694   1.336   7.774  0.0037  2.4886  0.8221
 4949SOL    HW226484   0.650   1.344   7.632  3.6032  1.7081  0.1887
 4950SOL     OW26485   0.694   1.020   8.351 -0.1133  0.2046 -0.1274
 4950SOL    HW126486   0.673   1.052   8.264  0.7755  2.7187  0.5979
 4950SOL    HW226487   0.784   0.991   8.336 -0.8919 -1.8867 -0.7647
 4951SOL     OW26488   0.936   2.026   4.924  0.4152 -0.2177 -0.1416
 4951SOL    HW126489   0.899   2.095   4.869  0.0087  0.1776  0.6249
 4951SOL    HW226490   0.940   1.955   4.860  0.4904 -1.2088  0.9674
 4952SOL     OW26491   1.759   3.662   3.737  0.1158  0.9135  0.3225
 4952SOL    HW126492   1.708   3.742   3.728 -1.4921 -0.2529 -0.9752
 4952SOL    HW226493   1.739   3.614   3.657  0.6192 -1.7044  1.7594
 4953SOL     OW26494   1.924   1.943  14.028 -0.0645  0.1983 -0.1961
 4953SOL    HW126495   1.898   2.024  14.072 -0.3764  1.2518 -2.3367
 4953SOL    HW226496   1.892   1.957  13.939 -0.1614 -1.2410 -0.3847
 4954SOL     OW26497   1.444   3.909   4.433  0.0024  0.4455  0.7190
 4954SOL    HW126498   1.503   3.876   4.366 -1.1748 -0.9412  0.3674
 4954SOL    HW226499   1.485   3.989   4.465 -1.2940  1.9117 -1.2543
 4955SOL     OW26500   0.031   1.821   8.119 -0.0486  0.7497  0.0826
 4955SOL    HW126501   4.674   1.838   8.132  0.2504 -1.0753  4.5264
 4955SOL    HW226502   0.061   1.892   8.176 -0.3092  1.4899 -0.7028
 4956SOL     OW26503   3.118   0.441   8.776 -0.0771  0.4934  0.9472
 4956SOL    HW126504   3.176   0.367   8.759 -2.4402 -1.2846  0.5371
 4956SOL    HW226505   3.054   0.411   8.711  0.6484  1.7608 -0.3282
 4957SOL     OW26506   1.548   1.026   3.715  0.1853  0.2718 -0.0608
 4957SOL    HW126507   1.629   1.028   3.767 -0.9575  1.8362  1.6320
 4957SOL    HW226508   1.580   0.980   3.637 -2.1323 -1.2080 -0.1408
 4958SOL     OW26509   1.394   4.101   0.664 -0.0705  0.0573 -0.2077
 4958SOL    HW126510   1.417   4.185   0.624 -1.5075 -0.5916 -2.4005
 4958SOL    HW226511   1.298   4.106   0.660 -0.0962 -1.1364 -1.1654
 4959SOL     OW26512   0.292   4.251   5.541  0.1331  0.0349  0.0170
 4959SOL    HW126513   0.384   4.274   5.555  0.7389 -1.7966 -1.0599
 4959SOL    HW226514   0.258   4.340   5.531  1.3192  0.1846 -2.8503
 4960SOL     OW26515   2.933   3.206  17.064 -0.1976  0.3380 -0.0172
 4960SOL    HW126516   2.906   3.275  17.004  3.3524  0.0491 -1.9615
 4960SOL    HW226517   2.992   3.247  17.128 -0.7284 -0.1288  0.7764
 4961SOL     OW26518   3.883   2.575  10.065  0.1944  0.1186  0.0769
 4961SOL    HW126519   3.868   2.484  10.039 -1.2927 -0.4016  2.7256
 4961SOL    HW226520   3.884   2.564  10.160 -1.4244  0.9375  0.1891
 4962SOL     OW26521   0.872   3.080  15.200  0.0476  0.2715 -0.2947
 4962SOL    HW126522   0.854   3.098  15.108  0.0786 -2.1304 -0.7799
 4962SOL    HW226523   0.781   3.070  15.228 -0.0679  2.3048  0.0622
 4963SOL     OW26524   2.344   3.570   8.022 -0.6906  0.1189  0.0461
 4963SOL    HW126525   2.428   3.585   8.065 -0.3937  0.5174 -0.6787
 4963SOL    HW226526   2.378   3.551   7.935 -0.5013 -1.4256  0.4528
 4964SOL     OW26527   3.277   1.844   6.943  0.3665 -0.6557 -0.4231
 4964SOL    HW126528   3.198   1.896   6.926 -0.9009 -2.9989 -1.7191
 4964SOL    HW226529   3.332   1.922   6.942  0.3973 -0.6852 -1.7719
 4965SOL     OW26530   1.944   4.272   2.880  0.1767 -0.0920  0.0727
 4965SOL    HW126531   2.016   4.209   2.874 -1.0749 -1.3259 -1.9107
 4965SOL    HW226532   1.990   4.353   2.861  0.9036 -0.3959  0.5211
 4966SOL     OW26533   2.177   2.844   7.775  0.0522 -0.5198 -0.0969
 4966SOL    HW126534   2.238   2.887   7.834 -1.4976  0.9418  0.4324
 4966SOL    HW226535   2.108   2.816   7.835 -2.2383  0.0818 -2.4766
 4967SOL     OW26536   4.083   0.542  15.686  0.1324  0.2131  0.4579
 4967SOL    HW126537   4.157   0.506  15.636  0.4382  1.9281 -0.3088
 4967SOL    HW226538   4.014   0.478  15.669 -0.3966  0.6438  1.0373
 4968SOL     OW26539   0.547   2.443   6.064  0.1241 -0.3153  0.5006
 4968SOL    HW126540   0.590   2.378   6.119  1.2420  0.0443  0.0567
 4968SOL    HW226541   0.507   2.393   5.993 -0.5524  2.9296 -1.3919
 4969SOL     OW26542   2.391   0.081   3.086 -0.2581  0.2932  0.1986
 4969SOL    HW126543   2.309   0.032   3.091  0.9153 -1.8556 -2.0227
 4969SOL    HW226544   2.367   0.145   3.019  0.4162 -0.3583 -0.6599
 4970SOL     OW26545   0.232   2.948   0.880  0.3735 -0.4183 -0.3689
 4970SOL    HW126546   0.291   3.021   0.858  0.1678 -0.3872 -0.8194
 4970SOL    HW226547   0.202   2.977   0.966 -1.8561 -0.5710 -1.0953
 4971SOL     OW26548   1.838   2.968   2.195  0.0858  0.1516 -0.3373
 4971SOL    HW126549   1.742   2.960   2.188 -0.1285  1.7697  0.6473
 4971SOL    HW226550   1.864   2.919   2.273 -0.4085 -1.0175 -0.9130
 4972SOL     OW26551   3.514   2.673  12.901 -0.2121  0.7222 -0.2451
 4972SOL    HW126552   3.541   2.667  12.809 -2.2629  0.5209 -0.8334
 4972SOL    HW226553   3.591   2.715  12.937 -0.6541 -0.6092  2.2374
 4973SOL     OW26554   2.920   4.646   4.995  0.1357 -0.2521 -0.0430
 4973SOL    HW126555   2.935   4.643   5.090  0.9481 -1.8195 -0.2267
 4973SOL    HW226556   2.863   4.723   4.993  1.0697  0.4658  0.5866
 4974SOL     OW26557   3.943   0.298  10.956 -0.0531 -0.0556 -0.4988
 4974SOL    HW126558   3.980   0.379  10.992  0.7112  0.4899 -2.5088
 4974SOL    HW226559   4.012   0.249  10.911 -2.8121 -2.8512 -1.6692
 4975SOL     OW26560   4.187   0.546   9.842  0.5109 -0.0461  0.3068
 4975SOL    HW126561   4.270   0.580   9.875  2.0875  0.5209 -4.2117
 4975SOL    HW226562   4.166   0.484   9.912 -2.4922 -1.3759 -1.7803
 4976SOL     OW26563   1.466   1.180   1.203 -0.4051  0.5538 -0.0338
 4976SOL    HW126564   1.558   1.185   1.177 -0.1016 -2.5839  0.4424
 4976SOL    HW226565   1.445   1.111   1.140 -2.1162  0.3142  0.7987
 4977SOL     OW26566   0.773   3.576   2.231  0.1870 -0.1105 -0.3357
 4977SOL    HW126567   0.716   3.546   2.160 -1.8421 -1.4488  1.8604
 4977SOL    HW226568   0.789   3.667   2.209 -1.5525  0.3083  0.2020
 4978SOL     OW26569   3.203   4.558   5.680 -0.6629 -0.0108  0.4202
 4978SOL    HW126570   3.228   4.482   5.732  0.1372  0.4187  0.6662
 4978SOL    HW226571   3.232   4.631   5.735 -1.2507 -0.2540  1.0590
 4979SOL     OW26572   3.224   4.493  13.578  0.6627 -0.1403 -0.1216
 4979SOL    HW126573   3.180   4.503  13.494 -0.1257 -1.4504  0.1369
 4979SOL    HW226574   3.311   4.473  13.544 -0.3744  0.4185 -3.0898
 4980SOL     OW26575   3.860   0.878   1.742 -0.4060  0.1794  0.5387
 4980SOL    HW126576   3.916   0.853   1.816  1.1643  1.0510 -0.3579
 4980SOL    HW226577   3.933   0.906   1.688  0.4633 -0.4995  1.3609
 4981SOL     OW26578   1.514   2.538   9.319  0.2704 -0.2389  0.1597
 4981SOL    HW126579   1.525   2.517   9.412 -0.5185  2.3767  0.8602
 4981SOL    HW226580   1.514   2.634   9.324 -1.6071 -0.3207  1.4158
 4982SOL     OW26581   2.226   3.534  15.054 -0.0296 -0.0688  1.3087
 4982SOL    HW126582   2.211   3.494  14.968  0.3499 -0.3210  1.3610
 4982SOL    HW226583   2.255   3.460  15.107 -1.4274 -2.4838 -1.2618
 4983SOL     OW26584   4.281   1.467   3.785 -0.4770  0.2763 -0.4625
 4983SOL    HW126585   4.254   1.553   3.819 -1.0668 -0.0472 -0.1237
 4983SOL    HW226586   4.370   1.451   3.817 -1.0701 -1.2402  0.3913
 4984SOL     OW26587   1.369   1.392   9.716 -0.0714  1.1008 -0.3505
 4984SOL    HW126588   1.365   1.440   9.633  0.6966 -2.1519 -2.2494
 4984SOL    HW226589   1.459   1.409   9.746 -0.6451 -0.9832  2.4919
 4985SOL     OW26590   0.856   0.540   9.443  0.3416  0.1042 -0.8399
 4985SOL    HW126591   0.807   0.480   9.387 -0.6456 -0.3527  0.5092
 4985SOL    HW226592   0.827   0.511   9.530  0.7926 -1.9441 -1.3688
 4986SOL     OW26593   2.426   3.953   4.348  0.1240 -0.5457 -0.1779
 4986SOL    HW126594   2.346   3.946   4.401  0.2833 -0.0324  0.1349
 4986SOL    HW226595   2.491   3.891   4.381  2.3448  1.2830 -1.0794
 4987SOL     OW26596   2.423   0.427   7.051 -0.4249  0.8690 -0.1431
 4987SOL    HW126597   2.419   0.337   7.021 -0.8249  0.6525  0.5640
 4987SOL    HW226598   2.433   0.433   7.146 -1.0655  1.8301 -0.1301
 4988SOL     OW26599   0.890   2.262   0.802  0.1499 -0.3074  0.0533
 4988SOL    HW126600   0.897   2.326   0.730  2.0124  0.2533  0.7321
 4988SOL    HW226601   0.803   2.232   0.774 -0.4862 -1.6728  3.5910
 4989SOL     OW26602   2.199   1.813   5.203 -0.6171  0.2375  0.2316
 4989SOL    HW126603   2.268   1.756   5.169  1.7311  2.5078  1.2897
 4989SOL    HW226604   2.236   1.845   5.285 -0.4707  0.5893  0.0258
 4990SOL     OW26605   4.565   3.641  11.022  0.2273  0.2397 -0.5282
 4990SOL    HW126606   4.598   3.701  11.089  0.5126 -2.3891  1.7035
 4990SOL    HW226607   4.640   3.654  10.963  0.9645 -0.0395  0.3468
 4991SOL     OW26608   3.487   1.002   7.633  0.1437 -0.3885  0.1828
 4991SOL    HW126609   3.490   1.074   7.697  0.6966 -0.2784  0.0281
 4991SOL    HW226610   3.576   0.969   7.640  0.0890 -0.5908 -0.0752
 4992SOL     OW26611   0.677   4.483  13.918  0.0669 -0.4297 -0.4168
 4992SOL    HW126612   0.601   4.515  13.966 -0.3978  3.5778 -3.7753
 4992SOL    HW226613   0.672   4.536  13.838  0.3292  0.7586  0.3553
 4993SOL     OW26614   1.858   2.034   4.596  0.4088 -0.2956 -0.9288
 4993SOL    HW126615   1.832   2.106   4.539 -1.6118  0.0014  0.3419
 4993SOL    HW226616   1.877   1.967   4.531  0.1510 -0.4633 -0.8310
 4994SOL     OW26617   0.315   4.295   3.457  0.0111 -0.2943 -0.7519
 4994SOL    HW126618   0.275   4.335   3.534 -0.2328  0.1934 -1.1338
 4994SOL    HW226619   0.244   4.278   3.395  1.2987  0.0809 -2.3387
 4995SOL     OW26620   3.030   3.221   7.236  0.3407  0.6268  0.2608
 4995SOL    HW126621   3.037   3.250   7.327  0.2200  1.7778 -0.1016
 4995SOL    HW226622   3.097   3.154   7.224 -0.1604  0.2373 -0.3654
 4996SOL     OW26623   3.806   2.059   0.727 -0.0909 -0.2639  0.4763
 4996SOL    HW126624   3.729   2.006   0.710  0.3570 -0.1120 -2.1774
 4996SOL    HW226625   3.851   1.999   0.786 -0.3076  1.4114  2.3357
 4997SOL     OW26626   0.751   4.127  13.446  0.2908  0.0931  0.0435
 4997SOL    HW126627   0.765   4.150  13.354  1.8371 -3.1162 -0.5244
 4997SOL    HW226628   0.812   4.053  13.454  2.2515  1.6313 -0.7879
 4998SOL     OW26629   0.693   2.985   3.267  0.2546 -0.2981  0.0502
 4998SOL    HW126630   0.777   2.995   3.311 -0.8792  0.5313  2.0136
 4998SOL    HW226631   0.660   2.917   3.326 -1.9467 -0.7998 -1.7294
 4999SOL     OW26632   0.719   2.749   1.725 -0.1261 -0.2593 -0.6879
 4999SOL    HW126633   0.646   2.777   1.669 -0.5596 -1.9526 -0.9499
 4999SOL    HW226634   0.735   2.661   1.693  2.1872  0.2309 -0.8587
 5000SOL     OW26635   2.859   1.749   7.164  0.2282  0.2899  0.2050
 5000SOL    HW126636   2.831   1.705   7.084 -1.7201  0.3390  0.8389
 5000SOL    HW226637   2.926   1.686   7.189  0.7765  0.8392  0.1082
 5001SOL     OW26638   2.558   2.035   5.120 -0.5390 -0.3283  0.3997
 5001SOL    HW126639   2.589   2.125   5.126 -0.1296 -0.4860  0.6648
 5001SOL    HW226640   2.620   1.991   5.179  2.0930  1.2767 -1.1358
 5002SOL     OW26641   3.320   4.388   4.874  0.0938  0.4173 -0.2195
 5002SOL    HW126642   3.305   4.295   4.857 -1.3346  0.3959  1.2289
 5002SOL    HW226643   3.367   4.388   4.957 -0.5155 -0.2053  0.1238
 5003SOL     OW26644   1.951   1.685  11.896 -0.3708  0.3455  0.3654
 5003SOL    HW126645   1.944   1.748  11.824 -1.1383  1.2376  1.2104
 5003SOL    HW226646   1.929   1.745  11.967  1.3143  2.1545 -0.6509
 5004SOL     OW26647   3.938   2.461  15.574 -0.0548 -0.2293 -0.3212
 5004SOL    HW126648   3.880   2.535  15.557  3.2714  2.6520  0.9129
 5004SOL    HW226649   3.971   2.445  15.486  1.5920  1.1302  0.0529
 5005SOL     OW26650   3.412   2.266   4.375  0.7466 -0.1171  0.6978
 5005SOL    HW126651   3.361   2.286   4.297 -0.6205 -2.2505  1.0477
 5005SOL    HW226652   3.425   2.171   4.372 -0.5872 -0.2564 -0.6319
 5006SOL     OW26653   3.116   2.677  10.594 -0.2427  0.0090 -0.1236
 5006SOL    HW126654   3.105   2.763  10.552 -0.7816  0.5813  1.1639
 5006SOL    HW226655   3.042   2.622  10.569 -0.2168  0.1184 -0.4418
 5007SOL     OW26656   0.984   3.129   8.394 -0.1186  0.2785 -1.2875
 5007SOL    HW126657   1.041   3.165   8.327  1.6459  1.9632  1.1246
 5007SOL    HW226658   1.037   3.052   8.414 -2.0081 -0.5639  0.5639
 5008SOL     OW26659   0.897   0.857   8.749 -0.3415 -0.0047  0.4748
 5008SOL    HW126660   0.857   0.936   8.785 -1.9491  0.6581 -2.7734
 5008SOL    HW226661   0.987   0.871   8.777 -0.2652  0.8924 -0.2429
 5009SOL     OW26662   0.777   0.291   8.834 -0.6238 -0.3693 -0.6609
 5009SOL    HW126663   0.868   0.322   8.839 -1.2654  1.3193  0.4616
 5009SOL    HW226664   0.733   0.375   8.824 -0.6816 -0.3771 -0.4686
 5010SOL     OW26665   4.046   4.668  12.137 -0.1124 -0.5176 -0.6678
 5010SOL    HW126666   4.024   4.605  12.069 -0.7466 -1.6604  0.6078
 5010SOL    HW226667   4.111   4.724  12.094 -2.4529  0.8766 -2.4421
 5011SOL     OW26668   0.121   3.118   4.524 -0.4797  0.1186  0.4304
 5011SOL    HW126669   0.057   3.051   4.500  3.4731 -3.5103 -0.0699
 5011SOL    HW226670   0.084   3.190   4.474 -0.6753 -0.9437 -0.9639
 5012SOL     OW26671   1.134   3.867  12.006  0.6243  0.4232  0.6689
 5012SOL    HW126672   1.221   3.845  12.040  0.5363 -0.6752  0.2100
 5012SOL    HW226673   1.079   3.871  12.084  0.3121 -2.4105  0.5908
 5013SOL     OW26674   1.183   1.625   7.227 -0.2009 -0.1640  1.0117
 5013SOL    HW126675   1.094   1.602   7.201  0.4818 -0.3865 -1.1359
 5013SOL    HW226676   1.237   1.583   7.161 -1.0988 -0.6750  0.6078
 5014SOL     OW26677   3.131   2.744  15.977  0.8531  0.1976  0.9171
 5014SOL    HW126678   3.124   2.650  15.991  0.3174  0.0681 -0.2249
 5014SOL    HW226679   3.042   2.766  15.949  0.8065 -0.3586  0.6447
 5015SOL     OW26680   2.729   0.877   5.412  0.4440 -0.3000 -0.6636
 5015SOL    HW126681   2.747   0.830   5.493 -1.1989 -0.3464 -0.3321
 5015SOL    HW226682   2.731   0.969   5.437 -0.7636 -0.2631 -0.7429
 5016SOL     OW26683   2.757   0.053  11.091 -0.4771 -0.6759 -0.2437
 5016SOL    HW126684   2.714   0.112  11.152  3.6456  1.6034  0.4657
 5016SOL    HW226685   2.720   4.705  11.117  1.8563 -1.8616 -0.6957
 5017SOL     OW26686   4.465   1.038  15.390 -0.1804  0.0259 -0.3308
 5017SOL    HW126687   4.468   1.095  15.313  0.6884 -0.7220 -0.8522
 5017SOL    HW226688   4.386   0.986  15.378 -0.1595 -0.8043  3.0100
 5018SOL     OW26689   3.684   0.310  14.746  0.1740 -0.3384 -0.5730
 5018SOL    HW126690   3.638   0.248  14.804 -3.5997  1.9499 -1.1118
 5018SOL    HW226691   3.646   0.397  14.758  2.5717  0.4928  0.8989
 5019SOL     OW26692   4.209   0.923   6.576  0.1086 -0.0040 -0.2378
 5019SOL    HW126693   4.278   0.901   6.514  1.9013  0.6784  1.5129
 5019SOL    HW226694   4.203   0.855   6.643 -0.4666 -0.1581 -0.4408
 5020SOL     OW26695   1.813   2.231   3.035 -0.6742  0.0105 -0.1261
 5020SOL    HW126696   1.825   2.168   3.106 -1.5324  0.6620  0.5987
 5020SOL    HW226697   1.891   2.212   2.982  0.1983  0.2969  1.0531
 5021SOL     OW26698   0.278   0.326  17.684  0.2203 -0.3267 -0.3861
 5021SOL    HW126699   0.235   0.409  17.662  1.6168 -0.0032 -1.8616
 5021SOL    HW226700   0.369   0.354  17.674  0.6710 -2.1125 -1.2718
 5022SOL     OW26701   0.374   4.056   8.714  0.0344 -0.1027  0.5645
 5022SOL    HW126702   0.446   4.003   8.749 -0.7978 -1.2086  0.5884
 5022SOL    HW226703   0.320   3.977   8.711 -0.1886  0.1029 -0.9328
 5023SOL     OW26704   4.449   2.323   4.606  0.9233 -0.5227  0.2803
 5023SOL    HW126705   4.441   2.398   4.665 -1.9688 -1.1999  0.7310
 5023SOL    HW226706   4.392   2.270   4.662  0.1974  0.9967  0.9660
 5024SOL     OW26707   4.563   0.934  16.555 -0.0629  0.1126 -0.0333
 5024SOL    HW126708   4.636   0.995  16.562  0.4936 -0.5499 -0.0233
 5024SOL    HW226709   4.590   0.861  16.612 -0.6502  0.2130  0.3694
 5025SOL     OW26710   0.619   2.202  16.961  0.0893 -0.2615  0.2009
 5025SOL    HW126711   0.711   2.228  16.953 -0.0540  0.0992 -0.2958
 5025SOL    HW226712   0.588   2.278  17.010  0.8086  0.3620 -0.3079
 5026SOL     OW26713   2.828   1.250   1.846  0.9268  0.6108 -0.9581
 5026SOL    HW126714   2.802   1.175   1.899 -0.1297  0.0179 -2.3010
 5026SOL    HW226715   2.751   1.305   1.838  1.2371  1.1389 -0.3145
 5027SOL     OW26716   2.541   1.541  13.564 -0.5883 -0.2196  0.4351
 5027SOL    HW126717   2.492   1.461  13.546  1.5617 -1.1113 -1.5492
 5027SOL    HW226718   2.605   1.514  13.630 -0.7771 -0.7444  0.4028
 5028SOL     OW26719   2.847   3.071   9.325  0.3034  0.3638  0.4766
 5028SOL    HW126720   2.778   3.082   9.260 -0.7297 -1.5691  1.2490
 5028SOL    HW226721   2.825   2.984   9.358  0.6853  0.6269  1.4211
 5029SOL     OW26722   2.206   0.204   2.590 -0.1479 -0.3762 -0.4853
 5029SOL    HW126723   2.183   0.164   2.674  0.0002 -0.8606 -0.6767
 5029SOL    HW226724   2.301   0.206   2.584 -0.3005  0.5411 -2.3816
 5030SOL     OW26725   3.442   2.156   0.006  0.1459  0.2380 -0.2626
 5030SOL    HW126726   3.439   2.123   0.096 -2.9092 -2.7948 -1.4545
 5030SOL    HW226727   3.536   2.159  17.734  0.3194  0.0106  0.7235
 5031SOL     OW26728   4.412   2.860   6.074  0.2147 -0.3307 -0.1320
 5031SOL    HW126729   4.365   2.919   6.015 -0.6800 -2.0396 -1.1299
 5031SOL    HW226730   4.459   2.924   6.126  1.1956 -0.1230 -1.2806
 5032SOL     OW26731   0.816   1.103  13.125 -0.1470 -0.0015 -0.0117
 5032SOL    HW126732   0.728   1.101  13.088  0.0328  0.9371 -0.4697
 5032SOL    HW226733   0.836   1.011  13.105 -0.7325 -0.5938  2.0612
 5033SOL     OW26734   3.324   4.730   6.877 -0.3798 -0.0243  1.0285
 5033SOL    HW126735   3.324   0.089   6.886  0.4462  0.1316 -0.5270
 5033SOL    HW226736   3.319   4.689   6.963 -1.3840  0.7166  1.3243
 5034SOL     OW26737   1.933   2.210   6.202 -0.8000  0.0044  0.1481
 5034SOL    HW126738   1.939   2.260   6.283  2.7693 -1.5198  0.7840
 5034SOL    HW226739   1.964   2.269   6.134  2.1291 -1.8907 -0.1509
 5035SOL     OW26740   1.194   3.910   2.375 -0.0070 -0.4851 -0.0779
 5035SOL    HW126741   1.111   3.896   2.420 -0.2663  0.7333 -0.1587
 5035SOL    HW226742   1.212   3.833   2.322 -0.4856  0.5220 -1.7007
 5036SOL     OW26743   1.978   2.709   2.201 -0.9608  0.4169  0.2189
 5036SOL    HW126744   1.950   2.617   2.205  0.4856 -0.1372 -2.0813
 5036SOL    HW226745   1.953   2.740   2.287 -2.8601  1.3098 -0.6489
 5037SOL     OW26746   1.983   4.446   1.722 -0.9246  0.1116 -0.0566
 5037SOL    HW126747   2.030   4.517   1.766 -0.4863 -1.0202  1.3146
 5037SOL    HW226748   1.997   4.376   1.786 -0.7682  0.7563  0.6122
 5038SOL     OW26749   3.227   0.136   0.402 -0.1225  0.0334 -1.0006
 5038SOL    HW126750   3.139   0.101   0.406 -0.5245  1.2055  0.5218
 5038SOL    HW226751   3.224   0.190   0.482 -1.8240 -0.3842 -0.7977
 5039SOL     OW26752   2.581   3.241   0.736  0.1378 -0.2228 -0.0199
 5039SOL    HW126753   2.576   3.313   0.674 -0.8319 -2.0872 -2.1138
 5039SOL    HW226754   2.672   3.213   0.726 -0.2061 -1.1944 -0.4580
 5040SOL     OW26755   2.763   1.616   6.084 -0.6180  0.4216 -0.7126
 5040SOL    HW126756   2.784   1.708   6.097 -0.1749  0.2872 -0.4721
 5040SOL    HW226757   2.830   1.572   6.137 -0.6817  0.5289 -0.5444
 5041SOL     OW26758   4.418   0.099  14.785  0.1007 -0.0715 -0.1537
 5041SOL    HW126759   4.331   0.110  14.823  0.8078 -2.5168  2.2184
 5041SOL    HW226760   4.440   0.191  14.796 -0.4737  0.0711 -0.2085
 5042SOL     OW26761   0.112   0.919   7.674  0.8145  0.2269 -0.5136
 5042SOL    HW126762   0.102   0.933   7.768 -0.4600 -0.8946 -0.4668
 5042SOL    HW226763   0.131   0.825   7.670  0.6664  0.2368 -1.6420
 5043SOL     OW26764   2.898   1.965   9.581  0.0298  0.0080  0.0780
 5043SOL    HW126765   2.909   1.934   9.671 -2.5044 -0.8237  0.0996
 5043SOL    HW226766   2.831   1.911   9.538 -1.8029 -0.7193  3.7690
 5044SOL     OW26767   0.097   4.412   7.762 -0.2313 -0.1861  0.3923
 5044SOL    HW126768   0.021   4.355   7.770  0.3408 -1.0250 -0.0878
 5044SOL    HW226769   0.088   4.473   7.835  0.0254  0.6247 -0.2493
 5045SOL     OW26770   4.235   3.925   2.607 -0.0356  0.4597  0.4619
 5045SOL    HW126771   4.285   3.927   2.525 -0.2174  1.5490  0.3771
 5045SOL    HW226772   4.193   4.011   2.603  2.0357  1.4413 -0.0604
 5046SOL     OW26773   4.030   3.053   7.882 -0.3379  0.1099  0.1235
 5046SOL    HW126774   3.945   3.081   7.847 -0.6131 -0.4707  0.3131
 5046SOL    HW226775   4.069   3.139   7.893  0.1242 -0.3394  1.9518
 5047SOL     OW26776   0.805   4.129   8.371  0.1910  0.1387 -0.4259
 5047SOL    HW126777   0.718   4.134   8.410  0.3070 -1.2465  0.0284
 5047SOL    HW226778   0.845   4.051   8.411 -0.4887  0.4655  0.9049
 5048SOL     OW26779   2.525   0.959   4.323 -0.2527 -0.0281  0.1054
 5048SOL    HW126780   2.548   0.866   4.324 -1.4660 -0.3275  0.1228
 5048SOL    HW226781   2.578   0.982   4.399 -0.1768  0.3214 -0.0543
 5049SOL     OW26782   4.254   3.596  10.229 -0.1083 -0.1193 -0.5275
 5049SOL    HW126783   4.197   3.603  10.305 -0.7843 -1.2659 -0.9341
 5049SOL    HW226784   4.338   3.614  10.272  0.7257  0.3693 -2.3542
 5050SOL     OW26785   2.716   0.521   8.765 -0.7692  0.7519 -0.0047
 5050SOL    HW126786   2.659   0.596   8.781  0.8813  1.6827  1.3915
 5050SOL    HW226787   2.720   0.473   8.847  2.6123  1.6490  0.3380
 5051SOL     OW26788   1.825   2.982   9.447  0.0614  0.4678  0.0156
 5051SOL    HW126789   1.887   2.916   9.477  0.1895  1.0719  1.0605
 5051SOL    HW226790   1.755   2.989   9.512  0.6997  1.9217  0.5422
 5052SOL     OW26791   4.129   3.913   9.200 -0.2043  0.4725  0.1776
 5052SOL    HW126792   4.090   3.957   9.124  0.3501  0.2008 -0.2663
 5052SOL    HW226793   4.064   3.843   9.206  2.8043 -2.2236  0.7056
 5053SOL     OW26794   3.686   0.332   2.394  0.0499  0.0541  0.1781
 5053SOL    HW126795   3.620   0.345   2.325  0.5735  1.5909 -0.0255
 5053SOL    HW226796   3.733   0.415   2.392  0.7778 -0.2901  2.7810
 5054SOL     OW26797   1.690   4.465   1.952  0.7579  0.7058  0.6800
 5054SOL    HW126798   1.760   4.530   1.956  1.0119  0.3638  1.7493
 5054SOL    HW226799   1.615   4.525   1.944  2.3834  2.7160  0.5550
 5055SOL     OW26800   0.968   4.568   3.456  0.6370  0.0776  0.3504
 5055SOL    HW126801   0.998   4.649   3.498  0.8865 -0.9842  2.2175
 5055SOL    HW226802   0.993   4.507   3.525 -1.3151 -0.4591  0.5796
 5056SOL     OW26803   1.744   4.332   4.715  0.1872  0.3413 -0.4800
 5056SOL    HW126804   1.665   4.375   4.681 -1.3018 -2.1282 -0.1247
 5056SOL    HW226805   1.813   4.397   4.702  0.0849  0.6869  0.6755
 5057SOL     OW26806   4.216   2.546   4.519 -0.3607 -0.1848 -0.4336
 5057SOL    HW126807   4.151   2.484   4.550  1.7034 -2.0518  0.1240
 5057SOL    HW226808   4.191   2.620   4.574  2.0786  0.2412  0.0968
 5058SOL     OW26809   4.695   2.341  14.626 -0.3106  0.0016  0.1844
 5058SOL    HW126810   4.682   2.246  14.625 -1.9595  0.2646 -2.0508
 5058SOL    HW226811   4.716   2.360  14.534 -1.5119  1.4314  0.2138
 5059SOL     OW26812   0.555   3.172   5.822 -0.1713 -0.3212  0.3090
 5059SOL    HW126813   0.609   3.096   5.805 -0.4416 -1.0202  2.5525
 5059SOL    HW226814   0.587   3.208   5.905  1.2740 -2.8281  0.8253
 5060SOL     OW26815   1.843   2.146   4.230  0.1853  0.2838 -0.0249
 5060SOL    HW126816   1.902   2.217   4.252  0.1801 -0.3556  2.1132
 5060SOL    HW226817   1.793   2.199   4.168 -1.9870 -1.3725  0.3129
 5061SOL     OW26818   2.423   0.164  13.108 -0.2868  0.7140 -0.3255
 5061SOL    HW126819   2.508   0.121  13.108 -0.7975 -0.3181  2.4095
 5061SOL    HW226820   2.441   0.254  13.082 -1.7295  1.2116  0.4030
 5062SOL     OW26821   3.129   1.444   5.197 -0.0857  0.0398  1.2771
 5062SOL    HW126822   3.037   1.467   5.209 -0.3461  0.3894 -1.5274
 5062SOL    HW226823   3.171   1.529   5.186 -1.1960  0.5926  1.3384
 5063SOL     OW26824   1.471   3.418   3.614 -0.0370 -0.2890 -0.2603
 5063SOL    HW126825   1.462   3.513   3.617 -0.8077 -0.3903  0.6089
 5063SOL    HW226826   1.557   3.407   3.575 -0.4169 -1.0696 -0.8999
 5064SOL     OW26827   3.565   4.505   9.205  0.3452  0.0872  0.0020
 5064SOL    HW126828   3.520   4.421   9.193 -0.8440  1.2495 -3.5519
 5064SOL    HW226829   3.500   4.570   9.177  2.1775  1.0802 -1.8609
 5065SOL     OW26830   3.207   3.967   7.229  0.7461  0.2624 -0.3712
 5065SOL    HW126831   3.217   3.950   7.322 -0.7192  2.3437  0.1438
 5065SOL    HW226832   3.297   3.983   7.201  0.4590  0.0863 -1.4309
 5066SOL     OW26833   1.810   2.644  12.536  0.1985 -0.7033  0.1025
 5066SOL    HW126834   1.749   2.581  12.497  0.6805 -0.9384 -0.2671
 5066SOL    HW226835   1.799   2.623  12.629  0.8517  2.3105  0.8700
 5067SOL     OW26836   0.156   1.169   2.948 -0.0212  0.6605 -0.4143
 5067SOL    HW126837   0.118   1.255   2.933 -2.0987 -0.0392  0.9015
 5067SOL    HW226838   0.250   1.186   2.959 -0.1788  0.1846  1.6132
 5068SOL     OW26839   0.936   0.627   0.842  0.3193  0.3548  0.2637
 5068SOL    HW126840   0.854   0.664   0.809  0.4377 -0.2890 -0.7389
 5068SOL    HW226841   0.900   0.548   0.883 -0.6171  0.1150 -1.0102
 5069SOL     OW26842   0.136   3.425   9.401  0.5169 -0.8033 -0.1842
 5069SOL    HW126843   0.106   3.515   9.417  1.7072 -0.3094 -0.7502
 5069SOL    HW226844   0.173   3.392   9.482  0.8442  0.7386  0.3003
 5070SOL     OW26845   3.053   2.906   5.688 -0.7856  0.1755  0.3180
 5070SOL    HW126846   3.078   2.904   5.595  0.1784 -0.5725  0.5849
 5070SOL    HW226847   3.113   2.971   5.724 -1.6019  0.6733  0.7696
 5071SOL     OW26848   3.305   0.049  15.006  0.0119  0.5981 -0.0553
 5071SOL    HW126849   3.270   0.005  14.929  1.6279 -0.4434 -0.2101
 5071SOL    HW226850   3.257   0.130  15.019  0.0328  0.4684  0.8445
 5072SOL     OW26851   0.798   3.372   3.911  0.2631 -0.0881  0.3073
 5072SOL    HW126852   0.739   3.448   3.915  1.8498  1.1761 -0.3714
 5072SOL    HW226853   0.768   3.329   3.992  1.9932  0.3009  1.1524
 5073SOL     OW26854   3.843   3.313   9.935  0.3610  0.1111 -0.5545
 5073SOL    HW126855   3.843   3.258   9.857  2.3902 -0.3452 -0.2344
 5073SOL    HW226856   3.856   3.250  10.005  0.8243  0.4562 -0.3269
 5074SOL     OW26857   2.236   4.419   7.556 -0.3866 -0.2930  0.1818
 5074SOL    HW126858   2.230   4.509   7.525 -0.7176 -0.9853 -1.8054
 5074SOL    HW226859   2.327   4.412   7.584  0.0438 -0.7696 -1.3046
 5075SOL     OW26860   1.567   1.723   7.735 -0.8300  0.1313  0.0667
 5075SOL    HW126861   1.646   1.732   7.789  0.3069 -1.0750 -1.3782
 5075SOL    HW226862   1.605   1.700   7.650  0.0423  2.0562 -0.0822
 5076SOL     OW26863   3.777   2.190   0.985 -0.3275 -0.4996  0.4994
 5076SOL    HW126864   3.872   2.180   0.998 -0.3937 -1.6935  0.0945
 5076SOL    HW226865   3.770   2.143   0.901  1.2736 -2.7558  1.6291
 5077SOL     OW26866   2.189   0.128   7.221  0.2321 -0.4216 -0.5725
 5077SOL    HW126867   2.251   0.185   7.176 -1.6712  1.7066 -0.5058
 5077SOL    HW226868   2.136   0.092   7.150  3.1504 -1.1909 -2.3725
 5078SOL     OW26869   3.582   0.988  11.246 -0.5225 -0.0846  0.2709
 5078SOL    HW126870   3.670   0.951  11.237 -1.1999 -1.2591 -1.6350
 5078SOL    HW226871   3.574   0.988  11.342  0.2312  0.4798  0.3346
 5079SOL     OW26872   3.111   1.086  13.357  0.5857 -0.3359 -0.7242
 5079SOL    HW126873   3.070   1.095  13.443  1.9312  2.1545 -0.3221
 5079SOL    HW226874   3.040   1.119  13.302  0.6018 -1.0056 -1.1447
 5080SOL     OW26875   0.170   2.668   5.734 -0.1490 -0.4838  0.0679
 5080SOL    HW126876   0.170   2.681   5.639  0.7535 -0.1187  0.1231
 5080SOL    HW226877   0.263   2.659   5.755 -0.1227  0.1918  0.2425
 5081SOL     OW26878   4.548   3.471   2.499 -0.2085  0.1152 -0.5157
 5081SOL    HW126879   4.567   3.382   2.527  1.4307  0.4727 -0.4792
 5081SOL    HW226880   4.515   3.444   2.414 -0.7863 -1.2034  0.1331
 5082SOL     OW26881   3.282   0.443   4.873 -0.4138  0.1568 -0.1898
 5082SOL    HW126882   3.194   0.404   4.874  0.4781 -1.8976 -0.7723
 5082SOL    HW226883   3.271   0.508   4.942 -0.1965 -0.6982  0.6546
 5083SOL     OW26884   0.970   0.134   8.482 -0.5157  0.5383  0.3126
 5083SOL    HW126885   0.923   0.214   8.506  0.4010  1.2279 -0.2196
 5083SOL    HW226886   1.003   0.096   8.563  1.8710  0.1822 -0.8362
 5084SOL     OW26887   1.808   0.411   8.875  0.6667  0.2669  0.4414
 5084SOL    HW126888   1.879   0.426   8.813 -1.0492  1.6652 -1.1481
 5084SOL    HW226889   1.774   0.499   8.889  0.2070  0.1814 -0.1415
 5085SOL     OW26890   0.164   1.693   1.305 -0.5993 -0.0626  0.0439
 5085SOL    HW126891   0.108   1.770   1.315 -0.4728 -0.4201  3.5934
 5085SOL    HW226892   0.115   1.650   1.236  2.7032  0.8670 -2.8639
 5086SOL     OW26893   2.632   1.133  17.259 -0.2809 -0.5156 -0.1398
 5086SOL    HW126894   2.683   1.187  17.199  0.0008  0.8595  1.3339
 5086SOL    HW226895   2.580   1.199  17.305 -1.5493 -2.0773  0.6455
 5087SOL     OW26896   2.818   4.242  16.060 -0.2770  0.9166  0.2241
 5087SOL    HW126897   2.890   4.288  16.103  1.2445 -1.0462 -0.2055
 5087SOL    HW226898   2.798   4.298  15.986 -1.2928  0.5738  0.2376
 5088SOL     OW26899   0.198   1.732   4.182  0.0120 -0.0064  0.1232
 5088SOL    HW126900   0.181   1.724   4.088  2.4500  1.0174 -0.4000
 5088SOL    HW226901   0.211   1.826   4.194  3.5657 -0.5278  0.2772
 5089SOL     OW26902   1.799   1.277   9.212 -0.6587  0.1452  0.2995
 5089SOL    HW126903   1.708   1.305   9.217 -0.8378 -0.2998 -0.4478
 5089SOL    HW226904   1.832   1.344   9.152  0.0239  0.1794  0.7112
 5090SOL     OW26905   2.677   2.115   3.402  0.0562  0.0429  0.2543
 5090SOL    HW126906   2.630   2.032   3.407  0.3235 -0.0835  0.6453
 5090SOL    HW226907   2.646   2.144   3.316 -0.3017  1.6634  0.9241
 5091SOL     OW26908   0.265   3.815   4.945  0.2525 -0.0803 -0.2905
 5091SOL    HW126909   0.303   3.882   5.001 -1.0258  2.0563 -1.9345
 5091SOL    HW226910   0.170   3.823   4.952  0.6253  1.6494  2.5569
 5092SOL     OW26911   1.340   4.061   1.218 -0.7742  0.1175  0.0087
 5092SOL    HW126912   1.375   4.024   1.299 -0.8006 -0.3371 -0.1895
 5092SOL    HW226913   1.356   3.996   1.149 -0.9126 -0.1370  0.2174
 5093SOL     OW26914   1.905   1.310  13.350 -0.2854 -0.0272 -0.0899
 5093SOL    HW126915   1.933   1.364  13.276  0.5582  0.7116  0.7732
 5093SOL    HW226916   1.821   1.271  13.326 -1.1470  0.8713  1.4768
 5094SOL     OW26917   2.412   0.648   9.429  0.2435 -0.3487  0.3573
 5094SOL    HW126918   2.408   0.578   9.494 -2.2430  0.0013  0.5711
 5094SOL    HW226919   2.497   0.689   9.447  0.4457 -0.9513  0.7703
 5095SOL     OW26920   3.065   2.157   4.746 -0.2454  0.9650 -0.6347
 5095SOL    HW126921   3.021   2.223   4.693 -0.8793  1.0854  0.0314
 5095SOL    HW226922   3.002   2.145   4.818 -0.3067 -0.9334 -1.0266
 5096SOL     OW26923   3.100   3.732   9.311  0.4532 -0.2834 -0.3663
 5096SOL    HW126924   3.195   3.725   9.320  0.5439 -0.0668 -1.1773
 5096SOL    HW226925   3.102   3.804   9.248  2.5169  0.8192  0.9746
 5097SOL     OW26926   1.765   2.485   4.872 -0.3255  0.4762 -0.3620
 5097SOL    HW126927   1.689   2.531   4.908  0.9363  1.9559  0.4064
 5097SOL    HW226928   1.738   2.393   4.880 -0.4934  0.7229  1.8756
 5098SOL     OW26929   4.596   1.640   8.572  0.1625 -0.5073  0.3019
 5098SOL    HW126930   4.601   1.576   8.500 -1.7578 -0.7601  0.3861
 5098SOL    HW226931   4.607   1.586   8.650  0.4513 -0.8565  0.0196
 5099SOL     OW26932   4.329   0.034   7.677 -0.4487 -0.2150  0.5741
 5099SOL    HW126933   4.287   0.120   7.669  2.6349  1.2552  0.1906
 5099SOL    HW226934   4.325   0.031   7.773  3.0938  0.9255  0.7753
 5100SOL     OW26935   0.226   4.589   2.565  0.6606 -0.4754  0.3142
 5100SOL    HW126936   0.276   4.649   2.510  1.1428 -1.0312  0.1462
 5100SOL    HW226937   0.138   4.621   2.545  0.6457 -1.4380 -1.1970
 5101SOL     OW26938   3.938   3.968   0.333  0.1508 -0.4821  0.0966
 5101SOL    HW126939   3.891   4.013   0.262  1.0332  2.0089  1.0603
 5101SOL    HW226940   4.027   4.003   0.326 -0.3165  0.7529  0.2424
 5102SOL     OW26941   1.273   1.327   4.994 -0.1857 -0.5791 -0.6069
 5102SOL    HW126942   1.260   1.403   5.052  2.4655 -1.1992  0.8049
 5102SOL    HW226943   1.260   1.250   5.049 -0.6436 -0.1945 -0.1721
 5103SOL     OW26944   0.726   2.881  11.771  0.4382 -0.1367 -0.0345
 5103SOL    HW126945   0.739   2.975  11.757  0.0961 -0.0866 -0.0102
 5103SOL    HW226946   0.633   2.861  11.770  0.1590  1.1831  0.4059
 5104SOL     OW26947   0.649   4.447   4.904  0.3557 -0.5736 -0.3808
 5104SOL    HW126948   0.681   4.369   4.858  0.1781 -0.9378  0.1271
 5104SOL    HW226949   0.586   4.408   4.964 -0.2017  1.8025  0.5610
 5105SOL     OW26950   4.431   3.874   3.029 -0.0244 -0.3306 -0.5985
 5105SOL    HW126951   4.426   3.809   3.099  1.0399  0.0364 -0.1874
 5105SOL    HW226952   4.516   3.855   2.989  0.3722  0.4263 -0.1015
 5106SOL     OW26953   1.621   4.190   7.704 -0.3275  0.6185 -0.3204
 5106SOL    HW126954   1.556   4.241   7.657 -1.8861 -0.2624  0.8662
 5106SOL    HW226955   1.609   4.111   7.651 -2.0171 -2.4530  4.6206
 5107SOL     OW26956   0.117   1.458   6.568  0.3797 -0.0630 -0.4037
 5107SOL    HW126957   0.172   1.382   6.550 -1.7290 -1.8005  0.4402
 5107SOL    HW226958   0.168   1.504   6.635 -2.4811  0.0758  1.7245
 5108SOL     OW26959   0.383   2.003   8.975  0.0926 -0.0733 -0.0136
 5108SOL    HW126960   0.317   1.976   9.039 -1.1573 -0.3468 -1.4162
 5108SOL    HW226961   0.350   1.964   8.894  2.0233  0.3965 -1.0182
 5109SOL     OW26962   2.998   0.088   6.927 -0.4139  0.2763  0.3001
 5109SOL    HW126963   3.050   0.020   6.968  0.4797  0.9373  0.2603
 5109SOL    HW226964   2.959   0.039   6.855 -0.6833  0.6337  0.1995
 5110SOL     OW26965   2.825   3.653   4.589  0.0957  0.6934 -0.1990
 5110SOL    HW126966   2.806   3.726   4.648 -1.2064 -1.0123  1.4522
 5110SOL    HW226967   2.849   3.586   4.653 -5.2953 -0.2538  0.8209
 5111SOL     OW26968   2.092   2.432   7.325 -0.5932 -0.0196 -0.2680
 5111SOL    HW126969   2.179   2.423   7.285 -0.1856 -0.1024  0.6502
 5111SOL    HW226970   2.051   2.502   7.274 -1.9295 -0.0225  0.8199
 5112SOL     OW26971   0.530   4.222   3.112 -0.3300 -0.0324 -0.0540
 5112SOL    HW126972   0.589   4.204   3.185  0.4540 -2.3020 -1.2420
 5112SOL    HW226973   0.504   4.135   3.081 -1.1560  0.3129 -0.3531
 5113SOL     OW26974   2.552   2.394   2.512 -0.1981  0.4218 -0.1930
 5113SOL    HW126975   2.479   2.454   2.504  1.3336  2.2534 -0.3721
 5113SOL    HW226976   2.538   2.329   2.443 -0.9915  1.0289 -0.6004
 5114SOL     OW26977   0.660   2.064   2.748  0.0990  0.3708  0.0647
 5114SOL    HW126978   0.721   2.096   2.681 -0.2849 -2.4476 -1.6739
 5114SOL    HW226979   0.717   2.030   2.818 -0.7399 -0.4055  0.3685
 5115SOL     OW26980   0.471   1.182   7.183 -0.2152 -0.0812 -0.3515
 5115SOL    HW126981   0.405   1.251   7.188  1.1968  1.1304  1.6496
 5115SOL    HW226982   0.546   1.235   7.209  0.0453 -0.4221 -0.4040
 5116SOL     OW26983   2.009   0.278   4.848  0.0100  0.0825  0.0630
 5116SOL    HW126984   2.041   0.246   4.933 -1.2987 -1.0422  0.1319
 5116SOL    HW226985   1.915   0.259   4.857  0.0717  0.1558  0.9294
 5117SOL     OW26986   1.124   4.422   2.490 -0.1239 -0.2723 -0.3658
 5117SOL    HW126987   1.151   4.416   2.398 -0.2687 -1.0380 -0.3627
 5117SOL    HW226988   1.203   4.424   2.545  0.3510 -0.2740 -1.0370
 5118SOL     OW26989   4.311   0.122  10.490 -0.1256  0.0090  0.3190
 5118SOL    HW126990   4.382   0.058  10.487 -0.2578 -0.0955 -0.8109
 5118SOL    HW226991   4.299   0.143  10.582  1.1476  3.2155 -0.2499
 5119SOL     OW26992   4.524   2.399   5.984  0.1375  0.2212 -0.3806
 5119SOL    HW126993   4.580   2.457   5.933 -0.0376 -0.2857 -1.1358
 5119SOL    HW226994   4.441   2.408   5.937 -0.5041  1.3395  0.9544
 5120SOL     OW26995   0.678   1.325   0.080  0.5775  0.2272 -0.3965
 5120SOL    HW126996   0.691   1.234   0.056 -0.8779 -0.5199  1.7107
 5120SOL    HW226997   0.729   1.365   0.010 -0.0212 -0.1432 -1.0323
 5121SOL     OW26998   3.161   3.661   7.409  0.2430  0.3304  0.0701
 5121SOL    HW126999   3.141   3.682   7.318  1.5665 -0.2552 -0.3622
 5121SOL    HW227000   3.093   3.599   7.434  1.4255 -0.4338  1.4440
 5122SOL     OW27001   0.196   0.270   2.316  0.5877  0.4417  0.2158
 5122SOL    HW127002   0.140   0.283   2.240  3.6466  1.4410 -1.8672
 5122SOL    HW227003   0.239   0.355   2.324  0.5767  0.4291  0.4041
 5123SOL     OW27004   2.323   0.287   4.985  0.2870 -0.0333 -0.3007
 5123SOL    HW127005   2.392   0.353   4.978  0.3386  0.3085  3.7012
 5123SOL    HW227006   2.360   0.231   4.917  0.4465 -0.5430  0.2154
 5124SOL     OW27007   0.785   1.910  17.741  0.5125 -0.1785  0.3745
 5124SOL    HW127008   0.758   1.852  17.670  0.9749  2.0457 -1.6374
 5124SOL    HW227009   0.774   1.851   0.071  1.9313 -0.3067  0.4892
 5125SOL     OW27010   3.542   3.529  13.068 -0.0489  0.0486  0.6985
 5125SOL    HW127011   3.598   3.453  13.076 -1.5016 -0.8893  2.0163
 5125SOL    HW227012   3.601   3.567  13.003 -0.4556 -0.7525 -0.1298
 5126SOL     OW27013   1.446   3.202   4.952 -0.0015  0.2128  0.4485
 5126SOL    HW127014   1.489   3.137   4.897  0.0433  1.8077 -1.4019
 5126SOL    HW227015   1.517   3.264   4.970 -0.4810  0.2590  2.1703
 5127SOL     OW27016   3.250   2.986   8.468  0.1751  0.2126  0.5663
 5127SOL    HW127017   3.191   3.059   8.485 -0.8526 -0.3028 -0.8065
 5127SOL    HW227018   3.285   3.015   8.384  0.7727 -2.0231  0.0512
 5128SOL     OW27019   3.703   1.658   6.224 -0.3864 -0.9115  0.3046
 5128SOL    HW127020   3.641   1.635   6.293 -0.8407  2.8521  1.1491
 5128SOL    HW227021   3.742   1.574   6.200  0.6337  0.1045 -1.5350
 5129SOL     OW27022   4.415   1.141   1.483 -0.7023 -0.0524 -0.1735
 5129SOL    HW127023   4.441   1.057   1.443 -0.2860 -0.5254  1.0826
 5129SOL    HW227024   4.448   1.150   1.572  1.9146 -0.4819 -1.0874
 5130SOL     OW27025   2.504   2.205   8.518  0.1331  0.3906  0.5023
 5130SOL    HW127026   2.535   2.291   8.488  3.1937 -0.7028  0.5288
 5130SOL    HW227027   2.414   2.218   8.488  0.4520 -1.6318 -1.3355
 5131SOL     OW27028   4.592   1.222   2.715 -0.7979  0.0439  0.2056
 5131SOL    HW127029   4.664   1.277   2.747 -1.1478  0.2954  0.5563
 5131SOL    HW227030   4.528   1.216   2.786  0.5100 -1.7658  1.2212
 5132SOL     OW27031   2.107   4.710   9.065  0.3206  0.4299  0.0256
 5132SOL    HW127032   2.047   4.652   9.018 -0.2144  1.5124 -0.6131
 5132SOL    HW227033   2.074   0.060   9.043  3.8228  1.6087 -0.5960
 5133SOL     OW27034   4.376   4.539   2.961 -0.1707  0.1517 -0.1290
 5133SOL    HW127035   4.372   4.486   2.881  0.1892 -2.9184  1.9028
 5133SOL    HW227036   4.469   4.561   2.961 -0.1748  0.1980 -1.1987
 5134SOL     OW27037   0.604   2.463   3.811 -0.3320 -0.6992 -0.0834
 5134SOL    HW127038   0.533   2.525   3.825  1.6440  1.2081  1.4927
 5134SOL    HW227039   0.664   2.531   3.781 -0.0612 -0.6645  0.5465
 5135SOL     OW27040   1.484   1.845   2.541  0.0755 -0.2087 -0.2660
 5135SOL    HW127041   1.538   1.895   2.481  0.3145 -2.3205 -1.8331
 5135SOL    HW227042   1.466   1.913   2.606 -0.2929  0.8722 -1.4964
 5136SOL     OW27043   0.288   2.655   9.507  0.0547 -0.0839  0.6227
 5136SOL    HW127044   0.261   2.729   9.452 -4.0479 -1.9683  0.1043
 5136SOL    HW227045   0.279   2.696   9.592 -2.0313 -1.0470  0.8578
 5137SOL     OW27046   1.722   3.356   3.494 -0.2662 -0.3236  0.2546
 5137SOL    HW127047   1.794   3.342   3.555  0.9186 -0.5532 -1.1819
 5137SOL    HW227048   1.685   3.267   3.491  1.8531 -1.2468  1.7257
 5138SOL     OW27049   3.061   0.962   4.680  0.3678  0.1113 -0.3103
 5138SOL    HW127050   3.099   1.035   4.729 -3.0203  0.3842  1.9528
 5138SOL    HW227051   3.016   1.000   4.605 -1.2243  1.4227  1.2803
 5139SOL     OW27052   2.371   3.433   2.023  0.7277  0.5326  0.1896
 5139SOL    HW127053   2.299   3.374   2.001  0.7343  1.4352 -2.2444
 5139SOL    HW227054   2.443   3.399   1.970 -0.3447  0.7191 -1.3984
 5140SOL     OW27055   2.679   0.294   5.178  0.2663  0.4714  0.0872
 5140SOL    HW127056   2.606   0.305   5.239 -1.0558 -0.1390 -1.4079
 5140SOL    HW227057   2.668   0.208   5.138  0.2501 -0.0392  1.1943
 5141SOL     OW27058   0.925   4.396   7.326 -0.5978 -0.1738 -0.2546
 5141SOL    HW127059   0.919   4.400   7.231 -1.3437 -2.4540 -0.2964
 5141SOL    HW227060   1.007   4.438   7.354 -1.3926  1.3778 -0.2396
 5142SOL     OW27061   1.493   2.831  16.722 -0.5818 -0.0458  1.0609
 5142SOL    HW127062   1.512   2.820  16.629 -0.5089  1.5893  0.8839
 5142SOL    HW227063   1.419   2.889  16.709  0.2683  0.8013  0.0498
 5143SOL     OW27064   0.423   3.696   4.194  0.1483 -0.5470  0.3385
 5143SOL    HW127065   0.336   3.735   4.188 -0.3894 -1.4271  2.2392
 5143SOL    HW227066   0.453   3.710   4.283  0.6369  2.1908 -0.2731
 5144SOL     OW27067   3.310   1.250  12.240  0.0954 -0.3754 -0.5656
 5144SOL    HW127068   3.221   1.222  12.219  0.0551 -1.6104  1.2042
 5144SOL    HW227069   3.360   1.213  12.167  0.8963 -0.6728  0.1376
 5145SOL     OW27070   2.060   4.665   1.900 -0.3700  0.2143  0.0875
 5145SOL    HW127071   2.097   4.612   1.970 -1.8792  0.6473  1.1939
 5145SOL    HW227072   1.973   4.689   1.931 -0.8755 -0.8817 -0.4871
 5146SOL     OW27073   3.614   1.467   4.209 -0.4760 -0.0574 -0.2457
 5146SOL    HW127074   3.628   1.527   4.136  1.3040  1.8614  1.6604
 5146SOL    HW227075   3.536   1.508   4.246 -0.9710 -2.1233  1.0283
 5147SOL     OW27076   0.318   3.554  14.924 -0.6787  0.0171 -0.2158
 5147SOL    HW127077   0.346   3.545  15.015 -0.6410 -1.9530 -0.4246
 5147SOL    HW227078   0.266   3.478  14.897 -0.9913  0.3543 -0.5651
 5148SOL     OW27079   3.696   1.287   9.256 -0.5919  0.4696  0.7174
 5148SOL    HW127080   3.735   1.216   9.205 -0.2989  1.2502 -0.1462
 5148SOL    HW227081   3.601   1.275   9.250 -0.5920  1.0976 -0.5108
 5149SOL     OW27082   1.659   4.214   6.479 -0.2338 -0.0502  0.2345
 5149SOL    HW127083   1.653   4.279   6.549 -1.0902 -0.2231  0.3206
 5149SOL    HW227084   1.586   4.251   6.428  0.8156 -0.7656 -1.7908
 5150SOL     OW27085   2.764   1.150   8.570 -0.1441  0.4900 -0.3373
 5150SOL    HW127086   2.847   1.112   8.599  0.2428  1.3805 -0.2796
 5150SOL    HW227087   2.799   1.232   8.535 -2.4812  1.8945  0.5874
 5151SOL     OW27088   2.345   1.437  12.517  0.5074  0.0549 -0.4136
 5151SOL    HW127089   2.393   1.446  12.599 -0.3958 -0.6508  0.1942
 5151SOL    HW227090   2.411   1.395  12.463  1.0281 -2.7013  2.3895
 5152SOL     OW27091   3.301   2.050   7.725  0.3537  0.1091 -0.5449
 5152SOL    HW127092   3.325   1.990   7.655  2.0194 -1.0781  1.0226
 5152SOL    HW227093   3.218   2.085   7.692  0.2352  0.8144  0.4954
 5153SOL     OW27094   4.513   0.771   2.439 -0.0977  0.1448  0.1730
 5153SOL    HW127095   4.533   0.837   2.506  0.4550 -0.2774  0.4198
 5153SOL    HW227096   4.537   0.826   2.364  1.3034 -0.9425 -0.1586
 5154SOL     OW27097   4.129   2.805  13.012 -0.0917  0.3665  0.1000
 5154SOL    HW127098   4.071   2.880  13.022 -0.4738  0.0739  0.0796
 5154SOL    HW227099   4.157   2.806  12.921  0.5170 -3.5889  0.2017
 5155SOL     OW27100   0.051   0.733   6.823  0.1178  0.5064  0.5860
 5155SOL    HW127101   0.091   0.647   6.823 -0.4654  0.2357  0.4595
 5155SOL    HW227102   0.021   0.722   6.733  4.1251 -0.9391 -0.5323
 5156SOL     OW27103   3.026   1.614   6.196  0.2439  0.1823  0.2840
 5156SOL    HW127104   3.080   1.616   6.275  0.8802 -0.0452 -0.1480
 5156SOL    HW227105   3.065   1.556   6.131  2.2293  3.3122 -1.3069
 5157SOL     OW27106   0.570   4.437   8.542  0.1163 -0.1160  0.1971
 5157SOL    HW127107   0.634   4.374   8.508  0.5813  0.1255  0.6415
 5157SOL    HW227108   0.498   4.375   8.556 -0.6244  1.1089  1.7793
 5158SOL     OW27109   1.384   2.578   3.196  0.1499  0.0447  0.1730
 5158SOL    HW127110   1.392   2.483   3.190  1.7530  0.1414  0.7115
 5158SOL    HW227111   1.459   2.616   3.151  0.0150 -1.6052 -1.4339
 5159SOL     OW27112   2.679   4.126   2.597 -0.9298  0.5564  0.6185
 5159SOL    HW127113   2.726   4.131   2.513  0.5377  0.6917  1.4501
 5159SOL    HW227114   2.649   4.035   2.602 -1.4829  0.6526 -0.7767
 5160SOL     OW27115   4.299   1.807   9.374  0.2761 -0.0769 -0.2501
 5160SOL    HW127116   4.289   1.731   9.431 -1.2541  0.8924  0.7921
 5160SOL    HW227117   4.344   1.770   9.298  0.4304 -3.2604  1.4181
 5161SOL     OW27118   1.023   0.560   4.440 -0.1105  0.1911 -0.0448
 5161SOL    HW127119   1.079   0.495   4.482 -0.5804  0.5044  1.0609
 5161SOL    HW227120   1.085   0.629   4.415 -0.7743  0.7492 -0.1624
 5162SOL     OW27121   1.704   2.388   8.137 -0.2727  0.4278  0.4869
 5162SOL    HW127122   1.680   2.346   8.054 -0.8378  0.4008  0.6599
 5162SOL    HW227123   1.799   2.381   8.142 -0.3064  0.6473  1.3527
 5163SOL     OW27124   4.402   2.700   1.912  0.0432  0.1905 -0.2593
 5163SOL    HW127125   4.371   2.775   1.963 -0.9098 -1.4385  1.5328
 5163SOL    HW227126   4.416   2.741   1.826  1.2331 -2.5235 -1.3421
 5164SOL     OW27127   3.031   1.149   7.477  0.6237 -0.8471 -0.1216
 5164SOL    HW127128   3.079   1.070   7.502 -1.3226 -1.9063  0.3086
 5164SOL    HW227129   2.952   1.115   7.519  0.0429  1.4537  0.6258
 5165SOL     OW27130   0.367   0.646   2.743 -0.3379 -0.3112  0.6646
 5165SOL    HW127131   0.370   0.713   2.811  1.6537  1.3729 -1.0781
 5165SOL    HW227132   0.304   0.675   2.676  1.9111  0.2246 -1.2492
 5166SOL     OW27133   1.766   1.832  16.359  0.3989 -0.1135 -0.0527
 5166SOL    HW127134   1.810   1.791  16.285  2.3164  0.7882  0.5831
 5166SOL    HW227135   1.766   1.751  16.410 -0.2288  0.3835  0.7590
 5167SOL     OW27136   3.398   1.542   8.063  0.0293  0.0585 -0.3574
 5167SOL    HW127137   3.449   1.510   7.988  0.8060 -0.8154  0.5581
 5167SOL    HW227138   3.339   1.601   8.015 -0.4324  0.3110  0.5109
 5168SOL     OW27139   2.327   2.249   5.379  0.0693 -0.0197 -0.3243
 5168SOL    HW127140   2.308   2.338   5.411 -0.9282  0.2855 -1.7814
 5168SOL    HW227141   2.313   2.268   5.286 -1.0726 -0.3226 -0.2117
 5169SOL     OW27142   1.884   2.688  14.393 -0.3370 -0.4778  0.3960
 5169SOL    HW127143   1.910   2.609  14.347 -0.2810  0.3545 -0.9835
 5169SOL    HW227144   1.850   2.651  14.475 -0.3822 -2.2326 -0.4320
 5170SOL     OW27145   1.792   1.839   7.568  0.5763 -0.1328  0.4209
 5170SOL    HW127146   1.849   1.766   7.544 -0.0971 -0.6793  0.4576
 5170SOL    HW227147   1.791   1.894   7.490 -0.7026  0.4405  0.8433
 5171SOL     OW27148   0.976   1.953   0.698  0.2520 -0.2789  0.0997
 5171SOL    HW127149   0.969   2.042   0.665 -1.8203 -0.3710  0.3061
 5171SOL    HW227150   0.977   1.898   0.620 -0.1465  1.2125 -0.9571
 5172SOL     OW27151   4.474   1.302   7.053  0.2672  0.2526  0.4006
 5172SOL    HW127152   4.438   1.390   7.069 -0.0680  0.5817 -2.1933
 5172SOL    HW227153   4.548   1.318   6.995  1.7840 -4.0271  1.1967
 5173SOL     OW27154   0.486   4.518   8.978  0.0124 -0.3867 -0.1704
 5173SOL    HW127155   0.562   4.487   8.930  0.3213 -0.3656  0.3035
 5173SOL    HW227156   0.535   4.573   9.040 -1.4472  0.6326  0.0890
 5174SOL     OW27157   4.524   2.472   3.831  0.0319 -0.0517  0.5898
 5174SOL    HW127158   4.515   2.504   3.921 -2.7424 -1.0255  0.6238
 5174SOL    HW227159   4.551   2.385   3.861  0.5413 -0.2865 -0.5425
 5175SOL     OW27160   4.733   3.120   2.516 -0.1942  0.4362 -0.2209
 5175SOL    HW127161   0.085   3.087   2.529  0.4802  1.3366 -2.7177
 5175SOL    HW227162   4.735   3.168   2.434  3.5752  0.7508  0.0765
 5176SOL     OW27163   2.053   0.229   8.603 -0.2434  0.2433  0.0479
 5176SOL    HW127164   1.986   0.180   8.556  0.1839 -1.5218  1.2569
 5176SOL    HW227165   2.095   0.160   8.654 -1.0209  1.3439  2.1395
 5177SOL     OW27166   0.186   4.488  12.026 -0.4590  0.0790  0.0855
 5177SOL    HW127167   0.275   4.474  12.057 -0.1999 -2.5570 -1.8046
 5177SOL    HW227168   0.140   4.467  12.107 -0.7520  2.0479  0.4400
 5178SOL     OW27169   1.029   4.246  17.119 -0.7419  0.0090  0.0561
 5178SOL    HW127170   1.052   4.334  17.088  0.6320 -0.0979  0.7954
 5178SOL    HW227171   1.110   4.196  17.113 -1.8872 -1.4051 -3.5512
 5179SOL     OW27172   0.334   0.186   3.525  0.6342 -0.4286  0.7221
 5179SOL    HW127173   0.382   0.113   3.565  3.6090  1.1434 -0.0265
 5179SOL    HW227174   0.306   0.148   3.442 -1.5366 -0.1227  1.3162
 5180SOL     OW27175   3.303   1.450   8.573  0.1032  0.3576 -0.4041
 5180SOL    HW127176   3.253   1.509   8.517  0.6238 -0.4325 -1.6986
 5180SOL    HW227177   3.228   1.427   8.629 -0.4508 -0.2695 -1.4064
 5181SOL     OW27178   0.135   4.326   2.925 -0.1981  0.0514 -0.4988
 5181SOL    HW127179   0.060   4.376   2.957 -2.5429 -2.9823 -1.1848
 5181SOL    HW227180   0.084   4.278   2.859  0.4144  2.2401 -2.5701
 5182SOL     OW27181   0.383   1.857   3.935  0.0442 -0.3033 -0.2667
 5182SOL    HW127182   0.399   1.765   3.914  2.3929  0.6812 -2.9342
 5182SOL    HW227183   0.461   1.893   3.891  0.9730  0.7322  2.2045
 5183SOL     OW27184   0.923   2.589   4.191 -0.6644  0.4400 -0.0325
 5183SOL    HW127185   0.839   2.608   4.149 -1.1190 -0.4073  0.4967
 5183SOL    HW227186   0.980   2.658   4.156  0.6434 -0.8431 -0.4009
 5184SOL     OW27187   4.032   1.864   1.197  0.0614 -0.2711  0.4999
 5184SOL    HW127188   4.059   1.883   1.286 -0.8504 -0.0220  0.7215
 5184SOL    HW227189   4.099   1.906   1.143 -4.0792  1.3687 -3.4022
 5185SOL     OW27190   3.281   4.098   9.385 -0.9733 -0.3755 -0.1741
 5185SOL    HW127191   3.377   4.094   9.377 -0.9029 -0.1109  0.5245
 5185SOL    HW227192   3.264   4.184   9.424 -0.5445 -0.6841  0.6721
 5186SOL     OW27193   3.807   1.523   9.402 -0.1209 -0.7883  0.1913
 5186SOL    HW127194   3.729   1.522   9.346  0.6929 -2.2048 -0.8956
 5186SOL    HW227195   3.856   1.451   9.363  1.0111 -0.4342  0.9653
 5187SOL     OW27196   2.844   1.914   5.817 -0.2387  0.4241 -0.2130
 5187SOL    HW127197   2.808   1.933   5.904  0.2806 -0.9234  0.2844
 5187SOL    HW227198   2.930   1.957   5.825 -0.0556 -0.2978  1.9168
 5188SOL     OW27199   3.538   2.872   7.541  0.5968 -0.2553  0.1503
 5188SOL    HW127200   3.574   2.787   7.517 -0.6934 -0.2735 -1.7841
 5188SOL    HW227201   3.525   2.862   7.635  2.6941  0.1709  0.4801
 5189SOL     OW27202   3.259   2.895   1.461 -0.5550  0.1663 -0.0189
 5189SOL    HW127203   3.354   2.905   1.471 -0.5968 -0.1775  0.6869
 5189SOL    HW227204   3.230   2.986   1.450 -1.0461 -0.0886 -0.8340
 5190SOL     OW27205   1.693   0.361  16.789 -0.3622 -0.0149  0.1870
 5190SOL    HW127206   1.732   0.321  16.866  2.2816 -1.0283 -1.6672
 5190SOL    HW227207   1.598   0.349  16.794 -0.2040 -1.8663 -1.2115
 5191SOL     OW27208   1.391   2.097   7.826 -0.0932 -0.6472  0.6899
 5191SOL    HW127209   1.453   2.041   7.873 -1.1571 -2.6004 -0.2572
 5191SOL    HW227210   1.365   2.026   7.768  1.8572  0.2635 -1.2915
 5192SOL     OW27211   2.713   2.413   4.444  0.1698 -0.2556  0.2236
 5192SOL    HW127212   2.747   2.420   4.355 -0.5454  2.1043  0.1139
 5192SOL    HW227213   2.715   2.502   4.480 -0.2594  0.0649 -0.5556
 5193SOL     OW27214   4.373   3.650   8.851  0.4188 -0.0176  0.6168
 5193SOL    HW127215   4.361   3.582   8.918  0.4852  0.3982  1.0479
 5193SOL    HW227216   4.306   3.623   8.788  1.0197  0.5887 -0.2723
 5194SOL     OW27217   1.477   4.638   3.059 -0.1501  0.8244 -0.3709
 5194SOL    HW127218   1.459   4.566   3.119 -0.8867  0.2582 -1.2813
 5194SOL    HW227219   1.416   4.708   3.081  0.5341  0.9889  1.0723
 5195SOL     OW27220   2.830   3.195   3.014 -0.1893  0.2429  0.1948
 5195SOL    HW127221   2.873   3.272   3.051  0.9242 -0.1182 -0.3331
 5195SOL    HW227222   2.894   3.164   2.950 -1.4327  0.0675 -0.9523
 5196SOL     OW27223   3.242   0.306   9.106 -0.1178 -0.4512  0.0706
 5196SOL    HW127224   3.291   0.379   9.144  0.2307  0.0708 -1.4164
 5196SOL    HW227225   3.157   0.344   9.085 -1.3381 -3.7620 -1.0341
 5197SOL     OW27226   1.835   1.047  11.343 -0.7025 -0.0551 -0.0813
 5197SOL    HW127227   1.842   0.989  11.418  0.1035 -1.3680 -1.1592
 5197SOL    HW227228   1.879   1.123  11.379 -0.4560 -0.0730 -0.3417
 5198SOL     OW27229   3.668   2.242  17.647  0.4691 -1.1571  0.7031
 5198SOL    HW127230   3.631   2.314  17.596  0.7749 -0.5679  1.3184
 5198SOL    HW227231   3.732   2.216  17.580  1.9131 -2.1976  2.5000
 5199SOL     OW27232   2.339   1.539  12.792  0.4406  0.0372 -0.0714
 5199SOL    HW127233   2.369   1.464  12.843 -0.9492  0.4320  1.3378
 5199SOL    HW227234   2.327   1.597  12.867  1.2529  1.0977 -0.7658
 5200SOL     OW27235   3.134   3.422   8.915  0.2385 -0.4210 -0.0844
 5200SOL    HW127236   3.079   3.425   8.837 -0.9869  0.9259  0.8156
 5200SOL    HW227237   3.079   3.474   8.974 -0.1012  0.9288 -1.5812
 5201SOL     OW27238   4.023   2.613   9.146 -0.1837 -0.0739  0.7757
 5201SOL    HW127239   4.084   2.556   9.194  0.6000 -2.8112 -3.4671
 5201SOL    HW227240   4.015   2.685   9.208 -1.0692 -0.1541  0.7472
 5202SOL     OW27241   2.104   3.236  14.711  0.1632 -0.3276 -0.5356
 5202SOL    HW127242   2.029   3.277  14.669 -0.3302  0.1336  0.8024
 5202SOL    HW227243   2.178   3.272  14.663  0.1370 -0.2727 -0.5344
 5203SOL     OW27244   4.597   0.961   2.610  0.0674  0.2639  0.1044
 5203SOL    HW127245   4.596   1.057   2.602  2.6116  0.2980  0.1670
 5203SOL    HW227246   4.681   0.950   2.654  0.9459  0.2953 -1.5701
 5204SOL     OW27247   3.119   1.176   1.888 -0.5596 -0.5530 -0.0515
 5204SOL    HW127248   3.120   1.158   1.982 -2.8335 -0.2370  0.0284
 5204SOL    HW227249   3.025   1.188   1.875 -0.3125 -0.7557 -1.9424
 5205SOL     OW27250   1.289   2.191   6.793  0.1762  0.1991  0.0606
 5205SOL    HW127251   1.274   2.116   6.735 -2.1941  0.0362  0.8843
 5205SOL    HW227252   1.344   2.144   6.855 -2.2494 -1.1956  1.1631
 5206SOL     OW27253   0.238   0.955   3.604  0.7341 -0.2767  0.1912
 5206SOL    HW127254   0.193   0.873   3.586 -0.5765  0.2318  1.1293
 5206SOL    HW227255   0.290   0.932   3.681 -2.2086  0.4039  2.4033
 5207SOL     OW27256   2.744   3.846  12.393  0.8116 -0.2127 -0.0432
 5207SOL    HW127257   2.776   3.877  12.308  2.4132 -0.7741  0.3581
 5207SOL    HW227258   2.703   3.922  12.435  0.1644 -0.8131  0.4199
 5208SOL     OW27259   3.707   3.885   5.592 -0.0791  0.2877 -0.5705
 5208SOL    HW127260   3.771   3.850   5.530  0.8540  1.7206 -0.4002
 5208SOL    HW227261   3.678   3.807   5.640 -0.5336  0.3318 -0.7816
 5209SOL     OW27262   4.662   2.806   9.901 -0.4964  0.4975 -0.2760
 5209SOL    HW127263   4.710   2.737   9.855  1.9911  1.7036  0.5586
 5209SOL    HW227264   4.600   2.824   9.830  1.2068 -2.5852 -2.5206
 5210SOL     OW27265   4.516   2.211  12.101  0.0079  0.4703  0.4398
 5210SOL    HW127266   4.530   2.231  12.194 -0.2157 -0.3602  0.6585
 5210SOL    HW227267   4.553   2.124  12.088 -1.3369 -0.1706  0.8385
 5211SOL     OW27268   3.351   2.446   3.089  0.1585  0.1432 -0.3082
 5211SOL    HW127269   3.329   2.532   3.125  4.1859  1.2034 -0.3587
 5211SOL    HW227270   3.393   2.474   3.008  1.1945 -1.1549 -0.2131
 5212SOL     OW27271   2.393   1.449  10.634  0.0790 -0.0810 -0.0191
 5212SOL    HW127272   2.422   1.473  10.546 -0.0135 -1.0418 -0.3176
 5212SOL    HW227273   2.478   1.447  10.679  0.8146 -1.1172 -1.4558
 5213SOL     OW27274   1.884   1.534   7.201 -0.2175  0.1528 -0.7077
 5213SOL    HW127275   1.966   1.583   7.192  0.5460 -1.1031 -0.5725
 5213SOL    HW227276   1.889   1.504   7.291 -0.5481  1.2802 -0.3132
 5214SOL     OW27277   4.251   0.376   2.640  0.2940 -1.0497 -0.7122
 5214SOL    HW127278   4.262   0.316   2.566 -1.5530 -0.7622 -1.2141
 5214SOL    HW227279   4.219   0.311   2.703 -2.2313  0.6547 -0.2682
 5215SOL     OW27280   2.745   4.428   6.387  0.1764 -0.8033  0.2823
 5215SOL    HW127281   2.716   4.493   6.452  0.3896  0.2161 -0.6526
 5215SOL    HW227282   2.826   4.396   6.427  0.2828 -1.0821 -0.1545
 5216SOL     OW27283   2.015   2.959   5.353  0.0107  0.2248  0.1818
 5216SOL    HW127284   1.936   2.992   5.396 -0.3171  0.7302 -0.8149
 5216SOL    HW227285   2.044   2.898   5.420 -1.8133 -0.4431  0.3726
 5217SOL     OW27286   3.278   0.093  11.232 -0.0508 -0.3495  0.2852
 5217SOL    HW127287   3.322   0.040  11.298  0.3108  1.6192  1.6008
 5217SOL    HW227288   3.247   0.170  11.279  1.7698  0.9311 -0.6380
 5218SOL     OW27289   4.163   3.503   5.727  0.2197  0.6028 -0.5965
 5218SOL    HW127290   4.252   3.467   5.720 -0.2610 -1.1339  2.2323
 5218SOL    HW227291   4.173   3.592   5.691 -0.3969  1.0884  0.4400
 5219SOL     OW27292   4.337   4.239  10.360 -0.1462 -0.1629  0.5093
 5219SOL    HW127293   4.270   4.302  10.333 -0.6841 -1.2817 -0.7926
 5219SOL    HW227294   4.274   4.175  10.395 -0.1060 -0.7530 -0.4893
 5220SOL     OW27295   3.641   0.952  14.385  0.0098 -0.0419  0.2235
 5220SOL    HW127296   3.588   0.929  14.461  0.2718 -0.2076  0.3553
 5220SOL    HW227297   3.581   0.970  14.312 -1.7526  1.6951  2.1070
 5221SOL     OW27298   2.394   1.980   5.904  0.3845  0.2578  1.0030
 5221SOL    HW127299   2.407   1.889   5.928 -1.1328 -0.1401  0.3308
 5221SOL    HW227300   2.394   1.985   5.808 -0.7914 -0.8687  0.9504
 5222SOL     OW27301   0.711   2.108  10.904  0.3458 -0.0272 -0.1131
 5222SOL    HW127302   0.758   2.033  10.942  1.3066 -0.4466 -2.1064
 5222SOL    HW227303   0.684   2.151  10.985 -1.2612 -1.9083  0.3372
 5223SOL     OW27304   2.417   4.160   5.793 -0.1077  0.8074  0.5682
 5223SOL    HW127305   2.499   4.145   5.840  0.8108 -1.4833 -1.7785
 5223SOL    HW227306   2.356   4.151   5.866 -0.9319  2.1305  0.0346
 5224SOL     OW27307   1.115   2.159   7.105  0.1618  0.0157 -0.5123
 5224SOL    HW127308   1.069   2.092   7.156 -0.4213  1.1099  0.4022
 5224SOL    HW227309   1.059   2.164   7.027 -2.1465 -1.0395  1.0765
 5225SOL     OW27310   0.038   0.988   3.974  0.1957 -0.5755 -0.3368
 5225SOL    HW127311   0.026   0.926   3.902 -1.2768 -2.8105  1.8073
 5225SOL    HW227312   0.123   0.953   3.998  0.8828 -0.4580 -2.6169
 5226SOL     OW27313   1.227   4.524   8.552 -0.5699  0.6084  0.1272
 5226SOL    HW127314   1.214   4.431   8.569  0.5178  0.5949  0.8759
 5226SOL    HW227315   1.197   4.523   8.461  0.8832  0.2675 -0.3438
 5227SOL     OW27316   3.346   0.133   8.436 -0.0233 -0.2462  0.4915
 5227SOL    HW127317   3.407   0.144   8.362 -0.0846 -1.5942  0.2482
 5227SOL    HW227318   3.385   0.055   8.474 -1.1754 -1.1654 -0.2192
 5228SOL     OW27319   4.053   1.917  16.308  0.0937 -0.1438 -0.3723
 5228SOL    HW127320   4.123   1.934  16.245  0.6265  2.3589  0.9067
 5228SOL    HW227321   4.065   1.822  16.306  1.2671  0.0311 -1.4067
 5229SOL     OW27322   2.832   1.551  10.911 -0.2713 -0.2179 -0.4687
 5229SOL    HW127323   2.912   1.515  10.871  0.0442  0.6250 -0.5874
 5229SOL    HW227324   2.865   1.634  10.947 -3.6593 -0.0247  2.2177
 5230SOL     OW27325   2.670   3.539   2.687 -0.0247  0.2060 -0.1815
 5230SOL    HW127326   2.719   3.528   2.768 -1.3722 -1.4280  0.4156
 5230SOL    HW227327   2.587   3.575   2.717 -1.0306 -3.4600  1.4452
 5231SOL     OW27328   2.236   2.801   2.223  0.4790 -0.0653 -0.0931
 5231SOL    HW127329   2.142   2.791   2.212  0.5755  0.0989 -1.0678
 5231SOL    HW227330   2.239   2.895   2.204 -0.2653  0.0526  0.3673
 5232SOL     OW27331   2.348   3.105   0.675  0.3868 -0.9438  0.2072
 5232SOL    HW127332   2.432   3.144   0.697 -2.1025  3.9934  1.0976
 5232SOL    HW227333   2.283   3.165   0.712 -0.1737 -1.7925  0.5855
 5233SOL     OW27334   0.186   2.314   6.524 -0.0639 -0.6322 -0.1519
 5233SOL    HW127335   0.114   2.378   6.524  0.7446  0.2831 -1.7696
 5233SOL    HW227336   0.138   2.254   6.580  0.8858 -1.2260  0.0255
 5234SOL     OW27337   1.128   1.701   7.716 -0.3078  0.4949  0.4217
 5234SOL    HW127338   1.204   1.686   7.660  0.0670 -2.1784  1.6674
 5234SOL    HW227339   1.173   1.725   7.797 -0.2813 -0.7597  0.7806
 5235SOL     OW27340   2.097   1.759   6.821  0.5553 -0.4154  0.5690
 5235SOL    HW127341   2.013   1.786   6.783  0.2786 -0.0996  1.3948
 5235SOL    HW227342   2.092   1.670   6.788  0.0615  0.7442 -2.4345
 5236SOL     OW27343   1.786   0.310   4.253 -0.1782 -0.0216  0.0337
 5236SOL    HW127344   1.747   0.318   4.166 -1.4583  1.2768  0.7315
 5236SOL    HW227345   1.813   0.399   4.275  0.5250 -0.5238  1.2127
 5237SOL     OW27346   1.551   0.318   7.092  0.0507 -0.1414  0.7132
 5237SOL    HW127347   1.566   0.256   7.163  3.5199  0.8011  0.8332
 5237SOL    HW227348   1.572   0.400   7.136  0.1203 -1.8846  3.8944
 5238SOL     OW27349   3.715   4.052   7.606  0.5732 -0.0109 -0.0274
 5238SOL    HW127350   3.806   4.064   7.633  0.2832  1.7476  0.2249
 5238SOL    HW227351   3.677   4.015   7.685  2.9292 -1.2455  0.5230
 5239SOL     OW27352   2.426   0.441   9.644 -0.1306 -0.2019 -0.0535
 5239SOL    HW127353   2.518   0.431   9.669 -0.0220 -1.0531 -0.8168
 5239SOL    HW227354   2.392   0.359   9.609 -0.9361 -0.0938  0.4835
 5240SOL     OW27355   2.420   3.302   9.700 -0.3427 -0.4689  1.0325
 5240SOL    HW127356   2.383   3.218   9.676  0.0196 -0.7664  1.5035
 5240SOL    HW227357   2.364   3.309   9.777 -1.1240 -0.6531  0.4676
 5241SOL     OW27358   0.904   0.775   2.410  0.1955 -0.0020  0.0349
 5241SOL    HW127359   0.847   0.725   2.467 -2.5578 -0.7394 -3.3959
 5241SOL    HW227360   0.932   0.844   2.471  0.0409  0.3322 -0.2739
 5242SOL     OW27361   1.352   2.278   2.799  0.1723 -0.1031  0.7360
 5242SOL    HW127362   1.434   2.314   2.830  0.2009  0.6248 -0.1896
 5242SOL    HW227363   1.294   2.351   2.820  1.3176  0.6745  1.1684
 5243SOL     OW27364   3.368   1.621   4.252  0.2867 -0.0239  0.2978
 5243SOL    HW127365   3.349   1.709   4.218 -1.7664 -1.6349 -2.6463
 5243SOL    HW227366   3.291   1.568   4.234 -0.2508  1.7248 -2.5464
 5244SOL     OW27367   3.522   2.501   1.957 -0.1589  0.2419 -0.9730
 5244SOL    HW127368   3.510   2.474   1.866  0.4888 -1.0995 -0.6664
 5244SOL    HW227369   3.504   2.592   1.936  2.5876  1.0654  0.2278
 5245SOL     OW27370   1.716   2.329   4.578 -0.7451  0.0364 -0.0281
 5245SOL    HW127371   1.711   2.344   4.672 -1.5657  0.4110 -0.1349
 5245SOL    HW227372   1.804   2.359   4.552 -0.5392  0.0338  0.6663
 5246SOL     OW27373   1.867   2.211  14.381 -0.1049 -0.4640  0.0252
 5246SOL    HW127374   1.933   2.215  14.450  2.1458  2.2219 -2.2789
 5246SOL    HW227375   1.791   2.263  14.407  0.3523  0.2407 -0.0487
 5247SOL     OW27376   3.463   2.091   1.218  0.4467  0.7333  0.4274
 5247SOL    HW127377   3.438   2.176   1.181  0.9002  0.1796 -1.1385
 5247SOL    HW227378   3.472   2.037   1.139 -1.4325  0.9796  0.0381
 5248SOL     OW27379   0.588   0.241   6.821  0.5341 -0.0038  0.5171
 5248SOL    HW127380   0.587   0.146   6.836 -2.8013 -0.3409 -1.7795
 5248SOL    HW227381   0.678   0.241   6.789  1.4135  2.3711  3.0529
 5249SOL     OW27382   2.590   3.457   4.684  0.4869 -0.6758  0.4832
 5249SOL    HW127383   2.684   3.470   4.676  0.6332 -0.9404  1.7115
 5249SOL    HW227384   2.600   3.430   4.775  0.7770  1.1696  1.0069
 5250SOL     OW27385   0.748   4.279   5.380  0.0940 -0.5608 -0.2994
 5250SOL    HW127386   0.677   4.336   5.352 -0.2357  0.1319  1.9368
 5250SOL    HW227387   0.696   4.199   5.391  1.2924 -1.2808  0.0263
 5251SOL     OW27388   1.365   0.010   1.259 -0.8684 -0.0285 -0.5003
 5251SOL    HW127389   1.386   4.654   1.274 -0.0365 -0.1659 -2.3944
 5251SOL    HW227390   1.444   0.042   1.302  0.5743 -1.9264 -1.7461
 5252SOL     OW27391   4.167   0.555   7.319 -0.0858  0.2525  0.0930
 5252SOL    HW127392   4.144   0.467   7.350 -0.5748  0.2443 -0.2829
 5252SOL    HW227393   4.196   0.595   7.401  1.7166  0.0072 -0.4277
 5253SOL     OW27394   2.607   3.589  14.731  0.0121  0.7435  0.4195
 5253SOL    HW127395   2.589   3.497  14.749  1.5704  0.4652  0.5867
 5253SOL    HW227396   2.701   3.596  14.714  0.1992 -1.0872  0.7020
 5254SOL     OW27397   0.863   1.438   3.401  0.2016  0.5314  0.3811
 5254SOL    HW127398   0.923   1.511   3.390  0.6256 -0.1005 -1.5311
 5254SOL    HW227399   0.781   1.480   3.430 -0.0375  1.5326 -1.7450
 5255SOL     OW27400   3.182   4.054   4.360 -0.4238 -0.5797  0.3179
 5255SOL    HW127401   3.197   4.131   4.305 -0.0968  0.5922  2.0576
 5255SOL    HW227402   3.208   3.975   4.313 -0.3583 -0.8555  0.8141
 5256SOL     OW27403   2.143   1.644   7.219  0.1355  0.1194 -0.6763
 5256SOL    HW127404   2.185   1.567   7.257 -0.6092  0.7333  1.3957
 5256SOL    HW227405   2.222   1.684   7.183  0.6238 -1.2007 -1.0748
 5257SOL     OW27406   3.671   0.880   4.247  0.1979 -0.1705  0.5423
 5257SOL    HW127407   3.605   0.816   4.221 -0.0841  0.5691 -0.5772
 5257SOL    HW227408   3.751   0.829   4.259  0.7789 -0.0028 -2.6512
 5258SOL     OW27409   1.687   0.055   5.720 -0.5803  0.0151  0.3854
 5258SOL    HW127410   1.646   0.125   5.670 -0.9581 -1.0527 -0.8014
 5258SOL    HW227411   1.763   0.105   5.751 -1.4077  2.1109 -0.9628
 5259SOL     OW27412   2.608   2.959   1.089 -0.0670 -0.4282  0.6292
 5259SOL    HW127413   2.520   2.933   1.063 -0.7389  1.2072  1.2330
 5259SOL    HW227414   2.586   3.008   1.169  0.1758 -0.8193  0.9364
 5260SOL     OW27415   3.717   1.697   3.005  0.0746  0.3808  0.4175
 5260SOL    HW127416   3.802   1.715   2.964  0.6287 -0.7229  1.0990
 5260SOL    HW227417   3.661   1.755   2.953  1.2173  0.6231 -0.5430
 5261SOL     OW27418   3.740   3.849   1.581 -0.5456  0.3695 -0.7848
 5261SOL    HW127419   3.649   3.855   1.551 -0.2557  2.3925 -1.3290
 5261SOL    HW227420   3.774   3.772   1.536  1.9435  0.7737  0.4240
 5262SOL     OW27421   1.145   0.522  16.319  0.1579  0.2711 -1.0223
 5262SOL    HW127422   1.232   0.538  16.284  0.6608 -0.8531 -0.3168
 5262SOL    HW227423   1.109   0.610  16.312  2.3966  1.1042 -1.7776
 5263SOL     OW27424   4.314   0.955   5.504  0.6885 -0.0899 -0.5785
 5263SOL    HW127425   4.312   1.047   5.479  0.4502 -0.0166 -0.2741
 5263SOL    HW227426   4.348   0.957   5.593 -1.4444  0.2600  0.2215
 5264SOL     OW27427   2.114   4.296   7.872 -0.4794 -0.0491  0.1374
 5264SOL    HW127428   2.205   4.299   7.844 -0.8857 -0.8706 -1.2347
 5264SOL    HW227429   2.123   4.351   7.950 -0.2398 -1.2680  0.9660
 5265SOL     OW27430   2.462   3.062   4.661  0.0096  0.8218  0.2729
 5265SOL    HW127431   2.546   3.109   4.669 -0.3562  1.4140  0.6484
 5265SOL    HW227432   2.470   3.009   4.740  0.4982 -2.2349 -1.8510
 5266SOL     OW27433   3.704   1.017   6.662 -0.4471 -0.2910  0.1147
 5266SOL    HW127434   3.797   1.037   6.652 -0.5717 -0.6901 -1.8145
 5266SOL    HW227435   3.684   1.001   6.570  1.2224 -1.9655  0.0330
 5267SOL     OW27436   0.557   3.729   4.420  0.1666 -0.1259 -0.1003
 5267SOL    HW127437   0.649   3.735   4.396  0.6353  1.6189  2.0585
 5267SOL    HW227438   0.554   3.663   4.490  0.8684 -0.3526 -0.2835
 5268SOL     OW27439   3.687   2.955  11.924 -0.4375 -0.2697  0.0024
 5268SOL    HW127440   3.662   2.874  11.968  0.1163 -0.5329 -0.1695
 5268SOL    HW227441   3.770   2.984  11.961  0.2279  0.3966 -1.9869
 5269SOL     OW27442   1.690   3.122   5.238 -0.0064 -0.2206 -0.1692
 5269SOL    HW127443   1.759   3.177   5.275 -0.4388  0.0779  0.1827
 5269SOL    HW227444   1.746   3.073   5.177 -2.2832 -0.2411 -2.2202
 5270SOL     OW27445   4.482   0.593   0.026 -0.0766 -0.2811 -0.4951
 5270SOL    HW127446   4.487   0.550   0.111 -0.1374 -1.9439 -1.3310
 5270SOL    HW227447   4.459   0.529  17.703  1.7515  0.2683 -1.6362
 5271SOL     OW27448   2.339   3.109   6.295 -0.1688 -0.1085 -0.5039
 5271SOL    HW127449   2.426   3.070   6.287  0.8627  1.4480  2.9996
 5271SOL    HW227450   2.322   3.079   6.385  0.0668  1.3330  0.0243
 5272SOL     OW27451   1.672   4.517  11.240 -0.2462 -0.7464 -0.1623
 5272SOL    HW127452   1.718   4.450  11.189  1.6224  0.3848  0.0324
 5272SOL    HW227453   1.735   4.589  11.237 -2.4313  1.0658 -2.8090
 5273SOL     OW27454   4.035   4.734   9.154  0.5778  0.0243 -0.5169
 5273SOL    HW127455   3.955   4.683   9.163  1.0412 -0.8290 -1.2821
 5273SOL    HW227456   4.060   4.712   9.064 -1.3860 -0.0458 -1.0483
 5274SOL     OW27457   3.363   2.668   5.831 -0.2524 -1.1383  0.2882
 5274SOL    HW127458   3.393   2.608   5.899 -1.5655 -3.4296 -1.1889
 5274SOL    HW227459   3.305   2.620   5.772  0.4752 -0.2116 -1.2021
 5275SOL     OW27460   2.675   4.471   9.116  0.1990 -0.6642  0.0890
 5275SOL    HW127461   2.725   4.522   9.053  1.8948 -0.8501  1.3015
 5275SOL    HW227462   2.585   4.467   9.083  1.2585 -1.1270 -2.8069
 5276SOL     OW27463   0.892   2.719  11.005  0.1267 -0.2937 -0.4521
 5276SOL    HW127464   0.940   2.644  10.971  0.0576 -1.1540  1.3640
 5276SOL    HW227465   0.945   2.798  10.995  0.6914 -0.2965  2.4800
 5277SOL     OW27466   1.907   1.435  13.035  0.5166  0.3023  0.0008
 5277SOL    HW127467   1.981   1.412  12.978 -0.3465  0.7776 -1.3243
 5277SOL    HW227468   1.932   1.527  13.048  2.0069 -0.0268 -0.4802
 5278SOL     OW27469   3.964   4.452  12.713  0.5023  0.0440 -0.2839
 5278SOL    HW127470   4.016   4.528  12.737  2.1541 -0.9358 -0.7430
 5278SOL    HW227471   3.982   4.438  12.620 -0.6161 -1.1846 -0.3195
 5279SOL     OW27472   1.203   1.521   2.795  0.0922 -0.3855  0.0477
 5279SOL    HW127473   1.145   1.591   2.766 -2.7401 -2.2816  1.2095
 5279SOL    HW227474   1.258   1.500   2.720  1.3156 -0.2697  0.9090
 5280SOL     OW27475   4.184   0.861   2.489  0.2033  0.3253 -0.2102
 5280SOL    HW127476   4.269   0.845   2.530 -0.8965  0.5209  2.1446
 5280SOL    HW227477   4.178   0.954   2.510  2.3357  0.2095  0.8944
 5281SOL     OW27478   1.227   2.508   9.378  0.2173 -0.2556 -0.0293
 5281SOL    HW127479   1.156   2.464   9.424  1.3537  0.1810  2.1945
 5281SOL    HW227480   1.251   2.568   9.450  0.4067 -0.2880 -0.0644
 5282SOL     OW27481   3.251   1.105   3.516 -0.7863  0.0061  0.5015
 5282SOL    HW127482   3.291   1.136   3.597  1.4167 -1.0097 -0.1964
 5282SOL    HW227483   3.327   1.104   3.459 -1.6197 -1.8876 -0.5528
 5283SOL     OW27484   3.097   0.740   4.112 -0.6975  0.0100  0.3720
 5283SOL    HW127485   3.163   0.788   4.062 -1.5320  1.8475  1.0454
 5283SOL    HW227486   3.134   0.726   4.200  0.2235 -1.3054 -0.2154
 5284SOL     OW27487   2.656   0.076   3.129 -0.0089  0.3635  0.2886
 5284SOL    HW127488   2.656   0.048   3.038  0.8501 -1.9944  1.0157
 5284SOL    HW227489   2.563   0.097   3.127  0.3803  1.7822 -1.9335
 5285SOL     OW27490   1.837   4.527   3.831 -0.8593  0.2168 -0.1398
 5285SOL    HW127491   1.912   4.477   3.863  1.2544  2.1297 -2.1995
 5285SOL    HW227492   1.779   4.452   3.817 -1.3543  0.5134  0.3172
 5286SOL     OW27493   1.700   0.916   9.134 -0.1646 -0.6873 -0.7058
 5286SOL    HW127494   1.652   0.973   9.073 -1.5348  0.2991  1.2704
 5286SOL    HW227495   1.787   0.951   9.116 -0.4249 -1.2619 -2.9794
 5287SOL     OW27496   0.365   0.898   5.825  0.1824  0.2408  0.2052
 5287SOL    HW127497   0.278   0.915   5.860 -1.1632 -2.0896 -2.0292
 5287SOL    HW227498   0.406   0.861   5.903  0.0236  1.4343  0.8571
 5288SOL     OW27499   0.811   0.328   8.287 -0.4424 -0.0793  0.5671
 5288SOL    HW127500   0.863   0.382   8.227 -2.1606  0.1774 -0.6916
 5288SOL    HW227501   0.840   0.364   8.371  2.1329  1.2388 -0.8674
 5289SOL     OW27502   4.068   2.484  13.970  0.0973  0.4072 -0.6112
 5289SOL    HW127503   4.029   2.505  14.054  1.8542  2.0208 -0.1998
 5289SOL    HW227504   4.063   2.389  13.971  1.0960  0.3342 -1.5379
 5290SOL     OW27505   1.129   3.990   6.084 -0.0366  0.6854 -0.1037
 5290SOL    HW127506   1.199   4.037   6.129  0.2835 -1.0290  1.1740
 5290SOL    HW227507   1.088   3.953   6.162 -0.6226  1.2755 -0.1297
 5291SOL     OW27508   1.168   2.474   8.150  0.4998  0.1806  0.1807
 5291SOL    HW127509   1.131   2.526   8.078 -1.6620 -0.8716  0.5327
 5291SOL    HW227510   1.094   2.437   8.198 -0.3111  0.5896 -0.7362
 5292SOL     OW27511   2.043   2.330   4.840 -0.1733 -0.3876  0.6157
 5292SOL    HW127512   1.961   2.281   4.853 -1.2689  1.7752  1.8745
 5292SOL    HW227513   2.088   2.300   4.919 -0.0610 -0.1796  0.6291
 5293SOL     OW27514   3.365   4.725  10.976 -0.5366 -0.4051 -0.2187
 5293SOL    HW127515   3.313   0.032  11.044 -2.8322 -4.7268  0.7515
 5293SOL    HW227516   3.430   4.677  11.028  1.4221  0.3591 -1.9440
 5294SOL     OW27517   2.208   3.175   7.354 -0.2927 -0.2158 -0.2042
 5294SOL    HW127518   2.182   3.084   7.369 -0.1998 -0.0774  0.7388
 5294SOL    HW227519   2.234   3.202   7.442  0.5941  2.0933 -1.1679
 5295SOL     OW27520   0.575   1.962   6.409  0.1343 -0.3847  0.2357
 5295SOL    HW127521   0.509   1.920   6.466 -0.3302 -0.5131 -0.3948
 5295SOL    HW227522   0.607   2.033   6.465 -1.3019 -0.3411  1.0099
 5296SOL     OW27523   2.433   4.551   8.110 -0.1411  0.9632  0.3485
 5296SOL    HW127524   2.350   4.516   8.140  1.2571 -1.7864  0.9596
 5296SOL    HW227525   2.455   4.601   8.189  2.7356 -0.4878  0.4487
 5297SOL     OW27526   1.024   3.798   1.473  0.5039  0.3978 -0.3023
 5297SOL    HW127527   0.977   3.718   1.450  2.2987 -1.3411  2.0697
 5297SOL    HW227528   1.022   3.793   1.569  2.0575  0.7860 -0.2437
 5298SOL     OW27529   1.432   0.230  10.729  0.4785 -0.3395  0.4519
 5298SOL    HW127530   1.397   0.144  10.755 -0.1544  0.1000  1.0679
 5298SOL    HW227531   1.524   0.212  10.748  0.7640  2.0670  1.3581
 5299SOL     OW27532   4.161   4.136   7.888  0.6060 -0.2332  0.0404
 5299SOL    HW127533   4.195   4.177   7.968 -1.5122  0.6397  0.4999
 5299SOL    HW227534   4.239   4.144   7.833  0.0856  1.0078 -0.5257
 5300SOL     OW27535   0.953   1.304  16.746  0.2298  0.0629  0.3285
 5300SOL    HW127536   0.877   1.251  16.769 -0.1863  0.6905  0.4167
 5300SOL    HW227537   1.030   1.267  16.789  0.4173  2.5041  2.1273
 5301SOL     OW27538   2.574   0.232   6.778 -0.3368 -0.8375  0.6476
 5301SOL    HW127539   2.642   0.279   6.827  0.3214 -0.2577 -0.8426
 5301SOL    HW227540   2.611   0.196   6.698  0.7377 -0.5831  1.0235
 5302SOL     OW27541   2.203   2.445   7.638  0.2671 -0.1937 -1.0724
 5302SOL    HW127542   2.290   2.407   7.653 -0.3261 -0.5068  1.6827
 5302SOL    HW227543   2.199   2.452   7.543 -0.9545 -0.8366 -1.0797
 5303SOL     OW27544   0.817   2.569   8.046  0.1762  0.0772  0.4966
 5303SOL    HW127545   0.754   2.624   8.000 -0.9932 -1.8285 -0.2007
 5303SOL    HW227546   0.836   2.502   7.980 -2.6248 -0.4071  0.1751
 5304SOL     OW27547   0.635   4.428   6.144 -0.6839  0.0664 -0.1553
 5304SOL    HW127548   0.680   4.354   6.103  3.4293  1.9658  1.0046
 5304SOL    HW227549   0.606   4.477   6.067  3.0505 -0.6154 -2.0013
 5305SOL     OW27550   3.463   0.118   2.608  0.0954  0.0864  0.6292
 5305SOL    HW127551   3.556   0.124   2.586  0.1331 -0.0946  0.7378
 5305SOL    HW227552   3.424   0.079   2.530  3.2933 -1.1861 -0.3386
 5306SOL     OW27553   0.843   2.900   8.155 -0.0655  0.3053  0.0127
 5306SOL    HW127554   0.786   2.864   8.087 -0.8008  0.4732  0.5530
 5306SOL    HW227555   0.789   2.922   8.230  0.8309  1.1329  0.4117
 5307SOL     OW27556   0.513   2.085   5.231  0.0404 -0.3300 -0.2004
 5307SOL    HW127557   0.582   2.118   5.173  1.8323  2.1164  3.3257
 5307SOL    HW227558   0.507   2.000   5.186  2.9150 -1.1802  1.0085
 5308SOL     OW27559   3.969   3.179   3.386 -0.1311  0.1947  0.1327
 5308SOL    HW127560   3.944   3.155   3.475 -0.1681 -1.0462 -0.2121
 5308SOL    HW227561   4.026   3.254   3.401  0.6998 -0.9435  2.5971
 5309SOL     OW27562   3.092   3.402   1.920  0.1549  0.4767  0.4034
 5309SOL    HW127563   3.059   3.320   1.883  1.0230 -0.0255  0.7501
 5309SOL    HW227564   3.008   3.445   1.936  0.8759  1.4092  1.5899
 5310SOL     OW27565   0.587   0.220   8.188 -0.1780  0.2355 -0.1561
 5310SOL    HW127566   0.567   0.281   8.117  1.4451  1.8166  0.7316
 5310SOL    HW227567   0.664   0.263   8.225 -0.2308  0.5463 -0.4041
 5311SOL     OW27568   3.005   0.214   6.295  0.2488  0.2273 -0.1335
 5311SOL    HW127569   2.982   0.254   6.379 -0.5003  0.8054 -0.6043
 5311SOL    HW227570   2.967   0.285   6.243  0.8649  2.1077  1.9816
 5312SOL     OW27571   0.604   4.043   9.314  0.2878  0.4146 -0.2719
 5312SOL    HW127572   0.672   3.981   9.341  0.6009  0.3760 -1.1398
 5312SOL    HW227573   0.601   4.102   9.389  1.3700 -0.5561  0.5440
 5313SOL     OW27574   0.330   4.407   3.150 -0.0771 -0.3738 -0.3121
 5313SOL    HW127575   0.398   4.340   3.139  1.5949  1.1881  0.4899
 5313SOL    HW227576   0.378   4.480   3.190 -0.5163 -0.2459 -0.0252
 5314SOL     OW27577   4.451   0.810   9.186  0.1311 -0.3939 -0.8674
 5314SOL    HW127578   4.408   0.775   9.264  1.2785 -0.2422 -0.1576
 5314SOL    HW227579   4.385   0.780   9.124 -0.8256 -0.8956  0.4069
 5315SOL     OW27580   3.968   1.371  11.748 -0.1279  0.0364 -0.8241
 5315SOL    HW127581   4.037   1.376  11.682 -0.0329  0.9705 -0.6538
 5315SOL    HW227582   4.017   1.343  11.825  2.9538  0.3107 -2.7161
 5316SOL     OW27583   0.979   3.289   0.474  0.0401  0.3795 -0.0295
 5316SOL    HW127584   1.026   3.262   0.553 -0.3481 -0.5295 -0.1061
 5316SOL    HW227585   0.897   3.316   0.515 -0.7239 -2.8821  0.5606
 5317SOL     OW27586   1.730   1.514   8.738 -0.8499 -0.0539  0.0962
 5317SOL    HW127587   1.700   1.435   8.784  1.5406 -1.7986 -1.3721
 5317SOL    HW227588   1.803   1.532   8.796 -1.4260  0.0258  0.8029
 5318SOL     OW27589   2.611   0.263   7.806  0.4219 -0.5306  0.4092
 5318SOL    HW127590   2.703   0.277   7.831  0.4575  0.0495 -0.0536
 5318SOL    HW227591   2.581   0.228   7.890  0.4298  0.6616  0.9083
 5319SOL     OW27592   3.515   0.453   1.698 -0.1532 -0.4486  0.0374
 5319SOL    HW127593   3.570   0.531   1.704  1.3947 -1.5634  0.4026
 5319SOL    HW227594   3.553   0.414   1.619  1.7382  1.3784  0.0356
 5320SOL     OW27595   3.439   2.742   1.909 -0.2663 -0.5563  0.0038
 5320SOL    HW127596   3.496   2.764   1.982  0.5455  1.1427 -1.1397
 5320SOL    HW227597   3.357   2.789   1.925  0.4079  0.2662  0.9822
 5321SOL     OW27598   4.648   3.739  13.336  0.2948  0.1243  0.5216
 5321SOL    HW127599   4.579   3.701  13.281 -0.0594 -1.1249  1.8287
 5321SOL    HW227600   4.631   3.829  13.309 -1.7742 -0.6105 -0.6441
 5322SOL     OW27601   0.770   2.146   8.096  0.1549 -0.5233 -0.1645
 5322SOL    HW127602   0.788   2.099   8.015 -2.9608 -1.3947 -0.3412
 5322SOL    HW227603   0.740   2.230   8.061  0.7676  0.6815  2.1608
 5323SOL     OW27604   1.116   4.313   6.962  0.1988  0.3627  0.5552
 5323SOL    HW127605   1.072   4.392   6.994  2.3578  2.3927 -1.3901
 5323SOL    HW227606   1.138   4.316   6.869 -0.9385 -0.5085  0.2663
 5324SOL     OW27607   1.737   4.267   5.956 -0.0207 -0.3306  0.3562
 5324SOL    HW127608   1.719   4.361   5.950  2.6800  0.2339  1.1480
 5324SOL    HW227609   1.726   4.252   6.050 -1.0795 -1.2575  0.0884
 5325SOL     OW27610   4.695   1.901   6.123  0.5934  0.2263 -0.5058
 5325SOL    HW127611   0.038   1.918   6.172 -0.3578 -1.4918  1.6048
 5325SOL    HW227612   4.700   1.809   6.099 -1.4967  0.1675 -0.7065
 5326SOL     OW27613   0.889   0.278  16.901  0.5321  0.2977  0.1094
 5326SOL    HW127614   0.965   0.225  16.876  0.6267  0.3009  0.3898
 5326SOL    HW227615   0.902   0.272  16.996  0.2885 -0.9824  0.0552
 5327SOL     OW27616   4.539   3.565  13.123 -0.5402  0.3631  0.6052
 5327SOL    HW127617   4.518   3.487  13.175  1.9020 -1.5897 -1.3409
 5327SOL    HW227618   4.585   3.528  13.048 -2.8030 -0.3961 -0.4323
 5328SOL     OW27619   2.643   2.331   6.379 -0.8194  0.3038 -0.4714
 5328SOL    HW127620   2.556   2.295   6.397  0.0046 -0.3669  2.0376
 5328SOL    HW227621   2.670   2.357   6.467  0.8300  0.5544 -1.0410
 5329SOL     OW27622   2.223   0.394  12.440  0.0057  0.3925 -0.1054
 5329SOL    HW127623   2.213   0.318  12.497  0.8599 -0.5416 -1.1801
 5329SOL    HW227624   2.136   0.387  12.400 -0.5694  3.1849  0.6636
 5330SOL     OW27625   1.777   4.690   3.410 -0.6051 -0.2354  0.6722
 5330SOL    HW127626   1.774   0.005   3.490 -0.5516  2.1385 -0.8585
 5330SOL    HW227627   1.759   0.025   3.350  2.7083  0.3571  0.3568
 5331SOL     OW27628   1.304   0.674  13.874  0.0731  0.0040  0.6181
 5331SOL    HW127629   1.291   0.709  13.963  0.7949  0.2039  0.6501
 5331SOL    HW227630   1.382   0.722  13.845 -0.4925 -0.0309 -0.9522
 5332SOL     OW27631   1.095   1.215   6.747  0.2987 -0.1789 -0.1675
 5332SOL    HW127632   1.002   1.196   6.762  0.2353  0.6259  0.4266
 5332SOL    HW227633   1.106   1.174   6.661  1.1452  2.5692 -1.3812
 5333SOL     OW27634   1.099   2.984   8.121  0.5388 -0.3426  0.0292
 5333SOL    HW127635   1.131   2.985   8.211 -1.0503 -1.2456  0.6132
 5333SOL    HW227636   1.007   2.958   8.135 -0.0765  1.6415 -0.4278
 5334SOL     OW27637   3.406   3.072   8.249 -0.7418  0.2909  0.0609
 5334SOL    HW127638   3.446   3.108   8.170  0.4751 -0.5146  0.3128
 5334SOL    HW227639   3.436   3.140   8.309  1.6851 -1.7644  1.2064
 5335SOL     OW27640   2.402   0.880   5.241  0.1329  0.1225  0.1478
 5335SOL    HW127641   2.370   0.830   5.166 -1.1687  0.0077  0.7735
 5335SOL    HW227642   2.496   0.884   5.224  0.0109 -0.5416 -0.6962
 5336SOL     OW27643   0.147   0.983   0.165 -0.0085  0.4164  0.0469
 5336SOL    HW127644   0.153   0.902   0.114 -0.3390  0.6500 -0.3658
 5336SOL    HW227645   0.073   1.017   0.116  0.5597  2.6634  0.7789
 5337SOL     OW27646   1.435   2.229   6.058  0.1132 -0.7097 -0.0079
 5337SOL    HW127647   1.474   2.270   5.981 -2.2982 -0.5202 -1.1172
 5337SOL    HW227648   1.510   2.197   6.109  0.8661 -0.1354 -0.7582
 5338SOL     OW27649   4.713   0.415   8.525  0.2416 -0.7699 -0.5027
 5338SOL    HW127650   0.001   0.461   8.605 -0.3912 -0.7418 -0.3221
 5338SOL    HW227651   0.052   0.429   8.467  1.5871 -0.2985  1.3788
 5339SOL     OW27652   2.638   1.460   9.756  0.2662 -0.0009  0.4710
 5339SOL    HW127653   2.715   1.510   9.727 -0.6049 -0.3605 -2.5024
 5339SOL    HW227654   2.670   1.371   9.743  1.9770  0.5429  0.9867
 5340SOL     OW27655   1.844   3.093   3.339  0.1907  0.0676 -0.1553
 5340SOL    HW127656   1.890   3.038   3.275 -0.0716 -0.9018  0.4871
 5340SOL    HW227657   1.867   3.182   3.314  0.6660  0.1346  0.5170
 5341SOL     OW27658   4.734   3.689   8.069  0.0994  0.8194 -0.0252
 5341SOL    HW127659   0.091   3.688   8.047  0.3846 -1.1298  1.2352
 5341SOL    HW227660   4.733   3.686   8.165 -2.0435 -0.0547 -0.0679
 5342SOL     OW27661   0.414   4.007   3.941  0.6729  0.5472  0.1212
 5342SOL    HW127662   0.327   4.000   3.903  0.3067 -3.8178  1.7839
 5342SOL    HW227663   0.394   3.971   4.028  2.2596  0.2847  0.3860
 5343SOL     OW27664   3.786   3.422   8.805  0.0666  0.6834 -0.2080
 5343SOL    HW127665   3.858   3.374   8.845 -0.2674 -0.0839 -0.5215
 5343SOL    HW227666   3.778   3.366   8.728  0.3794  1.5777 -0.8884
 5344SOL     OW27667   4.117   1.682  16.236 -0.3059 -0.0664  0.4243
 5344SOL    HW127668   4.205   1.675  16.199 -0.6470  2.2602 -0.8062
 5344SOL    HW227669   4.098   1.589  16.249  0.1802 -0.1874  0.2730
 5345SOL     OW27670   4.139   3.063   0.688  0.1717 -0.5504  0.4167
 5345SOL    HW127671   4.100   2.976   0.704  2.6151 -1.6279  0.5275
 5345SOL    HW227672   4.069   3.097   0.632 -0.5000 -2.2412  0.2147
 5346SOL     OW27673   2.308   2.635   6.779  0.7074  0.0448 -0.1571
 5346SOL    HW127674   2.213   2.642   6.775  0.7830  0.5721 -1.0268
 5346SOL    HW227675   2.348   2.716   6.748  1.8958 -1.0863 -1.5723
 5347SOL     OW27676   0.840   0.788   6.724 -0.0460 -0.4497  0.4445
 5347SOL    HW127677   0.859   0.839   6.802 -0.0786 -2.5933  1.8474
 5347SOL    HW227678   0.830   0.701   6.762 -1.6444 -0.2520  0.4988
 5348SOL     OW27679   2.512   3.815   4.690  0.2490 -0.3038 -0.3000
 5348SOL    HW127680   2.422   3.816   4.656  1.1417 -1.3328 -2.7219
 5348SOL    HW227681   2.501   3.858   4.775  0.5912 -0.6970 -0.0553
 5349SOL     OW27682   2.990   2.304   5.591  0.5444  0.1462  0.1045
 5349SOL    HW127683   3.082   2.323   5.571  0.6287  0.9728  1.2607
 5349SOL    HW227684   3.005   2.214   5.621  0.5742  0.7635  1.9890
 5350SOL     OW27685   2.613   1.769  13.453  0.2134 -0.1712  0.1785
 5350SOL    HW127686   2.578   1.837  13.510  1.6483  2.4526 -2.0585
 5350SOL    HW227687   2.569   1.689  13.481 -3.9887  1.4254 -1.6799
 5351SOL     OW27688   4.100   1.814  13.894  0.0196  0.4013 -0.3703
 5351SOL    HW127689   4.091   1.885  13.958  0.9714  1.2097 -1.1502
 5351SOL    HW227690   4.125   1.860  13.814 -0.5614  1.4581  0.0613
 5352SOL     OW27691   1.706   2.956   7.866 -0.4088  0.0098 -0.1428
 5352SOL    HW127692   1.650   2.915   7.931 -0.1387 -0.1927 -0.0374
 5352SOL    HW227693   1.642   2.976   7.798 -1.1008 -3.2284 -0.4498
 5353SOL     OW27694   2.480   0.033   4.111  0.0282 -0.2351  0.0622
 5353SOL    HW127695   2.393   0.031   4.071 -0.4199 -1.1920  1.1042
 5353SOL    HW227696   2.500   4.679   4.133  0.4232  0.0696  0.9566
 5354SOL     OW27697   0.514   3.429   9.272 -0.4591  0.6481 -0.1970
 5354SOL    HW127698   0.468   3.390   9.198 -0.0346  1.2436 -0.7780
 5354SOL    HW227699   0.479   3.386   9.350 -0.2600 -0.3960 -0.6930
 5355SOL     OW27700   3.148   0.930   0.130 -0.2569  0.3151 -0.0131
 5355SOL    HW127701   3.131   0.985   0.054  0.7829 -1.5606 -1.5787
 5355SOL    HW227702   3.060   0.904   0.155 -0.5621  0.3786 -1.0397
 5356SOL     OW27703   3.623   4.171   2.810 -0.2908  0.0643  0.1296
 5356SOL    HW127704   3.587   4.182   2.898 -1.6364 -0.1576 -0.3939
 5356SOL    HW227705   3.705   4.216   2.827 -0.5956  0.3972  0.7187
 5357SOL     OW27706   0.059   4.191   4.017 -0.3016  0.0255  0.5383
 5357SOL    HW127707   0.088   4.279   3.995  2.2936 -0.5925  1.6069
 5357SOL    HW227708   0.113   4.159   4.089  0.6588 -3.3448 -1.6369
 5358SOL     OW27709   4.047   3.858   7.989  0.1081  0.6786 -0.3017
 5358SOL    HW127710   4.125   3.830   8.035  1.3127 -0.4016 -3.0058
 5358SOL    HW227711   4.086   3.934   7.945  1.1942  0.1659 -0.1934
 5359SOL     OW27712   1.624   2.565   9.601 -0.3814 -0.3088 -0.6406
 5359SOL    HW127713   1.671   2.638   9.640 -2.4916  0.7942 -0.1601
 5359SOL    HW227714   1.586   2.537   9.685 -1.9835 -0.4138 -1.4150
 5360SOL     OW27715   4.420   4.156   3.849  0.5202  1.0486  0.0719
 5360SOL    HW127716   4.449   4.143   3.939 -1.2866  1.9775  0.7839
 5360SOL    HW227717   4.503   4.144   3.802  0.3418 -1.9151  0.5517
 5361SOL     OW27718   3.291   0.379  10.467  0.0405 -0.6430  0.1315
 5361SOL    HW127719   3.318   0.444  10.402 -2.2823  0.0899 -0.0845
 5361SOL    HW227720   3.372   0.342  10.501  0.1606 -1.6444 -1.2317
 5362SOL     OW27721   0.459   0.144   8.628  0.0888  0.1148  0.0720
 5362SOL    HW127722   0.517   0.132   8.703 -0.2394  2.5618  0.7198
 5362SOL    HW227723   0.412   0.222   8.658 -0.9154 -0.2376 -0.5804
 5363SOL     OW27724   1.846   4.297   8.776 -0.1568 -0.1942  0.2106
 5363SOL    HW127725   1.871   4.204   8.783  1.9489  0.3603  0.1516
 5363SOL    HW227726   1.814   4.300   8.686 -0.8719 -1.0929  0.4358
 5364SOL     OW27727   1.015   0.469   5.286 -0.0991  0.0358  0.4377
 5364SOL    HW127728   1.070   0.546   5.269  0.6356 -0.7828 -0.8718
 5364SOL    HW227729   1.042   0.412   5.214 -0.6584  0.2530  0.0573
 5365SOL     OW27730   0.191   1.061   8.131  0.0821  0.2885 -0.0501
 5365SOL    HW127731   0.127   1.119   8.090 -2.6401 -0.8289  2.5777
 5365SOL    HW227732   0.230   1.015   8.056  1.1923  0.9457  0.1333
 5366SOL     OW27733   1.863   2.895   8.809  0.1307 -0.2167  0.0411
 5366SOL    HW127734   1.888   2.952   8.882 -2.1598  1.0186 -0.1295
 5366SOL    HW227735   1.940   2.841   8.794  0.8104  1.2492 -1.8524
 5367SOL     OW27736   4.335   3.539   8.039  0.2409  0.1980  0.1528
 5367SOL    HW127737   4.244   3.513   8.026  0.7749 -1.4228 -0.3113
 5367SOL    HW227738   4.328   3.610   8.103 -1.0956 -1.4104  1.8284
 5368SOL     OW27739   1.886   3.332  14.506  0.6953 -0.3198 -0.3029
 5368SOL    HW127740   1.885   3.237  14.506 -1.6400 -0.2881 -0.6236
 5368SOL    HW227741   1.794   3.339  14.482  0.2575  2.2083  2.1162
 5369SOL     OW27742   3.647   3.636   6.605 -0.4829  0.1611 -0.5272
 5369SOL    HW127743   3.691   3.680   6.533 -1.5128 -1.7531 -2.3294
 5369SOL    HW227744   3.558   3.623   6.572 -0.5061  2.1922 -1.2663
 5370SOL     OW27745   1.529   1.026   7.496 -0.1143  0.2211 -0.0825
 5370SOL    HW127746   1.544   1.116   7.526 -1.4321  1.0870 -2.0370
 5370SOL    HW227747   1.614   1.010   7.454  0.4883 -1.3869  1.7373
 5371SOL     OW27748   2.517   4.569  16.996  0.1753  0.6755 -0.4445
 5371SOL    HW127749   2.585   4.549  16.932  0.1567 -0.0516 -0.2407
 5371SOL    HW227750   2.519   4.665  16.996 -2.7341  0.7487 -0.7836
 5372SOL     OW27751   3.708   3.724   1.015 -0.1871  0.0681  0.4171
 5372SOL    HW127752   3.733   3.633   1.001  0.1103  0.2537 -0.2637
 5372SOL    HW227753   3.776   3.776   0.971  1.7527 -1.0409  2.1538
 5373SOL     OW27754   3.527   1.709   2.542  0.4087 -0.2330  0.3283
 5373SOL    HW127755   3.479   1.738   2.465 -1.1053 -0.9709  0.9870
 5373SOL    HW227756   3.563   1.794   2.566  1.6835 -1.0494  1.3165
 5374SOL     OW27757   0.517   1.415   8.653  0.3707 -0.2611 -0.0694
 5374SOL    HW127758   0.459   1.397   8.579 -0.8126 -1.8104  1.2384
 5374SOL    HW227759   0.450   1.460   8.704  2.3192  0.9426  1.4235
 5375SOL     OW27760   4.301   0.980  16.579 -0.2975  0.4253 -0.1373
 5375SOL    HW127761   4.395   0.984  16.558  0.1669 -0.0267  1.8199
 5375SOL    HW227762   4.293   1.075  16.576  2.2639  0.6777  1.0067
 5376SOL     OW27763   4.138   2.703  10.988  0.4763 -0.9417  0.2869
 5376SOL    HW127764   4.183   2.764  11.046  0.4916  0.3194 -1.0453
 5376SOL    HW227765   4.202   2.696  10.917 -1.0571  0.4543 -1.2347
 5377SOL     OW27766   4.431   2.374   4.176  0.2578  0.0687 -0.4405
 5377SOL    HW127767   4.341   2.369   4.143  0.3570  0.0983 -0.7140
 5377SOL    HW227768   4.467   2.305   4.120  3.3989  2.7380 -1.7228
 5378SOL     OW27769   0.339   0.359   0.469  0.2978 -0.1006  0.0400
 5378SOL    HW127770   0.388   0.374   0.388 -0.8237 -0.9084 -0.7915
 5378SOL    HW227771   0.327   0.264   0.470 -0.5744  0.0045  0.3647
 5379SOL     OW27772   1.539   2.954   8.773 -0.0841 -0.2579  0.3102
 5379SOL    HW127773   1.587   2.878   8.805 -1.2070 -1.8489 -1.7633
 5379SOL    HW227774   1.529   3.000   8.856  0.4554  1.4737 -0.5839
 5380SOL     OW27775   2.268   1.989   0.172 -0.2252  0.0407  0.1152
 5380SOL    HW127776   2.328   2.052   0.134 -2.0770  0.5762 -1.9435
 5380SOL    HW227777   2.320   1.915   0.204  0.5700  0.4410 -0.2499
 5381SOL     OW27778   4.451   4.676   2.690 -0.2030 -0.5665  0.2620
 5381SOL    HW127779   4.404   4.683   2.607 -1.2823 -1.2278  0.8059
 5381SOL    HW227780   4.395   4.613   2.734 -2.1040  1.0928  0.2169
 5382SOL     OW27781   4.405   0.308  13.962  0.0631 -0.2568 -0.0085
 5382SOL    HW127782   4.471   0.338  14.024  0.8482 -1.8361 -0.0703
 5382SOL    HW227783   4.372   0.247  14.029  1.2491  0.2197  1.0003
 5383SOL     OW27784   2.497   3.154   5.767 -0.2473 -0.2944 -0.4089
 5383SOL    HW127785   2.472   3.061   5.767  0.2252 -0.4347  1.2596
 5383SOL    HW227786   2.435   3.199   5.710  0.0205 -0.2216 -0.6400
 5384SOL     OW27787   1.662   4.278  16.221 -0.3469 -0.0402 -0.3372
 5384SOL    HW127788   1.736   4.299  16.278  0.6141  0.8123 -1.8805
 5384SOL    HW227789   1.599   4.345  16.246 -0.6478 -0.2452 -0.5442
 5385SOL     OW27790   3.603   0.278   5.430  0.3968 -0.0804 -0.1379
 5385SOL    HW127791   3.570   0.339   5.497 -0.7981  1.0431 -1.7516
 5385SOL    HW227792   3.694   0.307   5.421  0.5138  0.1402  1.6375
 5386SOL     OW27793   4.394   4.276   5.472  0.0285 -0.3653 -0.0689
 5386SOL    HW127794   4.338   4.199   5.486 -1.3988  0.8230  0.7952
 5386SOL    HW227795   4.432   4.282   5.559 -1.9150  2.3943  0.6050
 5387SOL     OW27796   3.045   1.842   5.146  0.2276 -0.9711  0.3703
 5387SOL    HW127797   3.040   1.809   5.236 -0.9825 -1.6268  0.0720
 5387SOL    HW227798   3.114   1.782   5.117  1.7055  1.6837 -1.5598
 5388SOL     OW27799   2.586   2.656   6.396  0.6868 -0.2684  0.2607
 5388SOL    HW127800   2.622   2.614   6.475 -2.7781 -0.8704  1.5125
 5388SOL    HW227801   2.638   2.619   6.325  1.8187  1.0945  0.3579
 5389SOL     OW27802   0.106   2.471   3.223  0.2126 -0.1587 -0.0536
 5389SOL    HW127803   0.052   2.400   3.259 -0.5585  2.3937  3.7723
 5389SOL    HW227804   0.188   2.422   3.216 -0.0250 -0.6721  0.6875
 5390SOL     OW27805   2.758   3.679   8.538 -0.2525 -0.0420  0.4372
 5390SOL    HW127806   2.846   3.700   8.569 -0.6718  1.3626  0.6812
 5390SOL    HW227807   2.717   3.764   8.522  2.4260  1.3588  1.0129
 5391SOL     OW27808   1.316   3.639   7.322 -0.0252  0.2699  0.3929
 5391SOL    HW127809   1.222   3.625   7.308 -0.0562  2.9475 -2.0438
 5391SOL    HW227810   1.322   3.731   7.299 -0.1918 -0.1212 -1.2063
 5392SOL     OW27811   3.694   3.678   6.873 -0.6310  0.4500  0.4454
 5392SOL    HW127812   3.699   3.663   6.778 -2.5647  0.7376  0.2983
 5392SOL    HW227813   3.661   3.592   6.897 -1.3730  0.1725 -1.5332
 5393SOL     OW27814   0.095   0.580   3.019  0.3066 -0.5247 -0.7155
 5393SOL    HW127815   0.034   0.600   2.947 -1.1334  0.9666  0.9136
 5393SOL    HW227816   0.179   0.614   2.989  1.3456 -1.6020  0.9703
 5394SOL     OW27817   4.372   3.241   3.975  0.2171  0.0194  0.1028
 5394SOL    HW127818   4.461   3.277   3.969 -0.1958  0.7545 -1.6354
 5394SOL    HW227819   4.337   3.299   4.043 -0.8232  0.1696 -0.5629
 5395SOL     OW27820   3.082   3.189   8.550  0.8076  0.3326  0.3740
 5395SOL    HW127821   3.085   3.270   8.500  2.1981 -1.1856 -2.0282
 5395SOL    HW227822   3.008   3.202   8.610  0.4583 -0.2272  0.0696
 5396SOL     OW27823   1.417   0.247   5.332 -0.0171  0.0377  0.2825
 5396SOL    HW127824   1.425   0.222   5.240  0.0097  2.5973 -0.3976
 5396SOL    HW227825   1.346   0.188   5.358 -2.0026  2.4623  0.3580
 5397SOL     OW27826   3.160   0.249   2.127 -0.2281  0.4007  0.2643
 5397SOL    HW127827   3.221   0.227   2.197  0.0701  3.0340  0.8059
 5397SOL    HW227828   3.214   0.235   2.049 -0.1106 -0.3355  0.4731
 5398SOL     OW27829   0.653   3.204   6.565 -0.3669  0.0512  0.4390
 5398SOL    HW127830   0.654   3.172   6.475 -1.5881  1.1320  0.0476
 5398SOL    HW227831   0.601   3.140   6.612 -0.4301 -0.7860 -0.7796
 5399SOL     OW27832   0.892   3.268  15.458  0.0222 -0.3413 -0.5352
 5399SOL    HW127833   0.942   3.186  15.462  1.2944  0.5421  1.3354
 5399SOL    HW227834   0.961   3.334  15.456  1.3412 -1.7013  0.3035
 5400SOL     OW27835   1.002   4.416   6.588  0.2662  0.1095 -0.0712
 5400SOL    HW127836   1.065   4.345   6.599 -0.1633 -0.1766  0.5496
 5400SOL    HW227837   1.070   4.482   6.581  1.0115 -0.5302  1.1675
 5401SOL     OW27838   2.532   3.320  17.077 -0.0858 -0.3655  0.1198
 5401SOL    HW127839   2.486   3.269  17.143 -0.6070 -0.4268 -0.2916
 5401SOL    HW227840   2.486   3.402  17.093  0.7042  0.2232 -0.5610
 5402SOL     OW27841   2.591   1.121  14.673  0.3569 -0.5319  0.6417
 5402SOL    HW127842   2.592   1.111  14.768  3.6455  1.5224  0.8276
 5402SOL    HW227843   2.602   1.216  14.665 -1.6149 -0.5117 -1.6207
 5403SOL     OW27844   1.231   4.248   8.620 -0.4203  0.8103  0.0892
 5403SOL    HW127845   1.242   4.177   8.557 -0.3864  0.9550 -0.0674
 5403SOL    HW227846   1.160   4.208   8.671 -0.6129  0.0615 -0.7648
 5404SOL     OW27847   0.260   2.907   6.085  0.1901 -0.3394 -0.0586
 5404SOL    HW127848   0.328   2.922   6.151  0.0658  1.5856 -0.3754
 5404SOL    HW227849   0.290   2.816   6.078 -0.2331 -0.5565  0.8734
 5405SOL     OW27850   2.713   2.689   3.128  0.0498  0.3070  0.0947
 5405SOL    HW127851   2.660   2.767   3.145 -0.6888 -0.1771 -0.0151
 5405SOL    HW227852   2.675   2.620   3.182  0.0774 -0.1878 -0.5152
 5406SOL     OW27853   4.239   3.211   7.210  0.3841  0.8226 -0.0633
 5406SOL    HW127854   4.228   3.232   7.302  0.9750  0.5649  0.0683
 5406SOL    HW227855   4.153   3.180   7.181  0.2661 -0.4315  1.6395
 5407SOL     OW27856   1.533   2.554   7.105 -0.4061  0.7039 -0.9545
 5407SOL    HW127857   1.557   2.642   7.132  0.1110  0.7744 -1.6284
 5407SOL    HW227858   1.461   2.533   7.165  0.7482 -1.8849 -0.4716
 5408SOL     OW27859   2.961   2.433   2.887 -0.2321 -0.1842 -0.1169
 5408SOL    HW127860   2.954   2.373   2.962 -1.1375 -0.9997 -0.8579
 5408SOL    HW227861   2.900   2.387   2.829 -0.5287  0.2746 -0.1663
 5409SOL     OW27862   2.314   4.510  12.092  0.1118 -0.3145 -0.2354
 5409SOL    HW127863   2.298   4.602  12.075 -0.3098 -0.3900 -0.2602
 5409SOL    HW227864   2.409   4.512  12.103 -0.0430 -0.3557  1.0807
 5410SOL     OW27865   2.148   3.688  15.287 -0.9594 -0.0486  0.1934
 5410SOL    HW127866   2.184   3.638  15.213  0.5272  1.2990  0.0023
 5410SOL    HW227867   2.188   3.775  15.284 -1.1055  0.0207  0.2587
 5411SOL     OW27868   1.758   3.904  13.903  0.0648  0.0508 -0.4228
 5411SOL    HW127869   1.850   3.890  13.926  0.1968  0.2970 -0.7997
 5411SOL    HW227870   1.766   3.914  13.808 -0.6408  4.3416 -0.0272
 5412SOL     OW27871   4.457   0.800  14.862 -0.0225  0.0129  0.1805
 5412SOL    HW127872   4.477   0.821  14.771  3.7929  1.5374  1.3711
 5412SOL    HW227873   4.432   0.707  14.863  1.0554 -0.2949 -1.3564
 5413SOL     OW27874   2.078   2.702  12.894 -0.3242  0.2393 -0.0789
 5413SOL    HW127875   2.137   2.632  12.921 -0.2700  0.3245  0.0223
 5413SOL    HW227876   2.135   2.777  12.876 -0.7230  0.5389 -0.1092
 5414SOL     OW27877   1.451   3.927  14.127 -0.6399 -0.0732 -0.0398
 5414SOL    HW127878   1.356   3.923  14.114 -0.8466  0.5654  1.2918
 5414SOL    HW227879   1.486   3.846  14.090 -3.1416 -1.3395  0.3475
 5415SOL     OW27880   2.917   2.588   7.277 -0.7762  0.2297 -0.6712
 5415SOL    HW127881   2.956   2.503   7.257  1.2229  1.2069 -0.9603
 5415SOL    HW227882   2.854   2.603   7.206 -0.4247  0.5416 -0.9195
 5416SOL     OW27883   1.513   0.128  13.685  0.4308  0.2832 -0.0843
 5416SOL    HW127884   1.419   0.138  13.702  0.3183 -0.2840 -0.3886
 5416SOL    HW227885   1.538   0.219  13.667 -2.7760  1.8227  3.1618
 5417SOL     OW27886   3.268   4.680   1.956 -0.1174  0.5626  0.6941
 5417SOL    HW127887   3.363   4.667   1.954 -0.2468 -0.0207 -1.1711
 5417SOL    HW227888   3.250   4.650   2.045 -0.6169  1.1406  0.7848
 5418SOL     OW27889   0.842   1.243   7.856  0.0253  0.3200  0.1077
 5418SOL    HW127890   0.866   1.165   7.806 -0.2508 -0.3509  1.0206
 5418SOL    HW227891   0.924   1.261   7.902  0.2220  1.3966 -0.6683
 5419SOL     OW27892   2.324   1.116   1.201  0.4866  0.6383 -0.1856
 5419SOL    HW127893   2.238   1.155   1.192  1.0084  1.6900 -0.5680
 5419SOL    HW227894   2.377   1.188   1.236  0.6320  1.3566 -1.8924
 5420SOL     OW27895   2.544   3.759   5.251  0.0184  0.3805  0.0849
 5420SOL    HW127896   2.564   3.832   5.192  0.5938  0.1338 -0.0191
 5420SOL    HW227897   2.498   3.806   5.321 -1.4506  0.9202 -1.2368
 5421SOL     OW27898   4.708   3.203   8.992  0.4269 -0.8347 -0.2893
 5421SOL    HW127899   0.006   3.114   8.993  1.4512 -0.4185  0.9567
 5421SOL    HW227900   0.017   3.238   9.068 -1.0295 -1.3985  0.8543
 5422SOL     OW27901   3.758   2.029   3.960 -0.2761 -0.3995 -0.6327
 5422SOL    HW127902   3.756   1.934   3.967 -2.2570 -0.3864 -1.1235
 5422SOL    HW227903   3.767   2.043   3.866  0.3885 -1.1111 -0.6679
 5423SOL     OW27904   1.761   0.980   6.562  0.2815 -0.0015  0.3635
 5423SOL    HW127905   1.793   1.048   6.620 -3.2875  3.0728 -1.2885
 5423SOL    HW227906   1.771   0.903   6.619 -3.2146  1.1847  2.5646
 5424SOL     OW27907   2.251   0.661   1.837 -0.2343  0.4523  0.0774
 5424SOL    HW127908   2.258   0.737   1.896  0.4650 -1.5535  2.5875
 5424SOL    HW227909   2.344   0.643   1.820 -0.3585 -1.1632  1.0970
 5425SOL     OW27910   3.657   2.486  16.660 -0.0860 -0.2263 -0.1275
 5425SOL    HW127911   3.717   2.505  16.732  0.9719  0.6166 -1.2332
 5425SOL    HW227912   3.623   2.574  16.645  4.9625  1.8212  0.5599
 5426SOL     OW27913   2.792   0.113   2.434 -0.3917 -0.0371  0.0385
 5426SOL    HW127914   2.832   0.199   2.446 -1.5957  0.6616 -0.8320
 5426SOL    HW227915   2.835   0.066   2.505 -0.8474  0.8413  0.9052
 5427SOL     OW27916   3.215   4.073   8.911  0.1500  0.6983  0.7236
 5427SOL    HW127917   3.127   4.074   8.874  0.0740 -0.1983  0.8944
 5427SOL    HW227918   3.198   4.046   9.001  0.1752 -3.4586 -0.5262
 5428SOL     OW27919   3.764   2.490   3.918 -0.8927  0.0578  0.3269
 5428SOL    HW127920   3.787   2.403   3.951 -0.0619 -0.6218 -2.0414
 5428SOL    HW227921   3.831   2.520   3.858 -0.4909 -1.3435  0.0715
 5429SOL     OW27922   2.931   2.550  12.828 -0.2778  0.0210  0.4520
 5429SOL    HW127923   2.985   2.529  12.903 -0.8838 -0.5686  0.7217
 5429SOL    HW227924   2.973   2.617  12.773  0.3785  0.3664  1.3892
 5430SOL     OW27925   0.614   1.546  13.910  0.3998  0.1856  0.3500
 5430SOL    HW127926   0.688   1.605  13.910  0.4017  0.1833  1.1432
 5430SOL    HW227927   0.651   1.467  13.950 -1.7901 -1.4565 -0.8544
 5431SOL     OW27928   1.426   3.794   9.077  0.0301  0.2778 -0.3656
 5431SOL    HW127929   1.500   3.828   9.126 -0.4529  0.8810 -0.0610
 5431SOL    HW227930   1.464   3.721   9.028 -0.1842 -0.4850  0.6130
 5432SOL     OW27931   1.787   4.462   2.332 -0.0673  0.1190 -0.0180
 5432SOL    HW127932   1.716   4.410   2.294  0.9150 -0.7285 -0.6566
 5432SOL    HW227933   1.744   4.497   2.411  2.4187  2.0874  0.4765
 5433SOL     OW27934   0.667   1.535   5.664 -0.5183 -0.2109  0.0223
 5433SOL    HW127935   0.580   1.559   5.633 -1.3925  0.8371  3.2413
 5433SOL    HW227936   0.675   1.447   5.627 -0.5216 -0.2806  0.1887
 5434SOL     OW27937   2.185   3.461   6.177  0.2118  0.4644  0.1409
 5434SOL    HW127938   2.158   3.540   6.130 -3.6869 -0.6922  0.4675
 5434SOL    HW227939   2.200   3.399   6.105 -1.3849 -1.5306  1.5608
 5435SOL     OW27940   0.995   3.363   8.121  0.8148  0.1483 -0.4076
 5435SOL    HW127941   0.956   3.393   8.204  2.2315  0.3155  0.1936
 5435SOL    HW227942   0.965   3.426   8.055 -1.2022 -0.9517 -0.5405
 5436SOL     OW27943   0.819   2.474  12.894  0.1033  0.0997 -0.0903
 5436SOL    HW127944   0.822   2.555  12.843 -0.2581  0.1706 -0.0013
 5436SOL    HW227945   0.742   2.483  12.950  1.6237  4.2603  1.3540
 5437SOL     OW27946   1.701   0.315   3.997 -0.2272 -0.0473 -0.8962
 5437SOL    HW127947   1.716   0.226   3.965  0.4766 -0.3775  0.3477
 5437SOL    HW227948   1.733   0.361   3.920 -0.1180  2.0353  0.3917
 5438SOL     OW27949   2.620   2.476  12.528  0.3306  0.8470  0.0107
 5438SOL    HW127950   2.630   2.535  12.603  1.7624 -1.8190  1.9582
 5438SOL    HW227951   2.687   2.408  12.538 -0.0334  0.3343 -1.0821
 5439SOL     OW27952   1.455   3.382   8.271  0.3017 -0.7456 -0.2544
 5439SOL    HW127953   1.492   3.452   8.217 -0.4542 -0.8371 -0.8996
 5439SOL    HW227954   1.534   3.362   8.321  1.6864  1.5267 -1.5416
 5440SOL     OW27955   2.775   0.127   8.208 -0.0541 -0.1939 -0.2231
 5440SOL    HW127956   2.847   0.140   8.270 -0.3330 -1.2666  0.3361
 5440SOL    HW227957   2.776   0.033   8.190 -0.4428  0.0708 -1.6673
 5441SOL     OW27958   1.646   3.183  13.964  0.2359 -0.4022  0.0711
 5441SOL    HW127959   1.610   3.096  13.982  0.0011 -0.3868 -0.3164
 5441SOL    HW227960   1.664   3.173  13.870 -0.4240 -0.2947 -0.0664
 5442SOL     OW27961   0.191   2.732  11.216 -0.1209 -0.4596  0.1114
 5442SOL    HW127962   0.252   2.717  11.288 -1.2916 -0.3194  1.1255
 5442SOL    HW227963   0.182   2.644  11.180  0.1721 -0.0655 -0.9045
 5443SOL     OW27964   0.578   0.417   1.987 -0.1641 -0.1646  0.2531
 5443SOL    HW127965   0.523   0.339   1.998  1.3348 -1.1979  0.3692
 5443SOL    HW227966   0.669   0.394   2.007  0.6393  1.6420 -1.2830
 5444SOL     OW27967   1.967   1.686   1.590  0.0723  0.2144 -0.4139
 5444SOL    HW127968   2.062   1.683   1.604 -0.2355  0.0310  1.6101
 5444SOL    HW227969   1.942   1.773   1.620 -0.5025  0.0836 -0.5313
 5445SOL     OW27970   1.096   0.293   5.116  0.0673 -0.1100 -0.7871
 5445SOL    HW127971   1.082   0.265   5.026 -1.5935  0.4427 -0.7026
 5445SOL    HW227972   1.192   0.292   5.108  0.1478  0.5271  0.0877
 5446SOL     OW27973   3.610   3.534   1.639  0.6708 -0.0725 -0.5077
 5446SOL    HW127974   3.579   3.611   1.687  0.1735 -2.3948  2.9152
 5446SOL    HW227975   3.705   3.547   1.635  0.9043 -2.2660 -2.2359
 5447SOL     OW27976   0.368   2.087   6.768 -0.3269 -0.6205 -0.7252
 5447SOL    HW127977   0.365   2.124   6.856 -0.8238 -0.0354 -0.9892
 5447SOL    HW227978   0.279   2.052   6.770 -0.1109 -1.1575 -0.2999
 5448SOL     OW27979   3.791   1.925   4.422 -0.6398  0.9115  0.1642
 5448SOL    HW127980   3.857   1.983   4.383  0.5542  0.4155  1.4581
 5448SOL    HW227981   3.763   1.970   4.501  0.9199 -0.2214  1.3627
 5449SOL     OW27982   2.522   1.966   2.277  0.1355  0.5483  0.3037
 5449SOL    HW127983   2.523   1.919   2.194  1.1532 -1.7750  1.6223
 5449SOL    HW227984   2.440   2.014   2.269 -0.6386 -0.9529 -0.8252
 5450SOL     OW27985   0.873   1.084  14.961 -0.4505  0.0606 -0.0128
 5450SOL    HW127986   0.840   1.128  15.040  1.1935 -0.0029  0.7127
 5450SOL    HW227987   0.899   1.164  14.916 -1.1986 -0.1665 -0.8399
 5451SOL     OW27988   3.863   3.620   1.509  0.0813 -0.4556  0.7131
 5451SOL    HW127989   3.880   3.534   1.472 -0.0693 -0.0869 -0.2244
 5451SOL    HW227990   3.856   3.675   1.431  1.5359  0.8392  1.4681
 5452SOL     OW27991   0.267   0.339   2.005  0.1533  0.2861  0.5647
 5452SOL    HW127992   0.304   0.276   2.067 -1.3466 -1.8036 -0.6392
 5452SOL    HW227993   0.175   0.321   2.026  0.1413 -0.0704  0.2098
 5453SOL     OW27994   1.953   4.494  11.434 -0.1355  0.1049  0.4293
 5453SOL    HW127995   1.968   4.401  11.417  0.2540  0.4595 -1.2116
 5453SOL    HW227996   1.970   4.520  11.343 -0.6270 -0.7214  0.1036
 5454SOL     OW27997   1.367   2.546   3.899 -0.1598  0.6115 -0.0755
 5454SOL    HW127998   1.431   2.476   3.914 -0.3669  0.5087  0.3421
 5454SOL    HW227999   1.289   2.493   3.917  2.1902 -2.5408  0.9044
 5455SOL     OW28000   1.566   4.041   5.474  0.0866  0.3956 -0.5211
 5455SOL    HW128001   1.654   4.070   5.498  0.2268 -0.3717 -0.0926
 5455SOL    HW228002   1.590   3.965   5.420  0.7791  0.6233 -0.5260
 5456SOL     OW28003   1.596   0.650   5.935 -0.2295 -0.5523 -0.3443
 5456SOL    HW128004   1.508   0.629   5.966 -0.2155  2.7613  1.8858
 5456SOL    HW228005   1.656   0.593   5.983 -1.6039 -0.4039  1.5501
 5457SOL     OW28006   1.918   0.095   4.351 -0.3469  0.5576 -0.1000
 5457SOL    HW128007   2.001   0.112   4.305 -0.3638  3.0478  0.7978
 5457SOL    HW228008   1.869   0.173   4.327  0.3865  1.4884  1.4080
 5458SOL     OW28009   3.803   2.518  16.889 -0.3638 -0.1960  0.1896
 5458SOL    HW128010   3.885   2.484  16.924 -0.1720 -0.2342 -0.2962
 5458SOL    HW228011   3.824   2.611  16.894 -0.7522 -0.0957 -0.0347
 5459SOL     OW28012   2.815   4.610   7.353 -0.5686  0.2984  0.6215
 5459SOL    HW128013   2.866   4.602   7.434  0.9386  0.7156 -0.2849
 5459SOL    HW228014   2.823   4.698   7.318 -3.2481  1.0534  1.9151
 5460SOL     OW28015   2.486   1.223   4.862 -0.0984 -0.0877  0.4699
 5460SOL    HW128016   2.448   1.311   4.870  0.7555  0.3766 -0.6715
 5460SOL    HW228017   2.415   1.164   4.886  0.3251 -0.4623  0.7977
 5461SOL     OW28018   4.537   1.573  12.637 -0.3687 -0.5988  0.1258
 5461SOL    HW128019   4.453   1.573  12.592 -0.2155  1.8165 -0.1248
 5461SOL    HW228020   4.522   1.529  12.721  0.2187 -0.4346  0.3177
 5462SOL     OW28021   3.463   4.085   8.214 -0.3163  0.2959 -0.1499
 5462SOL    HW128022   3.422   4.156   8.264  2.6363  0.2964  2.2850
 5462SOL    HW228023   3.473   4.120   8.126 -0.0437  1.1943  0.2376
 5463SOL     OW28024   3.659   0.024  11.311 -0.1210 -0.6192  0.0163
 5463SOL    HW128025   3.596   4.731  11.245  0.6846 -0.8919 -0.6286
 5463SOL    HW228026   3.730   0.051  11.253 -0.4798  1.0120  0.3470
 5464SOL     OW28027   1.075   2.931  17.084  0.0270  0.4039 -0.3424
 5464SOL    HW128028   1.064   2.899  17.174 -0.3035 -0.0824 -0.5543
 5464SOL    HW228029   0.988   2.971  17.086  0.2719  0.8734  0.6672
 5465SOL     OW28030   0.644   2.084  10.641  0.0149 -0.4253 -0.0315
 5465SOL    HW128031   0.734   2.068  10.611  0.1930  1.1360 -0.3280
 5465SOL    HW228032   0.660   2.096  10.735  1.2870  1.0186 -0.4180
 5466SOL     OW28033   1.971   3.736  13.492 -0.0767 -0.1609 -0.5136
 5466SOL    HW128034   1.951   3.659  13.440  1.5490 -0.5516 -0.5536
 5466SOL    HW228035   1.946   3.808  13.433  0.0934  0.5852  0.3182
 5467SOL     OW28036   4.334   0.741  17.059  0.0508 -0.0767  0.1363
 5467SOL    HW128037   4.336   0.750  16.964  1.4049 -2.5767 -0.0719
 5467SOL    HW228038   4.288   0.818  17.093  0.1165  0.4061 -0.8618
 5468SOL     OW28039   3.889   2.638  10.586 -0.5467 -0.0063 -0.8283
 5468SOL    HW128040   3.964   2.695  10.599 -0.1772 -0.7790  0.4199
 5468SOL    HW228041   3.930   2.558  10.618 -1.8306  0.4494  1.9726
 5469SOL     OW28042   2.979   4.441   7.777  0.5652  0.3824 -0.5722
 5469SOL    HW128043   3.058   4.388   7.789 -1.5861 -2.9177 -0.8131
 5469SOL    HW228044   2.926   4.392   7.841  0.1550  0.2392 -1.0276
 5470SOL     OW28045   2.199   3.178   1.629  0.0488 -0.1403 -0.1591
 5470SOL    HW128046   2.110   3.144   1.640  1.3503 -2.4539  3.3126
 5470SOL    HW228047   2.186   3.247   1.563  0.9822  2.2396  2.1281
 5471SOL     OW28048   2.027   1.792   3.238 -0.3723 -0.0340  0.0447
 5471SOL    HW128049   1.943   1.754   3.266 -0.2491  0.0416  0.5070
 5471SOL    HW228050   2.077   1.711   3.244 -1.3402 -0.8315 -2.4994
 5472SOL     OW28051   2.186   2.164   0.869  0.0621  0.4879  0.6947
 5472SOL    HW128052   2.234   2.081   0.868  1.1781  1.1410  0.5543
 5472SOL    HW228053   2.231   2.227   0.814  0.7012 -2.4371 -2.1693
 5473SOL     OW28054   2.186   4.659   7.469  0.0423  0.4460 -0.1199
 5473SOL    HW128055   2.091   4.663   7.452 -0.0320  3.4946  0.9901
 5473SOL    HW228056   2.215   0.001   7.423 -1.0664  0.0202 -1.5562
 5474SOL     OW28057   3.924   4.249   3.723  0.1885 -0.4376 -0.3463
 5474SOL    HW128058   3.907   4.334   3.681  0.5581 -0.1913  0.0096
 5474SOL    HW228059   4.012   4.258   3.758  0.1970  1.5151 -0.8861
 5475SOL     OW28060   3.025   3.652   6.358  0.2157 -0.1744 -0.0990
 5475SOL    HW128061   2.933   3.671   6.338 -0.6244 -2.2759  1.8338
 5475SOL    HW228062   3.036   3.710   6.434  2.3438 -1.1226  0.3169
 5476SOL     OW28063   1.435   0.835   9.236 -0.3203  0.2071  0.0045
 5476SOL    HW128064   1.473   0.748   9.227 -1.4139 -0.3845  1.1176
 5476SOL    HW228065   1.517   0.884   9.238 -1.8213  2.8676 -1.9679
 5477SOL     OW28066   0.326   1.409   7.198  0.5030 -0.0544 -0.4276
 5477SOL    HW128067   0.315   1.503   7.209  0.7688  0.0037 -0.6724
 5477SOL    HW228068   0.240   1.376   7.224  0.1719 -0.0793 -1.5504
 5478SOL     OW28069   3.807   3.864  13.994 -0.4334  0.5544 -0.3042
 5478SOL    HW128070   3.764   3.780  13.980 -1.2094  0.4247  2.7209
 5478SOL    HW228071   3.836   3.849  14.084  0.3555 -0.3203 -0.7099
 5479SOL     OW28072   2.970   2.030   6.159 -0.4348  0.3092  0.1950
 5479SOL    HW128073   3.019   2.028   6.076 -0.4044 -0.4789  0.2339
 5479SOL    HW228074   3.045   2.008   6.214 -0.6962 -0.0139  0.4171
 5480SOL     OW28075   3.430   0.185   3.610  0.2475 -0.4464 -0.1347
 5480SOL    HW128076   3.456   0.277   3.601  0.4784 -0.5257 -0.2719
 5480SOL    HW228077   3.351   0.187   3.664  0.4867 -0.8688  0.2300
 5481SOL     OW28078   0.124   0.626   1.587  0.3748  0.0521  0.1995
 5481SOL    HW128079   0.186   0.572   1.538  0.4545  0.1686  0.1707
 5481SOL    HW228080   0.154   0.621   1.678  0.9868 -0.5912 -0.0394
 5482SOL     OW28081   0.185   3.240   9.189  0.2162 -0.1666 -0.4142
 5482SOL    HW128082   0.223   3.179   9.252  0.1456 -2.8423 -2.9788
 5482SOL    HW228083   0.157   3.307   9.252 -0.7180 -0.1092 -0.8983
 5483SOL     OW28084   1.666   0.603   5.152 -0.0698 -0.3379  0.0898
 5483SOL    HW128085   1.729   0.670   5.127  1.1320 -2.0406 -1.4648
 5483SOL    HW228086   1.608   0.618   5.078 -0.8113  0.2625  0.7945
 5484SOL     OW28087   1.006   3.016   4.957 -0.3678  0.0846  0.3584
 5484SOL    HW128088   1.037   3.025   4.867  1.6626  0.2786  1.0850
 5484SOL    HW228089   0.910   3.016   4.957 -0.3512  0.2119 -3.4366
 5485SOL     OW28090   3.779   3.037   6.580 -0.6265 -0.0147  0.1537
 5485SOL    HW128091   3.692   2.998   6.590 -0.8542  0.6998  0.9288
 5485SOL    HW228092   3.763   3.101   6.511 -0.7460 -1.0377 -0.7729
 5486SOL     OW28093   1.063   0.886   4.978  0.1033  0.0715  0.2774
 5486SOL    HW128094   1.033   0.958   5.034 -0.1176  0.0382  0.1989
 5486SOL    HW228095   1.152   0.909   4.951 -0.4846  0.3418 -1.3702
 5487SOL     OW28096   4.386   1.443   6.360  0.6947  0.2442  0.0340
 5487SOL    HW128097   4.371   1.379   6.291 -0.8420  2.0857 -1.3334
 5487SOL    HW228098   4.428   1.516   6.316 -0.1614  0.1198 -0.9962
 5488SOL     OW28099   3.134   1.767   8.119  0.1940 -0.0234 -0.6270
 5488SOL    HW128100   3.049   1.738   8.086 -0.3173 -1.0790  1.6101
 5488SOL    HW228101   3.169   1.762   8.031  0.4910 -1.4325 -0.4184
 5489SOL     OW28102   2.344   3.493   9.474 -0.1457 -0.0744 -0.0108
 5489SOL    HW128103   2.372   3.422   9.532  0.2413  0.7825  0.8427
 5489SOL    HW228104   2.432   3.512   9.440 -1.5167  2.6744 -2.0086
 5490SOL     OW28105   3.298   1.765   5.977 -0.3564 -0.6223 -0.6275
 5490SOL    HW128106   3.295   1.680   6.022 -0.8964 -1.3212 -1.9718
 5490SOL    HW228107   3.249   1.737   5.900 -0.1668 -1.2840 -0.5064
 5491SOL     OW28108   0.257   2.750   7.271 -0.0827 -0.2842 -0.1328
 5491SOL    HW128109   0.269   2.703   7.354 -0.3578 -0.9014 -0.4386
 5491SOL    HW228110   0.167   2.777   7.290  0.4960  1.8724 -0.4657
 5492SOL     OW28111   3.578   2.794   2.127 -0.2170  0.1348  0.0934
 5492SOL    HW128112   3.519   2.856   2.170  0.3714  1.3958 -0.9170
 5492SOL    HW228113   3.593   2.727   2.193  0.1364  1.4524  1.3246
 5493SOL     OW28114   0.159   3.210   4.781  0.4617 -0.0548  0.6539
 5493SOL    HW128115   0.154   3.160   4.700 -3.1134  1.1917  0.1115
 5493SOL    HW228116   0.168   3.132   4.836  1.5269 -1.9649 -2.2305
 5494SOL     OW28117   1.316   0.509  17.497 -0.6266  0.5736 -0.1678
 5494SOL    HW128118   1.234   0.493  17.450  0.5149 -1.7263 -1.3527
 5494SOL    HW228119   1.379   0.524  17.427 -0.5917 -3.6767 -1.0395
 5495SOL     OW28120   3.010   4.591   4.426  0.2950  0.3328  0.6815
 5495SOL    HW128121   3.093   4.589   4.473  0.6754 -1.5594 -0.0972
 5495SOL    HW228122   2.986   4.680   4.451 -0.9729  0.1741  0.0540
 5496SOL     OW28123   3.195   2.151   8.841  0.1912 -0.1866 -0.0775
 5496SOL    HW128124   3.233   2.210   8.775  0.3128  0.3527  0.4747
 5496SOL    HW228125   3.140   2.090   8.792  2.6119 -3.8490  1.8022
 5497SOL     OW28126   1.191   1.703   0.915  0.5654  0.0171 -0.2892
 5497SOL    HW128127   1.108   1.674   0.877 -0.9186  1.1982  2.0322
 5497SOL    HW228128   1.228   1.618   0.937 -1.2184 -0.7330 -0.1956
 5498SOL     OW28129   0.387   0.131   2.829 -0.3975  0.3150  0.6424
 5498SOL    HW128130   0.340   0.113   2.911  0.5648 -1.3399  0.8176
 5498SOL    HW228131   0.310   0.138   2.772  0.8774  0.8698 -0.9987
 5499SOL     OW28132   4.481   2.130   6.467 -0.0591 -0.0826  0.0414
 5499SOL    HW128133   4.490   2.122   6.372 -0.2457  0.1781  0.0031
 5499SOL    HW228134   4.457   2.223   6.469 -2.4225 -0.6834  0.0393
 5500SOL     OW28135   1.196   1.482   0.231 -0.4761  0.5431  0.0325
 5500SOL    HW128136   1.168   1.395   0.202  1.0112  1.4460 -4.1909
 5500SOL    HW228137   1.182   1.534   0.152  0.1749  0.7219  0.0359
 5501SOL     OW28138   4.728   0.314   2.098  0.2071  0.0247  0.8899
 5501SOL    HW128139   4.688   0.232   2.128  0.9985 -0.9209 -0.6850
 5501SOL    HW228140   4.680   0.369   2.160 -0.5808 -0.8931  1.1087
 5502SOL     OW28141   0.626   2.492  10.951  0.5618 -0.2761 -0.0975
 5502SOL    HW128142   0.548   2.498  11.005  1.3646  1.8622  0.8355
 5502SOL    HW228143   0.656   2.406  10.981  1.1911  0.7288  2.0942
 5503SOL     OW28144   3.099   3.407   8.131  0.2096  0.3415  0.2605
 5503SOL    HW128145   3.060   3.323   8.107  0.2410  1.4294 -3.6822
 5503SOL    HW228146   3.184   3.394   8.172 -0.6570 -0.8519  1.6802
 5504SOL     OW28147   3.097   2.771   6.693 -0.1624 -0.8558  0.1959
 5504SOL    HW128148   3.123   2.816   6.613  2.0522  0.0649  1.4320
 5504SOL    HW228149   3.170   2.717   6.721 -0.5059 -0.2934  2.1838
 5505SOL     OW28150   1.787   2.745  13.453  0.1935 -0.3188 -0.7494
 5505SOL    HW128151   1.796   2.793  13.371 -0.6715  1.9741  0.5065
 5505SOL    HW228152   1.761   2.822  13.504  1.1345 -2.0367  2.3305
 5506SOL     OW28153   2.353   3.736  14.599 -0.0497  1.0162 -0.3767
 5506SOL    HW128154   2.275   3.708  14.647  0.2024 -1.4567 -1.4334
 5506SOL    HW228155   2.419   3.673  14.627 -0.8922  0.8511  1.2432
 5507SOL     OW28156   2.027   0.107   6.355  0.4641 -0.1301 -0.4199
 5507SOL    HW128157   2.097   0.052   6.391  0.8343 -0.4626 -1.6588
 5507SOL    HW228158   1.960   0.101   6.424  1.2727  3.7794  0.7084
 5508SOL     OW28159   0.380   0.741   6.059  0.6842 -0.1261 -0.0343
 5508SOL    HW128160   0.418   0.656   6.040 -1.0030 -0.9359  0.2283
 5508SOL    HW228161   0.288   0.712   6.059  1.2479 -1.9167  0.1006
 5509SOL     OW28162   4.730   2.931   9.059 -0.7540  0.1694  0.3330
 5509SOL    HW128163   4.682   2.853   9.030 -4.8637  2.7673  0.1220
 5509SOL    HW228164   4.684   2.952   9.140 -1.4532  0.9538 -0.2640
 5510SOL     OW28165   2.251   3.602  11.493 -0.4681  0.4498  0.1941
 5510SOL    HW128166   2.254   3.548  11.414  0.4891  0.1130  0.4565
 5510SOL    HW228167   2.241   3.538  11.563  3.1274  1.4996  1.6822
 5511SOL     OW28168   0.126   0.854   5.344  0.9156  0.4058  0.1424
 5511SOL    HW128169   0.199   0.803   5.310 -0.3838 -0.6217 -1.1695
 5511SOL    HW228170   0.051   0.810   5.303  0.8326 -1.9224  2.8360
 5512SOL     OW28171   0.223   2.826   2.265 -0.5476 -0.8231  0.2154
 5512SOL    HW128172   0.174   2.791   2.339 -1.1874  0.6137  0.4737
 5512SOL    HW228173   0.167   2.798   2.193  0.8707 -0.5924 -0.9707
 5513SOL     OW28174   4.714   4.572   3.877 -0.0968 -0.0552 -0.4502
 5513SOL    HW128175   4.626   4.606   3.895 -0.5370 -0.5444 -1.6750
 5513SOL    HW228176   4.733   4.526   3.959 -0.7645 -0.6689 -0.6453
 5514SOL     OW28177   3.606   3.766  14.882 -0.0874  0.3828 -0.3564
 5514SOL    HW128178   3.534   3.703  14.877 -1.0029  1.2544  2.0685
 5514SOL    HW228179   3.567   3.831  14.824 -4.2697 -1.8619 -0.0768
 5515SOL     OW28180   4.303   0.883  10.310  0.0448  0.2986  0.1926
 5515SOL    HW128181   4.295   0.804  10.257  0.0679  1.3245 -1.3329
 5515SOL    HW228182   4.282   0.840  10.393  0.6270  0.2801  0.3337
 5516SOL     OW28183   1.347   1.487   8.397  0.3946 -0.3170  0.2055
 5516SOL    HW128184   1.428   1.484   8.449  0.3145  0.6821  0.3838
 5516SOL    HW228185   1.313   1.576   8.404  2.1835  0.4737 -1.1448
 5517SOL     OW28186   4.119   3.241   2.443  0.0560  0.0792 -0.3236
 5517SOL    HW128187   4.147   3.298   2.371  0.4312  0.0877 -0.1679
 5517SOL    HW228188   4.159   3.296   2.510  0.6069 -1.0514  0.2751
 5518SOL     OW28189   1.891   3.596   0.722  0.0466  0.0590 -0.4729
 5518SOL    HW128190   1.874   3.506   0.750  0.8371  0.3953  1.1028
 5518SOL    HW228191   1.815   3.616   0.667 -0.0395  0.4127 -0.2268
 5519SOL     OW28192   4.043   2.973   5.033 -0.0984 -0.1149  0.1542
 5519SOL    HW128193   3.953   2.952   5.056 -0.2351 -2.2490 -2.2901
 5519SOL    HW228194   4.041   2.947   4.941  1.3661 -0.9646  0.3666
 5520SOL     OW28195   4.124   4.165  10.931  0.1149 -0.4932 -0.6929
 5520SOL    HW128196   4.043   4.137  10.974 -0.2932  0.1455 -1.0594
 5520SOL    HW228197   4.142   4.250  10.972  1.9003 -1.7944  1.2720
 5521SOL     OW28198   4.289   0.844  15.302 -0.6337  0.1350  0.1522
 5521SOL    HW128199   4.231   0.883  15.236 -1.5869  0.8252  1.4004
 5521SOL    HW228200   4.365   0.812  15.253  0.4608  1.5417  0.9818
 5522SOL     OW28201   4.224   4.477   8.729  0.4359 -0.2467  0.3105
 5522SOL    HW128202   4.207   4.562   8.688  0.9764 -0.2408  0.0985
 5522SOL    HW228203   4.294   4.501   8.790  0.2811  1.7037 -0.2702
 5523SOL     OW28204   1.558   3.617   8.874  0.3683 -0.2038  0.0361
 5523SOL    HW128205   1.596   3.533   8.898  0.1361 -0.8464 -1.8805
 5523SOL    HW228206   1.552   3.607   8.779  3.7594  2.3412 -0.4439
 5524SOL     OW28207   3.067   0.613   2.559 -0.1174  0.3814 -0.2929
 5524SOL    HW128208   3.096   0.634   2.470 -0.0422 -0.5545 -0.4957
 5524SOL    HW228209   3.132   0.663   2.608 -1.7207 -0.0018  2.2337
 5525SOL     OW28210   2.005   4.312  10.335  0.2932  0.3585  0.0267
 5525SOL    HW128211   2.037   4.342  10.249  0.9487  1.5536  0.6904
 5525SOL    HW228212   1.991   4.396  10.380 -0.7181 -0.3280  0.9851
 5526SOL     OW28213   3.484   4.311   9.612 -0.7660  0.3492  0.2946
 5526SOL    HW128214   3.463   4.300   9.705  0.2594  0.5486  0.5582
 5526SOL    HW228215   3.489   4.404   9.590 -0.1078  0.7366  2.0325
 5527SOL     OW28216   3.452   4.718   0.419 -0.6549 -0.7574  0.3071
 5527SOL    HW128217   3.531   0.008   0.371  0.2447 -0.5508  1.9022
 5527SOL    HW228218   3.383   0.040   0.388 -0.2296 -0.0592  0.6631
 5528SOL     OW28219   2.227   2.311  14.353 -0.3077 -0.1941 -0.6182
 5528SOL    HW128220   2.282   2.322  14.275  0.1082  1.1879 -0.1358
 5528SOL    HW228221   2.188   2.398  14.359 -2.0976 -0.9814 -0.7186
 5529SOL     OW28222   3.871   1.885   5.611  0.2839 -0.2333 -0.5945
 5529SOL    HW128223   3.932   1.884   5.537  0.3208  0.6677 -0.5746
 5529SOL    HW228224   3.792   1.892   5.558 -0.6905 -1.4345  0.7093
 5530SOL     OW28225   3.132   0.119   5.718 -0.2210  0.6521  0.3683
 5530SOL    HW128226   3.040   0.142   5.702 -0.6567 -1.0950  0.3463
 5530SOL    HW228227   3.173   0.168   5.646  3.0899  0.0686  1.9043
 5531SOL     OW28228   2.082   3.624  16.012  0.0898  0.4415 -0.5515
 5531SOL    HW128229   2.062   3.649  15.922  0.8964  0.1402 -0.8128
 5531SOL    HW228230   2.015   3.674  16.058  0.2637 -0.2668  0.4789
 5532SOL     OW28231   4.112   0.099  15.731  0.0631 -0.4094 -0.1164
 5532SOL    HW128232   4.045   0.063  15.673 -1.2020  1.1789  0.3788
 5532SOL    HW228233   4.062   0.171  15.768  0.5846 -0.2519  0.2895
 5533SOL     OW28234   1.725   1.661   5.708 -0.2754 -0.4847  0.1722
 5533SOL    HW128235   1.788   1.698   5.647  0.5192  0.7672  1.7554
 5533SOL    HW228236   1.730   1.565   5.701  0.5439 -0.4683  0.6226
 5534SOL     OW28237   3.020   2.536   1.371 -0.7581  0.4155 -0.0156
 5534SOL    HW128238   3.034   2.622   1.329 -0.5000  1.0839  1.4292
 5534SOL    HW228239   3.053   2.553   1.459 -1.3094 -2.7596  0.7891
 5535SOL     OW28240   4.570   1.652   8.286  0.5677 -0.0743 -0.4237
 5535SOL    HW128241   4.653   1.652   8.334  0.6492 -0.9494 -0.5650
 5535SOL    HW228242   4.567   1.745   8.265  0.1900 -0.6372 -2.8565
 5536SOL     OW28243   3.952   3.751  16.456  0.8546  0.3754  0.2586
 5536SOL    HW128244   3.882   3.753  16.521  1.6916  1.2383  1.1352
 5536SOL    HW228245   3.910   3.702  16.386  0.2069  1.2859  0.0191
 5537SOL     OW28246   2.429   1.493   9.068 -0.1964  0.4700 -0.1928
 5537SOL    HW128247   2.485   1.522   8.995 -0.4847  0.3353 -0.4670
 5537SOL    HW228248   2.495   1.468   9.133  1.1662 -0.0160 -1.7451
 5538SOL     OW28249   1.741   2.957  12.972  0.4051 -0.2303  0.6430
 5538SOL    HW128250   1.794   3.028  12.937 -0.2963 -0.2057 -0.3850
 5538SOL    HW228251   1.667   2.967  12.912  0.8312  2.2183  0.5211
 5539SOL     OW28252   2.308   2.559   2.831  0.0872  0.0256 -0.6436
 5539SOL    HW128253   2.387   2.599   2.865  0.3280 -0.8705 -0.1332
 5539SOL    HW228254   2.309   2.487   2.894  2.0080  0.6511  0.0356
 5540SOL     OW28255   0.842   0.625  11.249  0.0232 -0.7355  0.9453
 5540SOL    HW128256   0.755   0.631  11.211  0.3039 -0.8024  0.2976
 5540SOL    HW228257   0.869   0.717  11.259 -0.4861 -0.6445  1.4855
 5541SOL     OW28258   4.487   4.289  10.137 -0.0260  0.0284  0.2536
 5541SOL    HW128259   4.430   4.257  10.207 -0.5674 -1.1105 -0.6961
 5541SOL    HW228260   4.534   4.349  10.194 -0.8306  1.5490 -0.6598
 5542SOL     OW28261   2.923   2.315   3.708  0.0633 -0.1359 -0.1233
 5542SOL    HW128262   2.827   2.318   3.709 -0.0117 -2.3500 -0.8351
 5542SOL    HW228263   2.945   2.226   3.679  0.1449 -0.3716  0.6552
 5543SOL     OW28264   1.033   4.249   1.892  0.3740  0.2177  0.1843
 5543SOL    HW128265   1.097   4.185   1.925 -0.2599 -0.2551  0.5025
 5543SOL    HW228266   0.981   4.205   1.825  0.5873 -1.8662  1.3803
 5544SOL     OW28267   1.416   2.251  14.556  0.1162 -0.1042  0.6165
 5544SOL    HW128268   1.404   2.237  14.650 -0.3079 -1.7653  0.3135
 5544SOL    HW228269   1.326   2.244  14.527  1.1367  0.3418 -2.6797
 5545SOL     OW28270   3.605   3.988   1.929  0.3390 -0.2070  0.2304
 5545SOL    HW128271   3.539   4.014   1.992 -0.5623 -1.7248 -0.0933
 5545SOL    HW228272   3.589   4.051   1.858  0.6215  1.0516  1.2736
 5546SOL     OW28273   2.766   2.246  12.579 -0.3804  0.5143  0.0342
 5546SOL    HW128274   2.672   2.241  12.597 -0.6009 -1.0166 -1.4542
 5546SOL    HW228275   2.806   2.192  12.647  2.2569  2.0319 -0.3371
 5547SOL     OW28276   1.523   1.626  12.156  0.1591  0.2814  0.1308
 5547SOL    HW128277   1.602   1.581  12.185 -0.5991 -1.7673 -0.9923
 5547SOL    HW228278   1.511   1.574  12.077  1.8502  0.9896 -0.5917
 5548SOL     OW28279   3.534   3.329   1.492  0.2700  0.3735 -0.0702
 5548SOL    HW128280   3.546   3.263   1.561  0.8165  1.9649  1.3659
 5548SOL    HW228281   3.549   3.406   1.548  0.1282 -0.1407  0.6867
 5549SOL     OW28282   2.318   2.710   4.339  0.7538 -0.2223 -0.2586
 5549SOL    HW128283   2.232   2.733   4.305  0.4861 -0.4156  0.2914
 5549SOL    HW228284   2.354   2.796   4.362  1.4177 -0.6299  0.2240
 5550SOL     OW28285   0.042   2.951   5.860  0.0784 -0.7705  0.1723
 5550SOL    HW128286   0.082   2.928   5.943 -2.1599 -2.2969  0.8371
 5550SOL    HW228287   0.112   2.950   5.795  0.7519 -1.4576  0.9057
 5551SOL     OW28288   3.420   2.205   4.019 -0.2076 -0.8309  0.0294
 5551SOL    HW128289   3.351   2.237   4.076  0.8674  0.8353  0.4180
 5551SOL    HW228290   3.385   2.131   3.970  0.7270 -0.2286 -1.5921
 5552SOL     OW28291   2.760   1.428  17.318  0.7866  0.4997 -0.1970
 5552SOL    HW128292   2.694   1.455  17.381  0.4165  0.8550 -0.7320
 5552SOL    HW228293   2.728   1.456  17.232 -0.2310  1.5490  0.5290
 5553SOL     OW28294   4.081   4.168   6.578  0.3328  0.8397  0.4992
 5553SOL    HW128295   4.121   4.192   6.494 -2.4611  2.0852 -0.4861
 5553SOL    HW228296   4.005   4.135   6.529 -0.4711  2.8878  0.3850
 5554SOL     OW28297   4.152   0.356  10.026 -0.1481  0.9931  0.1035
 5554SOL    HW128298   4.160   0.341  10.120  1.4317  2.2909  0.1847
 5554SOL    HW228299   4.152   0.268   9.988 -5.2019  0.6702  0.8596
 5555SOL     OW28300   0.117   0.307  10.788  0.2039 -0.3507  0.8398
 5555SOL    HW128301   0.122   0.213  10.769  0.4488 -0.4374  1.3143
 5555SOL    HW228302   0.210   0.331  10.791  0.6392 -2.2431  2.5536
 5556SOL     OW28303   1.714   0.994   2.069  0.0061 -0.4926  0.3897
 5556SOL    HW128304   1.646   1.060   2.082  0.8628  0.1327  1.6131
 5556SOL    HW228305   1.684   0.926   2.130  1.8696 -1.0736  0.6484
 5557SOL     OW28306   0.570   3.604  15.550  0.3203 -0.6108 -0.5114
 5557SOL    HW128307   0.574   3.698  15.534  2.4530 -0.9168 -1.7158
 5557SOL    HW228308   0.482   3.594  15.587  0.1927  0.9128 -0.3871
 5558SOL     OW28309   2.355   1.200  11.555  0.0832  0.2835 -0.2159
 5558SOL    HW128310   2.297   1.181  11.481  0.1559  0.3152 -0.2814
 5558SOL    HW228311   2.433   1.236  11.512  1.5587 -0.2661  1.9643
 5559SOL     OW28312   0.016   3.633   3.291 -0.1441 -0.6834  0.1801
 5559SOL    HW128313   0.018   3.542   3.319  0.8171 -1.2639 -1.7657
 5559SOL    HW228314   0.085   3.649   3.226 -0.8587  0.3443 -0.3369
 5560SOL     OW28315   2.333   2.328   8.328 -0.1823 -0.1660  0.0033
 5560SOL    HW128316   2.258   2.387   8.336 -0.6124 -0.8063  0.7172
 5560SOL    HW228317   2.398   2.393   8.305  0.4027 -1.0308 -0.7790
 5561SOL     OW28318   3.754   1.005   2.043  0.2741  0.4563  0.5804
 5561SOL    HW128319   3.693   0.932   2.033 -1.4531  1.7997  1.3211
 5561SOL    HW228320   3.687   1.067   2.071 -0.7015 -1.2078  1.9150
 5562SOL     OW28321   4.208   4.066   6.803  0.6542  0.5339  0.5506
 5562SOL    HW128322   4.178   4.125   6.734  1.1804 -0.9212 -0.9424
 5562SOL    HW228323   4.121   4.031   6.823  0.7215  0.1627  0.2013
 5563SOL     OW28324   3.790   3.406   6.613 -0.3501  0.0760 -0.5127
 5563SOL    HW128325   3.846   3.433   6.686  1.0565 -2.7118 -0.5821
 5563SOL    HW228326   3.727   3.479   6.617  0.1930  0.4004  1.9792
 5564SOL     OW28327   2.539   4.244   0.823  0.2586 -0.3603 -0.6969
 5564SOL    HW128328   2.527   4.329   0.780 -0.2203  0.0996  0.3391
 5564SOL    HW228329   2.626   4.255   0.862 -0.4809 -1.0860  1.1699
 5565SOL     OW28330   0.369   0.026  10.581  0.2599 -0.5465  0.6747
 5565SOL    HW128331   0.442   4.730  10.634  0.7744 -1.9642 -0.8899
 5565SOL    HW228332   0.288   0.004  10.626 -0.5568 -0.1786 -0.6109
 5566SOL     OW28333   1.906   3.790   6.183  0.0937 -0.2150 -0.0164
 5566SOL    HW128334   1.867   3.704   6.168  3.3727 -1.6503 -0.3831
 5566SOL    HW228335   1.951   3.776   6.267  2.4066 -0.6915 -1.3470
 5567SOL     OW28336   1.715   1.635  17.601  0.1277 -0.5216 -0.0674
 5567SOL    HW128337   1.782   1.651  17.535  0.0460 -0.1929 -0.0682
 5567SOL    HW228338   1.776   1.587  17.658  2.1184 -0.0017 -1.7780
 5568SOL     OW28339   4.066   3.119  12.936  0.7428 -0.1974  0.4624
 5568SOL    HW128340   4.153   3.156  12.953  0.4434 -0.6995  3.1908
 5568SOL    HW228341   4.054   3.141  12.844 -0.5998  1.2690  0.9927
 5569SOL     OW28342   4.020   4.209  10.511  0.1850 -0.0527  0.5116
 5569SOL    HW128343   3.948   4.197  10.448  1.4433  1.2133 -1.1850
 5569SOL    HW228344   4.007   4.297  10.547  0.0479  1.0570 -2.2556
 5570SOL     OW28345   0.116   0.877  12.379  0.1568 -0.0201  0.4294
 5570SOL    HW128346   0.165   0.884  12.461 -2.4431  1.7740  1.8542
 5570SOL    HW228347   0.099   0.966  12.347  0.9930  0.1730  0.5283
 5571SOL     OW28348   4.574   4.372   8.095  0.0868 -0.5622 -0.2376
 5571SOL    HW128349   4.558   4.279   8.078  0.5166 -0.9306  1.3716
 5571SOL    HW228350   4.617   4.371   8.181  2.0621 -0.0355 -1.2174
 5572SOL     OW28351   3.016   0.826   3.737  0.2568 -0.0365 -0.3116
 5572SOL    HW128352   2.932   0.834   3.783  0.3349 -2.2704  0.2502
 5572SOL    HW228353   3.007   0.879   3.658  1.1731  1.4870  0.6043
 5573SOL     OW28354   3.830   2.174  14.578  0.0980 -0.7056 -0.3000
 5573SOL    HW128355   3.877   2.091  14.576  0.5620 -0.4533 -0.0587
 5573SOL    HW228356   3.780   2.164  14.659  0.1080  0.1430 -0.1825
 5574SOL     OW28357   0.347   0.675  14.405  0.3186 -0.2479 -0.1003
 5574SOL    HW128358   0.418   0.625  14.445 -0.2969 -0.4504  0.7596
 5574SOL    HW228359   0.268   0.620  14.412  0.3282 -0.5060 -2.1932
 5575SOL     OW28360   1.005   0.290   7.827 -0.1141  0.2464  0.0084
 5575SOL    HW128361   0.932   0.233   7.802  0.2449  0.6424 -1.9728
 5575SOL    HW228362   1.059   0.226   7.874  1.5328  0.6955 -1.2331
 5576SOL     OW28363   3.061   3.548  16.244 -0.5925  0.0820  0.0587
 5576SOL    HW128364   3.094   3.626  16.288 -0.4217  0.9678 -1.6537
 5576SOL    HW228365   3.057   3.482  16.314  1.4780  1.1044  1.1430
 5577SOL     OW28366   3.100   3.922   3.842 -0.0740 -0.0849  0.1906
 5577SOL    HW128367   3.148   4.004   3.831  1.3003 -0.9874 -0.5791
 5577SOL    HW228368   3.147   3.881   3.914  0.2514  0.4723  0.2956
 5578SOL     OW28369   1.808   2.578  12.780  1.0084  0.2777  0.2084
 5578SOL    HW128370   1.721   2.594  12.816  0.7714 -1.7848  0.5464
 5578SOL    HW228371   1.869   2.621  12.840  1.7481 -0.9060  0.2887
 5579SOL     OW28372   1.615   1.255   4.333  0.0739  0.2249 -0.4960
 5579SOL    HW128373   1.703   1.289   4.349  0.1066 -1.0927  2.0964
 5579SOL    HW228374   1.570   1.336   4.306  1.0881  0.8975 -0.1788
 5580SOL     OW28375   1.172   2.520   0.529 -0.1150  0.1827 -0.3933
 5580SOL    HW128376   1.160   2.426   0.516  0.3017  0.2097 -0.9568
 5580SOL    HW228377   1.148   2.556   0.444 -0.2868  2.4479  0.5902
 5581SOL     OW28378   1.797   4.606   4.412 -0.2887  0.7720 -0.6554
 5581SOL    HW128379   1.836   4.692   4.401  1.4339 -0.0575 -1.0702
 5581SOL    HW228380   1.771   4.606   4.504  0.7550  2.3167 -0.3702
 5582SOL     OW28381   1.605   3.925   1.765  0.0301  0.2578  0.2236
 5582SOL    HW128382   1.590   3.856   1.829  0.3374  0.8242  0.9015
 5582SOL    HW228383   1.691   3.903   1.729 -0.8318  0.6440 -2.0703
 5583SOL     OW28384   4.640   2.450   6.808 -0.5004  0.1633 -0.1424
 5583SOL    HW128385   4.546   2.470   6.809 -1.1501 -3.0236  1.3898
 5583SOL    HW228386   4.639   2.367   6.855 -0.3776 -0.8936 -2.0006
 5584SOL     OW28387   0.205   4.509   6.050 -0.3389  1.1095 -0.0831
 5584SOL    HW128388   0.264   4.581   6.074  0.2573  0.2695  1.0079
 5584SOL    HW228389   0.240   4.500   5.961 -0.2757  0.3415  0.0173
 5585SOL     OW28390   0.312   0.683  10.439 -0.2403 -0.7651  0.5040
 5585SOL    HW128391   0.237   0.739  10.420  0.1405 -0.2722  0.4598
 5585SOL    HW228392   0.381   0.739  10.473 -2.1835  2.8308 -1.5322
 5586SOL     OW28393   4.015   2.637   7.373  0.3189  0.2265  0.8602
 5586SOL    HW128394   3.979   2.726   7.372  2.8343  1.2442 -1.2885
 5586SOL    HW228395   3.939   2.584   7.395  0.2271  0.6848  1.6585
 5587SOL     OW28396   2.631   2.576   0.419 -0.3687 -0.2232  0.4019
 5587SOL    HW128397   2.613   2.655   0.368  2.8359  0.8295  0.8806
 5587SOL    HW228398   2.724   2.588   0.439  0.0361 -1.0840 -0.9565
 5588SOL     OW28399   4.343   4.410  15.608  0.0264 -0.1668  1.1111
 5588SOL    HW128400   4.434   4.420  15.581 -0.5864  0.6162 -0.7167
 5588SOL    HW228401   4.328   4.502  15.628  1.4219 -0.1559  2.0643
 5589SOL     OW28402   4.708   0.514   5.918 -0.6734  0.4406 -0.2166
 5589SOL    HW128403   4.682   0.519   5.826  0.8745  4.2860 -0.4464
 5589SOL    HW228404   4.630   0.478   5.960 -0.1366  0.4351  0.7644
 5590SOL     OW28405   1.686   0.654   3.679  0.1428  0.6052  0.1742
 5590SOL    HW128406   1.676   0.641   3.774  1.3571  0.6609  0.3103
 5590SOL    HW228407   1.661   0.570   3.642  1.6614  0.1515  0.1623
 5591SOL     OW28408   4.105   0.016  13.903 -0.0886  0.3116  0.6997
 5591SOL    HW128409   4.028   0.073  13.907 -1.1704 -1.0522 -0.7756
 5591SOL    HW228410   4.097   4.711  13.989  0.8164  1.5051  1.3563
 5592SOL     OW28411   3.357   2.481   4.500  0.4524  1.0347 -0.0718
 5592SOL    HW128412   3.388   2.404   4.453 -1.4140 -0.7811  1.6827
 5592SOL    HW228413   3.263   2.467   4.494  1.0172 -2.2772 -0.8540
 5593SOL     OW28414   3.826   1.947  15.436  0.1542 -0.2423 -0.2033
 5593SOL    HW128415   3.801   1.900  15.357  0.3741  0.1729 -0.5232
 5593SOL    HW228416   3.917   1.918  15.432  0.8444  1.6646  1.6576
 5594SOL     OW28417   0.713   2.725  16.282 -0.0796  0.2844 -0.0751
 5594SOL    HW128418   0.651   2.794  16.306 -0.6892 -0.2995  0.0194
 5594SOL    HW228419   0.801   2.761  16.282  0.2724 -0.5741 -0.4485
 5595SOL     OW28420   4.593   3.257  16.167  0.1654 -0.2098  0.8134
 5595SOL    HW128421   4.505   3.262  16.204 -1.4450  2.6909 -3.4295
 5595SOL    HW228422   4.625   3.340  16.203  0.9207  0.6906 -1.9511
 5596SOL     OW28423   4.200   4.266   4.136  0.1858  0.1509  0.1299
 5596SOL    HW128424   4.240   4.179   4.128 -0.5834 -0.0315 -1.6093
 5596SOL    HW228425   4.149   4.253   4.216 -1.6592  0.2816 -1.0431
 5597SOL     OW28426   0.032   0.977  16.368 -0.2291  0.4452  0.4661
 5597SOL    HW128427   0.124   0.974  16.342 -0.3859 -1.5754  0.1320
 5597SOL    HW228428   0.009   1.029  16.291  0.7549  0.3730  0.1325
 5598SOL     OW28429   0.084   2.173   7.554  0.2093  0.3989  0.0379
 5598SOL    HW128430   4.726   2.184   7.542  0.3292 -0.9035 -2.0779
 5598SOL    HW228431   0.100   2.265   7.574  1.8672  0.3707 -1.1655
 5599SOL     OW28432   0.482   3.039  15.837 -0.0195 -0.4416 -0.5408
 5599SOL    HW128433   0.449   3.044  15.926  0.5287 -1.9222 -0.2548
 5599SOL    HW228434   0.539   3.117  15.837  1.0256 -1.1859 -2.5020
 5600SOL     OW28435   3.824   0.579   4.482  0.2573  0.1008 -0.2963
 5600SOL    HW128436   3.770   0.589   4.561 -0.4108  5.7529 -1.4252
 5600SOL    HW228437   3.896   0.640   4.497  2.4792 -2.8368  0.9335
 5601SOL     OW28438   0.334   1.114  14.670  0.1025 -0.3841 -0.1798
 5601SOL    HW128439   0.275   1.094  14.598  0.0618  0.5959 -0.4269
 5601SOL    HW228440   0.405   1.051  14.659  0.2971 -0.1403 -0.3184
 5602SOL     OW28441   1.125   4.349   6.295  0.0825  0.0048  0.3852
 5602SOL    HW128442   1.045   4.385   6.332  0.5180 -1.1256  2.4643
 5602SOL    HW228443   1.109   4.381   6.207  2.4119  1.9305  0.6259
 5603SOL     OW28444   1.964   0.655   6.248  0.0568 -0.6055  0.1032
 5603SOL    HW128445   1.914   0.639   6.168 -0.6473 -0.8488  0.5873
 5603SOL    HW228446   1.921   0.593   6.307  1.2474 -0.5339  1.0616
 5604SOL     OW28447   4.417   4.141   6.413  0.1918  0.1813  0.0772
 5604SOL    HW128448   4.339   4.187   6.384 -0.4768 -0.4998  0.8066
 5604SOL    HW228449   4.462   4.204   6.470  1.3923 -1.0197  0.4714
 5605SOL     OW28450   0.102   0.343   4.611  0.0010  0.4650  0.0729
 5605SOL    HW128451   0.149   0.273   4.655 -0.3442  0.2977  0.1713
 5605SOL    HW228452   0.080   0.296   4.530 -3.6119  0.9892  0.7565
 5606SOL     OW28453   3.374   2.293   7.069 -0.1606 -0.1388 -0.1173
 5606SOL    HW128454   3.424   2.221   7.031 -1.6938 -1.4035  0.2929
 5606SOL    HW228455   3.409   2.366   7.017  0.6456  0.1473  0.8393
 5607SOL     OW28456   1.423   0.564  16.233  0.3656 -0.0486  0.1037
 5607SOL    HW128457   1.455   0.646  16.195  1.2299 -0.5452 -0.2429
 5607SOL    HW228458   1.501   0.509  16.230  0.1710 -0.3942  1.1375
 5608SOL     OW28459   0.602   0.160   5.834  0.6540  0.1881  0.0866
 5608SOL    HW128460   0.582   0.180   5.743 -1.4280 -1.9513  0.0629
 5608SOL    HW228461   0.694   0.186   5.844  0.3331  1.2616  0.1850
 5609SOL     OW28462   1.075   3.656  14.908 -0.1013  0.2061 -0.4114
 5609SOL    HW128463   1.051   3.748  14.914 -0.0938  0.2555 -1.0733
 5609SOL    HW228464   1.081   3.635  14.815 -2.0463  0.5554 -0.6123
 5610SOL     OW28465   2.360   1.689   2.279 -0.3410  0.6082  0.5597
 5610SOL    HW128466   2.275   1.656   2.306 -1.5628  0.8344 -2.9639
 5610SOL    HW228467   2.335   1.749   2.208 -2.8048  0.5264  1.3762
 5611SOL     OW28468   0.785   3.939   3.040  0.3357 -0.4147 -0.2354
 5611SOL    HW128469   0.695   3.953   3.071 -0.6639 -2.0177 -2.3543
 5611SOL    HW228470   0.810   4.027   3.015  0.4089 -0.5878 -0.7865
 5612SOL     OW28471   3.366   0.355  16.562  0.1121 -0.3527 -0.2279
 5612SOL    HW128472   3.402   0.268  16.544 -1.7033 -1.6019  2.1581
 5612SOL    HW228473   3.308   0.368  16.487 -1.5197 -1.2851  0.8580
 5613SOL     OW28474   2.116   3.615   6.919  0.0809 -0.6610  0.2010
 5613SOL    HW128475   2.120   3.707   6.944 -0.6904 -0.8773  1.1260
 5613SOL    HW228476   2.189   3.601   6.858  1.9003  0.1791  2.2144
 5614SOL     OW28477   0.137   3.810   5.300 -0.2592  0.1027  0.6066
 5614SOL    HW128478   0.192   3.888   5.288  0.4996 -0.4569  0.4635
 5614SOL    HW228479   0.069   3.821   5.233 -0.5655  1.1299  1.0938
 5615SOL     OW28480   1.187   0.047   3.809  0.4453  0.4957 -0.6218
 5615SOL    HW128481   1.256   0.076   3.870 -0.4399  0.5836  0.3362
 5615SOL    HW228482   1.107   0.084   3.845 -2.2401 -4.9873 -0.9783
 5616SOL     OW28483   0.629   1.535  12.963 -0.3601 -0.2650 -0.1651
 5616SOL    HW128484   0.623   1.514  13.056  0.4449  2.4751  0.5135
 5616SOL    HW228485   0.715   1.501  12.941 -0.1635  0.1826 -0.0776
 5617SOL     OW28486   1.819   0.312   2.565 -0.5451  0.0234  0.6175
 5617SOL    HW128487   1.781   0.291   2.650 -0.3050 -3.3608 -0.1298
 5617SOL    HW228488   1.768   0.256   2.507 -1.2286  0.8783  0.3855
 5618SOL     OW28489   0.722   3.630   9.993  0.7640 -0.4818 -0.4576
 5618SOL    HW128490   0.684   3.627   9.905 -0.9565 -3.3486  0.3669
 5618SOL    HW228491   0.788   3.697   9.979 -1.1102  1.5841  0.6370
 5619SOL     OW28492   3.152   1.190   4.791  0.2827  0.1329 -0.5072
 5619SOL    HW128493   3.247   1.186   4.779  0.3918 -0.0324  0.3957
 5619SOL    HW228494   3.155   1.202   4.886 -0.5903 -1.2254 -0.2986
 5620SOL     OW28495   2.208   2.711  17.563 -0.2479  0.4296 -0.0688
 5620SOL    HW128496   2.135   2.674  17.513  2.2293 -2.8961 -1.2134
 5620SOL    HW228497   2.210   2.796  17.518  0.3606 -1.3357 -3.4045
 5621SOL     OW28498   4.291   0.017   6.635  0.0339 -0.4695 -0.3589
 5621SOL    HW128499   4.270   0.023   6.542 -3.5742 -2.6834  0.3100
 5621SOL    HW228500   4.204   4.729   6.665  0.1322  0.4484  0.6704
 5622SOL     OW28501   2.554   2.705  14.818  1.0237 -0.2878 -0.1957
 5622SOL    HW128502   2.485   2.708  14.752  0.8508 -2.7960 -0.1215
 5622SOL    HW228503   2.513   2.760  14.885 -1.3349 -2.3295  0.0337
 5623SOL     OW28504   2.775   0.870   3.846 -0.2895 -0.4005 -0.0988
 5623SOL    HW128505   2.690   0.825   3.848 -0.6864  0.3168 -1.0328
 5623SOL    HW228506   2.801   0.864   3.938  0.7890 -0.6334 -0.4182
 5624SOL     OW28507   1.094   2.017   7.348  0.1794  0.1048 -0.0902
 5624SOL    HW128508   1.116   1.983   7.435  0.1515  2.0790  0.6772
 5624SOL    HW228509   1.003   1.987   7.345  0.0757  0.2376  1.5227
 5625SOL     OW28510   2.981   1.434   2.939 -0.4055 -0.1906  0.6047
 5625SOL    HW128511   2.904   1.419   2.884 -0.5956 -2.2239  1.4326
 5625SOL    HW228512   2.948   1.419   3.027  1.1374  1.3020  1.4391
 5626SOL     OW28513   1.226   2.544   5.054  0.0322  0.1110  0.2156
 5626SOL    HW128514   1.170   2.617   5.079 -1.0074 -0.9898  1.0978
 5626SOL    HW228515   1.169   2.472   5.027 -1.5418  1.2810  0.4788
 5627SOL     OW28516   0.348   1.224  13.204 -0.2111 -0.1031 -0.0483
 5627SOL    HW128517   0.261   1.216  13.244 -0.1583 -0.4168  0.0033
 5627SOL    HW228518   0.390   1.276  13.271  1.6221 -2.1031  0.3547
 5628SOL     OW28519   2.222   1.073  13.926 -0.1791  0.0833  0.3829
 5628SOL    HW128520   2.189   1.048  13.840 -0.1666 -0.4358  0.5294
 5628SOL    HW228521   2.262   0.990  13.950 -1.7234 -0.2332  1.8579
 5629SOL     OW28522   0.383   1.066   2.023  0.2051 -0.4315  0.2157
 5629SOL    HW128523   0.301   1.113   2.042  0.5396 -0.3331  1.4215
 5629SOL    HW228524   0.353   1.011   1.951 -1.9211  0.3701  0.4816
 5630SOL     OW28525   2.230   2.028   2.931  0.1164 -0.4810  0.5256
 5630SOL    HW128526   2.241   2.028   3.026 -2.6171 -1.4066  0.8393
 5630SOL    HW228527   2.239   2.119   2.901  3.0741 -1.4365 -1.3915
 5631SOL     OW28528   4.452   4.320  16.114  0.6669 -0.2663  0.1632
 5631SOL    HW128529   4.445   4.373  16.035  1.0204 -0.1465  0.2131
 5631SOL    HW228530   4.472   4.233  16.080  2.8618 -0.1509  1.1748
 5632SOL     OW28531   3.093   0.092   4.126 -0.4398  0.2778 -0.4208
 5632SOL    HW128532   3.146   0.163   4.089 -0.6150  0.3606 -0.5138
 5632SOL    HW228533   3.160   0.068   4.190 -0.1764  0.7308 -0.5252
 5633SOL     OW28534   2.677   2.394   3.067 -0.0584 -0.3005 -0.2079
 5633SOL    HW128535   2.721   2.398   3.152  0.6014  1.4591 -0.6399
 5633SOL    HW228536   2.743   2.356   3.008 -0.5336 -0.9859 -0.3054
 5634SOL     OW28537   1.173   2.208  10.634  0.8396  0.4353  0.1845
 5634SOL    HW128538   1.262   2.178  10.655  0.7316  1.4907  2.1869
 5634SOL    HW228539   1.122   2.133  10.667  1.0876 -0.0346 -0.5114
 5635SOL     OW28540   3.458   1.127   8.738 -0.1061  0.3245  0.6122
 5635SOL    HW128541   3.447   1.038   8.772 -0.0890 -0.3726 -1.2316
 5635SOL    HW228542   3.543   1.154   8.773 -0.3562  1.6117  0.2249
 5636SOL     OW28543   3.852   3.953  13.362  0.3451 -0.4272 -0.1478
 5636SOL    HW128544   3.901   3.890  13.308 -1.4712 -0.6801 -1.4848
 5636SOL    HW228545   3.771   3.952  13.311  0.6913  1.4122 -0.7484
 5637SOL     OW28546   2.827   0.744   5.914 -0.0743  0.3621 -0.8580
 5637SOL    HW128547   2.841   0.794   5.994 -2.5578 -1.1604  0.5137
 5637SOL    HW228548   2.739   0.709   5.928 -0.2057  0.2914 -1.8558
 5638SOL     OW28549   4.242   0.993  17.587 -0.4191  0.3617 -0.4973
 5638SOL    HW128550   4.328   1.012  17.549 -0.3797 -2.0503 -1.6781
 5638SOL    HW228551   4.253   0.992  17.682  0.6659 -0.6322 -0.6277
 5639SOL     OW28552   0.599   3.875  15.524 -0.3179 -0.2529  0.1938
 5639SOL    HW128553   0.548   3.900  15.446  0.2024  0.6665  0.1527
 5639SOL    HW228554   0.686   3.857  15.489 -0.7708  2.5826 -2.3846
 5640SOL     OW28555   2.679   0.964   9.354  0.1644  1.1774  0.0376
 5640SOL    HW128556   2.723   0.950   9.271  0.4374 -2.9089  0.8652
 5640SOL    HW228557   2.695   0.880   9.397 -1.7650  0.8619  0.1497
 5641SOL     OW28558   1.068   4.512   9.402 -0.3928 -0.4096 -0.2310
 5641SOL    HW128559   1.078   4.530   9.309 -2.8933 -1.2896 -0.6902
 5641SOL    HW228560   1.051   4.418   9.400  1.2819 -0.7630  2.0792
 5642SOL     OW28561   2.771   0.417   5.438 -0.3944  0.5940  0.3700
 5642SOL    HW128562   2.695   0.400   5.494  1.5303 -0.8239  2.5734
 5642SOL    HW228563   2.812   0.331   5.442  0.6205  0.9652 -2.2594
 5643SOL     OW28564   3.141   4.658  11.973 -0.2217  0.1513  0.1450
 5643SOL    HW128565   3.162   4.571  12.009  0.3265  0.5706  0.8373
 5643SOL    HW228566   3.190   4.714  12.032  0.4764  0.1393 -0.4268
 5644SOL     OW28567   0.462   0.383   0.740 -0.7550  0.1954 -0.5112
 5644SOL    HW128568   0.548   0.361   0.703  0.7589  2.6233  1.5801
 5644SOL    HW228569   0.425   0.408   0.656 -1.5872  1.2060  0.1641
 5645SOL     OW28570   4.358   4.026   9.674 -0.4613 -0.1709  0.6790
 5645SOL    HW128571   4.314   3.957   9.724 -0.9876 -0.6919 -0.5002
 5645SOL    HW228572   4.404   3.978   9.605 -1.7893  1.7964 -1.5836
 5646SOL     OW28573   0.763   0.057   2.881 -0.4120 -0.1861  0.5328
 5646SOL    HW128574   0.771   0.097   2.968  0.6233  3.1563 -1.0729
 5646SOL    HW228575   0.735   0.139   2.839 -0.6193 -0.1779  0.6850
 5647SOL     OW28576   2.550   3.707   6.210  0.0247  0.0476 -0.4243
 5647SOL    HW128577   2.605   3.749   6.276 -0.1684 -1.1458  0.4778
 5647SOL    HW228578   2.599   3.625   6.210  1.4275  0.8759 -0.5740
 5648SOL     OW28579   4.299   2.758   6.530  0.6469 -0.4551 -0.3633
 5648SOL    HW128580   4.276   2.671   6.562 -0.7557 -0.2158 -0.7451
 5648SOL    HW228581   4.395   2.749   6.528  0.6507 -0.6816  0.7671
 5649SOL     OW28582   2.670   2.131   1.272 -0.4937 -0.0206  0.1467
 5649SOL    HW128583   2.661   2.070   1.345  1.8102  1.0540  1.3388
 5649SOL    HW228584   2.736   2.190   1.308  1.0055 -0.8831 -1.2013
 5650SOL     OW28585   0.672   4.598   7.133 -0.5790 -0.6098 -0.1680
 5650SOL    HW128586   0.755   4.552   7.150  0.1291  1.7952  2.7108
 5650SOL    HW228587   0.609   4.532   7.163  0.5059 -0.2354  2.9255
 5651SOL     OW28588   0.191   3.615   7.003 -0.0285  0.9081 -0.0790
 5651SOL    HW128589   0.104   3.592   7.036  0.0086  2.2258  0.9517
 5651SOL    HW228590   0.228   3.677   7.066 -1.0240  1.2317  0.1900
 5652SOL     OW28591   0.371   3.260  15.144  0.6174  0.0184 -0.1337
 5652SOL    HW128592   0.330   3.278  15.228 -0.4474 -1.1492 -0.4147
 5652SOL    HW228593   0.295   3.290  15.094 -0.2205 -1.1884  0.4261
 5653SOL     OW28594   3.708   2.761   3.871  0.3321 -0.5493  0.5257
 5653SOL    HW128595   3.637   2.800   3.922  0.9259 -0.5182  1.3389
 5653SOL    HW228596   3.719   2.678   3.918 -1.1389  0.7312  3.1154
 5654SOL     OW28597   2.686   1.669   9.089  0.0013 -0.4562  0.9246
 5654SOL    HW128598   2.755   1.734   9.103 -1.5236  1.1821  0.9351
 5654SOL    HW228599   2.663   1.646   9.179  1.7297  1.3849  1.8299
 5655SOL     OW28600   3.759   3.365   1.917 -0.3242 -0.7491  0.1367
 5655SOL    HW128601   3.715   3.379   2.000  2.6910 -0.5833  1.6858
 5655SOL    HW228602   3.768   3.453   1.880  1.2131 -0.5438  1.0283
 5656SOL     OW28603   0.769   4.415   6.765  0.4531  0.0973 -0.3238
 5656SOL    HW128604   0.855   4.408   6.723  0.0927 -0.5207 -0.9791
 5656SOL    HW228605   0.730   4.463   6.692  0.0563  1.3886  0.7554
 5657SOL     OW28606   2.083   2.213   0.157 -0.1445  0.4791  0.5028
 5657SOL    HW128607   2.119   2.124   0.163 -1.3469 -0.2257 -2.9132
 5657SOL    HW228608   2.156   2.267   0.188 -0.8277  2.2798 -1.0555
 5658SOL     OW28609   0.936   0.129   6.415 -0.6885  0.4656  0.0085
 5658SOL    HW128610   0.877   0.184   6.363  1.1901  0.4237 -2.2079
 5658SOL    HW228611   0.986   0.198   6.458  1.8052  0.0929 -2.2589
 5659SOL     OW28612   3.240   2.264   2.926  0.3060 -0.4980  0.3284
 5659SOL    HW128613   3.158   2.248   2.971  0.4465 -0.6496  0.5285
 5659SOL    HW228614   3.275   2.333   2.983 -0.2039  0.1306 -0.1103
 5660SOL     OW28615   1.983   4.141   1.636  0.0430  0.6663  0.3258
 5660SOL    HW128616   1.935   4.061   1.654  0.1407  0.7596  1.0203
 5660SOL    HW228617   2.060   4.125   1.691  2.6612  2.6176 -2.7334
 5661SOL     OW28618   2.494   4.588   9.528 -0.0450  0.2113 -0.4102
 5661SOL    HW128619   2.585   4.613   9.542 -0.7621  1.2368  2.4012
 5661SOL    HW228620   2.510   4.520   9.462  0.5858 -0.1577  0.1254
 5662SOL     OW28621   1.423   1.747   4.312  0.4903  0.0068 -0.7024
 5662SOL    HW128622   1.407   1.727   4.404  0.6247  2.9300 -0.0386
 5662SOL    HW228623   1.349   1.696   4.281  0.7348 -0.3237 -0.7381
 5663SOL     OW28624   4.331   3.227   7.836  0.1557 -0.2339 -0.4510
 5663SOL    HW128625   4.289   3.241   7.921  1.3688  1.3381 -0.1182
 5663SOL    HW228626   4.256   3.234   7.776 -1.3469  2.3206  1.7456
 5664SOL     OW28627   4.599   3.273  15.391  0.2769  0.6332  0.2302
 5664SOL    HW128628   4.581   3.267  15.298  1.7133 -2.2726  0.1488
 5664SOL    HW228629   4.663   3.203  15.400  0.3506  0.5311 -1.1282
 5665SOL     OW28630   0.418   0.595   4.766 -0.2192 -0.3524  0.5266
 5665SOL    HW128631   0.420   0.685   4.798  0.3096  0.6567 -2.2793
 5665SOL    HW228632   0.446   0.544   4.842  0.1126 -0.7479  0.1425
 5666SOL     OW28633   3.711   4.473   7.701 -0.0906 -0.0113  0.5533
 5666SOL    HW128634   3.718   4.568   7.702  1.3866 -0.1326  1.2260
 5666SOL    HW228635   3.652   4.444   7.631 -0.2164  1.4424  0.0596
 5667SOL     OW28636   0.869   1.112   2.810 -0.3911  0.5392 -0.6126
 5667SOL    HW128637   0.814   1.069   2.875  0.0454  0.4625 -0.2946
 5667SOL    HW228638   0.840   1.203   2.808  0.3580  0.7825 -0.0781
 5668SOL     OW28639   3.177   2.617  13.491 -0.2661  0.2215 -0.2356
 5668SOL    HW128640   3.129   2.675  13.432  0.2254  2.1204  1.2383
 5668SOL    HW228641   3.241   2.675  13.531 -0.8712 -1.7516  3.5819
 5669SOL     OW28642   3.223   4.300   4.152  0.5408  0.2001  0.2527
 5669SOL    HW128643   3.299   4.340   4.194  1.9576 -0.2049 -1.9560
 5669SOL    HW228644   3.252   4.239   4.085 -1.8242 -1.9057  1.1355
 5670SOL     OW28645   1.259   1.301   6.926  0.0598  0.1040 -0.2162
 5670SOL    HW128646   1.186   1.272   6.871 -0.8548 -1.0580  1.5984
 5670SOL    HW228647   1.323   1.235   6.899  0.1561 -0.0206  0.3240
 5671SOL     OW28648   2.950   4.632   5.262  0.1181  0.2743  0.2861
 5671SOL    HW128649   3.038   4.615   5.297  0.4258  0.2894 -0.4966
 5671SOL    HW228650   2.892   4.567   5.304 -1.5165  1.7598  0.2996
 5672SOL     OW28651   1.385   3.957   3.860  0.0556  1.1132  0.4122
 5672SOL    HW128652   1.441   4.011   3.806  1.6681 -0.9224  0.0497
 5672SOL    HW228653   1.296   3.983   3.835 -0.8376 -3.0014 -0.7746
 5673SOL     OW28654   1.714   0.188   3.266  0.4757  0.1674  0.1938
 5673SOL    HW128655   1.795   0.208   3.218 -0.9399  1.2792 -1.7322
 5673SOL    HW228656   1.644   0.245   3.237  1.0205  0.6613 -0.1630
 5674SOL     OW28657   2.501   1.143   8.866  0.3320 -0.4017 -0.6645
 5674SOL    HW128658   2.481   1.090   8.943  1.2463 -1.2559 -1.0161
 5674SOL    HW228659   2.431   1.116   8.806  0.9762  1.5497 -2.2952
 5675SOL     OW28660   3.700   0.286   5.083  0.2645  0.5520 -0.4768
 5675SOL    HW128661   3.614   0.296   5.123  0.7325  0.0801  0.6498
 5675SOL    HW228662   3.671   0.305   4.994 -1.1943 -0.0861 -0.1367
 5676SOL     OW28663   4.411   3.729   6.024 -0.0622  0.4112 -0.5363
 5676SOL    HW128664   4.420   3.761   5.934 -0.6387 -2.7157 -1.7044
 5676SOL    HW228665   4.501   3.733   6.055 -0.0429  0.4412 -0.5978
 5677SOL     OW28666   3.942   0.896   5.740 -0.3675 -0.2635  0.3606
 5677SOL    HW128667   3.972   0.948   5.814 -2.5975  0.8416  0.5032
 5677SOL    HW228668   3.939   0.970   5.679 -0.5293  0.7751  1.6102
 5678SOL     OW28669   0.500   4.558   3.910  0.2397 -0.0414  0.0876
 5678SOL    HW128670   0.512   4.557   4.005  0.5249 -2.3627  0.0356
 5678SOL    HW228671   0.590   4.580   3.884  0.9275  0.7991  3.1418
 5679SOL     OW28672   4.689   3.187   9.930 -0.3762 -0.1721 -0.0657
 5679SOL    HW128673   4.734   3.258   9.884  0.2291 -1.4132 -1.4019
 5679SOL    HW228674   4.603   3.223   9.951 -0.8646 -0.7394 -1.0975
 5680SOL     OW28675   4.106   0.459   8.603 -0.5411  0.5950 -0.1528
 5680SOL    HW128676   4.095   0.463   8.698  0.3125 -0.5954 -0.0096
 5680SOL    HW228677   4.148   0.544   8.592 -0.1444  0.2688 -1.1403
 5681SOL     OW28678   2.956   4.581  14.668  0.5058  0.4701  0.1439
 5681SOL    HW128679   2.864   4.598  14.689  0.7287  0.9744  0.7048
 5681SOL    HW228680   2.958   4.485  14.669 -0.2150  0.4484 -0.1061
 5682SOL     OW28681   1.455   1.001   8.868 -0.1417  0.1461 -0.5944
 5682SOL    HW128682   1.485   1.063   8.801  1.3573  0.9720  0.8392
 5682SOL    HW228683   1.426   1.061   8.935 -2.0126 -2.6656  1.1094
 5683SOL     OW28684   0.068   3.030   6.211 -0.4478 -0.2267  0.2810
 5683SOL    HW128685   0.142   3.012   6.154 -1.1547  1.0595 -1.0488
 5683SOL    HW228686   0.105   3.017   6.298 -0.6304  2.4738  0.7693
 5684SOL     OW28687   4.476   4.709   3.961 -0.6460 -0.0665 -0.0370
 5684SOL    HW128688   4.383   4.701   3.983 -0.7315 -2.1430 -1.1526
 5684SOL    HW228689   4.484   0.055   3.914 -0.1536 -0.8402 -1.3082
 5685SOL     OW28690   1.054   4.660  10.007 -0.0382  0.4029  0.4111
 5685SOL    HW128691   1.043   4.683   9.915  0.1103  1.4179  0.6368
 5685SOL    HW228692   1.141   4.693  10.030  0.3660 -0.9060  0.7110
 5686SOL     OW28693   1.177   2.813  16.811 -0.0533  0.0334 -0.4552
 5686SOL    HW128694   1.105   2.815  16.875 -1.3571 -2.8839 -1.7881
 5686SOL    HW228695   1.212   2.901  16.822  2.1990 -0.6731 -1.9769
 5687SOL     OW28696   0.261   0.675  10.006 -0.0178  0.5535  0.5463
 5687SOL    HW128697   0.226   0.650   9.920 -0.4795  2.8871  0.0456
 5687SOL    HW228698   0.195   0.635  10.062 -2.0037  0.9085 -1.5268
 5688SOL     OW28699   3.731   4.338   5.079 -0.5595  0.7538  0.8376
 5688SOL    HW128700   3.808   4.374   5.036 -0.5997 -0.0059  0.1238
 5688SOL    HW228701   3.684   4.420   5.093 -2.9186 -0.7501  1.7728
 5689SOL     OW28702   1.692   0.880   2.362  0.4870  0.5500 -0.4387
 5689SOL    HW128703   1.744   0.848   2.436  0.2650 -0.8051 -0.8640
 5689SOL    HW228704   1.743   0.850   2.287  2.5978 -2.8683  2.3561
 5690SOL     OW28705   2.918   0.302   6.535 -0.1330  0.2808 -0.0450
 5690SOL    HW128706   2.881   0.390   6.547  1.4162  0.8428  0.6275
 5690SOL    HW228707   2.983   0.305   6.606 -0.4517  3.4287  0.1396
 5691SOL     OW28708   2.503   2.905   3.280  0.1848  0.1158 -0.0089
 5691SOL    HW128709   2.580   2.891   3.335 -0.0881 -0.4685  0.2347
 5691SOL    HW228710   2.517   2.992   3.244  2.9335  0.4224  1.7770
 5692SOL     OW28711   3.398   0.196   4.713  0.3859 -0.0211  0.1522
 5692SOL    HW128712   3.474   0.211   4.769 -0.5642 -1.7920  1.9210
 5692SOL    HW228713   3.411   0.242   4.630  3.1039 -0.3686  0.3909
 5693SOL     OW28714   1.628   0.321   8.211 -0.4884  0.0252 -0.1824
 5693SOL    HW128715   1.572   0.244   8.219  0.7724 -0.9674 -0.9322
 5693SOL    HW228716   1.561   0.389   8.203 -1.5248 -0.8938  0.6767
 5694SOL     OW28717   2.165   0.178   3.735 -0.4804  0.5615  0.0188
 5694SOL    HW128718   2.127   0.211   3.653 -0.2599 -0.4347 -0.4786
 5694SOL    HW228719   2.231   0.247   3.745  0.2816 -0.0394 -0.9260
 5695SOL     OW28720   0.795   0.306   7.099  0.1886 -0.2503  0.2242
 5695SOL    HW128721   0.786   0.379   7.038 -1.9709 -1.0446 -0.3877
 5695SOL    HW228722   0.797   0.227   7.044  1.6113 -0.7693  1.0078
 5696SOL     OW28723   2.884   1.542   8.868  0.0574  0.2372 -0.4800
 5696SOL    HW128724   2.929   1.538   8.953 -1.0984 -3.8426 -0.0738
 5696SOL    HW228725   2.794   1.550   8.900  0.0743 -0.8893 -0.1634
 5697SOL     OW28726   2.699   0.492  12.894  0.0235 -0.5475  0.5921
 5697SOL    HW128727   2.711   0.532  12.807  1.0324  1.9732  1.8870
 5697SOL    HW228728   2.653   0.412  12.871  0.9754 -1.2539  1.1280
 5698SOL     OW28729   2.240   3.429  11.269  0.2057 -0.1774 -0.3016
 5698SOL    HW128730   2.147   3.421  11.293  0.7984 -0.2339  1.9244
 5698SOL    HW228731   2.269   3.364  11.332 -0.5142  1.4032  1.6776
 5699SOL     OW28732   0.658   1.226   5.501 -0.0633 -0.2417  0.1825
 5699SOL    HW128733   0.665   1.144   5.452 -1.5360 -0.3203  0.0981
 5699SOL    HW228734   0.631   1.206   5.591  1.6163  0.1125  0.7665
 5700SOL     OW28735   0.073   0.141  10.074  0.3684  0.0158  0.1689
 5700SOL    HW128736   0.077   0.046  10.064  1.8107  0.3220 -2.2190
 5700SOL    HW228737   0.167   0.160  10.078  0.7800 -2.4339  2.0385
 5701SOL     OW28738   1.224   4.002   4.528  0.7922 -0.5196  0.2426
 5701SOL    HW128739   1.224   3.965   4.617  0.6260  0.4370  0.6384
 5701SOL    HW228740   1.299   3.961   4.485  0.3860 -1.6008  0.5771
 5702SOL     OW28741   1.694   3.960   1.173  0.6049 -0.3531 -0.1652
 5702SOL    HW128742   1.665   4.048   1.195 -1.5836 -1.0845 -0.1420
 5702SOL    HW228743   1.623   3.934   1.114  0.8669 -0.0533 -0.6196
 5703SOL     OW28744   4.532   0.186   3.548  0.3238  0.0833  0.0762
 5703SOL    HW128745   4.613   0.228   3.517 -0.2828  1.2415  0.0557
 5703SOL    HW228746   4.516   0.115   3.487  0.1439  0.6844 -0.5731
 5704SOL     OW28747   2.212   0.752   2.405 -0.1586 -0.4201 -0.4144
 5704SOL    HW128748   2.211   0.827   2.345  0.1604  1.1105  1.4848
 5704SOL    HW228749   2.117   0.753   2.419  0.0464 -0.0816  1.0087
 5705SOL     OW28750   1.221   3.364   5.879  0.1665 -0.0362  0.3784
 5705SOL    HW128751   1.143   3.308   5.879  0.8321 -0.9686  0.9032
 5705SOL    HW228752   1.225   3.396   5.789 -1.8779 -0.9709 -0.0375
 5706SOL     OW28753   1.206   3.390  15.203  0.5037  0.0020  0.0409
 5706SOL    HW128754   1.113   3.402  15.181  0.5996  0.7425  0.0351
 5706SOL    HW228755   1.194   3.378  15.297  1.2314 -1.2039 -0.0214
 5707SOL     OW28756   0.482   2.216   3.731 -0.2167 -0.2645 -0.7724
 5707SOL    HW128757   0.544   2.278   3.769 -1.1855 -0.2659  0.8110
 5707SOL    HW228758   0.400   2.244   3.773  0.2227  2.1622 -1.5421
 5708SOL     OW28759   3.857   3.002   7.539  0.1855 -0.3271 -0.4523
 5708SOL    HW128760   3.877   2.959   7.456  1.5059 -0.8736  0.1519
 5708SOL    HW228761   3.945   3.036   7.554  0.3259 -0.5517 -0.7903
 5709SOL     OW28762   1.178   0.822   3.473  0.6692 -0.1774 -0.1366
 5709SOL    HW128763   1.176   0.878   3.395 -0.0776  1.9481  1.4230
 5709SOL    HW228764   1.251   0.764   3.455 -0.9941 -2.4479  0.3806
 5710SOL     OW28765   4.165   0.277   4.894 -0.1433  0.3109 -0.2242
 5710SOL    HW128766   4.222   0.351   4.917 -0.9207  0.6397  0.6595
 5710SOL    HW228767   4.219   0.228   4.832  0.0133 -1.3201  1.2172
 5711SOL     OW28768   1.014   4.701   7.462 -0.1754  0.0647  0.1445
 5711SOL    HW128769   0.983   4.682   7.551 -1.0818  0.5302 -0.0701
 5711SOL    HW228770   0.966   0.044   7.440  0.9634  0.6738 -0.1390
 5712SOL     OW28771   4.226   1.309   4.556  0.5632 -0.5604 -0.2141
 5712SOL    HW128772   4.158   1.251   4.590 -0.1631  1.4865  1.7563
 5712SOL    HW228773   4.179   1.347   4.482 -0.4092  0.8459  1.1527
 5713SOL     OW28774   4.696   2.396   2.744 -0.0021 -0.1067 -0.5511
 5713SOL    HW128775   4.702   2.312   2.790 -1.4553  0.1650  0.1276
 5713SOL    HW228776   0.038   2.389   2.690  1.2657 -1.7448  1.5039
 5714SOL     OW28777   3.187   1.356  16.762 -0.3239 -0.5442  0.1420
 5714SOL    HW128778   3.205   1.354  16.856 -0.4224 -2.2591  0.1170
 5714SOL    HW228779   3.270   1.375  16.718 -0.5067 -0.5891 -0.2248
 5715SOL     OW28780   1.172   4.709   3.079  0.2731  0.6546  0.7210
 5715SOL    HW128781   1.125   4.670   3.005  0.0120 -0.0697  1.2624
 5715SOL    HW228782   1.166   0.065   3.053 -0.1699  1.3065  3.0936
 5716SOL     OW28783   0.444   2.339   4.398  0.3028  0.0206  0.4437
 5716SOL    HW128784   0.506   2.355   4.327 -0.6995  3.0758  0.2543
 5716SOL    HW228785   0.359   2.329   4.355  0.6710 -1.6680  0.1287
 5717SOL     OW28786   1.598   3.218   8.474  0.3107  0.3211  0.0536
 5717SOL    HW128787   1.554   3.135   8.494 -0.0644  0.4725 -0.1438
 5717SOL    HW228788   1.684   3.180   8.452 -0.6449 -2.4426  1.0144
 5718SOL     OW28789   4.131   3.027   7.566  0.0408 -0.2423 -0.3896
 5718SOL    HW128790   4.171   3.114   7.571  1.8171 -1.0701 -0.1267
 5718SOL    HW228791   4.198   2.989   7.509  0.1341  0.7488 -0.9438
 5719SOL     OW28792   0.676   1.209   7.526 -0.0369 -0.2604  0.0106
 5719SOL    HW128793   0.683   1.260   7.445  0.3195  0.1607  0.3087
 5719SOL    HW228794   0.610   1.145   7.498  1.1108 -1.1587 -0.6472
 5720SOL     OW28795   0.603   3.160  15.274 -0.1115  0.2335 -0.0677
 5720SOL    HW128796   0.509   3.165  15.260 -0.5149  0.0849  2.5944
 5720SOL    HW228797   0.626   3.248  15.246  0.3747  0.6643  1.6822
 5721SOL     OW28798   1.821   3.799  12.856  0.4963 -0.0096  0.0532
 5721SOL    HW128799   1.844   3.806  12.949 -1.3586 -1.0675  0.5867
 5721SOL    HW228800   1.851   3.709  12.844  3.5161  0.9788  0.1117
 5722SOL     OW28801   2.929   1.181  16.360 -0.1206  0.5260  0.5301
 5722SOL    HW128802   2.969   1.254  16.313 -0.2929 -1.1086 -2.1499
 5722SOL    HW228803   2.902   1.214  16.446  0.5030 -2.1758  1.7945
 5723SOL     OW28804   3.247   0.781   4.606 -0.1451  0.9219  0.4179
 5723SOL    HW128805   3.299   0.854   4.572 -3.2947  2.6601 -0.6677
 5723SOL    HW228806   3.173   0.823   4.650  0.4887  2.3566  0.1222
 5724SOL     OW28807   3.960   3.599   2.998  0.0474  0.1802  0.3695
 5724SOL    HW128808   3.984   3.511   2.970 -0.3012  1.1117 -2.7987
 5724SOL    HW228809   3.985   3.645   2.918  1.0127 -3.0369 -1.2074
 5725SOL     OW28810   4.595   2.187   5.064  0.0125 -0.3235 -0.2852
 5725SOL    HW128811   4.663   2.125   5.040 -0.8644 -2.0006  1.6217
 5725SOL    HW228812   4.526   2.121   5.055 -0.6448  0.3199 -0.0679
 5726SOL     OW28813   4.583   0.034   1.072  0.3928  0.2771 -0.2703
 5726SOL    HW128814   4.564   0.114   1.023  1.8581  0.2732 -0.8753
 5726SOL    HW228815   4.679   0.029   1.074  0.3869  1.5844  2.6438
 5727SOL     OW28816   3.173   2.178  14.088  0.3994 -0.5488 -0.2901
 5727SOL    HW128817   3.082   2.197  14.068  1.5872  0.0128 -5.2411
 5727SOL    HW228818   3.203   2.193  13.998  1.3303  3.7463  0.7385
 5728SOL     OW28819   2.314   2.161   9.218 -0.2686  0.4571  0.1775
 5728SOL    HW128820   2.288   2.245   9.256 -1.0852 -0.2187  1.1333
 5728SOL    HW228821   2.303   2.101   9.292  0.7999 -1.6813 -1.3905
 5729SOL     OW28822   1.055   2.928  17.348  0.3648  0.0577 -0.1909
 5729SOL    HW128823   0.976   2.917  17.401  1.2349 -3.5315  0.3656
 5729SOL    HW228824   1.101   2.858  17.394  0.8399  0.2109 -0.4299
 5730SOL     OW28825   4.059   3.356   7.837 -0.5961  0.0627 -0.0831
 5730SOL    HW128826   3.964   3.356   7.845 -0.2939  1.2823  3.2642
 5730SOL    HW228827   4.073   3.406   7.756 -0.8147  3.2877  1.8661
 5731SOL     OW28828   0.168   2.357   6.944 -0.4919 -0.2634 -0.1719
 5731SOL    HW128829   0.163   2.445   6.980 -2.0694 -1.1091  1.6774
 5731SOL    HW228830   0.078   2.329   6.962 -0.2706 -0.7484  0.1836
 5732SOL     OW28831   4.462   0.868   4.913 -0.8358  0.4283 -0.5246
 5732SOL    HW128832   4.542   0.817   4.901 -1.3719 -0.6962  0.7870
 5732SOL    HW228833   4.416   0.819   4.845 -0.9252 -2.2566  1.5012
 5733SOL     OW28834   1.164   4.648  11.561 -0.2526  0.2015 -0.0041
 5733SOL    HW128835   1.234   4.598  11.518  1.3433  1.0729  1.5362
 5733SOL    HW228836   1.196   0.002  11.558 -0.0856  0.1142 -0.7616
 5734SOL     OW28837   0.560   3.017   5.152  0.3866  0.3471 -0.3312
 5734SOL    HW128838   0.649   3.040   5.177 -0.2049  1.5597  0.6387
 5734SOL    HW228839   0.572   3.006   5.058 -0.3796 -3.4180  0.0007
 5735SOL     OW28840   0.782   2.240   5.484  0.2278  0.1603  0.8246
 5735SOL    HW128841   0.765   2.251   5.578  3.2221  0.7767  1.2933
 5735SOL    HW228842   0.869   2.201   5.487 -0.1700 -0.8424 -0.5284
 5736SOL     OW28843   0.810   4.357  13.711  0.4611  0.0681 -0.4571
 5736SOL    HW128844   0.901   4.388  13.715  0.1517  0.9852 -0.5837
 5736SOL    HW228845   0.786   4.388  13.798  0.2145  1.4264 -1.0048
 5737SOL     OW28846   1.488   0.458   3.791 -0.2600 -0.4694  0.1465
 5737SOL    HW128847   1.453   0.546   3.783  0.4304 -0.2642 -0.5794
 5737SOL    HW228848   1.406   0.407   3.791  0.1381 -1.1094 -0.1341
 5738SOL     OW28849   0.965   3.724   5.679 -0.3361 -0.4499 -0.1813
 5738SOL    HW128850   1.044   3.752   5.724  0.9634 -2.5797 -1.1375
 5738SOL    HW228851   0.898   3.747   5.743  1.1429  2.5239  0.2439
 5739SOL     OW28852   3.057   3.991   7.906 -0.4066 -0.4673  0.2064
 5739SOL    HW128853   3.029   3.982   7.997 -1.6887  1.3303 -0.0007
 5739SOL    HW228854   2.986   4.050   7.878 -0.1243 -0.0770  0.3118
 5740SOL     OW28855   1.767   2.022   8.364 -0.2324  0.0444  0.6403
 5740SOL    HW128856   1.814   2.030   8.281 -0.6744 -0.1218  0.3703
 5740SOL    HW228857   1.750   2.115   8.380  0.0590  0.0214  1.0652
 5741SOL     OW28858   4.616   2.195   7.831  0.2236  0.7423 -0.7941
 5741SOL    HW128859   4.692   2.137   7.829 -0.2440  0.0821  0.8006
 5741SOL    HW228860   4.581   2.197   7.741 -2.9744 -0.2697  0.4232
 5742SOL     OW28861   3.968   2.106   6.484  0.3014 -0.0227  0.5812
 5742SOL    HW128862   3.895   2.074   6.537  0.2097 -2.4255 -0.9724
 5742SOL    HW228863   3.988   2.195   6.515 -1.0418 -1.1040  4.6104
 5743SOL     OW28864   3.728   1.364   3.490  0.2711 -0.0852  0.4478
 5743SOL    HW128865   3.755   1.274   3.506  0.4715 -0.2135 -0.6588
 5743SOL    HW228866   3.682   1.358   3.407  0.5407  1.1744  0.1948
 5744SOL     OW28867   4.255   1.977   1.107 -0.2401  0.6942  0.1400
 5744SOL    HW128868   4.284   1.958   1.196  0.4810  1.3911  0.0404
 5744SOL    HW228869   4.341   1.992   1.070  0.1640 -0.0066  0.7992
 5745SOL     OW28870   3.391   1.169   9.999  0.0777 -0.7744 -1.1083
 5745SOL    HW128871   3.465   1.222   9.967 -0.0696  0.2466  0.2346
 5745SOL    HW228872   3.419   1.080   9.977  1.4482 -0.1475 -1.9717
 5746SOL     OW28873   0.283   4.474  13.790 -0.4363 -0.0629  0.3799
 5746SOL    HW128874   0.215   4.415  13.819 -0.4227  0.9567  2.5063
 5746SOL    HW228875   0.338   4.475  13.868 -1.5345  3.4116  1.1043
 5747SOL     OW28876   1.250   1.627   9.001 -0.2049  0.6400 -0.0564
 5747SOL    HW128877   1.200   1.629   9.083 -2.0418 -1.0799 -1.1525
 5747SOL    HW228878   1.180   1.619   8.937 -0.1248  0.0765 -0.0697
 5748SOL     OW28879   4.214   0.259   7.764  0.0677  0.6663 -0.2607
 5748SOL    HW128880   4.163   0.338   7.744 -0.0658  0.6101 -0.1437
 5748SOL    HW228881   4.187   0.249   7.855  1.6361 -0.0087  0.1375
 5749SOL     OW28882   2.844   1.834   6.828 -0.4977  0.1775  0.0191
 5749SOL    HW128883   2.762   1.850   6.782 -0.6582  0.4656  0.4047
 5749SOL    HW228884   2.836   1.745   6.864 -1.3867 -0.9123 -2.8609
 5750SOL     OW28885   1.838   4.696   4.932  0.6527  0.0900 -0.2174
 5750SOL    HW128886   1.923   4.657   4.910  0.2808  0.0788 -1.6573
 5750SOL    HW228887   1.868   0.001   5.013  1.8169 -0.5836 -0.3123
 5751SOL     OW28888   4.060   0.087   0.143 -0.0644 -0.6904  0.2400
 5751SOL    HW128889   4.136   0.071   0.087  0.2251  0.4087  0.3370
 5751SOL    HW228890   4.004   0.125   0.076 -1.7681 -2.9130  0.3844
 5752SOL     OW28891   3.449   2.155   8.152 -0.7204 -0.0725  0.8916
 5752SOL    HW128892   3.433   2.076   8.099  4.0325 -0.3859 -0.1528
 5752SOL    HW228893   3.383   2.218   8.124 -1.3750 -0.3271  1.8646
 5753SOL     OW28894   2.111   4.430  10.112 -0.0971  0.6553 -0.1872
 5753SOL    HW128895   2.204   4.412  10.128 -0.7941  0.0434  3.2384
 5753SOL    HW228896   2.114   4.422  10.017  2.6028  1.2223 -0.1568
 5754SOL     OW28897   2.389   2.622   4.040 -0.3379  0.7133  0.0899
 5754SOL    HW128898   2.357   2.654   4.124 -0.6295  0.8458 -0.0738
 5754SOL    HW228899   2.312   2.582   4.000  1.6639 -0.2167 -2.8340
 5755SOL     OW28900   2.898   2.367   1.654 -0.3146  0.4218  0.0515
 5755SOL    HW128901   2.994   2.365   1.656 -0.2877  1.4864 -0.0358
 5755SOL    HW228902   2.888   2.412   1.738 -3.5721  1.2583 -0.8170
 5756SOL     OW28903   2.804   2.036   7.456 -0.3363  0.3098  0.1586
 5756SOL    HW128904   2.808   2.132   7.454 -2.5860  0.3894 -0.5322
 5756SOL    HW228905   2.717   2.027   7.417  0.0680  0.6260 -0.8349
 5757SOL     OW28906   1.875   0.396   8.263  0.0548  0.4437  0.2732
 5757SOL    HW128907   1.794   0.363   8.225  0.0426  0.9879 -0.1753
 5757SOL    HW228908   1.926   0.441   8.196  1.5024  1.6955  2.2149
 5758SOL     OW28909   0.784   3.865   9.399  0.0273 -0.0490  0.2428
 5758SOL    HW128910   0.777   3.776   9.366  1.0707 -0.2845  0.6573
 5758SOL    HW228911   0.807   3.849   9.490 -0.2200  0.2928  0.3682
 5759SOL     OW28912   0.719   4.433   8.826 -0.3609 -0.0786  0.6203
 5759SOL    HW128913   0.739   4.403   8.737  3.1563 -3.5372  2.5765
 5759SOL    HW228914   0.759   4.518   8.812  2.2848 -1.3177  0.6224
 5760SOL     OW28915   4.104   3.394   8.356  0.2608 -0.4800 -0.2899
 5760SOL    HW128916   4.099   3.425   8.265 -0.5640  0.6020  0.1293
 5760SOL    HW228917   4.141   3.471   8.400 -0.8446  0.3561 -0.8303
 5761SOL     OW28918   3.158   2.304   1.367 -0.4797  0.1680  0.0509
 5761SOL    HW128919   3.108   2.385   1.356  0.9811  1.0639  0.0942
 5761SOL    HW228920   3.172   2.304   1.462  0.1618 -1.6514 -0.0494
 5762SOL     OW28921   1.973   2.560  13.282 -0.3260 -0.6111  0.4543
 5762SOL    HW128922   1.936   2.630  13.228  0.1998 -1.2883 -0.7910
 5762SOL    HW228923   2.062   2.589  13.303 -0.0653 -0.5112 -0.7983
 5763SOL     OW28924   1.876   0.525   3.011 -0.2402  0.2383 -0.4752
 5763SOL    HW128925   1.796   0.523   2.959 -0.6720  2.1414  0.1255
 5763SOL    HW228926   1.844   0.578   3.084 -0.4380 -0.4089 -0.0977
 5764SOL     OW28927   2.895   4.129  14.925 -0.0100  0.5079 -0.7139
 5764SOL    HW128928   2.859   4.041  14.932  3.6426 -0.9886 -0.5283
 5764SOL    HW228929   2.898   4.139  14.830 -1.2634 -0.9705 -0.8911
 5765SOL     OW28930   1.850   2.683  15.063  0.4157  0.6243  0.0061
 5765SOL    HW128931   1.851   2.722  14.976  2.9464 -0.7946 -0.5815
 5765SOL    HW228932   1.868   2.591  15.045  0.3464  0.5534  0.3038
 5766SOL     OW28933   2.763   4.351   7.548  1.0796  0.2204 -0.2120
 5766SOL    HW128934   2.846   4.357   7.594  0.1120  3.0250  1.1603
 5766SOL    HW228935   2.781   4.385   7.460 -2.6382 -0.3891 -1.2070
 5767SOL     OW28936   3.209   1.960   4.675  0.3464 -0.2797  0.1025
 5767SOL    HW128937   3.166   2.042   4.697  1.0810  0.2368 -0.4280
 5767SOL    HW228938   3.136   1.905   4.707 -1.0723  0.3287 -2.0531
 5768SOL     OW28939   1.468   1.055   0.722 -0.1930  0.4783 -0.3736
 5768SOL    HW128940   1.535   0.997   0.759 -1.3225 -0.1261  0.7458
 5768SOL    HW228941   1.432   1.100   0.799  0.9818  1.4849 -0.4115
 5769SOL     OW28942   2.224   4.144   5.980 -0.2930  0.2799 -0.0326
 5769SOL    HW128943   2.197   4.065   6.026 -0.8390  0.7856  0.5201
 5769SOL    HW228944   2.144   4.170   5.934 -0.4979  0.8403  0.6340
 5770SOL     OW28945   3.382   4.222   3.955  0.4085 -0.0841  0.3265
 5770SOL    HW128946   3.373   4.312   3.922 -1.2823 -0.0463  0.9175
 5770SOL    HW228947   3.478   4.215   3.960  0.3490 -0.1760  1.4187
 5771SOL     OW28948   2.231   1.970   6.536 -0.1497  0.0937 -0.2487
 5771SOL    HW128949   2.192   2.024   6.605 -1.7914 -1.5804  0.1410
 5771SOL    HW228950   2.147   1.969   6.489  0.2902 -0.0407 -1.0470
 5772SOL     OW28951   3.862   2.100   3.237  0.8456 -0.1040  0.0920
 5772SOL    HW128952   3.841   2.191   3.255  0.5733  0.7410 -4.4897
 5772SOL    HW228953   3.922   2.076   3.307 -1.8377 -0.1837  2.3460
 5773SOL     OW28954   3.880   3.365   5.165 -0.2515  0.0904 -0.1542
 5773SOL    HW128955   3.945   3.295   5.168 -0.3272  0.1302  2.0681
 5773SOL    HW228956   3.874   3.376   5.259 -0.0316  4.4479 -0.6786
 5774SOL     OW28957   0.974   2.678   2.916  1.1861  0.0660  0.6848
 5774SOL    HW128958   0.912   2.742   2.881  1.3983 -0.9677 -1.5928
 5774SOL    HW228959   0.958   2.684   3.010 -0.0694 -3.5599  0.7170
 5775SOL     OW28960   2.880   4.409   3.598 -0.2438  0.5228  0.6105
 5775SOL    HW128961   2.915   4.343   3.658  1.0352  1.6113  1.0361
 5775SOL    HW228962   2.810   4.361   3.553  1.1447 -0.4974 -0.4553
 5776SOL     OW28963   0.229   1.637   6.744  0.3931 -0.4863  0.5313
 5776SOL    HW128964   0.288   1.712   6.748 -1.2933  0.7835  1.6844
 5776SOL    HW228965   0.185   1.644   6.829 -0.0311  1.7304  0.1325
 5777SOL     OW28966   0.440   3.945   3.499  0.5148  0.0679 -0.0500
 5777SOL    HW128967   0.396   3.922   3.417 -1.5484  1.9964  0.5324
 5777SOL    HW228968   0.472   4.033   3.481 -0.5930 -0.1029 -2.9683
 5778SOL     OW28969   1.335   3.917   9.998 -0.1984 -0.3780  0.1106
 5778SOL    HW128970   1.313   3.957  10.081 -1.5734 -2.7158  0.8696
 5778SOL    HW228971   1.287   3.980   9.945 -1.5943 -0.7552  0.9332
 5779SOL     OW28972   2.791   2.009  14.644  0.0721  0.2298  0.1497
 5779SOL    HW128973   2.786   2.081  14.706  2.9907  0.7880 -0.2485
 5779SOL    HW228974   2.858   1.957  14.688  0.5215  2.8705  2.5242
 5780SOL     OW28975   2.372   1.556   1.982  0.3900  0.2533 -0.1214
 5780SOL    HW128976   2.415   1.639   2.002  0.2471  0.3632 -0.2694
 5780SOL    HW228977   2.290   1.562   2.031 -1.0666  1.1057 -2.6618
 5781SOL     OW28978   3.328   3.136   4.664  0.3861 -0.2518 -0.2645
 5781SOL    HW128979   3.289   3.055   4.698 -1.6058  0.2447 -1.3295
 5781SOL    HW228980   3.268   3.156   4.592 -0.1173  1.6653  0.6988
 5782SOL     OW28981   2.739   0.842   6.187 -0.0194  0.4867 -0.1503
 5782SOL    HW128982   2.769   0.930   6.165 -1.7346  1.3469  0.9816
 5782SOL    HW228983   2.689   0.860   6.267  2.2967 -0.6885  1.5817
 5783SOL     OW28984   0.210   1.144   6.187  0.0011 -0.4444  0.8879
 5783SOL    HW128985   0.152   1.147   6.263 -0.2250  0.5337  0.6680
 5783SOL    HW228986   0.288   1.114   6.232 -0.2412 -0.1610  1.4966
 5784SOL     OW28987   2.666   3.917   2.060 -0.1714  0.0696 -0.2019
 5784SOL    HW128988   2.664   3.854   2.132  1.6503 -0.1508 -0.3475
 5784SOL    HW228989   2.591   3.966   2.094 -0.3119 -0.3391  0.0786
 5785SOL     OW28990   0.719   4.260   6.977 -0.1532 -0.2855 -0.2886
 5785SOL    HW128991   0.633   4.298   6.995  0.1510  0.1765  0.1758
 5785SOL    HW228992   0.731   4.303   6.892  0.2472  1.2668  0.5464
 5786SOL     OW28993   3.272   0.652   5.033  0.3494  0.2675  0.2333
 5786SOL    HW128994   3.238   0.735   5.067 -0.1727 -0.4913  1.5719
 5786SOL    HW228995   3.357   0.688   5.007 -0.1827  1.8563  0.7003
 5787SOL     OW28996   3.997   3.057   5.822 -0.4072 -0.0994  0.6416
 5787SOL    HW128997   3.940   3.070   5.898  0.9357 -0.8233  1.7581
 5787SOL    HW228998   4.023   3.149   5.815 -0.5442  0.0422  1.9772
 5788SOL     OW28999   4.315   1.095   3.194 -0.0467  0.2343  0.0266
 5788SOL    HW129000   4.301   1.135   3.108 -0.1833  1.0773  0.4402
 5788SOL    HW229001   4.394   1.142   3.220  1.5231 -3.0870  1.3554
 5789SOL     OW29002   3.273   0.283   4.084  0.2784 -0.2887 -0.4288
 5789SOL    HW129003   3.364   0.265   4.106 -0.2719  0.9939  2.8632
 5789SOL    HW229004   3.286   0.317   3.995 -1.3336 -0.0182 -0.5675
 5790SOL     OW29005   1.693   2.296   8.442  0.4159  0.1662  0.1678
 5790SOL    HW129006   1.677   2.356   8.369 -0.0377 -0.4799 -0.2664
 5790SOL    HW229007   1.654   2.341   8.518  0.7457 -1.2348  1.1531
 5791SOL     OW29008   2.404   4.227   6.438 -0.1377  0.2788 -0.2034
 5791SOL    HW129009   2.499   4.224   6.441 -0.2877 -1.3582  2.1664
 5791SOL    HW229010   2.394   4.261   6.527 -0.8027  1.8880 -0.8758
 5792SOL     OW29011   4.154   3.396   6.274 -0.2177  0.6418 -0.1618
 5792SOL    HW129012   4.133   3.487   6.297  3.2034  1.0677  1.1832
 5792SOL    HW229013   4.245   3.387   6.302  0.0855  2.6859 -0.5204
 5793SOL     OW29014   3.254   4.681  11.505  0.1264 -0.0231 -0.0972
 5793SOL    HW129015   3.188   4.728  11.557 -0.2144 -1.3614  0.6917
 5793SOL    HW229016   3.315   4.670  11.578  2.2964  1.1462 -1.7382
 5794SOL     OW29017   0.358   2.612  11.789 -0.4771 -0.3126 -0.7123
 5794SOL    HW129018   0.277   2.661  11.807  0.4840  0.5554  1.1502
 5794SOL    HW229019   0.332   2.524  11.763 -0.9546  0.4724 -2.9178
 5795SOL     OW29020   0.846   2.210  13.133  0.0657 -0.2726  0.1319
 5795SOL    HW129021   0.896   2.290  13.125 -2.2152  1.2768  1.2867
 5795SOL    HW229022   0.901   2.143  13.092 -1.1849 -0.7707 -0.7362
 5796SOL     OW29023   1.488   3.712   6.562 -0.1336 -0.1341 -0.0650
 5796SOL    HW129024   1.441   3.634   6.591  0.4117 -0.9985 -1.5239
 5796SOL    HW229025   1.568   3.666   6.534 -0.5772 -1.0186  0.1108
 5797SOL     OW29026   4.606   0.756   5.201  0.1980 -0.3153 -0.3195
 5797SOL    HW129027   4.534   0.716   5.249  0.6839 -0.4452  0.2947
 5797SOL    HW229028   4.612   0.684   5.138  0.0831 -0.6095  0.0103
 5798SOL     OW29029   3.650   0.040   6.996  0.2870 -0.1654  0.4355
 5798SOL    HW129030   3.737   0.070   6.971 -0.4196 -0.2732 -2.1266
 5798SOL    HW229031   3.619   0.012   6.910 -1.5547 -0.6425  1.2420
 5799SOL     OW29032   3.705   0.274  13.950  0.2783  0.1729 -0.0933
 5799SOL    HW129033   3.720   0.310  13.863 -1.0070  0.9344 -0.0064
 5799SOL    HW229034   3.793   0.248  13.976 -0.7780 -1.8058  1.5116
 5800SOL     OW29035   1.367   1.212   3.432  0.0326 -0.4149  0.5859
 5800SOL    HW129036   1.328   1.126   3.415  0.3224 -0.4026 -0.1252
 5800SOL    HW229037   1.293   1.253   3.476 -0.3883 -0.1089 -0.4042
 5801SOL     OW29038   3.322   0.636   8.736 -0.3350 -0.5061 -0.2736
 5801SOL    HW129039   3.264   0.566   8.767 -3.5346  1.2713 -2.2822
 5801SOL    HW229040   3.331   0.615   8.643  1.0503  0.2320 -0.3080
 5802SOL     OW29041   4.465   3.861   9.477  0.0345 -0.0302 -0.1070
 5802SOL    HW129042   4.484   3.894   9.389  0.0808  2.1379  0.7346
 5802SOL    HW229043   4.420   3.781   9.449 -1.3899  0.0239  2.0611
 5803SOL     OW29044   2.101   1.343   7.621 -0.1032 -0.0109 -0.0759
 5803SOL    HW129045   2.058   1.295   7.692 -0.3895 -3.4531 -2.5847
 5803SOL    HW229046   2.184   1.362   7.664  0.3017  0.2622 -0.9951
 5804SOL     OW29047   1.303   1.829   5.346  0.4299  0.2173  0.4307
 5804SOL    HW129048   1.296   1.831   5.442  2.4234  0.1764  0.5661
 5804SOL    HW229049   1.397   1.823   5.330  0.7506 -0.2631  2.4600
 5805SOL     OW29050   0.450   2.337   8.308 -0.2127 -0.2214 -0.5350
 5805SOL    HW129051   0.463   2.421   8.351  0.3131 -0.7564  0.3631
 5805SOL    HW229052   0.424   2.363   8.220  0.3169 -2.3928 -1.3479
 5806SOL     OW29053   0.612   4.271   2.437 -0.6307 -0.3150  0.7709
 5806SOL    HW129054   0.684   4.330   2.458  0.1249 -0.7654 -0.5754
 5806SOL    HW229055   0.555   4.339   2.401 -0.9118 -0.7729  0.3424
 5807SOL     OW29056   3.802   1.006   5.000 -0.0546 -0.4378 -0.2031
 5807SOL    HW129057   3.719   0.993   5.046  0.6214  1.6327  1.6192
 5807SOL    HW229058   3.819   0.920   4.963  0.8929 -0.8169  1.1168
 5808SOL     OW29059   2.632   1.345   5.846 -0.1617  0.0056  0.4152
 5808SOL    HW129060   2.615   1.251   5.850 -0.5169  0.0073 -1.1929
 5808SOL    HW229061   2.563   1.385   5.899 -1.5253 -0.8141 -0.7489
 5809SOL     OW29062   3.374   1.979   7.284 -0.3458  0.5707  0.3308
 5809SOL    HW129063   3.417   1.905   7.327 -1.9251 -1.6837 -2.0139
 5809SOL    HW229064   3.283   1.955   7.300 -1.2025  1.3589 -3.4084
 5810SOL     OW29065   2.088   3.200   4.075 -0.3803  0.5445 -0.3445
 5810SOL    HW129066   2.133   3.139   4.133  0.8059 -1.1832 -3.0796
 5810SOL    HW229067   2.010   3.156   4.042  0.1232 -1.2955  0.9133
 5811SOL     OW29068   0.681   2.913   3.601  0.4525  0.4831  0.2501
 5811SOL    HW129069   0.702   2.988   3.657  2.6156  0.1015 -0.0406
 5811SOL    HW229070   0.733   2.845   3.644 -0.0112  1.4951  2.3777
 5812SOL     OW29071   2.091   4.271   3.524 -0.4353 -0.3167  0.4068
 5812SOL    HW129072   2.010   4.222   3.514 -1.5850  1.1375  2.5784
 5812SOL    HW229073   2.067   4.359   3.493 -0.8379 -0.3230  0.7002
 5813SOL     OW29074   3.395   1.982   3.348 -0.3180 -0.1207  0.3488
 5813SOL    HW129075   3.386   1.900   3.398 -0.6330  1.1126  2.2936
 5813SOL    HW229076   3.487   2.003   3.364 -1.1705  2.9780  1.1598
 5814SOL     OW29077   0.082   4.585   7.546  0.3543  0.0050 -0.5069
 5814SOL    HW129078   0.119   4.535   7.619 -0.0684  1.0887  0.4359
 5814SOL    HW229079   0.020   4.645   7.586  0.1620 -1.0143  0.7328
 5815SOL     OW29080   0.555   2.853   9.271  0.0622  0.1773 -0.1888
 5815SOL    HW129081   0.558   2.827   9.363  1.1183 -2.0124 -0.8229
 5815SOL    HW229082   0.632   2.910   9.270 -0.2024  0.5675  1.2028
 5816SOL     OW29083   1.098   2.297   0.989  0.4252  0.2769 -0.1848
 5816SOL    HW129084   1.134   2.223   0.940 -1.9485 -1.7372  1.0956
 5816SOL    HW229085   1.008   2.293   0.958  0.3411  1.0449 -0.0314
 5817SOL     OW29086   4.528   2.634  13.832  0.2682  0.1525 -0.5920
 5817SOL    HW129087   4.555   2.726  13.827  0.3503  0.0715 -1.5741
 5817SOL    HW229088   4.437   2.631  13.861  0.3680  0.4096 -0.2467
 5818SOL     OW29089   2.243   1.485   3.544  0.2892  0.1021 -0.5930
 5818SOL    HW129090   2.323   1.482   3.492 -1.3020 -0.4899 -2.9729
 5818SOL    HW229091   2.245   1.409   3.603  1.8692  0.0659 -0.7037
 5819SOL     OW29092   3.822   3.638   8.402 -0.0540 -0.4661  0.2921
 5819SOL    HW129093   3.830   3.723   8.358 -1.1099  0.9856  2.8693
 5819SOL    HW229094   3.741   3.615   8.357 -0.5519 -0.7823  1.3462
 5820SOL     OW29095   3.211   0.910   8.700 -0.0153 -0.2984 -0.2062
 5820SOL    HW129096   3.277   0.855   8.658  1.1916  0.4411  0.7333
 5820SOL    HW229097   3.249   0.923   8.787 -1.5859  1.5314  0.2056
 5821SOL     OW29098   4.207   3.853   7.111  0.3923 -0.4706 -0.1361
 5821SOL    HW129099   4.282   3.891   7.156  1.1277 -0.8807 -1.0248
 5821SOL    HW229100   4.151   3.930   7.109  0.9491 -0.0552  0.4214
 5822SOL     OW29101   3.474   0.116  16.551  0.1477  0.0287 -0.5185
 5822SOL    HW129102   3.566   0.092  16.541 -0.2868 -1.9221  0.0982
 5822SOL    HW229103   3.431   0.038  16.517  1.0572 -0.4136 -0.6437
 5823SOL     OW29104   1.657   1.437  14.316 -0.0334  0.4040 -0.4234
 5823SOL    HW129105   1.733   1.446  14.259  0.6072 -1.1211  0.1851
 5823SOL    HW229106   1.598   1.418  14.243 -1.4200  2.0225  0.2824
 5824SOL     OW29107   1.185   0.453   2.724  0.1858  0.2031 -0.3978
 5824SOL    HW129108   1.222   0.524   2.672  1.3407  0.1424  0.3273
 5824SOL    HW229109   1.103   0.438   2.678 -1.3866  0.0058  2.4199
 5825SOL     OW29110   2.864   1.717  17.544 -0.0042  1.0187  0.5133
 5825SOL    HW129111   2.910   1.643  17.584  0.0870  0.0585 -1.3344
 5825SOL    HW229112   2.805   1.670  17.485  1.1259 -0.6487  0.7013
 5826SOL     OW29113   4.041   0.313   5.166  0.1883 -0.1502  0.6689
 5826SOL    HW129114   4.054   0.349   5.079 -1.0098  1.7778  1.2770
 5826SOL    HW229115   4.074   0.224   5.164 -1.6527 -0.8378  0.8923
 5827SOL     OW29116   0.763   1.736   4.030 -0.1344  0.1264  0.2216
 5827SOL    HW129117   0.800   1.685   4.102  1.0674 -1.7244 -1.6847
 5827SOL    HW229118   0.824   1.719   3.959 -1.7677  0.8527 -1.3563
 5828SOL     OW29119   2.914   1.174   8.988  0.2712  0.2384 -0.7606
 5828SOL    HW129120   2.904   1.234   9.062  0.3145  0.3664 -0.8578
 5828SOL    HW229121   2.852   1.210   8.925 -0.8583  0.6575  0.5950
 5829SOL     OW29122   0.102   2.710   4.393  0.2303  0.3991  0.4424
 5829SOL    HW129123   0.052   2.786   4.363 -3.8090 -0.5964  4.6498
 5829SOL    HW229124   0.098   2.650   4.318  0.6901 -1.0183  1.5466
 5830SOL     OW29125   4.266   3.765   5.216  0.0224 -0.0569 -0.3937
 5830SOL    HW129126   4.291   3.847   5.174  0.9218  0.3054  0.8545
 5830SOL    HW229127   4.176   3.765   5.183 -0.4378 -0.1949  0.8442
 5831SOL     OW29128   4.284   3.954   8.757  0.5844 -0.4073 -0.2210
 5831SOL    HW129129   4.248   3.977   8.843  0.3446 -0.5969 -0.2708
 5831SOL    HW229130   4.324   4.037   8.731  1.3711 -0.7618 -0.1265
 5832SOL     OW29131   4.197   1.340   3.548 -0.4828  0.7036  0.1960
 5832SOL    HW129132   4.115   1.375   3.583 -1.6135  1.4426 -3.2024
 5832SOL    HW229133   4.257   1.363   3.619  0.2725 -0.7602  0.0460
 5833SOL     OW29134   4.281   0.702   7.134  0.7929  0.3221 -0.5514
 5833SOL    HW129135   4.201   0.744   7.101 -0.1634 -0.7002  0.4357
 5833SOL    HW229136   4.238   0.638   7.191  2.1814  0.3003  0.4904
 5834SOL     OW29137   0.087   2.773   2.507  0.0553 -0.4999  0.0379
 5834SOL    HW129138   0.100   2.791   2.601  1.5185 -2.5648  0.2127
 5834SOL    HW229139   0.023   2.702   2.515 -0.0362 -0.4104  0.1097
 5835SOL     OW29140   0.774   4.354   2.040  0.1090 -0.6545 -0.5192
 5835SOL    HW129141   0.842   4.304   1.995  0.3233 -0.6721 -0.1738
 5835SOL    HW229142   0.693   4.312   2.012 -1.7442  0.3501  3.3921
 5836SOL     OW29143   0.866   3.639  13.302  0.5195 -0.4219 -0.2100
 5836SOL    HW129144   0.810   3.565  13.278  1.4320 -0.9817 -0.6011
 5836SOL    HW229145   0.943   3.645  13.245 -0.5173 -1.9763 -1.7427
 5837SOL     OW29146   3.889   0.388   7.196 -0.6227  0.0510 -0.0921
 5837SOL    HW129147   3.969   0.396   7.249 -0.9437  0.0468  0.3929
 5837SOL    HW229148   3.849   0.313   7.239  0.5496 -1.4186 -1.5583
 5838SOL     OW29149   0.930   3.482  15.080  0.0846  0.0803  0.6311
 5838SOL    HW129150   0.977   3.515  15.004 -1.0280 -0.7373 -0.4074
 5838SOL    HW229151   0.862   3.420  15.056  0.0271  0.3474  0.0984
 5839SOL     OW29152   2.019   2.571   8.098 -0.3037 -0.0383  0.5301
 5839SOL    HW129153   2.000   2.665   8.097 -1.1875 -0.2049  2.8255
 5839SOL    HW229154   2.017   2.548   8.006 -1.9039 -2.4257  1.1761
 5840SOL     OW29155   0.884   0.525  15.153 -0.2662 -0.1648 -0.1700
 5840SOL    HW129156   0.913   0.435  15.135  1.0049  0.3655 -0.7242
 5840SOL    HW229157   0.889   0.521  15.248  0.4059 -3.2529 -0.3307
 5841SOL     OW29158   0.681   2.500  16.951 -0.0655  0.0737  0.1849
 5841SOL    HW129159   0.619   2.485  16.879  0.1294 -3.7700  0.8084
 5841SOL    HW229160   0.616   2.537  17.012  0.4694 -0.6137  1.1814
 5842SOL     OW29161   2.283   3.263   5.978  0.9729 -0.0794 -0.4178
 5842SOL    HW129162   2.345   3.334   5.997 -0.6974  1.1138  0.5806
 5842SOL    HW229163   2.333   3.240   5.900 -0.9971  2.0302 -2.2655
 5843SOL     OW29164   0.666   4.558   8.094  0.4612 -0.6102  0.1054
 5843SOL    HW129165   0.625   4.481   8.054 -0.2163  1.0328 -2.2780
 5843SOL    HW229166   0.592   4.596   8.140 -0.6623 -1.8778 -0.6590
 5844SOL     OW29167   4.404   0.178   4.384  0.2880  0.1037  0.6877
 5844SOL    HW129168   4.495   0.193   4.409  0.8807 -1.3563 -0.5813
 5844SOL    HW229169   4.364   0.257   4.419 -0.4735 -0.5186  1.2172
 5845SOL     OW29170   1.519   0.749   8.833 -0.5334 -0.2167 -0.3444
 5845SOL    HW129171   1.550   0.781   8.749  0.4159  1.0796  0.5003
 5845SOL    HW229172   1.469   0.827   8.859 -1.5661  0.2975 -3.9622
 5846SOL     OW29173   3.037   1.114   3.940 -0.0768  0.2555 -0.2955
 5846SOL    HW129174   3.041   1.094   3.846  1.5654  0.8788 -0.3494
 5846SOL    HW229175   2.961   1.172   3.938  0.2492  0.6636 -1.0105
 5847SOL     OW29176   0.485   2.949   2.025  0.2541 -0.2831  0.5476
 5847SOL    HW129177   0.479   2.856   2.047 -3.7525 -0.2771 -0.5293
 5847SOL    HW229178   0.478   2.996   2.109  0.8550  0.9083 -0.0696
 5848SOL     OW29179   3.223   0.014   9.420 -0.3915  0.2255 -0.6183
 5848SOL    HW129180   3.201   4.701   9.500  0.1282  2.5101  0.9378
 5848SOL    HW229181   3.273   4.679   9.379 -0.7431 -1.4663  1.8708
 5849SOL     OW29182   4.037   2.415   2.654 -0.2920  0.2499  0.3339
 5849SOL    HW129183   3.942   2.411   2.668 -0.1863  0.0035  0.9489
 5849SOL    HW229184   4.060   2.354   2.723  0.1717  0.8089  0.6753
 5850SOL     OW29185   3.516   4.420   1.445 -0.4850 -0.5204 -0.2733
 5850SOL    HW129186   3.527   4.329   1.416 -3.2100 -1.0770  0.4792
 5850SOL    HW229187   3.588   4.429   1.507 -0.2628  1.2235 -0.7737
 5851SOL     OW29188   1.171   0.450  12.162  0.2595 -0.4143 -0.2089
 5851SOL    HW129189   1.137   0.368  12.198 -1.2625 -0.6845 -2.2943
 5851SOL    HW229190   1.207   0.417  12.080 -2.0416  1.4921 -2.0317
 5852SOL     OW29191   0.930   3.719   3.566  0.1203  0.2582 -0.3102
 5852SOL    HW129192   0.926   3.656   3.494 -1.3207 -0.1533  0.1411
 5852SOL    HW229193   1.017   3.707   3.605 -1.1981 -0.1848  2.5026
 5853SOL     OW29194   3.537   3.562   1.327 -0.0381 -0.0226  0.6850
 5853SOL    HW129195   3.567   3.513   1.403 -1.3595  0.7195  1.6908
 5853SOL    HW229196   3.576   3.512   1.256 -0.4849  0.8924 -0.2073
 5854SOL     OW29197   2.172   3.555   4.992  0.3970 -0.2844  0.0063
 5854SOL    HW129198   2.268   3.560   4.990  0.3636  0.0871 -0.6817
 5854SOL    HW229199   2.146   3.627   4.935  0.2391 -0.9392 -0.7534
 5855SOL     OW29200   3.013   0.203   5.336  0.0182  0.3699 -0.9600
 5855SOL    HW129201   3.035   0.111   5.349  0.3484  0.4968 -0.6334
 5855SOL    HW229202   3.056   0.235   5.415 -0.4805 -0.0579 -0.5252
 5856SOL     OW29203   3.897   3.861  10.623  0.0336  0.1651 -0.7057
 5856SOL    HW129204   3.896   3.875  10.529 -1.0160 -2.3369 -1.0534
 5856SOL    HW229205   3.980   3.893  10.659  2.2892 -1.2640 -4.6764
 5857SOL     OW29206   2.054   1.643   2.308  0.6956  0.2642 -0.0484
 5857SOL    HW129207   2.038   1.729   2.344  0.7527 -0.0261  0.6600
 5857SOL    HW229208   2.032   1.664   2.217 -0.9617 -1.0943  0.0237
 5858SOL     OW29209   1.766   2.598   4.149 -0.4254  0.0940 -0.0135
 5858SOL    HW129210   1.696   2.578   4.211 -0.3826 -3.3995 -1.0664
 5858SOL    HW229211   1.802   2.510   4.134 -1.2189  0.0081 -1.3624
 5859SOL     OW29212   2.633   2.560  13.087  0.0274  0.0683  0.2159
 5859SOL    HW129213   2.602   2.499  13.153 -0.6745 -0.5548 -0.7078
 5859SOL    HW229214   2.726   2.572  13.108  0.9972 -2.0960 -2.8160
 5860SOL     OW29215   4.665   0.088  12.654 -0.3685  0.1354  0.1017
 5860SOL    HW129216   0.024   0.089  12.657 -0.3941 -0.6935  1.3533
 5860SOL    HW229217   4.650   0.102  12.748  2.8844 -0.7363  0.7617
 5861SOL     OW29218   0.557   4.065   9.736  0.0108 -0.2485 -0.4216
 5861SOL    HW129219   0.511   4.099   9.813  1.6275  0.1924  0.3708
 5861SOL    HW229220   0.644   4.056   9.777 -0.5408 -1.9669  0.4021
 5862SOL     OW29221   2.239   3.974   8.952  0.3771 -0.1110 -0.3837
 5862SOL    HW129222   2.322   3.971   8.999  0.6395  0.7597 -0.7987
 5862SOL    HW229223   2.275   3.987   8.864 -0.0808  4.8558  0.1711
 5863SOL     OW29224   1.004   1.499   4.954  0.7925 -0.2650 -0.1442
 5863SOL    HW129225   1.075   1.506   4.891 -0.3711 -1.7174 -1.6088
 5863SOL    HW229226   0.971   1.584   4.984  0.2014 -0.6779  0.3725
 5864SOL     OW29227   0.592   2.175   6.588  0.4108 -0.5545  0.2939
 5864SOL    HW129228   0.529   2.158   6.658 -0.2836  0.7099 -0.0263
 5864SOL    HW229229   0.587   2.271   6.581  0.3782 -0.6770 -1.4718
 5865SOL     OW29230   0.993   2.078   0.006 -0.0402 -0.7556 -0.1797
 5865SOL    HW129231   0.968   2.148  17.690 -1.0722 -0.0810  1.0388
 5865SOL    HW229232   0.926   2.011  17.737 -0.7879 -0.1275  0.4568
 5866SOL     OW29233   4.370   3.311   8.774  0.0878 -0.2819 -0.1646
 5866SOL    HW129234   4.330   3.374   8.714 -1.5233 -0.5383  0.6487
 5866SOL    HW229235   4.362   3.226   8.729 -1.1472  0.1195 -0.7215
 5867SOL     OW29236   0.142   3.366   5.234 -0.1348  0.7459 -0.2041
 5867SOL    HW129237   0.202   3.307   5.188  2.7318  1.8246  2.1426
 5867SOL    HW229238   0.113   3.314   5.309  1.3960 -1.2990 -1.0277
 5868SOL     OW29239   0.676   2.855   9.532 -0.2472  0.4642 -0.2443
 5868SOL    HW129240   0.704   2.869   9.622 -0.0045  1.2336 -0.4460
 5868SOL    HW229241   0.713   2.926   9.480  1.8482  0.8157  1.7532
 5869SOL     OW29242   1.422   3.308  11.421  0.7268  0.5098  0.1904
 5869SOL    HW129243   1.410   3.242  11.489  1.4404  1.0348  0.8304
 5869SOL    HW229244   1.517   3.298  11.414  0.6474 -1.3334  1.8251
 5870SOL     OW29245   0.104   3.482   3.048 -0.3366 -0.3089  0.3118
 5870SOL    HW129246   0.039   3.459   2.983  0.2385 -1.5542  0.1680
 5870SOL    HW229247   0.136   3.394   3.069 -0.4386 -0.7155 -1.2412
 5871SOL     OW29248   1.417   4.438   5.284 -0.9011  0.5664  0.0406
 5871SOL    HW129249   1.426   4.362   5.341 -0.6481  0.4255 -0.1850
 5871SOL    HW229250   1.336   4.409   5.243 -1.5556  1.0968  0.9816
 5872SOL     OW29251   4.147   3.711   3.560  0.1636 -0.1184 -0.2023
 5872SOL    HW129252   4.204   3.655   3.506  1.2799 -0.4067  1.2753
 5872SOL    HW229253   4.189   3.795   3.541  0.7545 -0.1334  1.0766
 5873SOL     OW29254   4.529   3.026   3.136 -0.0631  0.4267 -0.1817
 5873SOL    HW129255   4.467   2.986   3.197  2.3085  0.0977  2.0167
 5873SOL    HW229256   4.609   2.987   3.172 -1.1425 -1.8212 -0.2441
 5874SOL     OW29257   2.126   1.708   8.379  0.1600 -0.5279 -0.1129
 5874SOL    HW129258   2.144   1.799   8.400  1.5997 -0.7653 -0.2810
 5874SOL    HW229259   2.073   1.728   8.302 -0.9912  0.8709  1.0405
 5875SOL     OW29260   4.362   3.164   5.637  0.0888 -0.4148  0.0117
 5875SOL    HW129261   4.300   3.221   5.593 -0.4082 -1.7968 -1.0754
 5875SOL    HW229262   4.445   3.210   5.627  0.4628 -1.0722  0.0803
 5876SOL     OW29263   3.893   2.762  16.950 -0.3303 -0.3435 -0.0846
 5876SOL    HW129264   3.842   2.781  17.029 -1.3291 -0.9987 -0.5730
 5876SOL    HW229265   3.955   2.835  16.948  0.6092 -1.1685 -0.9077
 5877SOL     OW29266   2.006   1.155   4.145  0.2322 -0.5051 -0.5707
 5877SOL    HW129267   1.950   1.227   4.175 -0.2343 -1.0754 -0.0672
 5877SOL    HW229268   1.962   1.074   4.171 -1.5592  0.2503 -1.2741
 5878SOL     OW29269   0.478   0.204   9.611 -0.1587  0.5499 -0.6247
 5878SOL    HW129270   0.388   0.171   9.616  0.0395 -0.0041 -0.7782
 5878SOL    HW229271   0.525   0.134   9.566 -0.5033  1.4187 -2.3720
 5879SOL     OW29272   2.761   1.585  10.511  0.4459  0.2917  0.2859
 5879SOL    HW129273   2.819   1.521  10.552  1.8055  0.3362 -1.5537
 5879SOL    HW229274   2.822   1.659  10.510  0.5834  0.1573 -2.4654
 5880SOL     OW29275   3.318   0.918   2.060 -0.7042 -0.1723  0.4286
 5880SOL    HW129276   3.394   0.962   2.097 -1.3977  0.4591  1.1207
 5880SOL    HW229277   3.293   0.972   1.984  2.2409 -1.0528 -1.1561
 5881SOL     OW29278   4.651   3.442   2.857  0.4276  0.6087 -0.4403
 5881SOL    HW129279   4.615   3.366   2.811  0.4379  0.3338  0.0089
 5881SOL    HW229280   4.570   3.494   2.856 -0.5107 -0.8998 -2.2161
 5882SOL     OW29281   4.471   1.421   5.739 -0.2600 -0.1514 -0.1472
 5882SOL    HW129282   4.491   1.492   5.678  2.2683 -0.2287  0.5725
 5882SOL    HW229283   4.557   1.379   5.746 -0.4631 -0.5149  0.1228
 5883SOL     OW29284   1.669   1.600   7.065 -0.4405  0.0247 -0.5989
 5883SOL    HW129285   1.746   1.588   7.120  0.8181  0.1287 -2.3831
 5883SOL    HW229286   1.688   1.688   7.035  1.7485 -1.0551 -2.2957
 5884SOL     OW29287   2.116   3.439   4.701 -0.1221 -0.0563  0.8070
 5884SOL    HW129288   2.035   3.424   4.751 -1.1428 -3.8382 -2.0269
 5884SOL    HW229289   2.154   3.352   4.690 -0.3990  0.1026 -1.2960
 5885SOL     OW29290   3.513   2.000   4.353  0.2760  0.2038 -0.1737
 5885SOL    HW129291   3.600   1.961   4.356 -0.3061 -0.9751  0.8793
 5885SOL    HW229292   3.466   1.941   4.411 -0.5794 -0.9126 -2.0020
 5886SOL     OW29293   0.208   1.929  13.445 -0.3665 -0.0194  0.0809
 5886SOL    HW129294   0.240   1.841  13.463  0.7100  0.2691 -0.4316
 5886SOL    HW229295   0.212   1.928  13.349 -1.7977 -2.0718  0.0490
 5887SOL     OW29296   1.738   1.101   3.413  0.3808 -0.2257 -0.1555
 5887SOL    HW129297   1.663   1.044   3.432  1.4975 -0.7656  2.6043
 5887SOL    HW229298   1.690   1.183   3.425 -0.9264 -1.1504  1.0785
 5888SOL     OW29299   2.861   3.711   2.165  0.1046  0.2354  0.3425
 5888SOL    HW129300   2.860   3.646   2.094  1.3503 -0.3761  0.8860
 5888SOL    HW229301   2.796   3.671   2.223 -0.5711  0.8144 -0.0230
 5889SOL     OW29302   1.078   0.799  16.293 -0.7047 -0.3743 -0.8334
 5889SOL    HW129303   1.024   0.867  16.253  0.0229  0.6429 -0.0976
 5889SOL    HW229304   1.168   0.832  16.290  0.2639 -3.0262 -0.9461
 5890SOL     OW29305   1.256   3.503  12.151  0.0123  0.1662 -0.1398
 5890SOL    HW129306   1.336   3.531  12.196  0.4164 -0.4051 -0.5084
 5890SOL    HW229307   1.226   3.444  12.220  0.3806 -1.4843 -1.3805
 5891SOL     OW29308   3.820   4.110   0.112  0.7026  0.0523 -0.1819
 5891SOL    HW129309   3.731   4.082   0.134  0.7311 -1.4424 -1.9494
 5891SOL    HW229310   3.813   4.198   0.074  0.4787 -0.2167 -0.7701
 5892SOL     OW29311   3.374   4.342   1.928 -0.2043 -0.0529  1.0519
 5892SOL    HW129312   3.322   4.417   1.899  2.0029  0.8123 -0.7160
 5892SOL    HW229313   3.313   4.274   1.957  1.5939 -1.8022  0.7442
 5893SOL     OW29314   0.807   1.690  11.476  0.0879  0.0164 -0.3679
 5893SOL    HW129315   0.897   1.691  11.509 -0.4984  1.9453  1.2101
 5893SOL    HW229316   0.801   1.777  11.437 -2.6226 -1.2576 -2.7458
 5894SOL     OW29317   2.643   1.287  11.661  0.4049 -0.0433 -0.7264
 5894SOL    HW129318   2.619   1.340  11.737  0.1781 -1.2053  0.0146
 5894SOL    HW229319   2.648   1.198  11.695  1.2819 -0.4584 -1.9452
 5895SOL     OW29320   2.484   2.344   7.613  0.1596 -0.2597 -0.5642
 5895SOL    HW129321   2.469   2.358   7.707 -0.5871  2.2478 -1.0675
 5895SOL    HW229322   2.478   2.248   7.611  0.4698 -0.1877 -4.6429
 5896SOL     OW29323   0.925   3.305  11.898  0.4151  0.4576  0.0968
 5896SOL    HW129324   0.856   3.254  11.855  0.6854  1.7096 -1.8034
 5896SOL    HW229325   0.983   3.317  11.823  0.5315  0.4261  0.1809
 5897SOL     OW29326   1.136   0.402   4.010  0.0397 -0.1734  0.5697
 5897SOL    HW129327   1.151   0.363   4.096 -0.4245  0.0940  0.7698
 5897SOL    HW229328   1.068   0.464   4.036  0.1117  0.1973 -0.1197
 5898SOL     OW29329   1.594   4.420   6.260  0.0199 -0.0791  0.2154
 5898SOL    HW129330   1.521   4.378   6.305 -0.0459  0.6247  0.7717
 5898SOL    HW229331   1.555   4.508   6.257  0.0346 -0.1294 -1.2126
 5899SOL     OW29332   3.639   0.365   1.474  0.0633 -0.2759  0.1140
 5899SOL    HW129333   3.672   0.408   1.395  1.9409 -0.4889  0.7776
 5899SOL    HW229334   3.607   0.281   1.441 -0.1033 -0.3970  0.5750
 5900SOL     OW29335   2.175   0.369   3.177 -0.4067  0.0637 -0.0081
 5900SOL    HW129336   2.103   0.417   3.218 -0.2560 -0.5343  0.9553
 5900SOL    HW229337   2.215   0.433   3.118  1.1147  0.1609  1.1051
 5901SOL     OW29338   0.473   0.399   4.944  0.3334 -0.4060  0.6680
 5901SOL    HW129339   0.407   0.374   5.009 -1.6028 -0.8616 -1.4535
 5901SOL    HW229340   0.550   0.402   5.001  0.5142 -1.6210  0.4956
 5902SOL     OW29341   2.807   0.965   9.102 -0.6565  0.3753  0.0686
 5902SOL    HW129342   2.898   0.981   9.076 -0.1042 -0.5792  1.4135
 5902SOL    HW229343   2.779   1.057   9.106 -2.2363 -0.1697  1.6231
 5903SOL     OW29344   4.669   4.408  12.979 -0.5924  0.5338  0.1683
 5903SOL    HW129345   4.688   4.420  13.072 -1.0478 -0.2036  0.3595
 5903SOL    HW229346   4.673   4.497  12.944 -0.5565 -0.4513 -2.3684
 5904SOL     OW29347   1.581   1.573  12.904  0.4540  0.1889 -0.3047
 5904SOL    HW129348   1.653   1.549  12.845  0.5196 -3.0105  1.0648
 5904SOL    HW229349   1.571   1.666  12.884  1.0536  0.0813 -1.0961
 5905SOL     OW29350   1.067   3.034  10.532  0.2225  0.0681 -0.3051
 5905SOL    HW129351   1.069   3.051  10.438  1.3316 -1.8771 -0.6126
 5905SOL    HW229352   1.150   3.079  10.549 -0.9057  2.5215 -1.1673
 5906SOL     OW29353   0.612   3.957  14.822  0.4584  0.3194 -0.2398
 5906SOL    HW129354   0.662   3.966  14.903  0.0072 -0.0420  0.0786
 5906SOL    HW229355   0.596   3.863  14.826  0.4219  0.2772 -1.5233
 5907SOL     OW29356   3.242   0.171   7.672 -0.3212 -0.3471  0.3960
 5907SOL    HW129357   3.312   0.194   7.612  0.2725 -1.1834  0.7719
 5907SOL    HW229358   3.283   0.142   7.753  1.3841 -0.3263 -0.4579
 5908SOL     OW29359   0.870   4.718   2.343  0.0670  0.5823 -0.4536
 5908SOL    HW129360   0.956   0.022   2.354  0.6839 -0.7532 -0.3712
 5908SOL    HW229361   0.840   0.026   2.264  1.1578  1.6688 -0.2661
 5909SOL     OW29362   3.334   1.061   1.645 -0.1015 -0.6386  0.5379
 5909SOL    HW129363   3.421   1.037   1.677  0.4229  0.5470  0.0190
 5909SOL    HW229364   3.287   1.002   1.703  1.2412 -1.3949  0.8595
 5910SOL     OW29365   3.055   2.111   5.898 -0.5599 -0.3074  0.1322
 5910SOL    HW129366   3.041   2.200   5.930  3.2915  0.3822  0.0070
 5910SOL    HW229367   3.088   2.123   5.809  0.4158  0.6898  0.6174
 5911SOL     OW29368   0.843   0.441   0.113  0.4093 -0.0744 -0.4518
 5911SOL    HW129369   0.825   0.351   0.085  1.3171 -0.4805  0.2554
 5911SOL    HW229370   0.929   0.455   0.073  0.2569 -0.3958 -0.8962
 5912SOL     OW29371   3.571   1.213  14.829  0.4342 -0.2803  0.4009
 5912SOL    HW129372   3.651   1.244  14.873 -0.1048  1.3768  0.2224
 5912SOL    HW229373   3.598   1.123  14.813  0.8722 -0.1644  0.4688
 5913SOL     OW29374   4.705   4.367   2.394 -0.1740  0.3397  0.0685
 5913SOL    HW129375   0.029   4.433   2.360  2.0478 -1.8690 -0.3118
 5913SOL    HW229376   0.015   4.289   2.362 -1.5399 -1.2465  1.9404
 5914SOL     OW29377   2.405   2.882   5.743  0.1553 -0.0468  0.0227
 5914SOL    HW129378   2.357   2.801   5.763  1.5852 -0.7424  0.6418
 5914SOL    HW229379   2.450   2.860   5.662 -0.6063  0.2241 -0.4730
 5915SOL     OW29380   2.226   1.074  17.670 -0.4800  0.7658 -0.2010
 5915SOL    HW129381   2.252   1.127  17.595  0.4609  0.5201 -0.0440
 5915SOL    HW229382   2.313   1.080  17.708 -1.0645  0.0304  1.2499
 5916SOL     OW29383   0.600   2.940   7.624 -0.1210 -0.1520 -0.0560
 5916SOL    HW129384   0.508   2.964   7.632  0.2492  0.9489  0.9147
 5916SOL    HW229385   0.637   2.977   7.704  1.2665 -0.1753 -0.6898
 5917SOL     OW29386   3.759   3.680  16.267 -0.4048  0.3694 -0.2467
 5917SOL    HW129387   3.755   3.597  16.219 -2.1150 -0.8186  1.9717
 5917SOL    HW229388   3.667   3.707  16.269 -0.4759  0.2069 -0.9937
 5918SOL     OW29389   3.850   0.443   0.105  0.1894  0.5171  0.7561
 5918SOL    HW129390   3.887   0.521   0.064  1.8282 -0.8092 -0.2773
 5918SOL    HW229391   3.861   0.466   0.197 -0.4779 -0.1995  1.0205
 5919SOL     OW29392   0.603   1.344   9.218  0.2857  0.8175 -0.2300
 5919SOL    HW129393   0.508   1.343   9.223  0.3497 -0.2200  0.8674
 5919SOL    HW229394   0.608   1.251   9.196  1.4650  1.0621 -1.0134
 5920SOL     OW29395   2.159   3.137   9.394  0.0158  0.1457  0.5992
 5920SOL    HW129396   2.181   3.111   9.305 -0.2523  0.8924  0.3197
 5920SOL    HW229397   2.143   3.230   9.377  2.9844  0.6679  0.7351
 5921SOL     OW29398   1.817   2.235   0.058  0.1767  0.3059  0.1554
 5921SOL    HW129399   1.913   2.240   0.058  0.3386 -3.4665  0.6064
 5921SOL    HW229400   1.802   2.197   0.144  1.9106 -1.2801 -0.2406
 5922SOL     OW29401   4.193   2.580   6.765 -0.0734 -0.1848  0.4823
 5922SOL    HW129402   4.105   2.619   6.763 -0.6635 -1.5263  0.5360
 5922SOL    HW229403   4.250   2.645   6.806  0.4759  0.7909 -1.8085
 5923SOL     OW29404   2.577   1.995   8.374 -0.1673  1.2309  0.1953
 5923SOL    HW129405   2.504   1.938   8.397  0.0245 -0.0381 -2.3763
 5923SOL    HW229406   2.549   2.076   8.418  0.6244  0.7801  1.5486
 5924SOL     OW29407   0.676   1.558   6.444 -0.1213  0.6009  0.2884
 5924SOL    HW129408   0.635   1.523   6.523 -0.8160  0.0269 -0.3209
 5924SOL    HW229409   0.652   1.483   6.389 -0.2936  1.0360 -0.2408
 5925SOL     OW29410   4.105   2.328   4.151 -0.2321  0.0056 -0.0533
 5925SOL    HW129411   4.160   2.354   4.077 -0.5686  0.1013 -0.2734
 5925SOL    HW229412   4.083   2.236   4.135 -4.0416  1.1907 -1.7051
 5926SOL     OW29413   3.723   4.360   7.961  0.3039 -0.4869  0.0362
 5926SOL    HW129414   3.743   4.405   7.879  0.3644  1.7303  1.2836
 5926SOL    HW229415   3.782   4.408   8.019 -0.5793  0.4637  0.1510
 5927SOL     OW29416   3.261   2.633   1.238 -0.0098 -0.6877  0.4326
 5927SOL    HW129417   3.356   2.636   1.253  0.0442  1.0073 -0.1569
 5927SOL    HW229418   3.232   2.709   1.289 -2.8626  0.2608 -2.5683
 5928SOL     OW29419   0.450   4.539  14.052 -0.1715 -0.4576 -0.3060
 5928SOL    HW129420   0.466   4.482  14.128  2.6346  2.3449  1.2090
 5928SOL    HW229421   0.428   4.623  14.091 -0.6682 -0.8751  0.3088
 5929SOL     OW29422   1.124   2.855   6.645  0.2044  0.2636 -0.2993
 5929SOL    HW129423   1.037   2.883   6.617 -0.4216 -0.1629  1.2087
 5929SOL    HW229424   1.107   2.846   6.739  0.0305 -1.1003 -0.4606
 5930SOL     OW29425   2.930   1.809   3.816  0.2185 -0.5259 -0.3637
 5930SOL    HW129426   2.946   1.897   3.784  0.0092 -0.4493 -0.2584
 5930SOL    HW229427   3.012   1.789   3.861 -0.8596  0.3802  1.9890
 5931SOL     OW29428   0.072   1.994   2.185  0.5723 -0.0190  0.0506
 5931SOL    HW129429   0.149   2.035   2.145  0.5572  2.7155  2.7884
 5931SOL    HW229430   0.013   1.987   2.110  1.3034  1.0889 -0.6171
 5932SOL     OW29431   0.044   0.858   9.640 -0.5040  0.8522 -0.3299
 5932SOL    HW129432   0.117   0.914   9.613  1.2529 -1.3333 -0.0807
 5932SOL    HW229433   0.011   0.910   9.714 -0.7968 -0.8993  0.7699
 5933SOL     OW29434   2.610   4.665   7.839  0.0254 -0.0238  0.0299
 5933SOL    HW129435   2.634   4.575   7.818 -0.4388 -0.2221  0.3310
 5933SOL    HW229436   2.646   4.680   7.927 -0.0759  0.1787  0.0371
 5934SOL     OW29437   2.561   3.977   7.279 -0.1454 -0.7589 -0.0947
 5934SOL    HW129438   2.563   4.045   7.346 -1.3897 -0.2247 -0.5927
 5934SOL    HW229439   2.468   3.956   7.269 -0.0337 -0.0981 -2.6372
 5935SOL     OW29440   4.270   2.775  17.192 -0.1988  0.0377 -0.0609
 5935SOL    HW129441   4.258   2.842  17.260 -0.6695  0.8685 -0.9652
 5935SOL    HW229442   4.364   2.763  17.195 -0.1238 -0.3797 -4.1779
 5936SOL     OW29443   0.759   2.934   0.627 -0.3165 -0.0090 -0.6840
 5936SOL    HW129444   0.694   2.878   0.585  0.9001 -0.1134 -2.4489
 5936SOL    HW229445   0.815   2.865   0.660  1.3930  1.0603 -1.3215
 5937SOL     OW29446   3.892   0.907   8.930 -0.6707  0.0192 -0.2050
 5937SOL    HW129447   3.894   0.912   8.834  1.7883  0.7386 -0.1266
 5937SOL    HW229448   3.866   0.816   8.943  0.6950  0.1797  3.4938
 5938SOL     OW29449   2.593   0.704   4.483 -0.2455  0.2412 -0.1077
 5938SOL    HW129450   2.596   0.677   4.574  3.0206 -2.6484 -1.0713
 5938SOL    HW229451   2.658   0.645   4.444  0.0677 -1.2203  2.6638
 5939SOL     OW29452   3.962   1.143   1.874  0.0038 -0.2275 -0.0484
 5939SOL    HW129453   3.886   1.116   1.926  2.0163  0.1768  3.1117
 5939SOL    HW229454   4.028   1.078   1.900 -1.5079 -1.4437  0.7761
 5940SOL     OW29455   4.717   3.430   9.792  0.2703  0.0351 -0.1647
 5940SOL    HW129456   0.052   3.446   9.730 -0.3879 -2.2576 -1.5182
 5940SOL    HW229457   4.710   3.513   9.838 -0.4261 -1.4872  2.5246
 5941SOL     OW29458   1.265   2.807   9.131  0.3009 -0.1713  0.0504
 5941SOL    HW129459   1.270   2.818   9.037 -0.8938  1.7192  0.2090
 5941SOL    HW229460   1.219   2.723   9.128  1.4891 -0.9034  1.5899
 5942SOL     OW29461   1.695   0.101   5.155  0.4651  0.9951 -0.9388
 5942SOL    HW129462   1.636   0.027   5.144  1.0616  0.1262  1.6781
 5942SOL    HW229463   1.699   0.152   5.074  0.2373  1.3600 -0.7221
 5943SOL     OW29464   0.512   0.835   6.901 -0.1850 -0.1775 -0.1117
 5943SOL    HW129465   0.578   0.788   6.953  0.6420 -0.1682 -1.1395
 5943SOL    HW229466   0.473   0.765   6.848 -0.4112  0.2719 -0.5348
 5944SOL     OW29467   3.969   4.702  16.002  0.1260  0.5589  0.0668
 5944SOL    HW129468   4.011   0.051  15.989  1.3668 -0.6593 -3.8121
 5944SOL    HW229469   4.043   4.642  15.997  0.3503  0.9662 -1.3958
 5945SOL     OW29470   3.949   4.087   4.748  0.0058 -0.1172 -0.0224
 5945SOL    HW129471   4.037   4.103   4.716 -0.3003  2.3401  0.3914
 5945SOL    HW229472   3.928   4.006   4.700  0.1670 -0.5954  0.7126
 5946SOL     OW29473   0.846   0.583   3.341 -0.3590 -0.4684  0.0439
 5946SOL    HW129474   0.820   0.675   3.348 -1.0081 -0.8542  2.8243
 5946SOL    HW229475   0.924   0.575   3.397 -0.2084 -2.2488 -0.4315
 5947SOL     OW29476   4.623   0.538   2.249 -0.3345  0.0675 -0.5729
 5947SOL    HW129477   4.576   0.576   2.175  0.6214  2.6289  0.1496
 5947SOL    HW229478   4.559   0.549   2.320 -3.1977 -2.1294 -2.7904
 5948SOL     OW29479   3.782   2.507   6.459 -0.3188  0.1928  0.0325
 5948SOL    HW129480   3.699   2.542   6.493 -1.3012  0.1617 -2.2926
 5948SOL    HW229481   3.748   2.456   6.385  0.6835 -0.4499  0.0081
 5949SOL     OW29482   3.477   2.756   8.252  0.0342  0.0799  0.2592
 5949SOL    HW129483   3.454   2.736   8.342 -0.0912  0.0034  0.2093
 5949SOL    HW229484   3.401   2.812   8.236  1.5570  1.5777 -1.8265
 5950SOL     OW29485   3.952   4.584   2.171  0.2591  0.5391 -0.2581
 5950SOL    HW129486   3.887   4.521   2.139 -1.9908  2.0394  1.3680
 5950SOL    HW229487   3.926   4.661   2.121 -2.3621 -1.3544 -1.7943
 5951SOL     OW29488   1.925   1.132   1.948  0.2810  0.3163 -0.0647
 5951SOL    HW129489   1.953   1.046   1.918  2.5513  0.6202  1.1291
 5951SOL    HW229490   1.855   1.112   2.011  3.0948 -1.8131  2.4159
 5952SOL     OW29491   3.295   0.424  15.257  0.3063 -0.1541  0.0883
 5952SOL    HW129492   3.264   0.421  15.167 -2.6047 -1.2486  1.1240
 5952SOL    HW229493   3.207   0.421  15.294 -0.1025  2.3310 -0.6749
 5953SOL     OW29494   0.328   4.343   7.638  0.0682 -0.3883 -0.1700
 5953SOL    HW129495   0.378   4.405   7.692 -1.0420  0.4158 -0.0604
 5953SOL    HW229496   0.238   4.362   7.664  0.6091 -0.3176  1.6459
 5954SOL     OW29497   2.115   1.063   2.775  0.1074  0.3623 -0.1164
 5954SOL    HW129498   2.021   1.042   2.778 -0.4470  2.4491 -2.5602
 5954SOL    HW229499   2.159   0.981   2.755 -2.6837 -1.4289  1.0191
 5955SOL     OW29500   1.562   1.860   2.927  0.2711  0.4752 -0.8257
 5955SOL    HW129501   1.532   1.797   2.993 -1.1600  0.3952 -1.5647
 5955SOL    HW229502   1.656   1.843   2.933 -0.3197 -1.9707  1.3822
 5956SOL     OW29503   2.322   2.844  14.670  0.1604  0.1267 -0.2586
 5956SOL    HW129504   2.252   2.824  14.608 -0.4435  0.6274  0.2548
 5956SOL    HW229505   2.294   2.919  14.723  0.0262 -1.0561  1.3509
 5957SOL     OW29506   1.725   4.139   6.214 -0.1462  0.2545  0.3042
 5957SOL    HW129507   1.713   4.160   6.307 -2.5149 -0.2846  0.1242
 5957SOL    HW229508   1.816   4.167   6.209 -0.1107  0.3766  1.6894
 5958SOL     OW29509   0.653   4.497   4.403 -0.0679  0.3857 -1.0496
 5958SOL    HW129510   0.735   4.461   4.371 -1.1192 -1.4201 -1.7047
 5958SOL    HW229511   0.623   4.414   4.439 -0.5697  0.9328 -0.1975
 5959SOL     OW29512   4.576   1.456  16.098 -0.4725 -0.1170  0.0355
 5959SOL    HW129513   4.619   1.522  16.043 -0.2573 -1.4797 -1.4443
 5959SOL    HW229514   4.485   1.475  16.075 -1.0737  0.8007  3.2092
 5960SOL     OW29515   3.735   1.578  14.156 -0.0809  0.1201 -0.3553
 5960SOL    HW129516   3.808   1.575  14.093  1.9075 -0.1678  1.9448
 5960SOL    HW229517   3.690   1.498  14.131 -1.6156  1.0570 -0.5381
 5961SOL     OW29518   1.424   2.804   4.929  0.1269  0.3594 -0.2540
 5961SOL    HW129519   1.482   2.879   4.928  1.2847 -0.5094  1.8830
 5961SOL    HW229520   1.486   2.733   4.946 -0.2517 -0.3102 -1.6291
 5962SOL     OW29521   4.393   2.234   8.149 -0.5222 -0.1666 -0.5813
 5962SOL    HW129522   4.331   2.161   8.148 -2.1490  1.1768  1.5181
 5962SOL    HW229523   4.348   2.286   8.216 -0.5017  0.1378 -0.8084
 5963SOL     OW29524   2.841   2.947  15.044  0.3006  0.1678  0.1729
 5963SOL    HW129525   2.878   3.033  15.025  1.1504 -0.5056 -1.2061
 5963SOL    HW229526   2.753   2.974  15.068  0.6554  0.3625  1.2727
 5964SOL     OW29527   4.693   4.315  15.874  0.3459 -0.5245  0.4113
 5964SOL    HW129528   0.022   4.350  15.813  1.3225 -0.6583  1.3899
 5964SOL    HW229529   4.622   4.379  15.886  2.8175  2.6266 -1.6857
 5965SOL     OW29530   2.238   0.213   2.874  0.2092 -0.2303 -0.0221
 5965SOL    HW129531   2.181   0.290   2.881  1.7489  0.7115  2.2719
 5965SOL    HW229532   2.304   0.259   2.822 -1.9421  4.4297  1.3100
 5966SOL     OW29533   3.022   4.133   6.771  0.2674  0.2885  0.4845
 5966SOL    HW129534   2.937   4.170   6.796  0.2898  1.0250 -0.5220
 5966SOL    HW229535   3.019   4.057   6.829  1.5641  0.2908  0.5589
 5967SOL     OW29536   2.114   0.988   6.658 -0.6212  0.0274 -0.2279
 5967SOL    HW129537   2.153   0.903   6.636 -0.0523  0.3588 -0.4939
 5967SOL    HW229538   2.138   1.046   6.586 -1.2326  1.2708  0.5909
 5968SOL     OW29539   3.269   4.142   5.094  0.3189  0.1718  0.8394
 5968SOL    HW129540   3.295   4.231   5.120  1.7267  0.9550 -3.1597
 5968SOL    HW229541   3.238   4.096   5.171  0.0465 -0.2510  0.4727
 5969SOL     OW29542   4.431   4.620   5.109 -0.1477  0.3123 -0.1957
 5969SOL    HW129543   4.390   4.630   5.195  0.3785 -0.6387  0.1636
 5969SOL    HW229544   4.525   4.623   5.127 -0.1674 -0.1296 -0.0199
 5970SOL     OW29545   0.400   4.082   5.031  0.5143 -0.0073  0.7545
 5970SOL    HW129546   0.370   4.106   5.118 -0.9392 -1.1040  0.5638
 5970SOL    HW229547   0.379   4.161   4.980  0.4464 -0.3980  0.1757
 5971SOL     OW29548   4.517   2.852   5.787 -0.0319  0.4579  0.2837
 5971SOL    HW129549   4.598   2.875   5.833  1.3193 -2.5230 -0.6145
 5971SOL    HW229550   4.451   2.870   5.853  0.1194  2.0534 -0.0004
 5972SOL     OW29551   4.720   0.476   7.885  0.0659  0.3114 -0.1124
 5972SOL    HW129552   4.637   0.520   7.904 -0.3991 -0.0583 -1.3042
 5972SOL    HW229553   4.733   0.492   7.792 -2.2631  1.5819 -0.2227
 5973SOL     OW29554   2.713   1.411  13.258 -0.0873  0.7627 -0.2126
 5973SOL    HW129555   2.783   1.476  13.253  1.3018 -0.8381 -1.2682
 5973SOL    HW229556   2.759   1.340  13.303  0.9126  0.9573 -0.9449
 5974SOL     OW29557   3.567   2.481   7.669  0.2634 -0.3065 -0.2966
 5974SOL    HW129558   3.603   2.482   7.757 -1.2962  1.2180  0.3152
 5974SOL    HW229559   3.570   2.387   7.653 -0.5292 -0.2467 -0.7848
 5975SOL     OW29560   2.236   1.307   9.009  0.4091 -0.3202 -0.0742
 5975SOL    HW129561   2.276   1.225   9.037  1.3417  0.4893  0.9455
 5975SOL    HW229562   2.306   1.371   9.003 -0.3037  0.3326 -1.4511
 5976SOL     OW29563   2.223   0.727   7.355 -0.2905  0.0047 -0.1951
 5976SOL    HW129564   2.181   0.644   7.374 -0.8740  0.4954  0.6652
 5976SOL    HW229565   2.193   0.776   7.432 -1.0675 -0.4610 -0.2020
 5977SOL     OW29566   3.779   3.043   7.027 -0.4545  0.1228 -0.4905
 5977SOL    HW129567   3.707   2.981   7.014  0.6691 -0.7985 -2.4044
 5977SOL    HW229568   3.750   3.110   6.965 -0.3911 -1.1612 -1.9194
 5978SOL     OW29569   3.615   2.147  15.753 -0.3210  0.4122  0.6515
 5978SOL    HW129570   3.570   2.210  15.810  1.5380  0.8715  1.5903
 5978SOL    HW229571   3.610   2.186  15.665 -1.1716  0.5510  0.7551
 5979SOL     OW29572   1.894   4.599   5.671  0.2744 -0.4406 -0.2259
 5979SOL    HW129573   1.932   4.622   5.587  1.0714  1.4744  0.6563
 5979SOL    HW229574   1.831   4.671   5.673 -0.0505 -0.6816 -1.6192
 5980SOL     OW29575   3.123   2.738  17.567 -0.0397 -0.0230  0.5117
 5980SOL    HW129576   3.141   2.827  17.539 -1.0134 -0.6069 -1.9159
 5980SOL    HW229577   3.157   2.688  17.493  0.3112 -0.2640  0.8361
 5981SOL     OW29578   1.888   1.530   3.010  0.6007 -0.2906 -0.7734
 5981SOL    HW129579   1.884   1.494   2.921  2.1810  0.0938 -1.0103
 5981SOL    HW229580   1.974   1.571   3.014  0.7321 -0.3073 -3.1368
 5982SOL     OW29581   0.193   2.580   5.086  0.1379  0.2077 -0.2820
 5982SOL    HW129582   0.258   2.513   5.106  1.0069  0.6902 -1.4932
 5982SOL    HW229583   0.194   2.575   4.990  0.2171 -3.1788 -0.1233
 5983SOL     OW29584   1.007   2.290   2.996 -0.2101  0.3885 -0.1597
 5983SOL    HW129585   1.037   2.353   2.931 -0.3330 -0.9404 -1.5183
 5983SOL    HW229586   1.089   2.241   3.003 -0.7210 -0.5291 -0.5793
 5984SOL     OW29587   1.431   1.409   8.740  0.0672  0.3217 -0.2716
 5984SOL    HW129588   1.449   1.430   8.831  0.2610  3.0263 -0.9478
 5984SOL    HW229589   1.404   1.495   8.708 -1.1697  0.0651  0.0731
 5985SOL     OW29590   4.021   1.402  16.177 -0.2790 -0.1158 -0.0126
 5985SOL    HW129591   3.957   1.426  16.243  1.2045 -0.7418  1.6631
 5985SOL    HW229592   3.970   1.411  16.097 -0.7530  0.6511  0.3794
 5986SOL     OW29593   4.113   4.317   5.313 -0.3735 -0.0664 -0.1144
 5986SOL    HW129594   4.204   4.298   5.292  0.5429  2.4247  1.5814
 5986SOL    HW229595   4.076   4.327   5.225  0.5819  0.0631 -0.4999
 5987SOL     OW29596   2.077   0.707  17.429 -0.1935  0.4563 -0.4741
 5987SOL    HW129597   2.038   0.626  17.462  0.3017  0.9616  1.3924
 5987SOL    HW229598   2.023   0.767  17.481 -1.0945 -1.0644  0.3517
 5988SOL     OW29599   1.497   3.689   9.669  0.2101  0.4527  0.6502
 5988SOL    HW129600   1.536   3.603   9.686 -2.0094 -0.8644 -0.9281
 5988SOL    HW229601   1.464   3.716   9.755  0.0633 -0.1750  0.7921
 5989SOL     OW29602   3.579   2.226   6.673  0.7273 -0.3648  0.2609
 5989SOL    HW129603   3.667   2.257   6.650  0.3169  0.0677 -0.7178
 5989SOL    HW229604   3.594   2.157   6.738 -0.4153  1.4183  2.3880
 5990SOL     OW29605   1.906   1.049   5.192 -0.1270 -0.8910 -0.5529
 5990SOL    HW129606   1.852   1.126   5.175  2.5743  1.0746 -0.3683
 5990SOL    HW229607   1.972   1.091   5.247 -0.3111 -1.0487 -0.2159
 5991SOL     OW29608   2.859   4.025   1.920  0.5906 -0.1561  0.0833
 5991SOL    HW129609   2.861   3.980   1.835  2.6356 -1.9606  1.0859
 5991SOL    HW229610   2.794   3.971   1.964 -0.8357  1.0947 -0.5055
 5992SOL     OW29611   2.627   1.654   4.696  0.2757 -0.6910 -0.0719
 5992SOL    HW129612   2.544   1.697   4.716  0.2718 -0.0584 -1.4626
 5992SOL    HW229613   2.663   1.689   4.615 -0.3087  1.9203  0.8131
 5993SOL     OW29614   4.074   0.091   5.736  0.2460  0.1238 -0.2309
 5993SOL    HW129615   4.003   0.154   5.726 -1.1876 -1.5294 -0.2670
 5993SOL    HW229616   4.151   0.134   5.698  0.6191 -0.2173  0.1261
 5994SOL     OW29617   0.741   1.813   8.834 -0.0763 -0.0930  0.4284
 5994SOL    HW129618   0.716   1.809   8.927 -2.2603 -2.6931 -0.2645
 5994SOL    HW229619   0.730   1.721   8.809 -0.0292 -0.6395  2.4140
 5995SOL     OW29620   3.550   4.725   1.866 -0.0357 -0.1208 -0.0105
 5995SOL    HW129621   3.595   4.644   1.889  0.4975 -0.6483 -2.8146
 5995SOL    HW229622   3.562   0.053   1.936 -2.0753 -0.4114  0.6203
 5996SOL     OW29623   4.337   4.274  17.219 -0.0864 -0.0089  0.3348
 5996SOL    HW129624   4.304   4.188  17.194  3.2086 -1.4883  1.0636
 5996SOL    HW229625   4.286   4.297  17.297 -0.1167  1.8418 -0.2315
 5997SOL     OW29626   4.647   1.922  10.693  0.3168  0.0428 -0.0114
 5997SOL    HW129627   4.732   1.935  10.651  0.8742 -0.4446  0.9526
 5997SOL    HW229628   4.602   2.000  10.660 -2.2633 -1.3533  0.1555
 5998SOL     OW29629   0.976   1.736  14.599  0.2229 -0.1906  0.0375
 5998SOL    HW129630   0.924   1.735  14.679 -0.8999 -1.3137 -0.7080
 5998SOL    HW229631   1.065   1.736  14.634 -0.9817 -1.0951  3.1034
 5999SOL     OW29632   2.578   3.476   9.209  0.4456  0.8490  0.2774
 5999SOL    HW129633   2.665   3.452   9.176  1.1566 -0.2993  3.0604
 5999SOL    HW229634   2.603   3.511   9.294  0.8546 -3.1634  1.8040
 6000SOL     OW29635   1.052   0.067   9.473 -0.0594  0.1547  0.2477
 6000SOL    HW129636   1.078   4.722   9.429 -0.6104 -0.6728  1.4424
 6000SOL    HW229637   1.034   0.123   9.397  2.4475  0.0470 -0.4229
 6001SOL     OW29638   2.362   4.513   9.745  0.0619 -0.2531  0.5840
 6001SOL    HW129639   2.403   4.536   9.662  1.2593  0.0695  1.2488
 6001SOL    HW229640   2.314   4.595   9.755 -0.1483 -0.0622 -2.2668
 6002SOL     OW29641   1.859   3.260   5.412  0.0039 -0.3589  0.2343
 6002SOL    HW129642   1.840   3.203   5.486 -1.9680  1.8323  1.3782
 6002SOL    HW229643   1.805   3.336   5.433  0.5151  0.5656 -1.6890
 6003SOL     OW29644   0.413   3.001  10.176  0.0194 -0.8702  0.4027
 6003SOL    HW129645   0.350   3.040  10.236  0.0582  3.7318 -2.5640
 6003SOL    HW229646   0.366   2.923  10.148 -1.0937 -0.2055  0.4110
 6004SOL     OW29647   4.587   4.692   4.318  0.2350 -0.0955  0.3460
 6004SOL    HW129648   4.618   4.603   4.337  1.1975  0.3367  0.7532
 6004SOL    HW229649   4.495   4.675   4.299  0.8164  0.3806 -2.9079
 6005SOL     OW29650   2.056   0.935   5.958  0.1298 -0.3153 -0.0270
 6005SOL    HW129651   2.105   0.927   6.040  0.0599  0.1490  0.0571
 6005SOL    HW229652   1.970   0.932   5.999  0.8098 -2.3094  1.2595
 6006SOL     OW29653   3.854   4.558  12.419  0.7053 -0.2245 -0.1461
 6006SOL    HW129654   3.918   4.487  12.427 -0.3687 -0.9847  1.8345
 6006SOL    HW229655   3.919   4.627  12.421  0.2870  0.1250  1.3168
 6007SOL     OW29656   1.163   2.312   5.701 -0.4767 -0.4920 -0.1533
 6007SOL    HW129657   1.223   2.363   5.755 -2.0729 -0.3973  1.5351
 6007SOL    HW229658   1.228   2.272   5.643  1.4017 -2.1234  3.0683
 6008SOL     OW29659   0.821   1.787   0.216 -0.3023  0.2343  0.2596
 6008SOL    HW129660   0.863   1.711   0.255  0.3291  0.7726  0.6337
 6008SOL    HW229661   0.736   1.744   0.206  0.4945 -1.1164 -0.5696
 6009SOL     OW29662   2.055   0.472   1.809 -0.1993  0.0596  0.4138
 6009SOL    HW129663   2.094   0.558   1.820 -0.6595  0.1483  1.4048
 6009SOL    HW229664   1.961   0.490   1.819 -0.6247 -2.1826  0.4820
 6010SOL     OW29665   4.499   3.662   4.337  0.1770 -0.2757  0.3220
 6010SOL    HW129666   4.444   3.632   4.409 -2.3733  0.0742 -1.5118
 6010SOL    HW229667   4.567   3.702   4.392  0.4856  0.0201 -0.2816
 6011SOL     OW29668   3.225   3.386   3.736  0.0518  0.5405  0.1496
 6011SOL    HW129669   3.205   3.471   3.775 -2.3640  0.1084 -0.1714
 6011SOL    HW229670   3.143   3.371   3.688 -0.4437 -0.6462  1.3616
 6012SOL     OW29671   1.895   3.075  14.436 -0.3095 -0.4024  0.4514
 6012SOL    HW129672   1.968   3.041  14.384 -1.4229 -1.0749 -0.6974
 6012SOL    HW229673   1.842   3.106  14.362  1.0719 -0.0513 -0.3847
 6013SOL     OW29674   1.145   3.785   8.507  0.6452  0.6747 -0.4553
 6013SOL    HW129675   1.235   3.751   8.506 -0.8725 -3.3981  1.1351
 6013SOL    HW229676   1.144   3.816   8.417  3.3663 -1.0925 -1.1069
 6014SOL     OW29677   1.680   1.489   2.810  0.0666 -0.4843  0.4514
 6014SOL    HW129678   1.661   1.408   2.857 -2.0313 -0.2702 -0.0385
 6014SOL    HW229679   1.676   1.546   2.887  1.6656 -1.2069  1.0791
 6015SOL     OW29680   3.162   0.757   5.337 -0.0248  0.3005  0.3290
 6015SOL    HW129681   3.095   0.695   5.309 -0.9682  0.1552  2.8760
 6015SOL    HW229682   3.112   0.817   5.393 -1.1625 -1.5433  1.2839
 6016SOL     OW29683   3.208   2.321  13.572 -0.4076  0.2902  0.8580
 6016SOL    HW129684   3.163   2.248  13.530 -0.2422  0.6578  0.0451
 6016SOL    HW229685   3.139   2.368  13.619 -1.2541 -1.5550  1.4380
 6017SOL     OW29686   3.755   3.409   2.209 -0.1698 -0.3375 -0.2115
 6017SOL    HW129687   3.798   3.331   2.245  1.1901 -0.2924 -1.7453
 6017SOL    HW229688   3.750   3.466   2.286  1.6169  0.4254 -0.6576
 6018SOL     OW29689   0.079   0.546  15.215 -0.4781 -0.1666 -0.3011
 6018SOL    HW129690   0.132   0.599  15.275 -0.5377 -0.1580 -0.2565
 6018SOL    HW229691   0.156   0.515  15.167  0.5450  0.8385  0.6764
 6019SOL     OW29692   3.138   1.059  12.477 -0.0895 -0.6257  0.3177
 6019SOL    HW129693   3.106   1.055  12.387  2.3655 -0.7749 -0.5396
 6019SOL    HW229694   3.130   1.154  12.486 -0.1833 -0.6890  0.8738
 6020SOL     OW29695   1.897   2.609   7.631  0.3363 -0.4695 -0.1013
 6020SOL    HW129696   1.949   2.689   7.624 -2.2761  1.1322 -1.3114
 6020SOL    HW229697   1.914   2.582   7.722 -2.4750  0.5351  0.7322
 6021SOL     OW29698   1.462   0.823  15.054 -0.3907  0.1031 -0.0760
 6021SOL    HW129699   1.481   0.746  15.000  1.2412  0.5012 -0.0587
 6021SOL    HW229700   1.391   0.868  15.007 -1.6348 -1.9235 -0.1199
 6022SOL     OW29701   4.547   1.840   2.534  0.4023  0.0768  0.0702
 6022SOL    HW129702   4.476   1.856   2.596 -0.0844  0.9386 -0.6942
 6022SOL    HW229703   4.625   1.887   2.561  0.7109 -1.0627  1.1675
 6023SOL     OW29704   2.437   3.769   5.963  0.2757  0.5551  0.4175
 6023SOL    HW129705   2.493   3.759   6.040  1.5671  0.2780 -0.5590
 6023SOL    HW229706   2.490   3.736   5.890 -1.3767 -0.6453 -0.2267
 6024SOL     OW29707   1.928   0.567   4.373  0.1742 -1.0341 -0.1928
 6024SOL    HW129708   1.968   0.509   4.438  0.8546  1.4579  1.5872
 6024SOL    HW229709   2.007   0.618   4.354  1.0704 -2.5928 -0.7177
 6025SOL     OW29710   0.377   0.658   8.273 -0.6713 -0.2605  0.0978
 6025SOL    HW129711   0.315   0.673   8.201 -0.9952 -1.8538  0.0392
 6025SOL    HW229712   0.444   0.726   8.264 -0.7241  0.0188  1.8939
 6026SOL     OW29713   1.086   4.476   6.058  0.4218 -0.4982  0.1247
 6026SOL    HW129714   1.120   4.563   6.081  0.5007 -0.5332  0.1409
 6026SOL    HW229715   1.034   4.502   5.983  0.1210 -0.5959  0.3013
 6027SOL     OW29716   1.961   4.360  14.989  0.6369  0.4350 -0.3398
 6027SOL    HW129717   2.024   4.307  14.941 -0.7833  0.2674 -1.9842
 6027SOL    HW229718   1.878   4.336  14.947  0.4281  0.4991  0.0345
 6028SOL     OW29719   4.318   2.672   0.670  0.1526 -0.1321 -0.0250
 6028SOL    HW129720   4.357   2.744   0.720 -0.3322  1.7915 -2.4138
 6028SOL    HW229721   4.259   2.635   0.736 -0.7400 -1.6250 -1.6820
 6029SOL     OW29722   4.459   3.763   8.596 -0.4871  0.7295  0.2958
 6029SOL    HW129723   4.440   3.692   8.658  2.2188 -0.7477 -0.5884
 6029SOL    HW229724   4.385   3.817   8.623 -0.1682  1.8723 -1.1567
 6030SOL     OW29725   3.068   2.437   0.644 -0.1327 -0.2189  0.1307
 6030SOL    HW129726   3.111   2.355   0.619  0.3642  0.5228 -1.4834
 6030SOL    HW229727   3.130   2.494   0.689 -1.1261 -0.9670  2.4387
 6031SOL     OW29728   0.217   4.070  12.466  0.3486  0.2070  0.1289
 6031SOL    HW129729   0.261   3.997  12.423 -1.3049  0.3986 -1.8716
 6031SOL    HW229730   0.143   4.020  12.501  0.5874 -1.3010 -1.5336
 6032SOL     OW29731   3.433   3.308   8.382  0.3196  0.6648  0.0038
 6032SOL    HW129732   3.390   3.388   8.350 -2.1802 -0.7660 -0.2120
 6032SOL    HW229733   3.484   3.343   8.454 -0.3436  1.6865 -0.0165
 6033SOL     OW29734   4.606   0.605   1.477 -0.1449  0.1947 -0.6498
 6033SOL    HW129735   4.687   0.612   1.527 -0.0513  1.5488 -0.9944
 6033SOL    HW229736   4.541   0.645   1.535 -0.0976  0.3981 -0.7395
 6034SOL     OW29737   4.277   2.058   6.092 -0.6639 -0.1681  0.1580
 6034SOL    HW129738   4.310   2.014   6.014 -0.4975 -0.6850  0.5200
 6034SOL    HW229739   4.363   2.091   6.120 -0.9898 -0.3758  1.4290
 6035SOL     OW29740   4.530   1.804  17.139 -0.3958 -0.0632  0.2109
 6035SOL    HW129741   4.616   1.811  17.178 -0.0987  1.6702 -0.7141
 6035SOL    HW229742   4.557   1.848  17.058  0.2693  0.3503  0.6588
 6036SOL     OW29743   0.667   0.706  15.128  0.2535  0.2236 -0.3586
 6036SOL    HW129744   0.620   0.638  15.080 -1.9027  2.3073 -1.1953
 6036SOL    HW229745   0.753   0.668  15.112  0.0077 -0.2634 -0.5175
 6037SOL     OW29746   1.954   1.471   5.160 -0.4448  0.1671  0.2244
 6037SOL    HW129747   2.012   1.547   5.153 -1.9259  1.1494 -1.4238
 6037SOL    HW229748   1.909   1.492   5.242 -1.3323  1.6026 -0.6329
 6038SOL     OW29749   2.802   1.661   9.654 -0.1142  0.2939 -0.5040
 6038SOL    HW129750   2.728   1.722   9.648 -0.4959 -0.3548 -2.6156
 6038SOL    HW229751   2.862   1.705   9.713  0.1103 -0.9175  0.1585
 6039SOL     OW29752   1.085   2.570  10.757  0.0380  0.2502  0.1172
 6039SOL    HW129753   1.005   2.527  10.726  0.0034  2.3186 -2.6742
 6039SOL    HW229754   1.073   2.663  10.736 -3.3041 -0.1770  0.0554
 6040SOL     OW29755   1.158   2.717   2.321  0.0668  0.3118 -0.3869
 6040SOL    HW129756   1.137   2.680   2.407  0.3882 -1.3514 -1.0319
 6040SOL    HW229757   1.079   2.768   2.306  0.1111 -0.1234 -2.0921
 6041SOL     OW29758   2.787   3.832   3.256  0.0964 -0.4171 -0.4347
 6041SOL    HW129759   2.878   3.851   3.279 -0.0878  0.0172 -0.0658
 6041SOL    HW229760   2.726   3.892   3.299  0.4129  0.5644 -1.3203
 6042SOL     OW29761   1.917   3.541  12.882 -0.7193 -0.0752 -0.3121
 6042SOL    HW129762   1.894   3.506  12.968  1.9098  0.8863  0.7965
 6042SOL    HW229763   1.994   3.488  12.863  0.0800  1.2015 -0.6642
 6043SOL     OW29764   1.435   4.547   9.716 -0.2135 -0.5484  0.2743
 6043SOL    HW129765   1.523   4.509   9.716 -0.6617 -1.5884  1.0048
 6043SOL    HW229766   1.446   4.631   9.672  3.0616 -1.3013 -0.3265
 6044SOL     OW29767   1.706   0.657   9.000 -0.0647 -0.7803  0.9634
 6044SOL    HW129768   1.626   0.688   8.959  1.8335  0.4824 -1.7239
 6044SOL    HW229769   1.737   0.744   9.024 -1.6545  0.2852 -0.8737
 6045SOL     OW29770   2.707   2.648   5.610  0.1040  0.1023 -0.0381
 6045SOL    HW129771   2.759   2.608   5.680  0.9781  0.0539 -0.7286
 6045SOL    HW229772   2.757   2.637   5.529 -0.6918  3.0258 -0.9138
 6046SOL     OW29773   0.147   0.514   4.052 -0.0808 -0.7464  0.1503
 6046SOL    HW129774   0.078   0.450   4.033  1.5479 -2.2997 -0.6207
 6046SOL    HW229775   0.143   0.505   4.147  0.0341 -3.1687 -0.0544
 6047SOL     OW29776   2.619   1.741  11.243 -0.2184 -0.1603 -0.5930
 6047SOL    HW129777   2.589   1.671  11.301 -4.7719  0.2154 -2.5088
 6047SOL    HW229778   2.602   1.708  11.154 -0.5052 -1.5845 -0.0214
 6048SOL     OW29779   0.546   1.439   9.899  0.5978  0.0984  0.1131
 6048SOL    HW129780   0.589   1.516   9.861 -1.5695  1.8392  1.1656
 6048SOL    HW229781   0.453   1.460   9.906  0.4302 -0.4509 -0.4597
 6049SOL     OW29782   2.462   3.533   3.037 -0.5914 -0.0788 -0.0036
 6049SOL    HW129783   2.488   3.541   3.128 -2.7367 -1.9232  0.7718
 6049SOL    HW229784   2.500   3.447   3.018  0.2495  0.3436 -0.2153
 6050SOL     OW29785   1.579   0.252   6.834 -0.4484  0.1228  0.2219
 6050SOL    HW129786   1.578   0.156   6.841 -1.2934  0.2205  1.3786
 6050SOL    HW229787   1.580   0.286   6.923  1.1418 -0.1392  0.3129
 6051SOL     OW29788   3.590   2.834  13.411 -0.2245  0.3792  0.3211
 6051SOL    HW129789   3.611   2.748  13.375  0.6647 -0.4441  2.8120
 6051SOL    HW229790   3.578   2.883  13.330 -0.6177 -0.6679 -0.2581
 6052SOL     OW29791   4.164   3.822   5.802 -0.0159 -0.5962  0.0700
 6052SOL    HW129792   4.094   3.880   5.833  0.9425  0.2901  0.5739
 6052SOL    HW229793   4.239   3.873   5.832  0.0591  0.0987 -1.2924
 6053SOL     OW29794   1.106   4.270  14.515 -0.1873  0.0620  0.3963
 6053SOL    HW129795   1.144   4.185  14.493 -1.0265 -0.9237  2.7958
 6053SOL    HW229796   1.016   4.239  14.507  0.8636 -2.1880 -2.5901
 6054SOL     OW29797   2.564   0.674   3.357  0.7446  0.1173 -0.0068
 6054SOL    HW129798   2.607   0.683   3.442 -2.2135 -2.1138  1.7207
 6054SOL    HW229799   2.632   0.630   3.306  1.3090  0.6393  0.2812
 6055SOL     OW29800   4.018   1.238   2.669 -0.2463  0.5709  0.5794
 6055SOL    HW129801   4.021   1.212   2.577 -0.6977  3.0521 -0.1188
 6055SOL    HW229802   4.077   1.172   2.706 -0.3818  0.7371  1.0880
 6056SOL     OW29803   1.626   3.237  16.328  0.1496  0.1485  0.8925
 6056SOL    HW129804   1.576   3.295  16.270  1.0269  0.8114  0.8097
 6056SOL    HW229805   1.692   3.297  16.364  3.4223 -1.3516 -2.6519
 6057SOL     OW29806   0.612   0.108   2.320  0.1136  0.0734 -0.2326
 6057SOL    HW129807   0.646   0.072   2.402  1.1076  1.0212 -0.2299
 6057SOL    HW229808   0.679   0.170   2.290  0.1593  1.2441  2.3497
 6058SOL     OW29809   0.140   0.715   3.509 -0.6662 -0.2340  0.7632
 6058SOL    HW129810   0.216   0.658   3.520  0.0594  0.6735  0.4045
 6058SOL    HW229811   0.081   0.678   3.443 -1.6978 -1.1318  2.1742
 6059SOL     OW29812   1.382   1.737  13.443 -0.3641 -0.4303 -0.0065
 6059SOL    HW129813   1.458   1.782  13.406 -0.2106  2.0588  3.3361
 6059SOL    HW229814   1.326   1.813  13.461  0.1722  0.4466 -2.0595
 6060SOL     OW29815   3.268   3.435  13.765  0.4135  0.5689 -0.2149
 6060SOL    HW129816   3.238   3.517  13.725 -1.6027 -0.1405 -0.1765
 6060SOL    HW229817   3.309   3.410  13.682  1.3518  0.0333  0.4062
 6061SOL     OW29818   1.779   4.272   5.382  0.0189  0.6178 -0.0604
 6061SOL    HW129819   1.778   4.351   5.329  2.1384  0.1520 -0.7925
 6061SOL    HW229820   1.758   4.214   5.309  1.9522 -0.1874  0.0238
 6062SOL     OW29821   2.070   2.383   5.794  0.0433 -0.0010 -0.1491
 6062SOL    HW129822   2.093   2.300   5.836  2.6026  0.5000 -0.5536
 6062SOL    HW229823   2.061   2.357   5.702 -0.0703  1.2982 -0.5060
 6063SOL     OW29824   2.309   3.925  11.934  0.1679 -0.1396 -0.3132
 6063SOL    HW129825   2.279   3.861  11.869 -0.8133  1.3532 -1.3340
 6063SOL    HW229826   2.229   3.954  11.979  0.8493  1.2769 -0.0361
 6064SOL     OW29827   4.569   3.244   5.132 -0.4072  0.5418  0.2990
 6064SOL    HW129828   4.507   3.222   5.202  0.2472  0.0651  0.7287
 6064SOL    HW229829   4.640   3.189   5.166 -1.3897 -1.4990 -0.9143
 6065SOL     OW29830   2.332   3.850   6.275  0.0627  0.3957 -0.0125
 6065SOL    HW129831   2.406   3.816   6.224  1.6751 -0.3247  2.7874
 6065SOL    HW229832   2.273   3.884   6.207  0.2877  0.8832  0.0358
 6066SOL     OW29833   3.574   3.463   6.100  0.0411 -0.0566  0.3283
 6066SOL    HW129834   3.536   3.375   6.103 -1.7301  0.5757 -3.9959
 6066SOL    HW229835   3.667   3.447   6.081 -0.3190  0.1290 -1.6141
 6067SOL     OW29836   1.921   0.807   8.555 -0.3475  0.4855 -0.3995
 6067SOL    HW129837   1.836   0.835   8.522 -0.0114  1.3168 -0.5535
 6067SOL    HW229838   1.931   0.727   8.503 -1.0088 -0.0903  0.3661
 6068SOL     OW29839   1.629   3.562  17.345  0.0591  0.4957 -0.0411
 6068SOL    HW129840   1.576   3.629  17.302 -2.3341 -0.2651  1.6967
 6068SOL    HW229841   1.559   3.496  17.342 -0.6040  1.1861  0.1529
 6069SOL     OW29842   1.361   2.919  17.461  0.0790 -0.1724  0.4122
 6069SOL    HW129843   1.452   2.947  17.451  0.0049  0.5921  1.8576
 6069SOL    HW229844   1.334   2.933  17.370  0.1877  1.1958  0.5811
 6070SOL     OW29845   2.344   1.905   4.963 -0.0666 -0.2966  0.0173
 6070SOL    HW129846   2.280   1.869   5.024  0.2749 -2.0233 -0.6547
 6070SOL    HW229847   2.394   1.966   5.017  1.5538 -1.2427 -0.4205
 6071SOL     OW29848   3.127   2.606   2.726  0.0098 -0.3004 -0.1764
 6071SOL    HW129849   3.071   2.547   2.776 -0.6527 -0.1527 -0.7477
 6071SOL    HW229850   3.183   2.543   2.681 -2.5580 -1.5094 -1.6757
 6072SOL     OW29851   0.178   3.340  14.815 -0.0074  0.4770  0.0885
 6072SOL    HW129852   0.175   3.382  14.729  2.5874 -2.1698 -1.2656
 6072SOL    HW229853   0.142   3.254  14.796 -1.3442  0.7859  1.2261
 6073SOL     OW29854   2.529   0.171   8.070  0.3561  0.2783  0.6971
 6073SOL    HW129855   2.501   0.122   8.148 -1.1985  1.4646  0.8793
 6073SOL    HW229856   2.621   0.165   8.098  0.7293 -0.0131 -0.6101
 6074SOL     OW29857   1.108   2.705  11.410  0.2483  0.2239 -0.5945
 6074SOL    HW129858   1.160   2.687  11.488 -0.3687  0.4172 -0.1350
 6074SOL    HW229859   1.076   2.794  11.425  0.2262  0.0738  0.2648
 6075SOL     OW29860   3.949   2.415  16.483 -0.0999  0.2127  0.5234
 6075SOL    HW129861   3.988   2.374  16.406 -0.2118  1.8112 -0.3820
 6075SOL    HW229862   4.008   2.376  16.547  1.8964  0.8886 -0.9246
 6076SOL     OW29863   3.264   4.398   9.374  0.3397  0.3399 -0.1070
 6076SOL    HW129864   3.171   4.376   9.369  0.6456 -0.2171 -3.4585
 6076SOL    HW229865   3.288   4.461   9.306 -0.6928 -0.1960 -0.9635
 6077SOL     OW29866   3.855   0.381  16.964  0.3531 -0.5032  0.2916
 6077SOL    HW129867   3.937   0.345  16.931  1.0677  1.0215  0.4568
 6077SOL    HW229868   3.792   0.318  16.929 -0.1472  0.2856 -0.2210
 6078SOL     OW29869   0.402   0.109   3.967  0.1233  0.2046 -0.1899
 6078SOL    HW129870   0.326   0.137   3.916 -0.1012 -2.7758 -1.4921
 6078SOL    HW229871   0.422   0.027   3.923  0.5157  0.2944 -0.1741
 6079SOL     OW29872   2.595   0.079   9.136  0.0556  0.0586  0.0523
 6079SOL    HW129873   2.518   0.116   9.179  0.0178  0.8122 -0.6735
 6079SOL    HW229874   2.560   4.729   9.112 -0.0945  0.1338  0.0030
 6080SOL     OW29875   1.220   0.739   4.372  0.1869 -0.2181 -0.7511
 6080SOL    HW129876   1.309   0.705   4.365  1.2602  2.5877 -1.0459
 6080SOL    HW229877   1.226   0.835   4.365  1.5521 -0.2875 -0.4731
 6081SOL     OW29878   1.599   4.202   1.414  0.1611 -0.6963 -0.0758
 6081SOL    HW129879   1.575   4.110   1.417  0.5788 -0.9346 -4.4249
 6081SOL    HW229880   1.578   4.232   1.502 -1.5535 -0.9735 -0.3990
 6082SOL     OW29881   0.843   0.309  17.415 -0.2865  0.1376 -0.2207
 6082SOL    HW129882   0.850   0.298  17.510  1.1614  0.2361 -0.3181
 6082SOL    HW229883   0.895   0.385  17.392 -0.6901  0.3295 -0.5103
 6083SOL     OW29884   2.927   1.586   5.587  0.6155  0.1665  0.7489
 6083SOL    HW129885   2.892   1.581   5.676 -1.2204 -0.1391  0.0072
 6083SOL    HW229886   2.889   1.502   5.562 -0.5833  0.8170  0.3780
 6084SOL     OW29887   3.714   2.317   3.355 -0.4505  0.2151 -0.0728
 6084SOL    HW129888   3.673   2.368   3.425 -0.6153  0.1562 -0.1260
 6084SOL    HW229889   3.640   2.278   3.308  0.0650  0.5712 -1.1843
 6085SOL     OW29890   0.324   1.567  16.677  0.1296 -0.8661  0.4397
 6085SOL    HW129891   0.238   1.548  16.713 -0.6697  2.1181  0.1546
 6085SOL    HW229892   0.319   1.661  16.695  1.2186 -0.7720  0.2804
 6086SOL     OW29893   4.002   2.146   6.199 -0.3385  0.4239  0.1304
 6086SOL    HW129894   4.076   2.200   6.229  0.2450  1.5061 -3.3444
 6086SOL    HW229895   3.973   2.113   6.285  2.7780  2.0262  1.7982
 6087SOL     OW29896   3.339   3.603   1.125 -0.4888  0.0251 -0.2246
 6087SOL    HW129897   3.398   3.627   1.196 -1.1440  1.0256 -0.0210
 6087SOL    HW229898   3.307   3.685   1.087  0.7953 -0.9277 -3.3556
 6088SOL     OW29899   2.238   3.998   6.732  0.7315  0.4409  0.1167
 6088SOL    HW129900   2.225   3.922   6.676 -0.6982  0.9894 -0.2817
 6088SOL    HW229901   2.264   4.068   6.672  1.3430  1.5421  1.6242
 6089SOL     OW29902   1.214   2.180   2.573  0.2500 -0.1154 -0.0616
 6089SOL    HW129903   1.150   2.136   2.630  0.2352 -1.9763 -1.5480
 6089SOL    HW229904   1.280   2.195   2.641 -0.1056  0.6206  0.1202
 6090SOL     OW29905   3.597   1.882   0.657  0.3016  0.3331  0.1254
 6090SOL    HW129906   3.569   1.842   0.740  1.7949  0.4198  0.6652
 6090SOL    HW229907   3.515   1.903   0.612  1.0529  0.9073 -0.9712
 6091SOL     OW29908   1.240   1.015   3.250  0.1365  0.6318 -0.2848
 6091SOL    HW129909   1.173   1.040   3.186 -0.9109  1.1138  0.9975
 6091SOL    HW229910   1.310   1.007   3.185 -1.0014 -3.0347 -1.0405
 6092SOL     OW29911   1.291   3.753   3.425  0.2678 -0.0515  0.0594
 6092SOL    HW129912   1.332   3.757   3.338  3.2914  1.2739  1.5403
 6092SOL    HW229913   1.208   3.794   3.402  1.6306  3.3753  1.3217
 6093SOL     OW29914   2.733   3.632  16.098 -0.5312  0.2899  0.4723
 6093SOL    HW129915   2.809   3.629  16.041 -0.4489  1.0802  0.5364
 6093SOL    HW229916   2.667   3.629  16.029 -1.4660  1.9101  1.2874
 6094SOL     OW29917   2.384   2.127   3.356  0.2457  0.2618  0.7798
 6094SOL    HW129918   2.435   2.165   3.284 -0.4379 -2.5378 -1.1657
 6094SOL    HW229919   2.419   2.038   3.348  0.0638  0.1547  1.1715
 6095SOL     OW29920   0.202   3.838   8.711 -0.7976  0.1217  0.5810
 6095SOL    HW129921   0.167   3.767   8.764  0.0319  1.7779  3.3291
 6095SOL    HW229922   0.117   3.868   8.678  0.5447  1.2337 -1.9295
 6096SOL     OW29923   1.910   3.881  13.105  0.0122 -0.5315 -0.4979
 6096SOL    HW129924   1.863   3.907  13.184  0.8548  0.2986 -0.2712
 6096SOL    HW229925   1.880   3.956  13.054 -0.2736 -0.3743 -0.1040
 6097SOL     OW29926   3.773   1.034   3.852 -0.0082  0.2516 -0.2686
 6097SOL    HW129927   3.768   0.956   3.907 -1.5575 -0.8407 -1.9644
 6097SOL    HW229928   3.687   1.035   3.809 -1.4778 -0.2407  2.6658
 6098SOL     OW29929   1.801   2.752  11.235 -0.1024  0.4685  0.0160
 6098SOL    HW129930   1.870   2.789  11.179  1.8652 -1.1786  1.3482
 6098SOL    HW229931   1.841   2.665  11.238  1.2727  1.1623  2.2302
 6099SOL     OW29932   0.617   1.458   5.362 -0.1544  0.3040 -0.0116
 6099SOL    HW129933   0.600   1.375   5.406  0.7173  0.0134 -0.2292
 6099SOL    HW229934   0.707   1.442   5.333 -0.4572  3.1927 -2.4896
 6100SOL     OW29935   3.045   2.627   5.163 -0.0825  0.1822 -0.5158
 6100SOL    HW129936   3.028   2.538   5.132 -2.3093 -0.6434  3.1007
 6100SOL    HW229937   3.122   2.608   5.217 -0.6585  0.8534  0.5412
 6101SOL     OW29938   2.589   1.317   0.966  0.5876 -0.1284 -0.0625
 6101SOL    HW129939   2.662   1.292   1.022  1.4692 -0.1727 -1.2281
 6101SOL    HW229940   2.526   1.247   0.982 -0.8896  1.7953  2.3852
 6102SOL     OW29941   1.327   0.135   2.760  0.0857  0.4782 -0.3521
 6102SOL    HW129942   1.373   0.052   2.756  2.7052  1.9996 -1.2624
 6102SOL    HW229943   1.243   0.112   2.720  0.6338 -2.0449 -0.0624
 6103SOL     OW29944   2.416   2.511   5.018  0.3108  0.1479  0.5072
 6103SOL    HW129945   2.417   2.598   5.060  1.1476  0.7784 -0.8243
 6103SOL    HW229946   2.360   2.524   4.942  3.8276 -0.3558 -2.1417
 6104SOL     OW29947   2.724   3.345   7.795  0.0011  0.0336  0.3717
 6104SOL    HW129948   2.722   3.394   7.713 -0.7653 -0.7124 -0.0619
 6104SOL    HW229949   2.816   3.318   7.801 -0.3840 -1.3358  0.0594
 6105SOL     OW29950   2.839   0.525   3.784  0.3454 -0.1222  0.2580
 6105SOL    HW129951   2.888   0.545   3.863  0.4889  3.2275 -0.6490
 6105SOL    HW229952   2.811   0.438   3.811  2.9833 -1.5033 -1.4224
 6106SOL     OW29953   3.896   0.192   7.772 -0.2410 -0.5104  0.0484
 6106SOL    HW129954   3.946   0.186   7.853  0.5784 -1.9698 -0.5599
 6106SOL    HW229955   3.904   0.284   7.747 -0.1790 -0.2904  0.8776
 6107SOL     OW29956   2.184   4.234   8.755 -0.5927 -0.6530  0.5339
 6107SOL    HW129957   2.164   4.217   8.663  0.0153  2.4221 -0.1643
 6107SOL    HW229958   2.124   4.172   8.795  0.2146 -2.3925 -0.9393
 6108SOL     OW29959   1.182   1.453   5.462  0.0044  0.2780  0.2434
 6108SOL    HW129960   1.095   1.481   5.434 -0.7386 -2.6399 -0.3835
 6108SOL    HW229961   1.197   1.524   5.525 -1.5754  0.6309  0.2387
 6109SOL     OW29962   0.448   1.346  13.412  0.3227  0.6916 -0.4195
 6109SOL    HW129963   0.404   1.402  13.475  0.6019 -0.3259  0.6928
 6109SOL    HW229964   0.492   1.284  13.470 -1.9587 -1.4160 -0.9196
 6110SOL     OW29965   3.896   0.673   9.173 -0.0761  0.2022  0.0359
 6110SOL    HW129966   3.963   0.713   9.230  0.3231  1.9289 -1.6384
 6110SOL    HW229967   3.855   0.637   9.252  2.3468  2.5939  2.4086
 6111SOL     OW29968   4.467   4.020   6.853 -0.1288 -0.2369  0.1844
 6111SOL    HW129969   4.461   4.086   6.922  1.5260  1.1334 -0.9656
 6111SOL    HW229970   4.379   4.022   6.815 -0.1029  1.6024  0.2306
 6112SOL     OW29971   3.730   4.436   1.653 -0.4094 -0.5456 -0.6777
 6112SOL    HW129972   3.744   4.383   1.732  1.7882  0.2513 -0.5325
 6112SOL    HW229973   3.760   4.519   1.689 -0.6164 -0.4741 -0.6676
 6113SOL     OW29974   2.454   3.647   2.788 -0.1890  0.2229  0.3363
 6113SOL    HW129975   2.436   3.604   2.871  0.7481  0.6773  0.7627
 6113SOL    HW229976   2.412   3.731   2.809 -1.3187 -0.3543  0.4009
 6114SOL     OW29977   3.806   2.650  12.935  0.0410 -0.3444  0.2634
 6114SOL    HW129978   3.864   2.619  13.004 -2.2049 -2.4819  1.1890
 6114SOL    HW229979   3.766   2.565  12.913  2.6808 -1.6381  0.4998
 6115SOL     OW29980   1.006   4.399   7.752  0.0904  0.6041 -0.0743
 6115SOL    HW129981   1.081   4.393   7.693 -1.4871  3.4489 -2.3446
 6115SOL    HW229982   0.957   4.470   7.710  0.8566  0.4257 -1.2852
 6116SOL     OW29983   1.479   3.254   4.527 -0.2444 -0.4220  0.1331
 6116SOL    HW129984   1.463   3.335   4.576 -0.8895 -1.7457  2.0915
 6116SOL    HW229985   1.407   3.206   4.567  0.1527 -0.7301  0.4893
 6117SOL     OW29986   1.074   2.829  10.703  0.3258  0.0978 -0.0111
 6117SOL    HW129987   1.033   2.881  10.634 -4.1076 -2.8814  0.3630
 6117SOL    HW229988   1.161   2.865  10.686  1.9617 -2.6374  2.4540
 6118SOL     OW29989   3.987   1.895   8.265 -0.9017 -0.2697  0.3369
 6118SOL    HW129990   3.894   1.914   8.271 -1.1058 -0.8151 -1.1752
 6118SOL    HW229991   3.988   1.802   8.288 -1.2877 -0.3380  0.0644
 6119SOL     OW29992   2.898   3.245   1.336  0.0829 -0.5999  0.0417
 6119SOL    HW129993   2.907   3.262   1.242  0.2307 -2.9492 -0.3544
 6119SOL    HW229994   2.964   3.176   1.337  0.3156 -0.3741  0.2196
 6120SOL     OW29995   0.370   3.132   4.422  0.0708 -0.0152 -0.1643
 6120SOL    HW129996   0.280   3.141   4.453  0.6352  1.3263  1.1155
 6120SOL    HW229997   0.404   3.087   4.500 -1.2171  0.3637  0.6124
 6121SOL     OW29998   0.541   4.658   9.504 -0.9965  0.1511 -0.2467
 6121SOL    HW129999   0.567   4.589   9.442 -1.0583 -0.1789  0.0964
 6121SOL    HW230000   0.540   4.608   9.585 -0.8870 -0.0683 -0.3807
 6122SOL     OW30001   4.350   3.890   6.315  0.1232 -0.2670 -0.3143
 6122SOL    HW130002   4.383   3.968   6.360  1.2028 -0.8722 -0.0702
 6122SOL    HW230003   4.430   3.839   6.304  0.5355  0.3911 -0.3572
 6123SOL     OW30004   1.782   3.810   2.041  0.1837  0.4433  0.1798
 6123SOL    HW130005   1.855   3.768   1.995  1.6078 -0.9939  3.8302
 6123SOL    HW230006   1.706   3.762   2.007  1.2229 -0.0914 -1.3687
 6124SOL     OW30007   3.283   3.281  16.164  0.0649  0.8265  0.4382
 6124SOL    HW130008   3.282   3.193  16.126 -0.5809  0.7679  0.5963
 6124SOL    HW230009   3.190   3.303  16.164  0.6262  3.1612 -1.1724
 6125SOL     OW30010   0.414   4.191   0.587  0.4774  0.0432  0.6755
 6125SOL    HW130011   0.441   4.273   0.546  3.4009 -1.4060 -0.2861
 6125SOL    HW230012   0.320   4.201   0.601  0.7721  1.0121  1.9975
 6126SOL     OW30013   2.445   3.516   5.109 -0.7613 -0.0201  0.0131
 6126SOL    HW130014   2.476   3.582   5.170 -2.4696  0.3263  0.5069
 6126SOL    HW230015   2.528   3.486   5.072 -1.0113 -1.9317  0.9508
 6127SOL     OW30016   4.711   1.514  10.921 -0.7694  0.4153  0.3859
 6127SOL    HW130017   0.019   1.514  11.005  3.8936  2.0015 -2.1021
 6127SOL    HW230018   4.715   1.420  10.900 -0.9021  0.3214  0.7809
 6128SOL     OW30019   0.576   3.266  16.416  0.1764 -0.3310  0.0420
 6128SOL    HW130020   0.571   3.323  16.494 -0.9110  0.3224 -0.5107
 6128SOL    HW230021   0.573   3.334  16.348 -2.8156  0.4769  1.0017
 6129SOL     OW30022   0.504   3.217   8.416  0.5393 -0.0182 -0.3682
 6129SOL    HW130023   0.560   3.285   8.380 -0.9613  0.7844 -1.1811
 6129SOL    HW230024   0.440   3.206   8.346  0.8557 -1.1831 -0.4686
 6130SOL     OW30025   2.958   3.808   8.679  0.3158 -0.1338  0.6870
 6130SOL    HW130026   2.913   3.796   8.762 -1.2573  1.3443  0.0319
 6130SOL    HW230027   3.047   3.800   8.714  0.6903 -0.9549 -0.4497
 6131SOL     OW30028   1.266   4.174  16.922 -0.2730  0.3077  0.3134
 6131SOL    HW130029   1.228   4.261  16.929  1.2059  0.8591  1.4533
 6131SOL    HW230030   1.323   4.174  16.999 -1.1179 -0.1657  0.9396
 6132SOL     OW30031   3.562   0.713   9.589  0.5206 -0.1892 -0.5363
 6132SOL    HW130032   3.532   0.681   9.674 -0.9528 -0.3441 -1.1200
 6132SOL    HW230033   3.553   0.808   9.589  0.0768 -0.2370  0.3225
 6133SOL     OW30034   0.425   1.962   9.966  0.1730  0.3911 -0.4205
 6133SOL    HW130035   0.454   2.018   9.893 -0.3472  0.6246 -0.4425
 6133SOL    HW230036   0.364   1.907   9.917 -1.1227  0.3499  1.2394
 6134SOL     OW30037   2.807   1.004   5.177 -0.0382 -0.2725 -0.5662
 6134SOL    HW130038   2.743   0.946   5.135 -0.0778 -0.5844 -0.0801
 6134SOL    HW230039   2.824   0.954   5.257  0.7321 -2.2661 -1.9678
 6135SOL     OW30040   0.897   0.541   4.162 -0.5945  0.1575  0.2650
 6135SOL    HW130041   0.831   0.475   4.142  2.3749 -2.6106 -0.3786
 6135SOL    HW230042   0.917   0.533   4.255 -0.1723  0.5459  0.2092
 6136SOL     OW30043   1.814   0.151   8.896 -0.2352 -0.0837  0.3716
 6136SOL    HW130044   1.833   0.245   8.903 -2.5040  0.4150 -0.4159
 6136SOL    HW230045   1.864   0.121   8.819 -0.8362 -0.3190  0.0781
 6137SOL     OW30046   0.498   2.969  11.414  0.1221 -0.3671 -0.8375
 6137SOL    HW130047   0.473   3.025  11.487 -0.6716  1.7615 -2.7475
 6137SOL    HW230048   0.450   3.002  11.338 -0.7947 -2.4729 -1.1973
 6138SOL     OW30049   4.707   4.489  10.560 -0.0745 -0.7408  0.1370
 6138SOL    HW130050   4.702   4.422  10.628  1.2499 -1.5586 -0.5609
 6138SOL    HW230051   0.062   4.478  10.531  0.2524  0.9089  0.5040
 6139SOL     OW30052   3.655   3.675   5.259 -0.2850 -0.5169  0.4854
 6139SOL    HW130053   3.663   3.614   5.333  0.0858  0.3997  1.1885
 6139SOL    HW230054   3.721   3.741   5.281 -1.9266  0.9341  0.9976
 6140SOL     OW30055   1.148   4.651   7.236  0.2214 -0.1820 -0.1814
 6140SOL    HW130056   1.229   4.611   7.268  0.3044 -0.1194 -0.3128
 6140SOL    HW230057   1.093   4.674   7.311 -0.5923 -0.8087 -0.5828
 6141SOL     OW30058   2.114   4.369  17.376  0.3269 -0.1628 -0.4741
 6141SOL    HW130059   2.144   4.351  17.287  0.9535 -0.6386 -0.1678
 6141SOL    HW230060   2.112   4.464  17.380 -1.3582 -0.2015 -0.3272
 6142SOL     OW30061   2.744   1.413   6.456  0.1923 -0.1640  0.1299
 6142SOL    HW130062   2.772   1.503   6.443 -1.6712  0.6986  2.1027
 6142SOL    HW230063   2.653   1.427   6.482 -0.1955 -2.0518 -0.1847
 6143SOL     OW30064   0.878   0.447  10.008  0.8224 -0.1549 -0.2523
 6143SOL    HW130065   0.880   0.481  10.098 -0.0755 -1.2156  0.1629
 6143SOL    HW230066   0.895   0.518   9.946  0.5548 -1.1506 -1.4779
 6144SOL     OW30067   1.605   4.491   6.633  0.0831 -0.0344 -0.0502
 6144SOL    HW130068   1.594   4.560   6.568 -0.5642  0.0021  0.1056
 6144SOL    HW230069   1.694   4.508   6.665 -0.3160  1.0846  0.4760
 6145SOL     OW30070   3.181   2.601   0.865  0.2582  0.6246 -0.0559
 6145SOL    HW130071   3.253   2.585   0.926 -0.8830 -1.1486  0.8210
 6145SOL    HW230072   3.136   2.667   0.919  2.0294  1.0720  0.8590
 6146SOL     OW30073   1.844   2.072   5.106 -0.4403  0.9429  0.0675
 6146SOL    HW130074   1.935   2.101   5.114 -0.3903  0.9435 -0.4830
 6146SOL    HW230075   1.837   2.075   5.011  1.3361 -0.1326 -0.0920
 6147SOL     OW30076   3.912   1.350  15.271  0.5919  0.3410  0.3440
 6147SOL    HW130077   3.935   1.442  15.255  1.1855 -0.0467 -1.0433
 6147SOL    HW230078   3.990   1.314  15.314  1.0351  0.7057 -0.1562
 6148SOL     OW30079   2.603   1.776   5.708 -0.1274 -0.3832  0.3377
 6148SOL    HW130080   2.551   1.756   5.786 -0.0916 -1.3243  0.1162
 6148SOL    HW230081   2.688   1.767   5.750  0.3273 -0.4946 -0.6172
 6149SOL     OW30082   3.498   3.828   1.469  0.0202  0.1459  0.0333
 6149SOL    HW130083   3.424   3.803   1.524  0.0719  0.2119  0.1337
 6149SOL    HW230084   3.520   3.743   1.432  2.0823  0.8244 -0.2808
 6150SOL     OW30085   0.585   0.181   6.106  0.4458 -0.6179  0.5960
 6150SOL    HW130086   0.660   0.122   6.104  2.1483  1.4620  3.7261
 6150SOL    HW230087   0.573   0.183   6.011 -2.1553  0.4097  0.9477
 6151SOL     OW30088   1.427   2.580  16.853 -0.2729 -0.4873  0.1255
 6151SOL    HW130089   1.464   2.615  16.934 -1.4139  0.3584  0.2797
 6151SOL    HW230090   1.431   2.656  16.795  0.5553  0.0269  0.8493
 6152SOL     OW30091   4.344   3.178  13.001 -0.0249  0.4629 -0.0704
 6152SOL    HW130092   4.410   3.139  12.944 -2.2273 -0.1565 -2.2269
 6152SOL    HW230093   4.382   3.171  13.088  0.3330 -1.0902 -0.3573
 6153SOL     OW30094   2.228   2.149   2.584 -0.5062 -0.1159  0.0919
 6153SOL    HW130095   2.254   2.198   2.506  2.6840 -1.3973  0.3438
 6153SOL    HW230096   2.183   2.222   2.626  1.7987  0.9538  0.6449
 6154SOL     OW30097   0.033   4.197   2.690 -0.2806 -0.2669 -0.1296
 6154SOL    HW130098   0.022   4.115   2.642 -0.6989 -0.4140  0.2262
 6154SOL    HW230099   0.101   4.234   2.632 -1.5255  1.2535 -0.6390
 6155SOL     OW30100   3.487   2.523   5.634 -0.3243 -0.7926 -0.0160
 6155SOL    HW130101   3.504   2.564   5.719  2.1954  0.2284 -1.0341
 6155SOL    HW230102   3.571   2.518   5.590 -0.2405 -1.5382  0.2272
 6156SOL     OW30103   1.464   3.066   7.758 -0.4032 -0.4243  0.0755
 6156SOL    HW130104   1.410   3.108   7.691 -0.2229 -1.0928 -0.4930
 6156SOL    HW230105   1.407   3.002   7.801 -0.1681 -1.2568 -0.8590
 6157SOL     OW30106   0.378   3.081   5.566  0.1463 -0.3643 -0.3661
 6157SOL    HW130107   0.335   3.064   5.650  1.3928 -1.3577  0.0798
 6157SOL    HW230108   0.469   3.091   5.595 -0.4300  1.2580  0.8791
 6158SOL     OW30109   1.636   3.298   8.872 -0.0674  0.3163  0.4443
 6158SOL    HW130110   1.714   3.268   8.825 -0.3640  0.2404 -0.0015
 6158SOL    HW230111   1.606   3.216   8.911  0.6448 -0.3634 -0.4406
 6159SOL     OW30112   3.545   0.716  12.349  0.2066  0.1001 -0.0291
 6159SOL    HW130113   3.532   0.635  12.399  0.0386  0.6467  0.8120
 6159SOL    HW230114   3.490   0.783  12.389 -2.6804 -2.5268  0.3764
 6160SOL     OW30115   0.298   3.864   6.642 -0.2159 -0.2082  0.2019
 6160SOL    HW130116   0.328   3.785   6.686  2.6633  0.4410 -0.6315
 6160SOL    HW230117   0.357   3.848   6.569 -1.1949  0.8255 -0.8102
 6161SOL     OW30118   2.171   2.324   8.754 -0.4788 -0.5418 -0.0311
 6161SOL    HW130119   2.081   2.347   8.734 -0.2166 -2.7747 -3.8007
 6161SOL    HW230120   2.164   2.228   8.755  1.4998 -0.7249 -3.7688
 6162SOL     OW30121   4.193   4.158   9.289  0.0158  0.3140 -0.2626
 6162SOL    HW130122   4.288   4.152   9.298 -0.2525 -1.7634  1.2856
 6162SOL    HW230123   4.172   4.068   9.262  0.4275  0.2558 -0.3865
 6163SOL     OW30124   0.771   2.718   5.692  0.0414  0.1360 -0.5390
 6163SOL    HW130125   0.683   2.743   5.720  0.2655  0.8554 -0.4783
 6163SOL    HW230126   0.776   2.624   5.710  2.6975  0.8266  2.2310
 6164SOL     OW30127   0.171   0.748   7.156  0.2262 -0.4343 -0.0594
 6164SOL    HW130128   0.112   0.790   7.218  2.0754  3.5720 -0.9701
 6164SOL    HW230129   0.235   0.820   7.152 -0.3901 -0.0316 -3.1353
 6165SOL     OW30130   4.592   2.359   4.386 -0.0038  0.3523  0.1376
 6165SOL    HW130131   4.538   2.372   4.308 -1.0702 -0.1192  0.7982
 6165SOL    HW230132   4.529   2.334   4.454  0.9533  0.2924  1.0136
 6166SOL     OW30133   4.259   0.335   3.269 -0.0175  0.5842  0.3837
 6166SOL    HW130134   4.233   0.419   3.307 -1.3651  1.6002 -2.8225
 6166SOL    HW230135   4.344   0.362   3.235 -0.3105  0.8877 -0.1052
 6167SOL     OW30136   4.233   4.618  13.002  0.1826  0.5969 -0.1646
 6167SOL    HW130137   4.199   4.626  12.913 -1.4757  2.7942  0.6644
 6167SOL    HW230138   4.195   4.695  13.044  0.2173 -0.2242  1.3595
 6168SOL     OW30139   0.434   3.642   8.888  0.4969  0.2211  0.0697
 6168SOL    HW130140   0.462   3.609   8.803 -0.9580  3.0567 -1.4936
 6168SOL    HW230141   0.344   3.610   8.898  0.1631  0.5510 -1.8759
 6169SOL     OW30142   4.666   0.515   7.231 -0.0017 -0.5776  0.1037
 6169SOL    HW130143   4.662   0.590   7.172  0.6129 -1.8570 -1.5437
 6169SOL    HW230144   4.595   0.468   7.188  0.0160 -1.5244  1.1032
 6170SOL     OW30145   1.573   0.823   1.228  0.1099 -0.3105 -0.1639
 6170SOL    HW130146   1.611   0.758   1.169 -0.5177 -0.0182 -0.8829
 6170SOL    HW230147   1.536   0.882   1.162 -2.5612 -3.0128 -1.0522
 6171SOL     OW30148   0.983   3.168   7.682  0.1065  0.3929 -0.1652
 6171SOL    HW130149   1.012   3.214   7.761  0.1192  0.6771 -0.3338
 6171SOL    HW230150   0.943   3.094   7.728  0.5274  1.4864  1.9610
 6172SOL     OW30151   2.074   3.017   5.083  0.0554 -0.0187  0.2041
 6172SOL    HW130152   2.069   3.026   5.178  1.5998 -0.6715  0.3403
 6172SOL    HW230153   2.155   3.056   5.050 -1.0672  1.3197 -0.9687
 6173SOL     OW30154   3.288   2.997  16.067  0.3176 -0.3439  0.0841
 6173SOL    HW130155   3.242   3.003  16.151 -2.1762 -1.2302 -1.2349
 6173SOL    HW230156   3.257   2.919  16.021  1.1688  0.1212 -1.2594
 6174SOL     OW30157   3.998   2.111   2.319 -0.2966 -0.0218 -0.5199
 6174SOL    HW130158   4.014   2.204   2.307 -0.3973  0.0138 -0.3755
 6174SOL    HW230159   4.002   2.065   2.235  0.7837 -3.0999  1.1896
 6175SOL     OW30160   2.860   2.980   7.994 -0.0047 -0.7157  0.1019
 6175SOL    HW130161   2.784   2.948   7.944  0.5111 -1.2997 -0.3010
 6175SOL    HW230162   2.922   2.908   7.987  0.1096 -0.5271 -0.8260
 6176SOL     OW30163   0.845   0.541   9.005 -0.7008  0.0675 -0.2627
 6176SOL    HW130164   0.780   0.547   8.935  1.0269  0.0829 -1.8634
 6176SOL    HW230165   0.779   0.570   9.067 -2.2996 -1.4461 -1.2388
 6177SOL     OW30166   0.545   3.359  17.697 -0.5059 -0.2642  0.7078
 6177SOL    HW130167   0.637   3.339  17.717  0.0401  1.8135  0.2881
 6177SOL    HW230168   0.546   3.450  17.669  1.8815  0.2493  2.4001
 6178SOL     OW30169   0.010   4.629   8.858 -0.0305 -0.2149  0.0250
 6178SOL    HW130170   0.069   4.564   8.821 -0.0607 -0.1551 -0.1253
 6178SOL    HW230171   0.073   4.684   8.903  1.3245  0.4480 -2.6987
 6179SOL     OW30172   1.987   1.102   7.491 -0.2653 -0.6972 -0.3663
 6179SOL    HW130173   1.986   1.180   7.547 -0.5070 -0.7944 -0.2330
 6179SOL    HW230174   1.969   1.148   7.409 -0.6641 -0.6134 -0.2323
 6180SOL     OW30175   0.315   0.026   5.550 -0.8199 -0.1788 -0.3113
 6180SOL    HW130176   0.330   0.114   5.514 -1.6099 -0.1052 -0.4813
 6180SOL    HW230177   0.272   0.046   5.634  2.2993 -0.8496  1.4221
 6181SOL     OW30178   0.968   3.420  15.890  0.4069  0.2055  0.3983
 6181SOL    HW130179   0.922   3.487  15.840  1.8503 -0.6353 -2.0462
 6181SOL    HW230180   0.915   3.342  15.875  1.0154 -0.2832  0.7540
 6182SOL     OW30181   4.470   2.054   2.291  0.1734  0.5043  0.6016
 6182SOL    HW130182   4.445   2.087   2.377  3.5283  0.9585  1.3969
 6182SOL    HW230183   4.528   1.983   2.321  0.1533  0.6519  0.9736
 6183SOL     OW30184   3.514   1.632   6.406  0.2633  0.4121  0.2016
 6183SOL    HW130185   3.547   1.585   6.483 -1.9243 -1.4654 -0.0200
 6183SOL    HW230186   3.432   1.586   6.392  0.8227 -1.6454  3.4823
 6184SOL     OW30187   4.684   3.291   7.194  0.0328 -0.6100  0.2844
 6184SOL    HW130188   4.636   3.373   7.186 -0.4892 -0.9123  0.2949
 6184SOL    HW230189   0.013   3.312   7.260 -0.0065  1.9353 -0.5086
 6185SOL     OW30190   4.144   3.363  15.405  0.1059 -0.5851  0.0069
 6185SOL    HW130191   4.100   3.324  15.481  1.3687  0.7889  1.4518
 6185SOL    HW230192   4.230   3.377  15.444 -0.0344 -2.7136  1.1035
 6186SOL     OW30193   2.877   4.189   5.288 -0.0741 -0.4058  0.2373
 6186SOL    HW130194   2.958   4.177   5.337 -0.5950 -3.7624  0.3120
 6186SOL    HW230195   2.856   4.096   5.273  0.9153 -0.4185 -1.0396
 6187SOL     OW30196   2.542   1.145   1.381 -0.3338  0.0560 -0.1437
 6187SOL    HW130197   2.581   1.066   1.417  1.5398  1.4139  0.7960
 6187SOL    HW230198   2.508   1.196   1.455 -0.0242  0.0493 -0.0008
 6188SOL     OW30199   0.574   0.479  11.891  0.3132 -0.2448  0.2300
 6188SOL    HW130200   0.651   0.435  11.928  2.3107  1.0794 -2.3258
 6188SOL    HW230201   0.554   0.529  11.970 -1.9848 -1.0926  0.1902
 6189SOL     OW30202   0.595   0.288   3.949  0.4499  0.2788 -0.2267
 6189SOL    HW130203   0.635   0.308   4.033 -1.1834  1.0456  0.3527
 6189SOL    HW230204   0.528   0.224   3.971  1.2489 -0.4831 -0.0024
 6190SOL     OW30205   1.732   1.600   0.377  0.1991  0.4850 -0.4997
 6190SOL    HW130206   1.643   1.625   0.351 -0.9087 -1.9001  1.0179
 6190SOL    HW230207   1.735   1.505   0.367  1.5590  0.5958 -1.1636
 6191SOL     OW30208   3.440   1.859   6.171 -0.0250  0.6758 -0.6871
 6191SOL    HW130209   3.502   1.786   6.174 -0.5043  0.3028  0.0977
 6191SOL    HW230210   3.391   1.825   6.097 -0.5259  0.6466 -0.3381
 6192SOL     OW30211   0.681   3.018  16.352 -0.0773  0.2243 -0.2044
 6192SOL    HW130212   0.640   3.095  16.391 -0.8028  0.7583 -2.0151
 6192SOL    HW230213   0.767   3.020  16.394 -0.2594 -1.5578  0.2592
 6193SOL     OW30214   1.519   4.300   9.920 -0.0598 -0.1108 -0.1561
 6193SOL    HW130215   1.569   4.319   9.841 -0.7872 -0.0683 -0.6104
 6193SOL    HW230216   1.538   4.210   9.949 -0.2671 -1.0623 -2.9546
 6194SOL     OW30217   4.007   1.099  14.788  0.0801 -0.3639 -0.5219
 6194SOL    HW130218   4.079   1.044  14.819  0.9405  0.6358 -0.7198
 6194SOL    HW230219   4.050   1.124  14.706 -0.1693 -2.1667 -1.2026
 6195SOL     OW30220   2.119   3.456   7.591  0.2101 -0.0786 -0.0763
 6195SOL    HW130221   2.199   3.406   7.602 -0.0933 -0.7913 -1.1012
 6195SOL    HW230222   2.109   3.488   7.681  0.4060  1.0960 -0.4622
 6196SOL     OW30223   2.925   3.526   1.398  0.4529 -0.2163 -0.1719
 6196SOL    HW130224   2.836   3.534   1.364 -1.1476 -0.4579  3.9424
 6196SOL    HW230225   2.931   3.431   1.405  0.0620 -0.2341 -0.0620
 6197SOL     OW30226   1.546   1.015   5.642  0.2000  0.4302 -0.0438
 6197SOL    HW130227   1.593   0.961   5.706 -1.2947  0.2880  0.9148
 6197SOL    HW230228   1.455   1.015   5.669  0.0201 -0.4927 -0.6501
 6198SOL     OW30229   3.481   4.340   7.255 -0.0378  0.3288  0.0255
 6198SOL    HW130230   3.506   4.295   7.335 -1.4088 -1.4744 -0.5648
 6198SOL    HW230231   3.539   4.305   7.188 -0.5096  2.1546 -1.3565
 6199SOL     OW30232   1.723   4.525   6.010  0.0652 -0.1946  0.7571
 6199SOL    HW130233   1.788   4.584   6.050 -2.8072  2.1127  2.0523
 6199SOL    HW230234   1.673   4.509   6.090 -0.0522 -1.4803  0.4258
 6200SOL     OW30235   1.173   4.387   2.219  0.3658  0.3331 -0.2721
 6200SOL    HW130236   1.135   4.406   2.134 -0.7753 -0.5575  0.0266
 6200SOL    HW230237   1.148   4.295   2.228  0.8340  0.4901  2.9631
 6201SOL     OW30238   1.261   1.650  12.748  0.1232  0.0409 -0.3649
 6201SOL    HW130239   1.341   1.698  12.728 -0.4192  0.0980 -2.4707
 6201SOL    HW230240   1.212   1.648  12.665 -1.7137  0.2303  0.7249
 6202SOL     OW30241   0.185   3.813  10.561 -0.3232  0.1111  0.2496
 6202SOL    HW130242   0.253   3.747  10.549 -0.2112  0.0109  1.3779
 6202SOL    HW230243   0.187   3.817  10.657 -1.5850 -0.2887  0.2860
 6203SOL     OW30244   2.404   3.233   2.538 -0.2593  0.5532 -0.1574
 6203SOL    HW130245   2.451   3.193   2.465 -2.2414 -0.2105 -0.9950
 6203SOL    HW230246   2.320   3.189   2.527  0.3528 -0.0720 -2.4010
 6204SOL     OW30247   4.399   1.089  10.124 -0.1908 -0.1212  0.3197
 6204SOL    HW130248   4.361   1.033  10.191  2.8231  0.2013  2.3317
 6204SOL    HW230249   4.465   1.027  10.094 -0.9869 -0.4038 -0.8040
 6205SOL     OW30250   0.367   4.075   6.813 -0.0806 -0.3041  0.0574
 6205SOL    HW130251   0.339   4.007   6.752  1.1524  0.0583 -0.9228
 6205SOL    HW230252   0.293   4.136   6.807  0.3343  0.1237 -0.7381
 6206SOL     OW30253   3.998   1.697   9.332 -0.0414  0.5075 -0.2323
 6206SOL    HW130254   4.067   1.731   9.389 -0.3732 -0.9068  1.0165
 6206SOL    HW230255   3.932   1.648   9.382 -0.6398 -0.3577 -1.8721
 6207SOL     OW30256   2.163   0.735   4.315  0.0965 -0.2965  0.1463
 6207SOL    HW130257   2.107   0.775   4.249 -1.4898 -2.8751 -0.0982
 6207SOL    HW230258   2.190   0.663   4.258 -0.0926  0.2549 -0.6362
 6208SOL     OW30259   2.880   0.018   3.964  0.4319 -0.5755 -0.2933
 6208SOL    HW130260   2.955   0.033   4.021 -1.0095  1.0512  1.1613
 6208SOL    HW230261   2.877   4.659   3.953  0.3642 -0.6112  0.0301
 6209SOL     OW30262   1.154   4.644   8.126  0.7733  0.3277 -0.2268
 6209SOL    HW130263   1.102   4.565   8.108 -0.8212  1.2048  0.4859
 6209SOL    HW230264   1.086   4.711   8.134 -0.1441 -0.4946 -1.0516
 6210SOL     OW30265   1.870   0.115   9.442  0.5460  0.0563  0.0816
 6210SOL    HW130266   1.819   0.034   9.433  1.5992 -0.3665 -2.2420
 6210SOL    HW230267   1.831   0.158   9.366 -1.6350 -2.2395 -0.1045
 6211SOL     OW30268   1.495   3.271   7.078 -0.3083 -0.7868 -0.0351
 6211SOL    HW130269   1.491   3.367   7.070  1.1497 -0.6813  0.4369
 6211SOL    HW230270   1.473   3.256   7.170  1.7419 -0.4136  0.5058
 6212SOL     OW30271   4.365   3.272  15.539  0.3825 -0.1998 -0.8184
 6212SOL    HW130272   4.447   3.290  15.494  1.4440  0.7191  1.5055
 6212SOL    HW230273   4.344   3.190  15.495 -1.1613 -0.8487  1.0879
 6213SOL     OW30274   3.378   1.394   1.613  0.1591  0.2517  0.1533
 6213SOL    HW130275   3.324   1.325   1.651  0.4590  0.2807  0.6237
 6213SOL    HW230276   3.339   1.393   1.525  0.1386 -1.7037  0.1924
 6214SOL     OW30277   2.401   0.392   1.092  0.2949 -0.3871 -0.2055
 6214SOL    HW130278   2.373   0.483   1.088  1.1875  0.0430  3.1341
 6214SOL    HW230279   2.462   0.396   1.018  0.9466  0.7961  0.4050
 6215SOL     OW30280   4.595   4.334  12.641 -0.4146  0.6620 -0.1165
 6215SOL    HW130281   4.596   4.294  12.554 -0.5772  2.8372 -1.1302
 6215SOL    HW230282   4.685   4.334  12.674  0.1412 -0.9772 -1.6330
 6216SOL     OW30283   0.972   4.533   7.077 -0.2431 -0.2199  0.3269
 6216SOL    HW130284   0.983   4.578   6.993  2.2097 -0.5087  0.4927
 6216SOL    HW230285   1.019   4.590   7.138  0.9293  1.2648 -1.9385
 6217SOL     OW30286   0.795   0.812   5.594 -0.1938  0.1283  0.1254
 6217SOL    HW130287   0.841   0.835   5.675  1.1800  0.2602 -0.6914
 6217SOL    HW230288   0.723   0.763   5.634  0.9363 -1.6620 -0.0528
 6218SOL     OW30289   0.563   0.842   4.519  0.1282 -0.1244 -0.2465
 6218SOL    HW130290   0.564   0.747   4.507  1.7815 -0.2717  1.0981
 6218SOL    HW230291   0.636   0.857   4.580  1.0888 -1.9905 -0.9377
 6219SOL     OW30292   2.779   4.400   9.347 -0.0102 -0.5845  0.6589
 6219SOL    HW130293   2.789   4.476   9.404 -1.3704 -0.7918  1.1761
 6219SOL    HW230294   2.747   4.438   9.265  2.3804 -0.3941 -0.1894
 6220SOL     OW30295   0.708   1.310   3.830  0.4370 -0.0181 -0.0862
 6220SOL    HW130296   0.639   1.245   3.818  0.5800 -0.9384  4.2384
 6220SOL    HW230297   0.681   1.374   3.764  0.1919  1.2500  1.2450
 6221SOL     OW30298   3.099   3.861  11.116 -0.5255  0.0308  0.1177
 6221SOL    HW130299   3.023   3.858  11.174  0.0128  0.6813  0.8464
 6221SOL    HW230300   3.169   3.826  11.171 -0.9332  0.4435  0.9021
 6222SOL     OW30301   2.001   0.814  17.110 -0.9018  0.4123  0.0473
 6222SOL    HW130302   2.035   0.902  17.094 -2.1405  0.7074 -0.9380
 6222SOL    HW230303   2.021   0.792  17.201 -0.3277  0.7661  0.0056
 6223SOL     OW30304   1.601   0.159   6.268  0.4908 -0.2576 -0.2697
 6223SOL    HW130305   1.667   0.163   6.199 -1.5932  1.4697 -2.1615
 6223SOL    HW230306   1.515   0.161   6.226  0.3973  0.2547 -0.0593
 6224SOL     OW30307   3.169   2.514  17.262 -0.1129 -0.0696 -0.0437
 6224SOL    HW130308   3.147   2.432  17.217 -3.2566  0.0414  1.3069
 6224SOL    HW230309   3.112   2.583  17.228  0.1193  1.4901  2.7627
 6225SOL     OW30310   2.467   1.087   6.512  0.0102 -0.0460  0.4060
 6225SOL    HW130311   2.531   1.097   6.583  1.4586 -3.9842 -0.3327
 6225SOL    HW230312   2.478   0.997   6.481 -0.1879  0.1317 -0.1706
 6226SOL     OW30313   0.234   3.756   6.123 -0.1699 -0.2587  0.1654
 6226SOL    HW130314   0.154   3.805   6.105  0.3364  1.2941  2.1281
 6226SOL    HW230315   0.218   3.728   6.214 -0.4236  0.4583  0.3463
 6227SOL     OW30316   1.198   0.754  14.120  0.3106  0.5679 -0.2828
 6227SOL    HW130317   1.278   0.788  14.159  1.4934  0.1341 -2.3326
 6227SOL    HW230318   1.151   0.825  14.164 -1.8354  0.5710 -2.5498
 6228SOL     OW30319   1.518   3.822   2.877  0.4477 -0.4760  0.1972
 6228SOL    HW130320   1.539   3.763   2.949  0.6333 -0.7483 -0.0760
 6228SOL    HW230321   1.576   3.893   2.905 -2.5197  1.5937  1.1066
 6229SOL     OW30322   3.445   3.296   9.602 -0.3043  0.1888 -0.3033
 6229SOL    HW130323   3.394   3.315   9.523  0.0751 -0.4679 -0.7050
 6229SOL    HW230324   3.479   3.385   9.615 -0.9239  0.6538 -1.8554
 6230SOL     OW30325   0.143   2.343   1.415  0.0883  0.1551 -0.1642
 6230SOL    HW130326   0.123   2.324   1.324  0.7635  0.5428 -0.3932
 6230SOL    HW230327   0.068   2.301   1.458 -3.0785  4.3550 -1.5745
 6231SOL     OW30328   0.327   3.642  10.763 -0.4239  0.2837  0.1340
 6231SOL    HW130329   0.413   3.633  10.722 -0.6687  0.9290 -0.5165
 6231SOL    HW230330   0.332   3.613  10.854 -0.4933 -0.0136  0.0458
 6232SOL     OW30331   4.374   0.453   6.012 -0.3690  0.0134  0.6461
 6232SOL    HW130332   4.366   0.384   5.946 -2.3295  0.0621  0.8147
 6232SOL    HW230333   4.282   0.449   6.038 -0.4526  1.4788  0.5514
 6233SOL     OW30334   3.153   3.972   9.194 -0.0381 -0.5214 -0.1789
 6233SOL    HW130335   3.217   4.003   9.257  0.9431  0.4789 -1.6590
 6233SOL    HW230336   3.118   4.056   9.165  1.6524  0.4046  0.4335
 6234SOL     OW30337   1.083   2.280   1.836 -0.1978  0.5620 -0.1526
 6234SOL    HW130338   1.178   2.287   1.848 -0.1416 -1.2584  0.3931
 6234SOL    HW230339   1.072   2.192   1.871 -1.6720  1.0231  0.5639
 6235SOL     OW30340   3.946   3.165  14.774 -0.0896  0.3696 -0.2857
 6235SOL    HW130341   3.861   3.126  14.795  1.3368 -1.5030  2.0470
 6235SOL    HW230342   4.005   3.091  14.784 -0.7654 -0.2130 -0.5942
 6236SOL     OW30343   2.890   4.689   3.564  0.1717  0.3361 -0.2496
 6236SOL    HW130344   2.978   4.692   3.525  1.1866 -0.6499  1.9832
 6236SOL    HW230345   2.882   4.595   3.577 -0.6333  0.6214  1.2848
 6237SOL     OW30346   3.601   3.927  16.982 -0.3421  0.0728 -0.6473
 6237SOL    HW130347   3.622   3.984  17.057  0.6839  0.9544 -1.5979
 6237SOL    HW230348   3.507   3.945  16.983 -0.3345  0.1082 -0.5716
 6238SOL     OW30349   2.733   2.758   2.644  0.0936 -0.0058  0.4123
 6238SOL    HW130350   2.809   2.760   2.585  0.2160  1.0145  0.6060
 6238SOL    HW230351   2.733   2.674   2.690 -1.3581 -0.7170 -0.8876
 6239SOL     OW30352   3.682   0.311   3.348 -0.2591  0.0084  0.1775
 6239SOL    HW130353   3.776   0.295   3.341 -0.0690  1.0345  0.3897
 6239SOL    HW230354   3.659   0.246   3.282 -1.3079  0.1502  0.4083
 6240SOL     OW30355   4.636   1.170   4.647 -0.1951 -0.0350  0.4470
 6240SOL    HW130356   4.639   1.155   4.741  0.2270  1.8858  0.7311
 6240SOL    HW230357   4.707   1.110   4.622 -1.7160 -0.2420 -3.3542
 6241SOL     OW30358   3.248   4.576   9.643 -0.0465  0.0628  0.5016
 6241SOL    HW130359   3.249   4.518   9.567 -0.9726  2.1231 -1.0606
 6241SOL    HW230360   3.241   4.505   9.707 -0.4349  0.2561  0.6686
 6242SOL     OW30361   1.318   2.267   4.366 -0.4048 -0.3742 -0.0010
 6242SOL    HW130362   1.343   2.329   4.434  3.2044 -1.3773 -0.4010
 6242SOL    HW230363   1.329   2.185   4.415 -0.6849 -1.8145 -2.3035
 6243SOL     OW30364   0.248   2.038   0.962  0.2496  0.4245 -0.3122
 6243SOL    HW130365   0.208   2.070   1.042 -0.0330 -0.8508  0.0593
 6243SOL    HW230366   0.276   2.121   0.922 -1.7736  1.5213  0.5436
 6244SOL     OW30367   2.920   0.206   5.088 -0.9152 -0.1648  0.0612
 6244SOL    HW130368   2.953   0.206   5.177  0.4858 -1.5538 -0.4547
 6244SOL    HW230369   2.845   0.262   5.108  0.3854  0.9818  1.6917
 6245SOL     OW30370   1.722   2.879   1.640 -0.3734 -0.1723 -0.1305
 6245SOL    HW130371   1.671   2.915   1.712  0.3873 -1.2393  0.9402
 6245SOL    HW230372   1.802   2.932   1.644  0.2827 -1.1470 -0.2429
 6246SOL     OW30373   4.157   2.527   3.582 -0.0536 -0.3406  0.0557
 6246SOL    HW130374   4.226   2.547   3.519 -0.3375  1.3788  0.2858
 6246SOL    HW230375   4.082   2.569   3.540 -1.6696 -2.0738  1.2476
 6247SOL     OW30376   2.460   0.783   8.432  0.0776  0.0172  0.1994
 6247SOL    HW130377   2.478   0.877   8.429 -0.5306  0.0928 -1.0501
 6247SOL    HW230378   2.551   0.753   8.435 -1.0354 -3.4310  0.1431
 6248SOL     OW30379   1.753   3.068   9.704  0.0175 -0.1483  0.2335
 6248SOL    HW130380   1.717   3.076   9.792 -0.8994  0.0939 -0.1650
 6248SOL    HW230381   1.832   3.122   9.693 -0.7014  0.8790  0.1121
 6249SOL     OW30382   1.625   1.649   9.254  0.5693 -0.4275 -0.1993
 6249SOL    HW130383   1.634   1.653   9.159 -1.4608 -1.0942 -0.4307
 6249SOL    HW230384   1.692   1.591   9.289  0.5365 -0.2770  0.1133
 6250SOL     OW30385   0.243   1.236   8.856 -0.3611  0.0660  0.6104
 6250SOL    HW130386   0.313   1.183   8.895 -0.7096 -1.4372 -0.8120
 6250SOL    HW230387   0.194   1.260   8.934 -1.0671  0.1479  0.1389
 6251SOL     OW30388   2.366   2.726   7.640 -0.1066 -0.0110  0.0440
 6251SOL    HW130389   2.300   2.781   7.682 -0.7714 -0.5896 -0.2377
 6251SOL    HW230390   2.323   2.647   7.674 -1.2297  1.1153  1.2397
 6252SOL     OW30391   2.809   4.147   2.374 -0.3374 -1.2903 -0.3323
 6252SOL    HW130392   2.792   4.105   2.290 -0.3825 -0.6985 -0.6209
 6252SOL    HW230393   2.898   4.118   2.393  0.1974  2.1639  2.4484
 6253SOL     OW30394   3.448   4.726   6.059 -0.0826  0.4798  0.1788
 6253SOL    HW130395   3.496   0.038   6.127 -0.3444  2.1419 -0.7984
 6253SOL    HW230396   3.513   4.691   5.998  1.0930  3.5474 -0.3725
 6254SOL     OW30397   2.194   0.097   5.559 -0.1204  0.4219 -0.4252
 6254SOL    HW130398   2.210   0.005   5.581  0.4644  0.3860 -0.9891
 6254SOL    HW230399   2.159   0.091   5.470  1.2995  1.0606 -1.0357
 6255SOL     OW30400   0.289   2.074  14.972 -0.1934 -0.8412  0.0272
 6255SOL    HW130401   0.342   2.049  14.896  0.1460  3.8630 -1.2912
 6255SOL    HW230402   0.258   2.162  14.952  2.0435 -0.0188  0.2078
 6256SOL     OW30403   3.032   4.627  12.302 -0.1249 -0.1881 -0.0332
 6256SOL    HW130404   2.996   4.559  12.244 -1.5410  0.1145  0.4939
 6256SOL    HW230405   2.995   4.705  12.262  0.3964 -1.6076 -3.3265
 6257SOL     OW30406   2.423   4.654  14.564 -0.4434  0.4612 -0.1165
 6257SOL    HW130407   2.400   4.715  14.494 -0.3651  0.7079  0.0723
 6257SOL    HW230408   2.345   4.655  14.620 -0.4250  0.2151 -0.0848
 6258SOL     OW30409   1.017   3.272  16.758  0.1277  0.1036  0.2088
 6258SOL    HW130410   0.999   3.265  16.852 -0.5344 -0.4061  0.0447
 6258SOL    HW230411   0.954   3.335  16.723 -0.2004 -0.8372 -0.9010
 6259SOL     OW30412   1.288   1.334   7.856 -0.1519  0.3426  0.1040
 6259SOL    HW130413   1.351   1.262   7.858 -2.3680 -1.5810  0.7784
 6259SOL    HW230414   1.340   1.414   7.862 -1.1297  1.0384 -0.6206
 6260SOL     OW30415   2.122   2.206   3.827 -0.4420 -0.5678  0.1725
 6260SOL    HW130416   2.141   2.123   3.870 -0.1013 -0.7663 -0.3719
 6260SOL    HW230417   2.039   2.186   3.782  0.8701 -2.7207 -1.2821
 6261SOL     OW30418   2.987   1.594   1.012 -0.5249 -0.0619 -0.2914
 6261SOL    HW130419   3.022   1.683   1.009 -1.0683  0.2553  2.8379
 6261SOL    HW230420   2.945   1.609   1.096  0.1574 -0.7576  0.1676
 6262SOL     OW30421   3.892   0.430   8.027 -0.1009  0.0636 -0.1712
 6262SOL    HW130422   3.872   0.514   8.068 -0.0890 -0.3540  0.6784
 6262SOL    HW230423   3.840   0.433   7.946  1.0550  1.4511 -0.8725
 6263SOL     OW30424   1.038   1.543  14.952  0.3918  0.5376 -0.2597
 6263SOL    HW130425   1.034   1.638  14.935 -2.8133  0.5692  0.5577
 6263SOL    HW230426   1.067   1.555  15.042 -1.7525 -2.0725  0.7611
 6264SOL     OW30427   4.093   2.122   7.262  0.1106  0.5349 -0.1039
 6264SOL    HW130428   4.168   2.099   7.207 -0.9793  1.8553 -2.1406
 6264SOL    HW230429   4.107   2.216   7.263 -2.4922  0.9303  1.5261
 6265SOL     OW30430   3.458   3.171   2.423 -0.5136  0.5233 -1.0370
 6265SOL    HW130431   3.484   3.244   2.479 -1.8108 -1.5895  2.3288
 6265SOL    HW230432   3.438   3.222   2.344  0.7985 -0.3886 -1.9517
 6266SOL     OW30433   1.613   1.554   8.489  0.5599  0.4463 -0.0590
 6266SOL    HW130434   1.596   1.648   8.479  0.1995  0.1553 -2.2801
 6266SOL    HW230435   1.665   1.552   8.569  0.8731 -1.9417 -0.3367
 6267SOL     OW30436   3.549   4.030   8.983 -0.1846  0.0041  0.2256
 6267SOL    HW130437   3.643   4.046   8.972 -0.1238  0.2198  1.1088
 6267SOL    HW230438   3.516   4.069   8.901  0.7931 -2.2250 -1.2271
 6268SOL     OW30439   2.721   1.417   2.849 -0.5268  0.8185 -0.3978
 6268SOL    HW130440   2.725   1.321   2.841 -1.1635  0.9346 -2.0774
 6268SOL    HW230441   2.654   1.435   2.783 -0.9806  2.6304  0.5915
 6269SOL     OW30442   0.619   2.487  11.813  0.0476  0.2273  0.5881
 6269SOL    HW130443   0.547   2.549  11.797  0.7921  0.8841 -0.2883
 6269SOL    HW230444   0.665   2.492  11.729 -1.7107 -2.9352 -0.5600
 6270SOL     OW30445   4.460   2.521   2.813  0.0312 -0.2567  0.2547
 6270SOL    HW130446   4.532   2.461   2.799 -1.3018 -1.6371 -0.7000
 6270SOL    HW230447   4.436   2.536   2.722  0.9981  0.3972  0.1065
 6271SOL     OW30448   1.225   3.060   3.091 -0.2278 -0.2313  0.3238
 6271SOL    HW130449   1.133   3.051   3.065 -0.6306  3.4269  0.3943
 6271SOL    HW230450   1.207   3.124   3.160  0.8214  0.5770 -0.1574
 6272SOL     OW30451   0.767   0.962   5.856  0.1844  0.6820  0.6453
 6272SOL    HW130452   0.702   0.951   5.926 -0.7226 -0.5075 -0.3844
 6272SOL    HW230453   0.773   1.057   5.856  0.6047  0.6549  0.6188
 6273SOL     OW30454   4.286   2.987  10.721 -1.0918  0.4245 -0.4604
 6273SOL    HW130455   4.316   3.077  10.736 -1.4357  0.5897 -0.7527
 6273SOL    HW230456   4.369   2.940  10.710 -1.6042  0.0934 -2.8408
 6274SOL     OW30457   1.817   0.937   6.087 -0.3788 -0.4333  0.1913
 6274SOL    HW130458   1.744   0.988   6.123 -1.6320 -1.1795 -1.2862
 6274SOL    HW230459   1.848   0.917   6.175  1.0082  1.2111  0.0773
 6275SOL     OW30460   3.921   3.895   3.411  0.5060 -0.1163  0.1898
 6275SOL    HW130461   3.893   3.915   3.500 -0.3055 -1.3732  0.2206
 6275SOL    HW230462   3.839   3.912   3.365  0.6977  0.8046  0.2034
 6276SOL     OW30463   1.532   0.646   3.286  0.2702  0.3833 -0.3639
 6276SOL    HW130464   1.521   0.552   3.277  0.3876 -0.0127  3.6253
 6276SOL    HW230465   1.451   0.656   3.337 -0.9425  0.4745 -2.2887
 6277SOL     OW30466   2.491   1.519   7.208 -0.4660  0.2807 -0.2260
 6277SOL    HW130467   2.574   1.538   7.252 -1.2704 -1.5851  2.0564
 6277SOL    HW230468   2.444   1.600   7.224  0.8253  0.4956  2.4334
 6278SOL     OW30469   3.930   2.269   7.098  0.6053  0.2268  0.6313
 6278SOL    HW130470   3.945   2.340   7.161  0.4676  0.1995  0.6948
 6278SOL    HW230471   3.942   2.194   7.156  2.9104  0.1062 -0.0402
 6279SOL     OW30472   4.570   4.057   4.062 -0.5671 -0.3036  0.4057
 6279SOL    HW130473   4.648   4.112   4.066 -0.7448 -0.1142  1.1750
 6279SOL    HW230474   4.596   3.965   4.077 -0.4998 -0.5653 -1.3075
 6280SOL     OW30475   2.933   4.240   3.808 -0.0695 -0.2337  0.1910
 6280SOL    HW130476   3.018   4.201   3.787 -0.6681 -0.8202 -1.1523
 6280SOL    HW230477   2.892   4.182   3.872  0.9110  0.9208  1.8780
 6281SOL     OW30478   3.891   3.499  14.380  0.5425  0.4413 -0.2697
 6281SOL    HW130479   3.906   3.460  14.466 -1.8331  0.0096 -0.0639
 6281SOL    HW230480   3.840   3.428  14.340 -2.8520  3.3999 -1.1395
 6282SOL     OW30481   2.644   1.296   9.514 -0.2942  0.6366 -0.5515
 6282SOL    HW130482   2.664   1.232   9.445 -0.0703  0.2911 -0.1610
 6282SOL    HW230483   2.687   1.256   9.589  0.0961  0.3163 -0.9460
 6283SOL     OW30484   0.172   4.439   7.042  0.0376  0.1726 -0.2028
 6283SOL    HW130485   0.222   4.467   7.119 -0.4596  0.0579  0.1588
 6283SOL    HW230486   0.169   4.343   7.044 -0.0982  0.2162  1.5069
 6284SOL     OW30487   1.641   0.030  10.833 -0.3526  0.1637  0.1294
 6284SOL    HW130488   1.650   4.678  10.868  2.0310  1.1738  2.0232
 6284SOL    HW230489   1.679   0.016  10.746 -1.5570  0.6365 -0.4822
 6285SOL     OW30490   1.393   1.846   3.933  0.0097  0.3315 -0.1561
 6285SOL    HW130491   1.311   1.832   3.981 -0.4907  1.2641 -0.7479
 6285SOL    HW230492   1.462   1.843   3.999  0.8580  1.0861 -1.0147
 6286SOL     OW30493   1.741   1.729   5.072 -1.0461  0.1539  0.4010
 6286SOL    HW130494   1.831   1.762   5.064 -1.6811  1.4584 -1.4389
 6286SOL    HW230495   1.696   1.781   5.005  1.1314  1.8623  0.2805
 6287SOL     OW30496   3.437   1.225   8.488 -0.0773  0.0092 -0.3056
 6287SOL    HW130497   3.453   1.195   8.577 -0.3563  1.1950  0.1488
 6287SOL    HW230498   3.406   1.314   8.509 -1.6746 -0.9799  1.5698
 6288SOL     OW30499   0.210   3.736   3.589  0.2403  0.1528  0.5276
 6288SOL    HW130500   0.261   3.817   3.599 -1.2778  1.1758 -0.0395
 6288SOL    HW230501   0.261   3.685   3.527  0.5560 -1.6854  2.3077
 6289SOL     OW30502   4.653   4.025   4.766  0.3737 -0.3583 -0.0063
 6289SOL    HW130503   4.572   3.984   4.738 -1.1677  0.7519  2.7269
 6289SOL    HW230504   4.680   3.972   4.841  0.7391  0.5759  0.5264
 6290SOL     OW30505   3.184   0.121   6.000  0.2283 -0.2018  0.3127
 6290SOL    HW130506   3.168   0.120   5.906  0.2673  0.6229  0.2964
 6290SOL    HW230507   3.262   0.068   6.010  0.3411 -0.1774 -0.4629
 6291SOL     OW30508   0.843   2.958   5.547  0.1390  0.3007  0.2426
 6291SOL    HW130509   0.817   2.875   5.588 -0.4453  1.0292  1.3729
 6291SOL    HW230510   0.763   3.009   5.562  0.0822 -0.1685  1.5947
 6292SOL     OW30511   0.541   2.291   4.104  0.0757  0.2881  0.5424
 6292SOL    HW130512   0.542   2.369   4.049  0.4938  0.0438  0.2141
 6292SOL    HW230513   0.457   2.249   4.081  1.5008 -1.1886 -1.9171
 6293SOL     OW30514   1.341   2.302   7.183  0.0902 -0.2094 -0.2727
 6293SOL    HW130515   1.356   2.324   7.091  2.8483 -2.1332 -0.2575
 6293SOL    HW230516   1.265   2.245   7.174  0.0974 -0.1972 -0.4080
 6294SOL     OW30517   4.686   0.902   1.925 -0.1481 -0.6686  0.5098
 6294SOL    HW130518   4.722   0.816   1.903 -3.3676 -1.9632  0.2945
 6294SOL    HW230519   4.621   0.890   1.994 -3.9942  1.3189 -2.8296
 6295SOL     OW30520   3.577   2.161   2.529 -0.1869  0.7186  0.1505
 6295SOL    HW130521   3.623   2.167   2.445 -1.9670  0.2421 -0.8639
 6295SOL    HW230522   3.596   2.078   2.572  1.5976  1.2596  0.3858
 6296SOL     OW30523   2.753   4.425   4.348 -0.2456  0.4806  0.2589
 6296SOL    HW130524   2.809   4.413   4.271 -0.3480 -2.1899  0.6002
 6296SOL    HW230525   2.790   4.502   4.389 -0.2563  0.5605  0.1192
 6297SOL     OW30526   4.578   3.453  14.528 -0.4060 -0.2942  0.1799
 6297SOL    HW130527   4.499   3.492  14.566 -0.6178 -0.0781 -0.4949
 6297SOL    HW230528   4.564   3.475  14.436  1.1982  0.2693  0.0766
 6298SOL     OW30529   0.673   1.515   5.955  0.0806 -0.0609 -0.4187
 6298SOL    HW130530   0.714   1.592   5.995 -1.6834  0.5011  0.3572
 6298SOL    HW230531   0.671   1.532   5.861  0.0295  1.7239 -0.1019
 6299SOL     OW30532   3.289   3.526   8.309 -0.7927  0.4156 -0.0814
 6299SOL    HW130533   3.248   3.566   8.386 -0.8216  0.7897 -0.2902
 6299SOL    HW230534   3.258   3.583   8.238  1.9446  3.0513  0.8602
 6300SOL     OW30535   2.924   0.120  17.681  0.2809  0.2886  0.2594
 6300SOL    HW130536   2.879   0.055  17.626 -0.3319  1.2642 -0.4033
 6300SOL    HW230537   2.845   0.165  17.711 -0.6548 -2.3908  1.7646
 6301SOL     OW30538   2.242   0.613   4.602  0.0683 -0.6563  0.1714
 6301SOL    HW130539   2.177   0.618   4.672  0.5728 -0.0839  0.6032
 6301SOL    HW230540   2.218   0.696   4.560  0.5473 -1.0207 -0.8285
 6302SOL     OW30541   3.199   0.431   6.466  0.0893  0.0317 -0.2800
 6302SOL    HW130542   3.292   0.440   6.487  0.0120 -0.9895  0.5010
 6302SOL    HW230543   3.163   0.403   6.550 -0.1796  2.1071  0.3129
 6303SOL     OW30544   3.420   1.329  15.531  0.1093  0.4929 -0.4285
 6303SOL    HW130545   3.465   1.318  15.615  4.0042 -0.3551 -2.6782
 6303SOL    HW230546   3.480   1.285  15.471  2.1303  0.6794  1.4428
 6304SOL     OW30547   4.473   3.238   7.593 -0.5442 -0.1338  0.0168
 6304SOL    HW130548   4.423   3.237   7.675  0.8166  1.9006  0.8837
 6304SOL    HW230549   4.559   3.208   7.623 -0.5537  1.6394  1.8875
 6305SOL     OW30550   2.309   4.532   4.853  0.3231  0.5529  0.5053
 6305SOL    HW130551   2.248   4.590   4.806  0.4954  0.6466  0.3990
 6305SOL    HW230552   2.390   4.536   4.803 -0.5974  1.3730 -0.9281
 6306SOL     OW30553   3.172   3.986   2.920  0.4176 -0.0900 -0.4095
 6306SOL    HW130554   3.191   3.945   3.005 -1.2965 -2.3411 -1.1213
 6306SOL    HW230555   3.162   4.080   2.937  3.1549  0.2412 -0.5440
 6307SOL     OW30556   0.299   0.691   5.232 -0.8412  0.1954 -0.4502
 6307SOL    HW130557   0.289   0.719   5.141 -0.9759  1.4113 -0.0511
 6307SOL    HW230558   0.380   0.640   5.222  0.2129  1.5549  1.2596
 6308SOL     OW30559   1.517   3.527   7.017  0.4147  0.3964 -0.4142
 6308SOL    HW130560   1.545   3.597   7.075  1.2287  0.0645 -0.4052
 6308SOL    HW230561   1.547   3.549   6.929 -2.2695  0.3219 -1.3585
 6309SOL     OW30562   0.840   4.241   8.106  0.2731  0.0636  0.2943
 6309SOL    HW130563   0.823   4.218   8.198 -1.3526 -0.8688 -0.2316
 6309SOL    HW230564   0.864   4.158   8.066  2.1612 -0.0833  1.7285
 6310SOL     OW30565   1.840   4.541   6.839  0.5206 -0.1667  0.0649
 6310SOL    HW130566   1.917   4.592   6.865 -0.0351 -0.1012  1.5751
 6310SOL    HW230567   1.875   4.452   6.845  0.8905  0.0129  0.6322
 6311SOL     OW30568   2.035   4.679  10.158 -0.0807  0.0642 -0.2733
 6311SOL    HW130569   2.060   4.590  10.133 -1.4218 -0.6795  0.9898
 6311SOL    HW230570   2.113   4.729  10.132  0.5351 -0.2632  0.9221
 6312SOL     OW30571   0.607   3.844   9.025  0.2821 -0.0883  0.3049
 6312SOL    HW130572   0.684   3.820   8.974  1.5306  0.1927  2.0522
 6312SOL    HW230573   0.542   3.791   8.978 -1.6543  1.0842  1.6752
 6313SOL     OW30574   3.043   1.972   8.711 -0.2102  0.2119 -0.3455
 6313SOL    HW130575   3.085   1.991   8.627  0.1341 -2.1186 -0.6947
 6313SOL    HW230576   2.984   1.900   8.690  0.5917 -1.0106  1.6120
 6314SOL     OW30577   1.660   2.661  17.286  0.4721  0.2153 -0.5516
 6314SOL    HW130578   1.675   2.568  17.270  0.0371 -0.2555  1.7975
 6314SOL    HW230579   1.674   2.671  17.380  0.2821  1.5613 -0.6698
 6315SOL     OW30580   4.175   0.583  11.708 -0.2049 -0.4194  0.2946
 6315SOL    HW130581   4.209   0.494  11.722 -1.1091 -0.7356  0.4455
 6315SOL    HW230582   4.258   0.630  11.711 -0.2974 -0.2625  0.4090
 6316SOL     OW30583   1.110   4.707  14.734  0.2150  0.1036  0.6177
 6316SOL    HW130584   1.106   0.018  14.651 -0.8439  0.7324  1.0189
 6316SOL    HW230585   1.030   4.655  14.730  0.0292  0.3287  1.3905
 6317SOL     OW30586   1.502   3.255   1.723  0.3854  0.3160 -0.0996
 6317SOL    HW130587   1.438   3.246   1.794 -1.5087 -0.0518 -1.8727
 6317SOL    HW230588   1.461   3.333   1.686  0.1223  0.9434  1.5077
 6318SOL     OW30589   0.111   3.371  10.901 -0.2100  0.0390 -0.2532
 6318SOL    HW130590   0.124   3.292  10.849  2.0837 -1.9222  3.2796
 6318SOL    HW230591   0.031   3.357  10.951 -0.8556  0.7385 -1.0761
 6319SOL     OW30592   0.867   4.320   5.701  0.2469  0.2556 -0.6348
 6319SOL    HW130593   0.883   4.255   5.632 -0.3079 -1.1388  0.5587
 6319SOL    HW230594   0.917   4.285   5.774 -0.2145  1.9148  0.4796
 6320SOL     OW30595   1.246   2.897   4.710  0.5236 -0.0618  0.6254
 6320SOL    HW130596   1.292   2.854   4.782  0.1515  1.3172  1.6864
 6320SOL    HW230597   1.301   2.884   4.632 -1.7887  0.3863 -1.0949
 6321SOL     OW30598   0.986   2.259   8.286 -0.6056 -0.1572 -0.1487
 6321SOL    HW130599   0.913   2.284   8.342 -0.9286 -1.8163  0.1787
 6321SOL    HW230600   0.934   2.210   8.223  0.9766  0.2067 -1.7469
 6322SOL     OW30601   4.574   2.997   9.312  0.3992 -0.0204 -0.0541
 6322SOL    HW130602   4.517   2.922   9.331 -0.1543 -0.1649 -2.3424
 6322SOL    HW230603   4.613   3.011   9.398 -0.4013 -0.3630  0.3658
 6323SOL     OW30604   0.190   4.535   5.482  0.0281 -0.3969  0.5763
 6323SOL    HW130605   0.243   4.613   5.495 -0.5954 -0.3042  2.4999
 6323SOL    HW230606   0.172   4.554   5.390  0.1060  0.3465  0.7170
 6324SOL     OW30607   3.065   4.558   3.160  0.1238 -0.4957  0.3121
 6324SOL    HW130608   2.982   4.524   3.192 -0.3867  2.1092  1.6952
 6324SOL    HW230609   3.103   4.497   3.096 -0.6139 -3.0520  2.2858
 6325SOL     OW30610   3.791   0.533   5.868 -0.0806  0.2694  0.4299
 6325SOL    HW130611   3.878   0.547   5.904  0.2833 -0.6093 -0.1238
 6325SOL    HW230612   3.742   0.515   5.949 -2.1590  1.9198 -0.4641
 6326SOL     OW30613   3.800   4.005  16.275  0.9788 -0.7733 -0.1129
 6326SOL    HW130614   3.850   3.926  16.294  0.4545 -1.3168 -0.9626
 6326SOL    HW230615   3.749   4.017  16.355  1.3397 -0.8617  0.1284
 6327SOL     OW30616   4.697   2.775  12.507  0.1282  0.1582 -0.5409
 6327SOL    HW130617   4.643   2.805  12.581  1.5532  2.1898 -0.3357
 6327SOL    HW230618   0.042   2.754  12.553 -0.3479 -0.1295  0.1689
 6328SOL     OW30619   0.297   2.353   3.422  0.1734 -0.3337 -0.4578
 6328SOL    HW130620   0.332   2.442   3.413  0.4253 -0.2723  1.0331
 6328SOL    HW230621   0.354   2.305   3.362  2.5730  1.7534  0.1671
 6329SOL     OW30622   4.329   3.365   9.445 -0.1651  0.4967  0.0962
 6329SOL    HW130623   4.387   3.303   9.402  2.4370  2.9014  0.1260
 6329SOL    HW230624   4.348   3.352   9.538 -1.3569 -2.3342 -0.0441
 6330SOL     OW30625   4.040   0.090  17.600 -0.2683 -0.3151  0.3447
 6330SOL    HW130626   3.974   0.115  17.537  0.8259  1.0350 -0.2654
 6330SOL    HW230627   4.110   0.154  17.584  0.7337 -1.0062  1.9186
 6331SOL     OW30628   1.377   4.390   5.953  0.8899 -0.3635 -0.2837
 6331SOL    HW130629   1.391   4.361   6.043 -2.4682 -0.3645  0.2121
 6331SOL    HW230630   1.344   4.479   5.961 -0.9440 -0.8249 -2.7446
 6332SOL     OW30631   4.597   2.989   4.231 -0.1494 -0.6042 -0.2139
 6332SOL    HW130632   4.598   2.959   4.140 -0.6701 -1.0131 -0.0858
 6332SOL    HW230633   4.510   3.030   4.236 -0.2727 -0.5597 -2.7714
 6333SOL     OW30634   2.087   4.039   9.793 -0.0491 -0.4601 -0.3058
 6333SOL    HW130635   2.056   4.075   9.877 -0.1582  0.0317 -0.5543
 6333SOL    HW230636   2.028   3.963   9.795  1.3507 -1.5884 -2.5004
 6334SOL     OW30637   0.763   3.345   2.854 -0.0121  0.3312 -0.2577
 6334SOL    HW130638   0.710   3.360   2.932 -0.0463  1.9463 -0.5903
 6334SOL    HW230639   0.708   3.278   2.812  2.2652 -1.4265 -0.4000
 6335SOL     OW30640   3.465   2.678  11.800  0.1739  0.4269 -0.2893
 6335SOL    HW130641   3.536   2.742  11.802  1.3752 -0.9019 -0.5809
 6335SOL    HW230642   3.446   2.678  11.894  1.1882  1.7068 -0.0895
 6336SOL     OW30643   0.695   1.133   2.522  0.3736 -0.0706 -0.6575
 6336SOL    HW130644   0.788   1.138   2.544  0.1830 -1.1198  0.3774
 6336SOL    HW230645   0.693   1.119   2.427 -0.1326 -2.9350 -0.2462
 6337SOL     OW30646   4.031   0.524  13.656 -0.2479 -0.1809  0.5239
 6337SOL    HW130647   4.115   0.497  13.693  1.1068  1.8137 -1.0868
 6337SOL    HW230648   3.967   0.477  13.710 -2.7035  2.8974  0.2975
 6338SOL     OW30649   0.007   3.741   9.186 -0.2579 -0.3486  0.9060
 6338SOL    HW130650   0.019   3.795   9.264 -0.4204 -2.1599  2.1863
 6338SOL    HW230651   4.683   3.802   9.143  0.7316 -0.2655 -0.3673
 6339SOL     OW30652   4.545   0.368   3.219 -0.0877  0.0980 -0.3557
 6339SOL    HW130653   4.628   0.331   3.188  0.3321  0.5528  0.2503
 6339SOL    HW230654   4.584   0.406   3.298  0.0858  2.0854 -1.4107
 6340SOL     OW30655   0.406   3.174   3.245 -0.3297  0.0143  0.3311
 6340SOL    HW130656   0.486   3.225   3.244 -0.5684  0.3845  0.2511
 6340SOL    HW230657   0.444   3.086   3.246 -0.8127 -0.2205 -1.1160
 6341SOL     OW30658   4.174   2.458   6.432 -0.4303  0.0847  0.0441
 6341SOL    HW130659   4.206   2.389   6.374 -1.5148  1.8093 -2.5903
 6341SOL    HW230660   4.212   2.531   6.383  0.7057 -2.1436 -2.3696
 6342SOL     OW30661   0.714   0.694   2.218  0.3250 -0.5090  0.6155
 6342SOL    HW130662   0.693   0.786   2.200  0.3258 -0.6993 -0.3584
 6342SOL    HW230663   0.777   0.699   2.290 -0.2303 -0.7728  1.1219
 6343SOL     OW30664   3.777   4.431   2.500 -0.3728  0.2596 -0.5714
 6343SOL    HW130665   3.681   4.429   2.492 -0.5017  1.6075  0.7024
 6343SOL    HW230666   3.785   4.336   2.510 -1.4325  0.0570 -1.7151
 6344SOL     OW30667   0.951   1.189   3.814 -0.2720 -0.2845  0.4886
 6344SOL    HW130668   0.867   1.235   3.805 -0.4869 -0.0537  3.8004
 6344SOL    HW230669   0.920   1.104   3.846 -3.8772  1.1866  0.9351
 6345SOL     OW30670   0.225   2.499   7.433  0.4523 -0.1392 -0.2436
 6345SOL    HW130671   0.158   2.551   7.389  0.2432  0.8081  1.1560
 6345SOL    HW230672   0.257   2.432   7.373  0.8831 -0.0175 -0.1436
 6346SOL     OW30673   3.466   4.081   4.827  0.0254 -0.2196 -0.2609
 6346SOL    HW130674   3.536   4.142   4.805 -0.3052  0.8132  1.4841
 6346SOL    HW230675   3.512   4.006   4.791  0.6278 -0.8365  1.8056
 6347SOL     OW30676   3.507   1.279   7.408 -0.6952 -0.2195 -0.2453
 6347SOL    HW130677   3.426   1.329   7.410 -1.2103 -1.1242  1.4117
 6347SOL    HW230678   3.544   1.284   7.496 -0.5098 -1.5069 -0.2412
 6348SOL     OW30679   3.797   3.524  17.340 -0.3054 -0.4709 -0.3668
 6348SOL    HW130680   3.778   3.537  17.433 -0.0414 -1.1157 -0.2222
 6348SOL    HW230681   3.860   3.595  17.329 -1.4574  0.5877 -0.1379
 6349SOL     OW30682   0.308   2.112   2.070  0.5791 -0.1598 -0.3554
 6349SOL    HW130683   0.380   2.072   2.118  0.2341  0.7282  0.8938
 6349SOL    HW230684   0.338   2.203   2.062  3.3309 -0.9600  1.0055
 6350SOL     OW30685   2.895   3.394   7.072 -0.1572 -0.4924 -0.3366
 6350SOL    HW130686   2.973   3.441   7.043 -0.6061  1.7468  2.0626
 6350SOL    HW230687   2.939   3.330   7.129 -0.1383 -1.2408 -1.1923
 6351SOL     OW30688   2.996   3.460   3.565  0.0320 -0.3251 -0.3650
 6351SOL    HW130689   2.952   3.525   3.510  2.4855  0.6991 -1.1049
 6351SOL    HW230690   2.939   3.384   3.578 -0.0420 -0.3062 -0.5686
 6352SOL     OW30691   1.722   3.260   8.148 -0.4546  0.2154 -0.1451
 6352SOL    HW130692   1.758   3.190   8.203  0.6122  0.4758 -0.5156
 6352SOL    HW230693   1.635   3.230   8.123 -0.7718 -0.1242  1.3650
 6353SOL     OW30694   4.126   3.795  14.951 -0.8311 -0.5541 -0.3079
 6353SOL    HW130695   4.211   3.760  14.976 -0.8395 -0.5885 -0.3277
 6353SOL    HW230696   4.111   3.734  14.879  2.9468 -0.9262 -0.7787
 6354SOL     OW30697   3.429   3.436   3.572 -0.1466 -0.1379 -0.0014
 6354SOL    HW130698   3.375   3.426   3.650 -0.3779 -2.0783 -0.4148
 6354SOL    HW230699   3.516   3.468   3.596  0.6816 -0.8082 -2.0872
 6355SOL     OW30700   2.059   2.196   7.452 -0.1248 -0.0821  0.5190
 6355SOL    HW130701   2.087   2.281   7.418  0.7724 -0.7219 -0.3059
 6355SOL    HW230702   1.972   2.219   7.486 -0.6381  1.3128 -1.7904
 6356SOL     OW30703   4.141   3.674   6.350 -0.1894 -0.0206  0.8287
 6356SOL    HW130704   4.215   3.733   6.366  2.2390 -2.5664 -0.9169
 6356SOL    HW230705   4.134   3.707   6.261  0.5278 -1.9045  0.0618
 6357SOL     OW30706   1.259   4.722   7.567 -0.0457  0.6266 -0.2843
 6357SOL    HW130707   1.179   4.712   7.515  0.2524  0.0963 -0.6342
 6357SOL    HW230708   1.278   0.078   7.546  1.1739  0.3913 -0.2009
 6358SOL     OW30709   1.549   1.585   4.806  0.4062  0.1947 -0.1585
 6358SOL    HW130710   1.594   1.668   4.821 -0.7714  1.2857 -2.6858
 6358SOL    HW230711   1.583   1.538   4.883  0.0510 -0.7753 -0.5935
 6359SOL     OW30712   0.119   2.171   0.651 -0.0972  0.9400  0.6498
 6359SOL    HW130713   0.038   2.219   0.663 -1.6078 -1.2086 -1.0343
 6359SOL    HW230714   0.094   2.132   0.567  0.9495  2.0230 -0.1611
 6360SOL     OW30715   4.134   0.295   0.306 -0.2655 -0.1499  0.2446
 6360SOL    HW130716   4.131   0.203   0.279  1.4895  0.2017 -1.1903
 6360SOL    HW230717   4.181   0.328   0.230  0.7691 -3.0038 -0.3799
 6361SOL     OW30718   1.759   2.483   9.875  0.3544  0.7305  0.1194
 6361SOL    HW130719   1.705   2.413   9.913 -0.0537  0.1335 -1.5269
 6361SOL    HW230720   1.848   2.466   9.907 -0.1584 -0.8943  0.6938
 6362SOL     OW30721   3.644   1.397   7.627  0.1947  0.0801  0.2305
 6362SOL    HW130722   3.659   1.463   7.695  0.5541 -1.9057  2.0677
 6362SOL    HW230723   3.677   1.434   7.545 -1.4714  0.3948 -0.3098
 6363SOL     OW30724   1.352   2.549  12.449 -0.3235  0.0656 -0.4449
 6363SOL    HW130725   1.314   2.514  12.369 -0.1467  1.5031 -1.1644
 6363SOL    HW230726   1.295   2.487  12.494 -0.1855 -0.9648 -1.7086
 6364SOL     OW30727   0.381   1.302   2.999 -0.0059  0.4727  0.1380
 6364SOL    HW130728   0.461   1.251   3.012 -1.4877 -1.6081  1.0081
 6364SOL    HW230729   0.373   1.340   3.087  0.2556  0.5974  0.1088
 6365SOL     OW30730   4.708   4.245   4.605 -0.5940 -0.2136 -0.2002
 6365SOL    HW130731   4.680   4.171   4.660  0.1960  0.8583  1.6274
 6365SOL    HW230732   0.006   4.183   4.540 -1.5497 -0.0595 -0.8487
 6366SOL     OW30733   0.390   0.188   7.207  0.1314  0.0190  0.2613
 6366SOL    HW130734   0.351   0.207   7.121  0.0714  1.7226  0.6750
 6366SOL    HW230735   0.313   0.183   7.264  0.6274 -0.6996  0.8734
 6367SOL     OW30736   3.640   3.034   3.313  0.1738 -0.0683  0.2749
 6367SOL    HW130737   3.642   3.065   3.403 -0.4220 -2.7947  1.2399
 6367SOL    HW230738   3.707   2.966   3.308  0.2154  0.0793 -1.0889
 6368SOL     OW30739   2.835   1.208  13.406 -0.1357 -0.3856 -0.2271
 6368SOL    HW130740   2.837   1.146  13.479 -1.3845  1.8516  1.7096
 6368SOL    HW230741   2.868   1.289  13.445 -2.5193  0.5171 -0.1166
 6369SOL     OW30742   0.991   1.943   3.752  0.3600 -0.9177 -0.2201
 6369SOL    HW130743   0.970   1.989   3.834  1.4288 -0.0099 -0.4443
 6369SOL    HW230744   1.018   2.013   3.692  0.1715  0.3165  1.1398
 6370SOL     OW30745   1.055   1.317  11.810 -0.7468 -0.0354  0.0245
 6370SOL    HW130746   1.039   1.271  11.892  2.5713  0.1323  0.7531
 6370SOL    HW230747   0.971   1.363  11.805 -0.8140 -0.0865  0.6403
 6371SOL     OW30748   0.874   2.540   4.717  0.0935  0.2362  0.0460
 6371SOL    HW130749   0.896   2.623   4.674  3.0287 -0.3947  0.3063
 6371SOL    HW230750   0.918   2.479   4.658  0.9415  1.9680 -1.0961
 6372SOL     OW30751   2.138   0.794   7.102 -0.2688  0.0006  0.2466
 6372SOL    HW130752   2.172   0.754   7.183 -2.3666  3.1080  2.6473
 6372SOL    HW230753   2.109   0.879   7.134  0.5740 -0.0599  1.1622
 6373SOL     OW30754   3.837   4.269  10.214 -0.1857  0.0648  0.2309
 6373SOL    HW130755   3.866   4.359  10.204 -2.2880  0.8237  0.9869
 6373SOL    HW230756   3.913   4.211  10.213  0.4266  0.8628  0.7837
 6374SOL     OW30757   4.343   1.893   5.303  0.5540 -0.2612 -0.5285
 6374SOL    HW130758   4.404   1.856   5.367  0.6148 -1.1418 -1.1106
 6374SOL    HW230759   4.321   1.815   5.253  0.0968 -0.0345 -0.6820
 6375SOL     OW30760   0.766   0.746  10.140  0.2206  0.6084  0.1223
 6375SOL    HW130761   0.686   0.693  10.134  0.2915  0.8411 -3.1502
 6375SOL    HW230762   0.756   0.812  10.070  1.0585 -1.8985 -2.3667
 6376SOL     OW30763   2.015   3.152   2.597 -0.4662 -0.2196 -0.0701
 6376SOL    HW130764   2.102   3.125   2.568 -1.1998 -2.8414  0.1484
 6376SOL    HW230765   1.992   3.071   2.643 -0.9641 -0.2694 -0.4112
 6377SOL     OW30766   0.209   0.073   4.590 -0.0694 -0.1827 -0.4690
 6377SOL    HW130767   0.268   0.013   4.543 -0.5405  0.0098 -1.3107
 6377SOL    HW230768   0.257   0.072   4.672  0.5156  1.9786 -0.8012
 6378SOL     OW30769   4.505   2.642   3.052  0.2246  0.0865  0.2720
 6378SOL    HW130770   4.485   2.602   2.968  0.0447  1.2455 -0.2310
 6378SOL    HW230771   4.505   2.732   3.019 -0.2523 -0.1794 -0.4463
 6379SOL     OW30772   4.446   4.590   8.874 -0.3095 -0.3199  0.3236
 6379SOL    HW130773   4.474   4.601   8.784  0.0233  0.6631  0.5455
 6379SOL    HW230774   4.525   4.611   8.924  0.0909  0.4379 -0.6417
 6380SOL     OW30775   0.742   4.602   3.805  0.4595  0.5572  0.4057
 6380SOL    HW130776   0.793   4.628   3.882  1.5726 -0.0019 -0.1416
 6380SOL    HW230777   0.808   4.623   3.738  3.0542 -3.4080  1.6905
 6381SOL     OW30778   3.453   3.951  11.326  0.3885 -0.0895 -0.1462
 6381SOL    HW130779   3.452   3.864  11.286  1.8616 -0.3396  0.3475
 6381SOL    HW230780   3.385   3.998  11.278  0.6503  0.0246 -0.4077
 6382SOL     OW30781   3.164   0.694   2.315  0.3370 -0.4978  0.1491
 6382SOL    HW130782   3.249   0.739   2.323 -0.0276 -0.5367  3.8166
 6382SOL    HW230783   3.155   0.700   2.220  0.9459 -0.2300  0.1050
 6383SOL     OW30784   2.522   2.013  13.299  0.4665 -0.0986  0.2875
 6383SOL    HW130785   2.589   2.047  13.240 -0.8385  0.9851 -0.5926
 6383SOL    HW230786   2.569   1.949  13.352 -1.8775 -2.0478  0.0325
 6384SOL     OW30787   0.498   2.727   3.936  0.1991  0.0145 -0.0638
 6384SOL    HW130788   0.495   2.808   3.887  0.5093 -0.3982 -0.7610
 6384SOL    HW230789   0.412   2.726   3.978  0.5935  0.8212  0.7552
 6385SOL     OW30790   3.278   4.324   5.807  0.8317  0.2686 -0.3067
 6385SOL    HW130791   3.242   4.306   5.894 -0.1382  0.2856 -0.7044
 6385SOL    HW230792   3.323   4.243   5.787 -1.1737 -0.4448 -1.9559
 6386SOL     OW30793   3.368   2.117   4.822  0.2455 -0.3774  0.9499
 6386SOL    HW130794   3.377   2.023   4.810 -0.7644 -0.2412 -0.8817
 6386SOL    HW230795   3.289   2.136   4.770 -1.0757  0.5240  3.2914
 6387SOL     OW30796   3.706   3.681  10.362  0.4919  0.1464 -0.2110
 6387SOL    HW130797   3.635   3.663  10.300  0.1350  1.1666 -0.1085
 6387SOL    HW230798   3.772   3.732  10.314 -0.3112  0.1093 -1.3517
 6388SOL     OW30799   1.273   0.105   7.071 -0.1051  0.0690  0.8350
 6388SOL    HW130800   1.222   0.041   7.121 -2.4084  1.7370  0.6295
 6388SOL    HW230801   1.356   0.059   7.063 -1.2108 -1.8984  0.5821
 6389SOL     OW30802   4.294   2.422   2.555 -0.3582 -0.0114 -0.0918
 6389SOL    HW130803   4.203   2.429   2.582 -0.4364  0.9095 -0.5737
 6389SOL    HW230804   4.301   2.503   2.504 -0.4526 -0.4688 -0.8431
 6390SOL     OW30805   1.537   1.877   8.493  0.1517  0.7316 -0.1085
 6390SOL    HW130806   1.474   1.948   8.508  2.5064  2.6998  0.4913
 6390SOL    HW230807   1.609   1.928   8.454 -0.3078  2.1516  0.9057
 6391SOL     OW30808   3.946   4.629   4.148 -0.3117  0.6302  0.4701
 6391SOL    HW130809   3.919   4.717   4.175  0.0772  0.8154  0.2574
 6391SOL    HW230810   3.984   4.604   4.232 -1.5018 -3.3272 -0.1829
 6392SOL     OW30811   0.430   3.153  13.002  0.4975  0.4372 -0.2946
 6392SOL    HW130812   0.351   3.147  12.947  0.5752  1.2310 -0.5047
 6392SOL    HW230813   0.408   3.229  13.056 -2.7182 -0.3000 -0.5283
 6393SOL     OW30814   3.612   1.768   5.361 -0.1154  0.1635 -0.3701
 6393SOL    HW130815   3.602   1.811   5.446  1.8702 -0.6042  0.2485
 6393SOL    HW230816   3.574   1.839   5.309 -0.9299  0.1015  0.1501
 6394SOL     OW30817   2.353   1.382   8.352  0.1230  0.6861 -0.2888
 6394SOL    HW130818   2.350   1.299   8.306 -0.5058  0.2962  0.4648
 6394SOL    HW230819   2.398   1.443   8.293  1.1713  1.2804  1.0996
 6395SOL     OW30820   2.379   3.201  11.385  0.5326  0.5529 -0.3361
 6395SOL    HW130821   2.469   3.219  11.412  0.1595  1.0637  0.5694
 6395SOL    HW230822   2.383   3.121  11.333 -0.0247  0.1973  0.1636
 6396SOL     OW30823   0.777   3.898  17.068  0.2172  0.6595 -0.2325
 6396SOL    HW130824   0.801   3.849  16.990  1.9722  0.8019  0.2249
 6396SOL    HW230825   0.688   3.874  17.092  0.5540 -0.5612 -0.2369
 6397SOL     OW30826   2.791   4.014  12.152 -0.2063 -0.1062 -0.1611
 6397SOL    HW130827   2.832   4.100  12.162 -2.3207  0.5915  2.3522
 6397SOL    HW230828   2.850   3.980  12.084 -1.7416 -0.0711 -1.5120
 6398SOL     OW30829   0.625   0.815   3.738  0.0975 -0.0729 -0.4547
 6398SOL    HW130830   0.547   0.849   3.783 -0.5266  0.0074 -1.5885
 6398SOL    HW230831   0.585   0.736   3.702  0.5524  0.3233 -1.8358
 6399SOL     OW30832   2.031   2.722   5.106  0.1359 -0.3079 -0.5669
 6399SOL    HW130833   1.935   2.729   5.109  0.3607  2.7372 -0.4776
 6399SOL    HW230834   2.054   2.814   5.109 -2.2641  0.3313 -1.2944
 6400SOL     OW30835   1.632   0.199  15.507  0.2305  0.5295 -0.6031
 6400SOL    HW130836   1.672   0.124  15.553  1.0519  0.7442 -0.9641
 6400SOL    HW230837   1.602   0.167  15.422  0.6150  1.6846 -1.1693
 6401SOL     OW30838   2.320   1.920   6.898 -0.1048  0.1240  0.8612
 6401SOL    HW130839   2.248   1.856   6.899  0.5756 -0.6586 -0.0386
 6401SOL    HW230840   2.295   1.987   6.834  0.3246 -0.4169  0.1335
 6402SOL     OW30841   4.274   3.391   2.602 -0.7834 -0.6004  0.2580
 6402SOL    HW130842   4.296   3.484   2.613 -0.4642 -0.7396  0.8047
 6402SOL    HW230843   4.357   3.355   2.572 -1.4553 -1.6991 -0.2936
 6403SOL     OW30844   2.233   2.574   8.642 -0.1037  0.8509  0.0685
 6403SOL    HW130845   2.194   2.488   8.650  0.1734  0.8412  1.3203
 6403SOL    HW230846   2.222   2.581   8.547 -1.7673  0.1710  0.2272
 6404SOL     OW30847   1.622   3.005  17.743  0.0248 -0.1844  0.1799
 6404SOL    HW130848   1.616   2.920   0.043  1.4520  0.1182  0.9553
 6404SOL    HW230849   1.607   2.976  17.653 -1.3233  0.8024  0.0909
 6405SOL     OW30850   4.648   0.726   6.257  0.1202  0.1112  0.0619
 6405SOL    HW130851   4.670   0.633   6.246 -0.9593 -0.0637 -0.6951
 6405SOL    HW230852   4.635   0.765   6.170  1.9409  2.1058  0.6979
 6406SOL     OW30853   2.304   4.292  15.093 -0.1345 -0.2814 -0.2674
 6406SOL    HW130854   2.357   4.222  15.055  0.5853  0.8093 -1.2990
 6406SOL    HW230855   2.253   4.319  15.016  0.6662 -0.2639 -0.7978
 6407SOL     OW30856   0.482   1.349   2.220  0.1668  0.1077  0.4774
 6407SOL    HW130857   0.477   1.363   2.126 -0.3557  0.4259  0.5562
 6407SOL    HW230858   0.392   1.364   2.249  0.2837  0.4907  0.6493
 6408SOL     OW30859   4.393   3.847   9.193  0.2087 -0.3070 -0.5027
 6408SOL    HW130860   4.297   3.846   9.195  0.1922 -0.0255 -1.0903
 6408SOL    HW230861   4.414   3.940   9.196  0.6543 -0.4652  1.2201
 6409SOL     OW30862   2.055   3.326   3.388  0.6669 -0.0624 -0.2168
 6409SOL    HW130863   1.995   3.360   3.455 -0.7535  0.5465 -1.8147
 6409SOL    HW230864   2.020   3.373   3.313 -2.3187  1.3495  2.0518
 6410SOL     OW30865   0.653   4.035  14.550  0.5571 -0.6431 -0.0936
 6410SOL    HW130866   0.560   4.050  14.536  1.1317  2.6647 -0.4749
 6410SOL    HW230867   0.646   4.033  14.646  1.9630 -0.0759  0.0201
 6411SOL     OW30868   3.996   4.265   5.778  0.2638 -0.3295  0.2373
 6411SOL    HW130869   4.057   4.337   5.761  0.6414 -0.2604  1.8644
 6411SOL    HW230870   4.006   4.252   5.873 -2.5098 -1.1243  0.4287
 6412SOL     OW30871   1.260   0.989   5.625  0.0301  0.2862 -0.3460
 6412SOL    HW130872   1.236   1.054   5.560 -0.8215  0.4004  0.0712
 6412SOL    HW230873   1.276   1.050   5.697 -0.8635  0.4852 -0.3184
 6413SOL     OW30874   0.733   4.203   4.742  0.2192 -0.1509 -0.2137
 6413SOL    HW130875   0.799   4.237   4.681 -2.2993  3.4342 -0.9182
 6413SOL    HW230876   0.734   4.114   4.706 -1.6984  0.1461 -0.9840
 6414SOL     OW30877   3.499   1.320   0.824  0.7805 -0.6932  0.0218
 6414SOL    HW130878   3.556   1.320   0.747 -0.9377  1.0934 -1.2192
 6414SOL    HW230879   3.559   1.365   0.884  0.8108 -1.1146  0.3081
 6415SOL     OW30880   2.119   1.286   1.856  0.3634 -0.1218 -0.2687
 6415SOL    HW130881   2.148   1.238   1.779  1.0550 -1.6514  0.9381
 6415SOL    HW230882   2.041   1.234   1.875 -0.1762  1.0395  0.6978
 6416SOL     OW30883   0.921   3.890   9.157 -0.0377 -0.7345 -0.4525
 6416SOL    HW130884   0.961   3.977   9.162 -2.1165  0.1821  0.1095
 6416SOL    HW230885   0.881   3.882   9.244 -0.2424  0.5255 -0.4263
 6417SOL     OW30886   4.337   0.165   3.736  0.0552  0.4865  0.4402
 6417SOL    HW130887   4.388   0.163   3.655  0.0100  1.0781  0.3974
 6417SOL    HW230888   4.255   0.198   3.702 -0.2463  1.2975  1.9683
 6418SOL     OW30889   0.618   2.359   7.929  0.3657  0.2196 -0.0646
 6418SOL    HW130890   0.705   2.387   7.901  1.1958 -0.6359  1.6794
 6418SOL    HW230891   0.582   2.338   7.843  2.2778  0.6961 -0.9875
 6419SOL     OW30892   2.994   0.508  14.351  0.2308  0.0679  0.2870
 6419SOL    HW130893   2.936   0.433  14.358 -2.7705  2.4367  1.0265
 6419SOL    HW230894   2.933   0.578  14.324 -2.3110 -2.3579 -0.2914
 6420SOL     OW30895   3.514   2.163   2.215  0.4258  0.4676  0.5096
 6420SOL    HW130896   3.570   2.110   2.271 -0.1012  1.0728  1.6068
 6420SOL    HW230897   3.558   2.247   2.201  0.4482  0.3433 -0.1508
 6421SOL     OW30898   2.026   1.881   7.057 -0.6210 -0.7836  0.3325
 6421SOL    HW130899   2.076   1.870   7.137  1.0906 -1.1164 -0.7784
 6421SOL    HW230900   2.066   1.829   6.987  2.2438 -0.2040  1.5508
 6422SOL     OW30901   3.280   2.240  11.852  0.4247  0.5055 -0.1390
 6422SOL    HW130902   3.331   2.292  11.790 -0.1089  3.5453  1.9833
 6422SOL    HW230903   3.339   2.238  11.927  3.5591 -1.1244 -2.6553
 6423SOL     OW30904   2.038   4.694   6.945 -0.4150 -0.5163  0.1322
 6423SOL    HW130905   2.036   4.657   7.033  1.0370  0.6530  0.6614
 6423SOL    HW230906   2.116   4.657   6.904  0.8357  2.8169 -0.5579
 6424SOL     OW30907   2.916   0.070  11.691  0.2768  0.6847  0.8507
 6424SOL    HW130908   3.007   0.045  11.707 -0.0128 -0.4323  0.7463
 6424SOL    HW230909   2.896   0.014  11.616  0.0646  0.9567  0.7058
 6425SOL     OW30910   4.599   1.558  11.332  0.3977 -0.4410  0.4478
 6425SOL    HW130911   4.676   1.545  11.276 -0.7915  2.7807 -1.9274
 6425SOL    HW230912   4.634   1.628  11.387 -0.3363 -0.6981  1.2463
 6426SOL     OW30913   4.668   3.828   1.239  0.3715  0.1726 -0.6055
 6426SOL    HW130914   4.649   3.877   1.159 -1.0274  0.3607 -0.1642
 6426SOL    HW230915   4.601   3.761   1.237 -1.4141  1.9118  0.6670
 6427SOL     OW30916   3.842   4.004   3.630  0.3970  0.4579  0.2206
 6427SOL    HW130917   3.752   4.034   3.637  0.4030  0.3817  0.6608
 6427SOL    HW230918   3.882   4.089   3.650 -1.0619  0.8615  1.4325
 6428SOL     OW30919   2.578   3.040  15.153 -0.1460 -0.2081  0.1830
 6428SOL    HW130920   2.616   3.091  15.224 -0.0298 -0.6524  0.4457
 6428SOL    HW230921   2.535   2.981  15.216  1.9821 -1.1879  0.7085
 6429SOL     OW30922   1.579   0.445  12.665 -0.2776 -0.3392 -0.0731
 6429SOL    HW130923   1.673   0.453  12.679 -0.1131 -1.5803 -0.4643
 6429SOL    HW230924   1.570   0.416  12.574 -1.7074 -0.5687  0.1452
 6430SOL     OW30925   2.757   3.312   8.380  0.1214 -0.5330 -0.4325
 6430SOL    HW130926   2.679   3.358   8.348  0.3408  0.7265  0.8435
 6430SOL    HW230927   2.706   3.267   8.447 -2.4496  2.3441 -0.4335
 6431SOL     OW30928   0.248   3.573  16.205  0.4804  0.0165  0.1220
 6431SOL    HW130929   0.189   3.509  16.246 -0.3858  0.6358 -0.1617
 6431SOL    HW230930   0.187   3.614  16.144 -0.4062 -1.0807  0.2751
 6432SOL     OW30931   1.470   2.476   5.209 -0.1981 -0.3881  0.3459
 6432SOL    HW130932   1.396   2.462   5.149 -0.5509  1.0218  0.4568
 6432SOL    HW230933   1.435   2.530   5.280  0.0115 -0.8659  0.8121
 6433SOL     OW30934   3.030   2.683   3.291 -0.4136  0.0869 -0.9288
 6433SOL    HW130935   2.975   2.754   3.324 -2.2368 -1.0932 -1.3691
 6433SOL    HW230936   3.011   2.677   3.197 -0.1688 -0.0813 -0.9668
 6434SOL     OW30937   2.038   2.527   1.251  0.8091 -0.2669 -0.2340
 6434SOL    HW130938   2.091   2.516   1.173 -1.9565 -1.2917 -1.9752
 6434SOL    HW230939   1.990   2.607   1.229  1.6097  0.0567 -0.7724
 6435SOL     OW30940   4.195   4.161   8.954  0.1373  0.3821  0.2445
 6435SOL    HW130941   4.285   4.160   8.919  0.4551  1.6474  1.0347
 6435SOL    HW230942   4.192   4.250   8.989  1.1333 -0.6711  3.0452
 6436SOL     OW30943   3.404   4.054  12.715 -0.2931 -0.7368 -0.1843
 6436SOL    HW130944   3.476   4.093  12.764 -1.6692 -0.0051  1.2471
 6436SOL    HW230945   3.449   4.001  12.649  2.3935  2.2840 -0.7822
 6437SOL     OW30946   2.647   2.812  12.930 -0.1210 -0.3116 -0.1948
 6437SOL    HW130947   2.671   2.737  12.985 -2.3754 -0.5734  0.4524
 6437SOL    HW230948   2.561   2.785  12.899  0.0984 -0.1744 -0.9154
 6438SOL     OW30949   0.376   3.047   2.270 -0.1804  0.5813 -0.0420
 6438SOL    HW130950   0.330   3.122   2.233 -0.6687  0.3748  0.1426
 6438SOL    HW230951   0.311   2.977   2.263  0.2563  0.1467  0.2921
 6439SOL     OW30952   3.260   1.555   5.506  0.0045 -0.0786  0.0409
 6439SOL    HW130953   3.285   1.646   5.494 -1.0193  0.0219 -1.2729
 6439SOL    HW230954   3.168   1.555   5.532 -0.0936 -0.7860 -0.3069
 6440SOL     OW30955   2.195   0.249  10.979  0.3439  0.1037 -0.1846
 6440SOL    HW130956   2.215   0.331  11.024  0.1835  0.0185  0.0424
 6440SOL    HW230957   2.264   0.258  10.914  0.1988  0.8346 -0.2363
 6441SOL     OW30958   1.812   3.026   5.552 -0.3161  0.6129  0.8397
 6441SOL    HW130959   1.836   3.020   5.645  0.7327  0.7440  0.5779
 6441SOL    HW230960   1.722   2.994   5.556 -0.0453 -0.1450  0.8945
 6442SOL     OW30961   4.339   0.079  16.689 -0.1721 -0.4146 -0.2051
 6442SOL    HW130962   4.324   4.730  16.648  0.2378 -0.8031  0.4649
 6442SOL    HW230963   4.252   0.108  16.718  0.5544  2.4960 -0.9459
 6443SOL     OW30964   4.181   0.691   7.552 -0.3365  0.5121 -0.1988
 6443SOL    HW130965   4.220   0.645   7.626 -1.8737 -0.5533 -0.0571
 6443SOL    HW230966   4.252   0.747   7.520  0.8178 -0.7169  0.2245
 6444SOL     OW30967   4.034   1.948   5.988  0.1610  0.1656 -0.1591
 6444SOL    HW130968   4.124   1.966   5.963 -0.0199  1.3282  0.0618
 6444SOL    HW230969   4.036   2.005   6.064 -4.8185  3.4974 -2.5261
 6445SOL     OW30970   3.241   1.400  17.020 -0.1191 -0.1515  0.3926
 6445SOL    HW130971   3.320   1.388  17.074 -0.1870  0.5444  0.6574
 6445SOL    HW230972   3.173   1.372  17.082 -0.3200  0.6118  0.5220
 6446SOL     OW30973   4.171   3.644  14.424 -0.4221  0.2280  0.3478
 6446SOL    HW130974   4.207   3.674  14.340  0.1553 -0.2042  0.4354
 6446SOL    HW230975   4.087   3.608  14.395 -2.3295  3.7581  1.5209
 6447SOL     OW30976   3.104   3.758   0.374  0.2577  0.2316 -0.0995
 6447SOL    HW130977   3.140   3.788   0.290 -0.2606 -1.6681 -0.9968
 6447SOL    HW230978   3.135   3.668   0.375 -0.8724 -0.1827 -2.4177
 6448SOL     OW30979   2.221   4.346   9.880  0.4582  0.1247 -0.2402
 6448SOL    HW130980   2.172   4.319   9.803  0.8419  2.2699 -1.2468
 6448SOL    HW230981   2.263   4.419   9.835  1.0198  0.2883  0.5553
 6449SOL     OW30982   0.167   1.487  13.214  0.1494  0.1027 -0.2966
 6449SOL    HW130983   0.130   1.566  13.254 -1.1563 -0.8527  0.3433
 6449SOL    HW230984   0.100   1.420  13.223  1.8909 -1.6341 -0.3718
 6450SOL     OW30985   4.480   4.372   7.177  0.1032 -0.3318 -0.3843
 6450SOL    HW130986   4.402   4.328   7.143 -0.4781  0.4715 -0.1119
 6450SOL    HW230987   4.544   4.317   7.134  0.2895 -2.3727  2.5487
 6451SOL     OW30988   2.929   1.336   4.726 -0.0285  0.2139 -0.4577
 6451SOL    HW130989   2.863   1.287   4.775  1.0015 -3.5810 -2.8907
 6451SOL    HW230990   3.002   1.275   4.737 -1.5891 -1.8392 -1.5749
 6452SOL     OW30991   4.413   1.261   8.967 -0.3526 -0.0082  0.1050
 6452SOL    HW130992   4.385   1.218   8.887 -0.3078  0.7845 -0.3347
 6452SOL    HW230993   4.329   1.275   9.010 -0.6279  0.0863 -0.4665
 6453SOL     OW30994   4.540   1.055   9.192  0.3374  0.7850  0.0144
 6453SOL    HW130995   4.491   0.975   9.174  1.3707 -0.0325  0.8862
 6453SOL    HW230996   4.603   1.033   9.260  1.7165  1.3902 -1.0504
 6454SOL     OW30997   2.572   3.410   4.118 -0.1350  0.3266 -0.0005
 6454SOL    HW130998   2.626   3.382   4.044  0.8031 -0.1069  0.8584
 6454SOL    HW230999   2.612   3.497   4.129 -2.5236  1.4120  0.1818
 6455SOL     OW31000   4.170   1.052   6.817  0.2006 -0.8064 -0.3882
 6455SOL    HW131001   4.116   0.973   6.818  3.7951 -3.2494  0.9495
 6455SOL    HW231002   4.195   1.042   6.725 -0.9743 -1.5828 -0.6209
 6456SOL     OW31003   3.304   3.867   3.464 -0.1009 -0.1209 -0.0343
 6456SOL    HW131004   3.394   3.886   3.438 -1.2199  1.6947 -2.5621
 6456SOL    HW231005   3.323   3.793   3.522 -0.1952 -0.5114 -0.5037
 6457SOL     OW31006   4.723   1.175   6.431  0.2823  0.0301  0.0915
 6457SOL    HW131007   4.729   1.268   6.450 -2.4457  0.4361 -1.0688
 6457SOL    HW231008   4.731   1.136   6.518  1.1823  0.6405  0.2839
 6458SOL     OW31009   0.323   4.536   4.514 -0.2077  0.4370 -0.0547
 6458SOL    HW131010   0.252   4.516   4.575 -0.0118  0.3913  0.1562
 6458SOL    HW231011   0.396   4.544   4.575 -0.7854  0.1498  0.6767
 6459SOL     OW31012   2.662   2.626  11.627 -0.3253 -0.3215  0.0704
 6459SOL    HW131013   2.710   2.553  11.589 -0.5851 -0.1794 -0.5459
 6459SOL    HW231014   2.616   2.588  11.701 -0.9830 -2.3400 -1.3882
 6460SOL     OW31015   0.707   1.433  10.175  0.0025  0.2535 -0.1600
 6460SOL    HW131016   0.632   1.469  10.222  1.8204 -0.0802  3.0769
 6460SOL    HW231017   0.723   1.503  10.112 -2.1494  0.5726 -0.3471
 6461SOL     OW31018   2.443   1.990   1.637  0.1550  0.0001 -0.5684
 6461SOL    HW131019   2.493   1.954   1.564  2.9528 -1.6151  2.1459
 6461SOL    HW231020   2.395   2.055   1.586 -1.5760 -0.8765 -0.0549
 6462SOL     OW31021   3.543   3.749   3.565 -0.4255  0.1213 -0.5447
 6462SOL    HW131022   3.574   3.769   3.477 -0.0926 -0.6184 -0.5954
 6462SOL    HW231023   3.604   3.681   3.595  0.0161  0.8431  0.1839
 6463SOL     OW31024   3.420   0.648   2.113  0.3606 -0.3436 -0.1434
 6463SOL    HW131025   3.491   0.683   2.059  0.6217  1.1460  1.1863
 6463SOL    HW231026   3.384   0.732   2.142  1.0361 -0.6285  1.4850
 6464SOL     OW31027   0.427   1.456  15.398 -0.2175  0.4942 -0.3314
 6464SOL    HW131028   0.447   1.454  15.492 -0.0640 -2.6170 -0.4267
 6464SOL    HW231029   0.363   1.527  15.400  0.1714  0.8330  0.5199
 6465SOL     OW31030   2.637   1.513   2.597 -0.0791 -0.0990 -0.4503
 6465SOL    HW131031   2.643   1.572   2.522 -0.6262 -0.7358 -1.0037
 6465SOL    HW231032   2.587   1.442   2.556  1.0157 -1.0064 -0.2017
 6466SOL     OW31033   0.543   1.433  16.736 -0.1587  0.1076 -0.5768
 6466SOL    HW131034   0.533   1.347  16.696 -1.9355  0.5898 -1.1644
 6466SOL    HW231035   0.460   1.480  16.723  0.5455  1.2502 -0.9642
 6467SOL     OW31036   4.471   1.308   5.129  0.4588  0.1844  1.0827
 6467SOL    HW131037   4.416   1.232   5.107  2.6890 -1.2309  0.3764
 6467SOL    HW231038   4.409   1.368   5.169 -0.9057 -0.4904 -0.0106
 6468SOL     OW31039   2.920   3.156   1.854  0.4156 -0.2956 -0.0350
 6468SOL    HW131040   2.910   3.125   1.944 -1.0376 -1.5451 -0.6191
 6468SOL    HW231041   2.923   3.073   1.807 -3.1820 -1.2198  1.3369
 6469SOL     OW31042   0.062   4.146  16.109  0.2035 -0.1314 -0.1613
 6469SOL    HW131043   0.117   4.196  16.048  0.0551 -0.2675 -0.4059
 6469SOL    HW231044   0.126   4.083  16.141 -0.1754  0.1664  1.1925
 6470SOL     OW31045   0.141   4.032  14.414  0.4366  0.2737  0.2247
 6470SOL    HW131046   0.051   4.064  14.417 -0.9190 -3.4429 -0.3670
 6470SOL    HW231047   0.129   3.946  14.373 -2.1329  1.4051 -1.3982
 6471SOL     OW31048   3.820   2.243   4.505  0.5892 -0.1829 -0.3047
 6471SOL    HW131049   3.855   2.160   4.537 -1.9518 -1.0221  0.2868
 6471SOL    HW231050   3.741   2.252   4.557  0.5558  0.8530 -0.5321
 6472SOL     OW31051   0.906   4.476  11.492 -0.0504 -0.0592  0.5119
 6472SOL    HW131052   0.999   4.479  11.515  0.0787  0.2876 -0.0451
 6472SOL    HW231053   0.892   4.382  11.502 -0.4099  0.0096  0.6625
 6473SOL     OW31054   3.842   4.417  17.105 -0.4147  0.1898 -0.4278
 6473SOL    HW131055   3.906   4.356  17.068 -2.0404 -3.5605  2.9573
 6473SOL    HW231056   3.823   4.466  17.025 -0.0399 -1.0213 -1.2565
 6474SOL     OW31057   4.645   1.222   5.856  0.0977 -0.0730 -0.2563
 6474SOL    HW131058   4.659   1.259   5.943 -1.0118  1.4744 -0.7399
 6474SOL    HW231059   4.582   1.153   5.881  0.1117 -0.6230 -1.7672
 6475SOL     OW31060   3.475   4.413  10.907  0.5420 -1.0157 -0.0805
 6475SOL    HW131061   3.458   4.329  10.950  2.0800 -0.7032  1.1324
 6475SOL    HW231062   3.528   4.391  10.830 -0.8605 -2.1192 -0.7340
 6476SOL     OW31063   0.070   4.602  15.640 -0.1378 -0.0542  0.4834
 6476SOL    HW131064   0.097   4.634  15.554  0.1121  2.0239  1.3450
 6476SOL    HW231065   0.054   4.686  15.684 -3.3818 -0.5746  0.3458
 6477SOL     OW31066   3.276   1.856  11.121  0.6393 -0.3820  0.0664
 6477SOL    HW131067   3.352   1.914  11.125 -0.5018  1.1636 -0.5184
 6477SOL    HW231068   3.201   1.908  11.152 -0.1661 -1.7630  0.4508
 6478SOL     OW31069   4.317   3.001   3.313  0.1322  0.4380  0.3558
 6478SOL    HW131070   4.283   2.913   3.302 -0.7720  0.7204  0.9468
 6478SOL    HW231071   4.275   3.042   3.237 -0.1065 -0.0554  0.2225
 6479SOL     OW31072   2.845   4.374  14.516 -0.0930 -0.0399 -0.5358
 6479SOL    HW131073   2.773   4.325  14.476  0.9766 -1.1596 -1.1389
 6479SOL    HW231074   2.915   4.341  14.459  0.3563 -0.1544  0.0846
 6480SOL     OW31075   1.060   2.659   5.441  0.3421  0.6828  0.2386
 6480SOL    HW131076   0.986   2.642   5.383  0.2411  1.1749  0.2188
 6480SOL    HW231077   1.080   2.751   5.422  1.4374  1.2099  4.0170
 6481SOL     OW31078   1.365   4.167   6.167 -0.5435 -0.2552  0.2119
 6481SOL    HW131079   1.379   4.128   6.254  1.5901 -2.4861 -1.0977
 6481SOL    HW231080   1.443   4.140   6.118  1.0872  3.2104  0.8825
 6482SOL     OW31081   3.346   0.888  12.449 -0.6341 -0.3976 -0.1046
 6482SOL    HW131082   3.297   0.969  12.463 -2.0996 -1.5250  1.2811
 6482SOL    HW231083   3.276   0.824  12.442  0.4509 -1.6344  0.4008
 6483SOL     OW31084   0.330   3.903   9.104  0.1045  0.2594  0.9772
 6483SOL    HW131085   0.387   3.886   9.178  0.9620 -1.3723 -0.0574
 6483SOL    HW231086   0.343   3.997   9.089 -3.5379  0.4903 -0.6862
 6484SOL     OW31087   1.318   1.902   0.804  0.2588  0.4547  0.2948
 6484SOL    HW131088   1.369   1.938   0.876  0.5536 -1.0187  0.8218
 6484SOL    HW231089   1.267   1.830   0.841 -0.4896  0.6285 -0.3898
 6485SOL     OW31090   4.621   2.125   1.301  0.0968  0.3340 -0.8913
 6485SOL    HW131091   4.574   2.076   1.233 -0.4621 -0.1957 -0.1181
 6485SOL    HW231092   4.707   2.084   1.302  0.2388  0.6513  0.0339
 6486SOL     OW31093   0.021   2.946  12.281 -0.4014 -0.0433 -0.6829
 6486SOL    HW131094   4.733   2.871  12.336  2.8479 -1.1225 -0.6971
 6486SOL    HW231095   0.088   2.901  12.229  0.2259  0.1374 -0.0287
 6487SOL     OW31096   4.546   0.686  10.481 -0.1113 -0.3304 -0.4407
 6487SOL    HW131097   4.478   0.750  10.458  2.0316  2.1362  0.1065
 6487SOL    HW231098   4.491   0.629  10.534 -0.7234  0.8194  0.1695
 6488SOL     OW31099   3.248   0.384  14.989 -0.2984 -0.4592 -0.5252
 6488SOL    HW131100   3.174   0.444  15.001  0.7883  0.7282  0.3223
 6488SOL    HW231101   3.242   0.341  14.904  0.9577 -2.3562  0.3581
 6489SOL     OW31102   3.688   4.326   3.218 -0.3322  0.2088  0.1441
 6489SOL    HW131103   3.639   4.365   3.145 -0.3699 -1.7862 -0.8926
 6489SOL    HW231104   3.698   4.404   3.272  0.7346  0.3376 -0.2385
 6490SOL     OW31105   3.035   1.358   4.487  0.0335 -0.0896  0.2045
 6490SOL    HW131106   2.964   1.344   4.424  0.6072  0.1266 -0.4959
 6490SOL    HW231107   2.973   1.383   4.555 -0.8966 -1.0877 -0.2681
 6491SOL     OW31108   3.974   3.734   7.701  0.4960 -0.5491  0.1524
 6491SOL    HW131109   4.041   3.769   7.642  0.6036  1.5998  1.5515
 6491SOL    HW231110   3.995   3.761   7.790 -0.6409 -1.0449  0.5850
 6492SOL     OW31111   3.867   0.080   6.223 -0.3944  0.0801 -0.4071
 6492SOL    HW131112   3.919   0.093   6.143 -0.2363 -0.9127 -0.4616
 6492SOL    HW231113   3.919   0.013   6.267 -1.2930  0.6118  1.4967
 6493SOL     OW31114   2.542   4.125   5.572 -0.0546  0.4115 -0.1308
 6493SOL    HW131115   2.489   4.130   5.652 -0.0437  1.5246 -0.1957
 6493SOL    HW231116   2.623   4.163   5.607 -0.5976  0.4512  1.0798
 6494SOL     OW31117   3.193   3.815   2.462 -0.0751  0.6041  0.7880
 6494SOL    HW131118   3.168   3.789   2.551  0.6339 -1.5175  0.3571
 6494SOL    HW231119   3.249   3.742   2.437 -0.4150  0.3843  0.6689
 6495SOL     OW31120   2.167   0.268   1.650 -0.5433 -0.0036  0.0330
 6495SOL    HW131121   2.127   0.322   1.718 -1.1327 -1.0684  0.5372
 6495SOL    HW231122   2.217   0.329   1.596  2.0800 -1.6813  0.5387
 6496SOL     OW31123   0.808   1.866   2.601  0.5801  0.1858 -0.1004
 6496SOL    HW131124   0.766   1.826   2.526 -0.2843  0.9147 -0.0057
 6496SOL    HW231125   0.729   1.905   2.639  0.3873 -1.1021  0.8228
 6497SOL     OW31126   0.932   0.576   6.408  0.0765 -0.0017 -0.6846
 6497SOL    HW131127   0.957   0.558   6.317 -0.0384 -0.4831 -0.6209
 6497SOL    HW231128   0.839   0.594   6.399  0.3820  1.7718 -0.2630
 6498SOL     OW31129   4.233   0.529   2.353  0.0193 -0.6257  0.6099
 6498SOL    HW131130   4.155   0.497   2.397 -2.0458  0.5112 -2.1898
 6498SOL    HW231131   4.306   0.508   2.412 -1.2979  1.3121  2.9639
 6499SOL     OW31132   4.694   4.066   6.683  0.1031  0.2644  0.0792
 6499SOL    HW131133   4.627   4.108   6.629  3.0861 -0.1259 -3.9551
 6499SOL    HW231134   4.650   4.057   6.767  1.2708 -0.6436  0.6086
 6500SOL     OW31135   2.703   0.073   4.784 -0.3494  0.4251 -0.2314
 6500SOL    HW131136   2.734   0.164   4.775  1.0864 -0.0602 -0.2192
 6500SOL    HW231137   2.746   0.035   4.708 -2.4846 -2.7544  0.1460
 6501SOL     OW31138   0.998   0.114   5.269 -0.4369  0.6129 -0.1574
 6501SOL    HW131139   1.022   0.184   5.208  1.0426 -0.5862 -0.9507
 6501SOL    HW231140   1.058   0.051   5.229  0.9455  1.8184 -0.0284
 6502SOL     OW31141   3.743   1.162   0.109 -0.0190  0.0215 -0.3341
 6502SOL    HW131142   3.674   1.139   0.047  0.1878  1.5751 -1.1401
 6502SOL    HW231143   3.793   1.236   0.075 -0.3460  0.2624 -0.2905
 6503SOL     OW31144   0.897   2.746  14.137 -0.8975  0.3520 -0.6831
 6503SOL    HW131145   0.913   2.693  14.059  2.7374  3.0158 -1.7337
 6503SOL    HW231146   0.881   2.837  14.115  1.0578  0.7881 -0.2629
 6504SOL     OW31147   3.180   1.300   4.066  0.1754  0.0599 -0.3876
 6504SOL    HW131148   3.140   1.230   4.013 -0.4490  0.0985  0.0312
 6504SOL    HW231149   3.270   1.269   4.076  0.3788  0.2244 -1.6756
 6505SOL     OW31150   4.496   3.553  15.808 -0.1402  0.6480  0.0454
 6505SOL    HW131151   4.549   3.632  15.820 -1.3812  1.3552  0.8320
 6505SOL    HW231152   4.540   3.502  15.876  1.0138 -0.7415 -1.7311
 6506SOL     OW31153   0.304   2.238   6.285 -0.4310  0.3729 -0.2411
 6506SOL    HW131154   0.302   2.261   6.377  1.7163 -0.0160 -0.0956
 6506SOL    HW231155   0.219   2.276   6.260 -0.4050 -0.2557 -1.3084
 6507SOL     OW31156   0.679   0.759   9.443  0.2614 -0.0333 -0.0611
 6507SOL    HW131157   0.678   0.772   9.538  1.4286  1.1719 -0.2253
 6507SOL    HW231158   0.771   0.737   9.431 -0.2461 -0.5417 -3.0685
 6508SOL     OW31159   1.407   2.186   8.725 -0.1077  0.1973  0.4851
 6508SOL    HW131160   1.408   2.248   8.798 -1.4775 -0.7780  1.3253
 6508SOL    HW231161   1.332   2.203   8.668 -0.5037 -0.0417  0.9409
 6509SOL     OW31162   0.171   4.062   5.689 -0.1269 -0.3039  0.1970
 6509SOL    HW131163   0.220   4.137   5.656  0.5362 -1.0408 -0.4849
 6509SOL    HW231164   0.225   3.989   5.659  1.3675  0.2053  1.6946
 6510SOL     OW31165   3.880   3.497   6.188 -0.1172  0.3404  0.2002
 6510SOL    HW131166   3.915   3.561   6.126  1.1500  1.6755  2.2695
 6510SOL    HW231167   3.949   3.431   6.187  0.1045  0.5628  0.7507
 6511SOL     OW31168   1.050   1.363   8.373  0.3506  0.1402  0.0642
 6511SOL    HW131169   1.106   1.438   8.391 -1.9425  1.6660  0.7364
 6511SOL    HW231170   0.966   1.404   8.355  1.2456  1.9632  0.0946
 6512SOL     OW31171   2.110   2.225   3.320 -0.2566 -0.5182 -0.4090
 6512SOL    HW131172   2.188   2.200   3.368 -0.9235 -0.9717  0.4305
 6512SOL    HW231173   2.043   2.164   3.350 -0.0244  0.1636  1.4567
 6513SOL     OW31174   4.655   0.149  13.935  0.2139 -0.0765  0.7363
 6513SOL    HW131175   4.704   0.069  13.917 -0.6936 -0.6070  0.6101
 6513SOL    HW231176   4.596   0.110  13.999  1.3994 -3.5593 -0.2815
 6514SOL     OW31177   4.379   2.312   4.912  0.5120 -0.4982 -0.1944
 6514SOL    HW131178   4.348   2.402   4.908 -0.6726 -0.9498 -1.1890
 6514SOL    HW231179   4.459   2.319   4.965  0.9320 -0.3128 -0.8650
 6515SOL     OW31180   1.454   1.859   3.662  0.0645  0.2420  0.0615
 6515SOL    HW131181   1.454   1.953   3.641  1.1486  0.2681  0.1858
 6515SOL    HW231182   1.432   1.849   3.755  1.8394 -0.3271  0.4036
 6516SOL     OW31183   0.733   2.712   4.040 -0.2097  0.0333  0.0607
 6516SOL    HW131184   0.647   2.701   3.999  0.8092 -0.9343 -1.8705
 6516SOL    HW231185   0.756   2.800   4.011  2.2117 -0.9808 -1.1580
 6517SOL     OW31186   2.483   0.698  10.466 -0.0946 -0.1361 -0.0534
 6517SOL    HW131187   2.552   0.631  10.463  0.1689  0.1650 -0.9065
 6517SOL    HW231188   2.433   0.670  10.388  2.4594 -0.9544 -1.3870
 6518SOL     OW31189   2.792   0.100   7.164 -0.1013 -0.7651 -0.5341
 6518SOL    HW131190   2.830   0.117   7.078 -0.2170  3.4595  0.2020
 6518SOL    HW231191   2.820   0.179   7.210  2.9305 -1.5188 -1.0794
 6519SOL     OW31192   3.790   3.602  14.998 -0.0825  0.4939 -0.2053
 6519SOL    HW131193   3.833   3.687  15.004 -0.3569  0.7909 -2.5174
 6519SOL    HW231194   3.715   3.628  14.945 -1.7228 -0.7637  1.5206
 6520SOL     OW31195   0.141   2.988   4.944  0.3347 -0.0491  0.3115
 6520SOL    HW131196   0.096   2.904   4.944  1.4434 -0.6283 -1.1333
 6520SOL    HW231197   0.120   3.021   5.032  0.4126 -2.9914  1.4167
 6521SOL     OW31198   2.443   3.937   4.916 -0.2002 -0.1258 -0.3900
 6521SOL    HW131199   2.451   4.028   4.887 -0.8143  0.4693  1.3008
 6521SOL    HW231200   2.507   3.941   4.987  1.1124 -2.5122 -1.4647
 6522SOL     OW31201   3.521   2.377   1.370  0.2439  0.0177 -0.2784
 6522SOL    HW131202   3.530   2.468   1.343  0.5768 -0.5316 -2.0389
 6522SOL    HW231203   3.456   2.336   1.312  0.8309 -1.8503  0.4031
 6523SOL     OW31204   0.597   3.296   4.451  0.1082  0.5170  0.1563
 6523SOL    HW131205   0.530   3.229   4.457  0.3053  0.2943 -0.1080
 6523SOL    HW231206   0.545   3.368   4.487  2.8282  1.2171  2.6832
 6524SOL     OW31207   1.415   3.787   6.924 -0.2536  0.4301 -0.0221
 6524SOL    HW131208   1.393   3.862   6.869  0.5350  1.9731  1.7483
 6524SOL    HW231209   1.496   3.822   6.963 -0.4474  0.8597 -0.0045
 6525SOL     OW31210   1.067   2.867   4.258  0.4684 -0.1120 -0.1766
 6525SOL    HW131211   1.123   2.793   4.280  1.7203  1.0051  0.4812
 6525SOL    HW231212   1.118   2.943   4.286 -0.6737 -0.1830  2.0497
 6526SOL     OW31213   4.058   4.083   7.192 -0.2539 -0.5933  0.7595
 6526SOL    HW131214   4.022   4.041   7.271 -1.3428 -0.4128  0.3615
 6526SOL    HW231215   3.974   4.115   7.159  1.4258  2.5108 -0.4183
 6527SOL     OW31216   3.732   0.215   3.800 -0.0799 -0.2337  0.3042
 6527SOL    HW131217   3.780   0.259   3.870  2.1984  0.0567 -1.4323
 6527SOL    HW231218   3.795   0.168   3.745 -0.8986  1.7777 -2.3382
 6528SOL     OW31219   2.013   0.130   8.028  0.1021  0.1985 -0.5404
 6528SOL    HW131220   2.051   0.089   7.951 -1.7610 -1.6853 -0.4436
 6528SOL    HW231221   1.925   0.092   8.032 -0.9884  2.5754 -1.5458
 6529SOL     OW31222   2.795   0.768   5.655  0.0601 -0.7100  0.1470
 6529SOL    HW131223   2.845   0.768   5.736  0.8897  1.6048 -0.3694
 6529SOL    HW231224   2.719   0.710   5.668  0.3575 -0.4371  3.0022
 6530SOL     OW31225   0.952   3.384   4.844 -0.0018 -0.4187 -0.1974
 6530SOL    HW131226   0.980   3.298   4.814  0.6928  0.2085 -1.3480
 6530SOL    HW231227   1.037   3.428   4.836 -1.0660  1.3585 -1.6813
 6531SOL     OW31228   4.734   2.005  13.081 -0.0411 -0.3786 -0.2558
 6531SOL    HW131229   4.708   1.969  13.165  0.5040  0.2446  0.1891
 6531SOL    HW231230   4.650   2.011  13.036 -0.1854 -1.8571 -0.1644
 6532SOL     OW31231   4.628   0.150   7.885  0.2282 -0.0542 -0.0939
 6532SOL    HW131232   4.562   0.209   7.921 -0.1977 -0.1500 -0.7147
 6532SOL    HW231233   4.696   0.153   7.951  0.9187  0.1904 -0.8245
 6533SOL     OW31234   3.678   3.232   6.819 -0.0638  0.1269 -0.6607
 6533SOL    HW131235   3.727   3.243   6.738 -0.9707 -0.2102 -1.2529
 6533SOL    HW231236   3.649   3.322   6.832 -0.2136 -0.1288  0.8296
 6534SOL     OW31237   2.130   0.527  10.051  0.4214  0.0383  0.3669
 6534SOL    HW131238   2.186   0.577  10.110  1.5825  0.0960 -0.7821
 6534SOL    HW231239   2.184   0.531   9.972 -1.2058 -0.0952 -0.7322
 6535SOL     OW31240   2.260   3.283   8.835 -0.1947 -0.0286  0.4530
 6535SOL    HW131241   2.276   3.283   8.741  2.9285  0.5454  0.9779
 6535SOL    HW231242   2.310   3.358   8.870  0.5253 -0.5980  0.6478
 6536SOL     OW31243   3.113   3.735   5.398  0.3758  0.2371 -0.2666
 6536SOL    HW131244   3.070   3.730   5.483  2.1581 -2.6016  0.4564
 6536SOL    HW231245   3.187   3.791   5.422  0.7842 -0.6047  0.4108
 6537SOL     OW31246   2.777   4.559   1.509  0.5226  0.0844  0.1776
 6537SOL    HW131247   2.729   4.521   1.436 -0.8266  1.8004  0.1745
 6537SOL    HW231248   2.749   4.506   1.583  0.1411  1.9020  1.3200
 6538SOL     OW31249   2.121   2.088   7.704 -0.4114 -0.4418  0.2750
 6538SOL    HW131250   2.142   2.139   7.626 -1.4310 -1.6343 -0.7821
 6538SOL    HW231251   2.154   2.002   7.676  2.8890  0.1689  2.1724
 6539SOL     OW31252   2.577   1.933   4.645  0.2509 -0.3807 -0.0299
 6539SOL    HW131253   2.611   1.982   4.570  0.5091  0.7230  0.8014
 6539SOL    HW231254   2.487   1.959   4.626  0.5626  0.4525 -0.3761
 6540SOL     OW31255   1.784   3.560   7.991 -0.1891  0.5005  0.6650
 6540SOL    HW131256   1.803   3.533   8.080 -1.2290 -1.4570  0.3026
 6540SOL    HW231257   1.700   3.605   7.997 -0.8748 -0.6302 -0.3437
 6541SOL     OW31258   4.726   4.301   8.307 -0.2732 -0.2561  0.6443
 6541SOL    HW131259   0.085   4.312   8.306  0.2893 -5.2495 -1.3393
 6541SOL    HW231260   4.713   4.208   8.324  0.0376 -0.0953  1.7532
 6542SOL     OW31261   1.900   0.648  11.607  0.0383 -0.2287  0.4402
 6542SOL    HW131262   1.960   0.641  11.532 -1.3671  1.7936 -0.8930
 6542SOL    HW231263   1.949   0.657  11.688 -0.5752  1.3413  0.6393
 6543SOL     OW31264   2.833   1.299   6.695  0.0538 -0.0387 -0.2295
 6543SOL    HW131265   2.927   1.292   6.710  0.5351 -1.4907 -3.7726
 6543SOL    HW231266   2.841   1.336   6.607 -0.5001  1.4920  0.3532
 6544SOL     OW31267   3.487   0.803  14.852  0.1144  0.3662  0.3374
 6544SOL    HW131268   3.520   0.720  14.817 -1.5144 -0.5906  1.0530
 6544SOL    HW231269   3.564   0.860  14.857 -1.1727  2.1137  0.4268
 6545SOL     OW31270   3.635   0.469   3.543  0.3322  0.3321 -0.4803
 6545SOL    HW131271   3.571   0.526   3.501  0.3645  1.0386  0.4039
 6545SOL    HW231272   3.663   0.414   3.471 -0.8946 -0.9596  0.0367
 6546SOL     OW31273   0.796   0.317   6.246  0.1697  0.0710  0.2651
 6546SOL    HW131274   0.733   0.309   6.174 -1.1849 -0.2947  1.4913
 6546SOL    HW231275   0.864   0.369   6.205 -0.7260  0.6504 -0.4703
 6547SOL     OW31276   0.194   1.599   2.307 -0.0779 -0.4830  0.7401
 6547SOL    HW131277   0.221   1.514   2.342 -0.5317 -1.0533 -0.3132
 6547SOL    HW231278   0.280   1.625   2.275 -1.7800  1.9633 -1.8223
 6548SOL     OW31279   1.469   3.149  17.233 -0.2775 -0.3386 -0.0954
 6548SOL    HW131280   1.527   3.094  17.286 -1.4056 -0.4930  0.9582
 6548SOL    HW231281   1.436   3.220  17.288  0.9940  0.4089 -0.2904
 6549SOL     OW31282   1.606   1.362   4.658  0.4561  0.0197 -0.1981
 6549SOL    HW131283   1.526   1.415   4.661  0.5812  0.0350  2.9093
 6549SOL    HW231284   1.616   1.346   4.752 -0.2759  0.2771 -0.0764
 6550SOL     OW31285   3.940   4.158   9.195  0.2498  0.2727  0.1018
 6550SOL    HW131286   3.876   4.161   9.266 -1.1978 -0.7922 -1.1588
 6550SOL    HW231287   4.023   4.154   9.242  0.9007 -0.2369 -1.0795
 6551SOL     OW31288   0.889   3.340   3.543 -0.1945  0.2141 -0.3459
 6551SOL    HW131289   0.980   3.319   3.565  0.1772  1.1622 -0.9316
 6551SOL    HW231290   0.910   3.406   3.476 -0.1346  0.0706 -0.4699
 6552SOL     OW31291   4.482   0.388  10.486 -0.3710 -0.2908  0.2152
 6552SOL    HW131292   4.397   0.411  10.450 -1.1637 -0.8153  1.7420
 6552SOL    HW231293   4.534   0.389  10.405 -2.4995  0.7955 -1.1323
 6553SOL     OW31294   1.183   3.699  15.946  0.2033 -0.0620 -0.0546
 6553SOL    HW131295   1.182   3.795  15.952  0.4012 -0.3659  5.6185
 6553SOL    HW231296   1.115   3.677  16.010 -0.2655  0.0837 -0.5045
 6554SOL     OW31297   2.709   3.346  16.072 -0.3288 -0.1911 -0.5978
 6554SOL    HW131298   2.625   3.343  16.117 -0.4708 -1.5398 -0.9657
 6554SOL    HW231299   2.730   3.437  16.096 -0.4485  0.2335 -2.1219
 6555SOL     OW31300   2.065   4.065   5.580  0.5726 -0.3006  0.2565
 6555SOL    HW131301   2.118   4.031   5.652  0.2783  1.9434  1.5345
 6555SOL    HW231302   2.076   4.160   5.588 -0.7714 -0.0703 -0.6969
 6556SOL     OW31303   2.365   1.715   4.759  0.6370 -0.2209  0.8418
 6556SOL    HW131304   2.361   1.789   4.819 -0.3012  1.8663 -1.8347
 6556SOL    HW231305   2.283   1.734   4.715  0.8963 -1.3889 -0.1375
 6557SOL     OW31306   1.444   3.534   4.019  0.3086 -0.1415  0.1983
 6557SOL    HW131307   1.531   3.499   4.039 -0.1000 -1.4528 -0.3341
 6557SOL    HW231308   1.415   3.466   3.959 -3.0541  1.6401 -0.1969
 6558SOL     OW31309   2.166   3.763   4.106 -0.2791 -0.3296  0.1433
 6558SOL    HW131310   2.141   3.707   4.032 -0.7666  0.7242 -0.4901
 6558SOL    HW231311   2.161   3.699   4.177 -1.7060 -0.1236  0.2209
 6559SOL     OW31312   2.733   1.892   6.108  0.1761 -0.2229  0.2281
 6559SOL    HW131313   2.810   1.938   6.141 -0.1881 -0.0140  0.7805
 6559SOL    HW231314   2.669   1.962   6.098 -0.5702 -0.6718  1.8105
 6560SOL     OW31315   4.302   4.652   2.456  0.1903  0.0024 -0.9179
 6560SOL    HW131316   4.327   4.565   2.426 -1.1385  0.6320 -3.9037
 6560SOL    HW231317   4.211   4.651   2.424 -0.3589 -0.2486  0.6881
 6561SOL     OW31318   2.500   0.729  10.738  0.0962 -0.3631  0.7862
 6561SOL    HW131319   2.471   0.700  10.651 -1.3501 -2.8183  2.1078
 6561SOL    HW231320   2.527   0.820  10.722 -0.9077 -0.2936 -0.4868
 6562SOL     OW31321   1.977   0.174   5.731  0.3740  0.2267  0.0121
 6562SOL    HW131322   1.957   0.243   5.667 -2.4890  0.8510  1.5711
 6562SOL    HW231323   2.058   0.133   5.701 -1.4303 -1.6356 -2.4040
 6563SOL     OW31324   4.104   1.007   9.081  0.1846  0.1795 -0.4614
 6563SOL    HW131325   4.039   0.970   9.022 -0.5873 -0.9024  1.0509
 6563SOL    HW231326   4.146   0.925   9.107 -1.7448 -0.8675 -0.6751
 6564SOL     OW31327   2.142   2.784   1.827  0.0778  0.1739 -0.1839
 6564SOL    HW131328   2.089   2.706   1.811  0.5553  0.0525 -1.2023
 6564SOL    HW231329   2.076   2.830   1.877 -0.1101  0.1251 -0.3888
 6565SOL     OW31330   0.144   4.097   6.226 -0.1339 -0.0015  0.2568
 6565SOL    HW131331   0.087   4.172   6.241  0.1881 -0.1889  2.4394
 6565SOL    HW231332   0.167   4.062   6.312 -0.1458 -1.9379 -0.5252
 6566SOL     OW31333   4.234   3.042  16.529  0.7206  0.0540  0.1404
 6566SOL    HW131334   4.254   2.993  16.449  1.4072 -0.7236  0.7925
 6566SOL    HW231335   4.143   3.015  16.539  0.4717 -0.3336 -3.0903
 6567SOL     OW31336   3.641   2.648   7.459 -0.4756  0.4059 -0.3929
 6567SOL    HW131337   3.644   2.598   7.377  0.6108  0.8506 -0.6289
 6567SOL    HW231338   3.630   2.579   7.524 -0.7509  1.0472  0.2426
 6568SOL     OW31339   0.342   2.993   2.817  0.2623 -0.9211  0.1263
 6568SOL    HW131340   0.357   2.909   2.860  0.6549 -0.9004  0.0318
 6568SOL    HW231341   0.351   2.971   2.724  0.0069  0.6500 -0.2776
 6569SOL     OW31342   1.807   3.203   2.428  0.1239  0.4683 -0.3533
 6569SOL    HW131343   1.740   3.141   2.456  0.3097 -0.0861 -1.1620
 6569SOL    HW231344   1.890   3.168   2.459  0.6455 -0.5228 -2.9135
 6570SOL     OW31345   1.573   4.552   5.801 -0.2250  0.0036  0.2786
 6570SOL    HW131346   1.618   4.631   5.772 -1.0004  0.5878  0.7078
 6570SOL    HW231347   1.639   4.522   5.864  0.7586 -0.9673 -1.2051
 6571SOL     OW31348   2.090   3.738   3.512 -0.2677 -0.4909  0.0341
 6571SOL    HW131349   2.043   3.816   3.540  1.3295  1.0083 -1.3922
 6571SOL    HW231350   2.022   3.673   3.495  0.2636 -0.9220 -0.4654
 6572SOL     OW31351   2.815   0.793   8.644  0.1490  0.3430  0.0936
 6572SOL    HW131352   2.724   0.797   8.674 -0.3952 -2.8520 -1.0487
 6572SOL    HW231353   2.843   0.878   8.675  0.2364  0.3406  0.0206
 6573SOL     OW31354   2.396   2.537   9.307 -0.0613 -0.1462  0.3995
 6573SOL    HW131355   2.480   2.493   9.302  0.9148  1.7029  0.7626
 6573SOL    HW231356   2.420   2.601   9.374 -0.7371 -0.6697  1.1452
 6574SOL     OW31357   1.769   3.913   0.438 -0.5249  0.0293  0.0930
 6574SOL    HW131358   1.751   3.987   0.380 -0.8906  0.1995  0.4219
 6574SOL    HW231359   1.735   3.950   0.520  1.0610  0.4202  0.5764
 6575SOL     OW31360   0.345   3.879   5.581 -0.0623 -0.6058  0.4378
 6575SOL    HW131361   0.295   3.802   5.606 -0.1316 -0.3883  0.9765
 6575SOL    HW231362   0.429   3.842   5.554 -0.0044 -1.2036  1.3960
 6576SOL     OW31363   2.297   0.173   7.595 -0.3506 -0.8308  0.0427
 6576SOL    HW131364   2.271   0.093   7.640 -1.7348  1.0142  2.5150
 6576SOL    HW231365   2.222   0.223   7.626  0.4316  0.4636 -0.1426
 6577SOL     OW31366   3.899   3.809   2.338 -0.7016  0.5345  0.1805
 6577SOL    HW131367   3.830   3.775   2.281 -0.1741  1.0675 -0.7929
 6577SOL    HW231368   3.951   3.868   2.282 -0.0969 -0.0606  0.1124
 6578SOL     OW31369   3.014   0.510   4.634  0.9750 -0.0604  0.2468
 6578SOL    HW131370   2.997   0.550   4.719 -1.5964  1.6262 -1.0480
 6578SOL    HW231371   3.109   0.497   4.637  1.0371 -0.1259 -1.8276
 6579SOL     OW31372   2.946   3.582   6.735  0.1031 -0.0030 -0.1748
 6579SOL    HW131373   3.001   3.652   6.699 -0.4439  0.4834 -0.0686
 6579SOL    HW231374   3.006   3.568   6.809  0.0047  2.9296  0.4682
 6580SOL     OW31375   0.312   0.012   6.066 -0.6595 -0.2007  0.1414
 6580SOL    HW131376   0.397   0.007   6.023 -0.9237  0.5834 -0.4900
 6580SOL    HW231377   0.326   0.053   6.152  0.5077  0.8650 -0.5565
 6581SOL     OW31378   0.680   1.139  16.423  0.2504  0.0623  0.4186
 6581SOL    HW131379   0.614   1.159  16.489 -0.1319  0.5014 -0.0880
 6581SOL    HW231380   0.754   1.126  16.482  0.7763  1.4671  0.0620
 6582SOL     OW31381   4.006   3.199   2.016 -0.1668 -0.7548 -0.1067
 6582SOL    HW131382   3.957   3.186   1.935 -0.1878  0.7818 -0.3362
 6582SOL    HW231383   3.989   3.292   2.033 -2.2324 -1.0848 -0.2900
 6583SOL     OW31384   3.969   1.562  15.150 -0.0558 -0.1982 -0.8473
 6583SOL    HW131385   4.019   1.574  15.069 -2.9729 -1.4274 -2.8256
 6583SOL    HW231386   3.923   1.645  15.154  2.0465  0.8734  0.7576
 6584SOL     OW31387   0.665   0.624   0.780 -0.5834  0.1371  0.6312
 6584SOL    HW131388   0.573   0.637   0.804 -1.0253 -2.5531  0.3669
 6584SOL    HW231389   0.661   0.646   0.687 -0.1978 -2.3822  0.0218
 6585SOL     OW31390   4.666   4.170   7.775 -0.2326  0.0934  0.0626
 6585SOL    HW131391   4.621   4.110   7.715 -0.9760  0.1456  0.5604
 6585SOL    HW231392   4.685   4.119   7.854  1.7073  0.3378 -0.2514
 6586SOL     OW31393   2.436   4.089  14.949  0.3530 -0.2069 -0.0557
 6586SOL    HW131394   2.433   4.001  14.986  1.0426  0.8488  2.5456
 6586SOL    HW231395   2.493   4.075  14.873  1.3065  2.2116  0.2151
 6587SOL     OW31396   1.912   0.322   9.991 -0.1800  0.1326  0.2049
 6587SOL    HW131397   1.996   0.365  10.006 -1.7853  2.9855  0.8332
 6587SOL    HW231398   1.861   0.397   9.961 -1.2137 -0.2263  1.0709
 6588SOL     OW31399   2.369   3.057  13.816  0.1132  0.1075 -0.7209
 6588SOL    HW131400   2.431   3.018  13.755 -1.1986 -0.8098 -1.4451
 6588SOL    HW231401   2.373   3.150  13.792  2.0542  0.5731  1.3468
 6589SOL     OW31402   2.550   2.877   5.500  0.3862 -0.0447 -0.4192
 6589SOL    HW131403   2.522   2.915   5.417  0.8954 -0.6637 -0.8741
 6589SOL    HW231404   2.603   2.806   5.464  1.4149 -0.2367  1.4435
 6590SOL     OW31405   1.682   4.671   6.446  0.4111 -0.4089 -0.0117
 6590SOL    HW131406   1.737   0.012   6.459 -0.1079 -0.3680  1.8583
 6590SOL    HW231407   1.618   4.702   6.383  1.3404  2.0115  0.2284
 6591SOL     OW31408   2.097   3.796   5.461  0.6820  0.4018  0.5485
 6591SOL    HW131409   2.139   3.791   5.546  0.2203  1.6891  0.8412
 6591SOL    HW231410   2.074   3.889   5.456 -1.2459 -0.0372  1.2754
 6592SOL     OW31411   4.027   2.946   2.432 -0.1633 -0.7092  0.5501
 6592SOL    HW131412   3.975   2.926   2.510  0.7960 -1.7412  0.9337
 6592SOL    HW231413   4.037   3.041   2.435  0.9384 -0.8032 -0.3338
 6593SOL     OW31414   2.052   2.796   4.295 -0.7494  0.2715 -0.2813
 6593SOL    HW131415   2.030   2.719   4.348  0.8340  1.5097  2.1539
 6593SOL    HW231416   1.966   2.839   4.302 -0.9014  0.2134 -1.8720
 6594SOL     OW31417   1.195   1.186   5.436 -0.0561 -0.4236  0.6738
 6594SOL    HW131418   1.101   1.186   5.417  0.0302  1.1395  0.3033
 6594SOL    HW231419   1.215   1.272   5.472  2.1244 -0.4480 -0.4602
 6595SOL     OW31420   2.696   0.570  12.641 -0.6325  0.4149  0.1987
 6595SOL    HW131421   2.693   0.629  12.566 -2.1136  0.0666 -0.0024
 6595SOL    HW231422   2.631   0.507  12.612 -1.2058  1.4911 -0.8388
 6596SOL     OW31423   3.823   1.397   4.364 -0.2841 -0.1177 -0.1992
 6596SOL    HW131424   3.850   1.308   4.384  0.3505  0.1717  0.2430
 6596SOL    HW231425   3.744   1.378   4.313  0.1588  0.3283 -1.0461
 6597SOL     OW31426   3.272   1.487   6.073 -0.2472  0.3489  0.3242
 6597SOL    HW131427   3.241   1.412   6.022 -2.0861  2.5629 -1.8500
 6597SOL    HW231428   3.336   1.447   6.132  2.2273  0.5154 -2.2538
 6598SOL     OW31429   4.517   0.645  17.259  0.1615 -0.0899  0.0582
 6598SOL    HW131430   4.484   0.683  17.340 -2.9731 -1.0690 -0.7776
 6598SOL    HW231431   4.453   0.677  17.196 -0.4740  0.5540  1.0303
 6599SOL     OW31432   2.534   0.783   7.755 -0.1356 -0.4004 -0.2248
 6599SOL    HW131433   2.581   0.728   7.817 -0.1919 -0.8786 -0.6118
 6599SOL    HW231434   2.577   0.752   7.676  1.1140 -1.0063  0.6974
 6600SOL     OW31435   2.794   3.927  15.437  0.4653  0.1050 -0.4771
 6600SOL    HW131436   2.707   3.936  15.398  0.0766  1.5117  0.6784
 6600SOL    HW231437   2.827   4.016  15.422  1.1242  0.2333  1.7315
 6601SOL     OW31438   2.408   2.961   8.490 -0.8566 -0.2198 -0.1841
 6601SOL    HW131439   2.323   2.961   8.532 -0.3073  0.9189  0.9163
 6601SOL    HW231440   2.386   2.992   8.402  0.2810 -0.0705 -0.4187
 6602SOL     OW31441   1.470   4.416   2.248 -0.2871 -0.0696 -0.0479
 6602SOL    HW131442   1.491   4.323   2.234  0.1829 -0.0724  0.6772
 6602SOL    HW231443   1.376   4.419   2.233  0.0156 -1.2392 -2.1820
 6603SOL     OW31444   2.932   1.878   1.341  0.1123  0.9512  0.4564
 6603SOL    HW131445   3.013   1.827   1.341  0.5325  1.6407 -1.5926
 6603SOL    HW231446   2.966   1.968   1.336  1.1013  0.6678  2.0653
 6604SOL     OW31447   3.710   3.694   7.656  0.7464  0.0406 -0.5323
 6604SOL    HW131448   3.742   3.653   7.575  0.0819 -4.0352  1.2588
 6604SOL    HW231449   3.801   3.703   7.687  1.3561  1.7600 -2.8205
 6605SOL     OW31450   2.985   4.102   7.158 -0.3547 -0.0337 -0.1402
 6605SOL    HW131451   2.945   4.033   7.107 -0.6107 -1.7623  2.4076
 6605SOL    HW231452   3.066   4.069   7.198 -1.1747 -1.1063  0.6087
 6606SOL     OW31453   3.411   1.819   3.583  0.5778  0.0303 -0.8941
 6606SOL    HW131454   3.335   1.762   3.569 -2.4872  3.6334  1.0786
 6606SOL    HW231455   3.482   1.756   3.571  1.2806  0.4626  1.0777
 6607SOL     OW31456   0.247   3.324   6.493  0.2791  0.2327 -0.3676
 6607SOL    HW131457   0.196   3.290   6.567 -0.0983 -0.9899 -1.1966
 6607SOL    HW231458   0.185   3.378   6.443 -0.6547  0.9826  1.5987
 6608SOL     OW31459   1.934   0.444  12.396  0.1856 -0.3666 -0.1498
 6608SOL    HW131460   1.929   0.472  12.487 -0.2406 -0.1250 -0.2471
 6608SOL    HW231461   1.935   0.528  12.351  0.8677 -0.6758 -0.7186
 6609SOL     OW31462   1.725   2.836   6.774  0.1854 -0.6277 -0.2703
 6609SOL    HW131463   1.653   2.899   6.771  0.9493  0.2588  0.2890
 6609SOL    HW231464   1.696   2.776   6.705  1.0548 -0.2984 -0.9228
 6610SOL     OW31465   0.894   1.780  17.480 -0.0689  0.1672  0.2535
 6610SOL    HW131466   0.906   1.690  17.448  0.2650  0.0494  0.7079
 6610SOL    HW231467   0.974   1.822  17.446  0.8180 -0.5708  1.4303
 6611SOL     OW31468   4.363   0.710   1.588  0.8173  0.0931  0.0467
 6611SOL    HW131469   4.281   0.730   1.542  0.3356 -3.1580 -0.5306
 6611SOL    HW231470   4.335   0.663   1.667 -0.1390  0.0610 -0.3087
 6612SOL     OW31471   2.390   0.582   2.531  0.6175 -0.2766  0.2655
 6612SOL    HW131472   2.402   0.512   2.467 -0.5223  0.3166 -0.5860
 6612SOL    HW231473   2.322   0.630   2.485  3.0428  0.2622 -2.7093
 6613SOL     OW31474   0.870   1.838   1.537  0.3488 -0.1946  0.3524
 6613SOL    HW131475   0.887   1.773   1.469 -0.1697  0.5946 -0.5192
 6613SOL    HW231476   0.942   1.816   1.597  1.4999  0.4302 -0.7910
 6614SOL     OW31477   1.098   0.147   4.249 -0.4841  0.2984  0.3498
 6614SOL    HW131478   1.171   0.173   4.306 -0.6551  0.3425  0.5491
 6614SOL    HW231479   1.144   0.101   4.179 -3.0919 -1.2157 -0.3564
 6615SOL     OW31480   3.225   0.446   3.495  0.0881 -0.1847  0.0561
 6615SOL    HW131481   3.239   0.515   3.560  0.4545 -0.3282  0.1292
 6615SOL    HW231482   3.150   0.480   3.446 -1.9891 -0.9093  2.7275
 6616SOL     OW31483   0.867   3.219  14.917  0.0503  0.2061  0.1980
 6616SOL    HW131484   0.811   3.144  14.938 -0.9654  1.1480  0.8597
 6616SOL    HW231485   0.814   3.262  14.849  0.3763 -1.1459 -0.9200
 6617SOL     OW31486   4.039   4.288  16.013 -0.0783  0.0199 -0.3744
 6617SOL    HW131487   4.080   4.240  16.084 -1.3481 -0.4993  0.0165
 6617SOL    HW231488   3.961   4.232  16.004  0.0735  0.1098 -2.4303
 6618SOL     OW31489   0.881   2.357  16.680  0.4983  0.5359  0.3408
 6618SOL    HW131490   0.796   2.390  16.710  0.3648  1.7497 -1.3868
 6618SOL    HW231491   0.906   2.307  16.758  0.3172 -1.0877 -0.6265
 6619SOL     OW31492   1.447   3.788   7.939 -0.4030  0.8121 -0.0309
 6619SOL    HW131493   1.488   3.781   7.853  1.5519 -0.6040  1.0026
 6619SOL    HW231494   1.392   3.865   7.924 -0.1523  0.3366 -3.3004
 6620SOL     OW31495   3.030   4.100   7.545  0.1841 -0.0974  0.1484
 6620SOL    HW131496   3.078   4.032   7.498  0.5537  0.4093 -0.2084
 6620SOL    HW231497   3.016   4.168   7.479  0.1233 -1.1564 -0.9427
 6621SOL     OW31498   2.317   0.317  12.719 -0.3463 -0.4250  0.2798
 6621SOL    HW131499   2.293   0.379  12.788 -0.5844  0.5579 -0.6896
 6621SOL    HW231500   2.322   0.231  12.761  1.7544 -0.9843 -1.1046
 6622SOL     OW31501   0.091   1.244   5.238 -0.1166  0.1740  0.1526
 6622SOL    HW131502   0.013   1.197   5.209 -0.8654  1.2540  0.3982
 6622SOL    HW231503   0.122   1.188   5.309  0.7815  2.6577  1.7366
 6623SOL     OW31504   1.592   1.917   7.990  0.5202  0.2580  0.1151
 6623SOL    HW131505   1.552   1.970   8.059  1.7354  2.8090 -1.1270
 6623SOL    HW231506   1.653   1.859   8.036 -0.1574 -2.3991 -2.3492
 6624SOL     OW31507   0.233   1.800  12.486  0.0270 -0.1111 -0.2495
 6624SOL    HW131508   0.300   1.755  12.537 -0.7072  1.5938  2.1878
 6624SOL    HW231509   0.153   1.749  12.502  0.5057 -1.3383 -1.7217
 6625SOL     OW31510   1.756   2.649   8.663  0.3088 -0.6152  0.4973
 6625SOL    HW131511   1.677   2.629   8.613 -0.2120  0.3285  0.9445
 6625SOL    HW231512   1.723   2.699   8.738 -0.4620  0.5631 -0.6363
 6626SOL     OW31513   0.465   0.474   6.073 -0.0887  0.8634  0.5253
 6626SOL    HW131514   0.379   0.460   6.032  0.2075  2.1326 -0.5359
 6626SOL    HW231515   0.531   0.422   6.026 -0.8204 -0.6571  1.1884
 6627SOL     OW31516   3.940   1.054   6.545 -0.2504  0.2499  0.2114
 6627SOL    HW131517   3.986   1.137   6.532 -0.4919  0.3803  0.1967
 6627SOL    HW231518   4.016   0.997   6.561 -1.0843 -0.8927  0.0922
 6628SOL     OW31519   0.051   2.485  16.008  0.1085 -0.0532  0.3601
 6628SOL    HW131520   0.019   2.492  16.099  2.8629  1.8409  1.1941
 6628SOL    HW231521   0.055   2.575  15.975  3.1355 -0.6138 -0.7442
 6629SOL     OW31522   0.756   0.245   7.678  0.0903 -0.3297 -0.3282
 6629SOL    HW131523   0.701   0.245   7.756  0.1577  4.7287 -0.2916
 6629SOL    HW231524   0.736   0.158   7.644 -0.2892 -0.9461  1.4478
 6630SOL     OW31525   0.741   1.220   5.827  0.4477  0.1607 -0.3849
 6630SOL    HW131526   0.773   1.272   5.901 -2.3924  0.1668  0.8129
 6630SOL    HW231527   0.820   1.231   5.773  0.9537 -1.0219  0.1114
 6631SOL     OW31528   1.836   0.144   6.536 -0.0630 -0.6228  0.4957
 6631SOL    HW131529   1.885   0.166   6.615 -1.5876 -2.2178  1.8931
 6631SOL    HW231530   1.784   0.224   6.527  1.6362  0.3450 -0.8379
 6632SOL     OW31531   1.753   2.348  17.348 -0.2308 -0.3147  0.3210
 6632SOL    HW131532   1.711   2.275  17.302  0.4211 -0.2605 -0.3505
 6632SOL    HW231533   1.842   2.318  17.364  0.7775  2.2941 -0.5398
 6633SOL     OW31534   2.799   0.804   0.531  0.2240 -0.2244  0.4432
 6633SOL    HW131535   2.851   0.838   0.603 -1.2233 -1.5495  2.1204
 6633SOL    HW231536   2.710   0.817   0.565 -0.4673 -0.6667 -1.1646
 6634SOL     OW31537   0.873   2.911   3.907  0.0671  0.3152  0.1955
 6634SOL    HW131538   0.906   2.969   3.976 -0.2324 -0.4547  0.9803
 6634SOL    HW231539   0.823   2.975   3.857 -0.7050 -0.2793  0.2091
 6635SOL     OW31540   2.696   0.314   8.994 -0.0937 -0.0464 -0.0608
 6635SOL    HW131541   2.734   0.317   9.082  1.3928  0.3630 -0.7062
 6635SOL    HW231542   2.664   0.224   8.994 -2.6440  0.8621 -0.6923
 6636SOL     OW31543   1.108   3.095  16.510 -0.6245 -0.5099  0.1685
 6636SOL    HW131544   1.070   3.174  16.549 -2.8309 -0.5218 -2.0094
 6636SOL    HW231545   1.089   3.118  16.419  0.3445  1.1338  0.3786
 6637SOL     OW31546   4.575   0.261   6.786 -0.1281  1.1922  0.2524
 6637SOL    HW131547   4.511   0.238   6.854 -0.6038  1.1278 -0.2184
 6637SOL    HW231548   4.653   0.268   6.841  0.3184 -1.1965 -0.0924
 6638SOL     OW31549   1.218   4.374   7.594 -0.0544  0.1978 -0.2214
 6638SOL    HW131550   1.193   4.376   7.502 -0.7500 -1.4474 -0.0566
 6638SOL    HW231551   1.308   4.345   7.581 -0.3493  0.3828 -2.8080
 6639SOL     OW31552   4.643   2.737   3.406 -0.3016 -0.4592 -0.4614
 6639SOL    HW131553   4.551   2.724   3.383 -0.4446 -2.1543  1.0902
 6639SOL    HW231554   4.637   2.733   3.501 -1.1302  3.1999 -0.3388
 6640SOL     OW31555   1.778   0.163   0.426  0.2077  0.0097 -0.1125
 6640SOL    HW131556   1.832   0.091   0.393  0.7856  0.2504  0.3120
 6640SOL    HW231557   1.763   0.127   0.513 -0.8240  0.8245  0.0435
 6641SOL     OW31558   1.800   2.684   1.997 -0.1847 -0.1683  0.0140
 6641SOL    HW131559   1.852   2.728   2.064 -1.0409 -2.1478  1.9731
 6641SOL    HW231560   1.750   2.619   2.047  1.9025 -1.0954  0.8813
 6642SOL     OW31561   1.549   2.614  12.871  0.2902  0.4662  0.2004
 6642SOL    HW131562   1.482   2.680  12.887  0.3200  0.7745 -0.9263
 6642SOL    HW231563   1.497   2.534  12.883  0.7359  0.6156  3.1468
 6643SOL     OW31564   4.526   2.135   6.211  0.2327 -0.2687  0.5508
 6643SOL    HW131565   4.577   2.055   6.197 -0.0432 -0.2546 -0.5715
 6643SOL    HW231566   4.584   2.211   6.198  1.2918 -1.1124  0.3229
 6644SOL     OW31567   4.637   4.421   9.521 -0.5780  0.0205 -0.3958
 6644SOL    HW131568   4.666   4.409   9.612 -0.1421 -0.4872 -0.6032
 6644SOL    HW231569   4.545   4.443   9.534 -1.1182 -2.2395 -0.4283
 6645SOL     OW31570   2.437   4.046   8.029  0.3641 -0.0944  0.7497
 6645SOL    HW131571   2.406   4.091   7.950 -0.2927  0.6009  1.4068
 6645SOL    HW231572   2.522   4.025   7.989 -1.0337 -2.3121 -1.0778
 6646SOL     OW31573   2.023   0.210  16.156  0.1760  0.4194 -0.2164
 6646SOL    HW131574   2.107   0.186  16.195  0.6368 -1.0603 -2.1446
 6646SOL    HW231575   1.982   0.272  16.217  3.1764  1.7858  0.4114
 6647SOL     OW31576   1.275   1.043  10.663 -0.3911  0.4881  0.0889
 6647SOL    HW131577   1.279   1.080  10.752 -1.2814  1.8131 -0.4277
 6647SOL    HW231578   1.181   1.028  10.650 -0.7214  0.8579  2.0607
 6648SOL     OW31579   1.429   2.390   2.132 -0.3244 -0.2758 -0.6566
 6648SOL    HW131580   1.403   2.314   2.182 -1.9984  0.6196 -0.1561
 6648SOL    HW231581   1.395   2.368   2.045 -0.5751  0.5913 -0.7805
 6649SOL     OW31582   2.412   1.959   5.624  0.8460  0.2725 -0.2476
 6649SOL    HW131583   2.467   1.884   5.643  1.7074  0.9183 -0.1737
 6649SOL    HW231584   2.381   1.958   5.534 -1.0922  0.5814  0.4063
 6650SOL     OW31585   2.254   4.431  10.812 -0.1497  0.4355  0.2445
 6650SOL    HW131586   2.258   4.521  10.780 -2.7822 -0.0622 -1.4765
 6650SOL    HW231587   2.202   4.443  10.891 -1.7532 -1.1780 -0.5531
 6651SOL     OW31588   3.891   2.661   2.892  0.0281  0.0788  0.6949
 6651SOL    HW131589   3.868   2.713   2.970 -0.3035  0.9955 -0.0126
 6651SOL    HW231590   3.906   2.577   2.935  0.0151 -0.1761  0.1899
 6652SOL     OW31591   0.723   1.106   6.990 -0.2313 -0.1243  0.6271
 6652SOL    HW131592   0.692   1.170   7.053  0.0355 -1.3311  1.9745
 6652SOL    HW231593   0.660   1.035   7.007 -0.6015  0.2819  0.9517
 6653SOL     OW31594   3.576   2.970   1.303 -0.2203 -0.0678 -0.0199
 6653SOL    HW131595   3.601   2.954   1.394 -2.4422  0.0971  0.6181
 6653SOL    HW231596   3.614   3.057   1.288  1.7490 -1.1752 -1.4075
 6654SOL     OW31597   4.251   2.950  11.054 -0.2395 -0.5121  0.7003
 6654SOL    HW131598   4.253   2.992  10.968 -0.6572  0.3556  1.1187
 6654SOL    HW231599   4.181   3.005  11.089 -1.1386 -0.4914 -1.1217
 6655SOL     OW31600   0.835   4.493   6.338  0.5447 -0.1237  0.7188
 6655SOL    HW131601   0.820   4.404   6.368 -0.8804 -0.2048 -0.2289
 6655SOL    HW231602   0.770   4.490   6.268  0.3355 -0.2436  0.9186
 6656SOL     OW31603   0.588   1.671   0.149 -0.3101  0.3231  0.5116
 6656SOL    HW131604   0.570   1.594   0.094 -1.6458  2.3590 -1.8667
 6656SOL    HW231605   0.531   1.654   0.224  0.7319  2.7046  1.8303
 6657SOL     OW31606   1.364   1.929   0.415 -0.4099 -0.1826 -0.1131
 6657SOL    HW131607   1.422   1.991   0.369 -0.8285 -0.6299 -1.2272
 6657SOL    HW231608   1.418   1.850   0.422  0.6670  0.5097 -0.5581
 6658SOL     OW31609   2.805   2.998  12.005  0.4157 -0.2098  0.1708
 6658SOL    HW131610   2.891   3.017  11.969  1.3091 -0.4797  2.1592
 6658SOL    HW231611   2.817   3.016  12.098  2.3158  0.5098 -0.2168
 6659SOL     OW31612   1.286   0.733   5.730 -0.7705 -0.0477  0.1466
 6659SOL    HW131613   1.263   0.750   5.822 -3.3903 -0.7449 -0.3581
 6659SOL    HW231614   1.277   0.823   5.700  1.1357 -0.5124 -1.7592
 6660SOL     OW31615   1.554   1.184   8.674 -0.5696  0.2762 -0.0485
 6660SOL    HW131616   1.605   1.214   8.599  1.3978 -2.9738 -0.0239
 6660SOL    HW231617   1.526   1.270   8.704 -0.5053 -0.2251  1.4120
 6661SOL     OW31618   3.517   2.838   7.024  0.0369  0.2416 -0.0413
 6661SOL    HW131619   3.428   2.824   6.994  0.1572 -0.8643  0.1265
 6661SOL    HW231620   3.487   2.872   7.108 -0.4815  1.0100 -0.5422
 6662SOL     OW31621   2.088   0.767   4.071  0.6044 -0.1033  0.3586
 6662SOL    HW131622   1.996   0.792   4.081  0.9934  1.4375  0.0306
 6662SOL    HW231623   2.095   0.769   3.975 -0.3113 -0.6501  0.2759
 6663SOL     OW31624   1.005   2.763  17.637 -0.2144  0.0885 -0.0361
 6663SOL    HW131625   1.082   2.792  17.687  0.2491 -1.9296  0.4531
 6663SOL    HW231626   0.941   2.749  17.708 -1.0361 -0.6472 -0.9264
 6664SOL     OW31627   4.061   3.577   5.381  0.5339 -0.6624  0.4338
 6664SOL    HW131628   4.155   3.560   5.367  1.0354  3.5772 -1.0735
 6664SOL    HW231629   4.059   3.662   5.424  0.7142  0.0249 -0.9465
 6665SOL     OW31630   1.644   0.629   6.270 -0.4615  0.6427  0.0702
 6665SOL    HW131631   1.686   0.582   6.198 -2.6227 -0.1174 -0.6932
 6665SOL    HW231632   1.691   0.595   6.346 -0.2869 -0.3783 -0.4894
 6666SOL     OW31633   0.581   2.819   6.066  0.2114 -0.3875  0.4895
 6666SOL    HW131634   0.508   2.758   6.061  0.6841 -0.7578 -1.8092
 6666SOL    HW231635   0.656   2.772   6.104  1.3988  1.0732 -0.0681
 6667SOL     OW31636   0.694   2.554   4.394  0.0035 -0.1045 -0.6148
 6667SOL    HW131637   0.673   2.647   4.382  0.5505 -0.0245 -0.9751
 6667SOL    HW231638   0.769   2.552   4.335  0.2211 -1.8082 -0.2696
 6668SOL     OW31639   3.865   0.591   8.550  0.1201  0.9207 -0.1775
 6668SOL    HW131640   3.890   0.509   8.592  3.3980  1.3477 -1.2828
 6668SOL    HW231641   3.843   0.555   8.464  0.5215 -0.1057  0.1569
 6669SOL     OW31642   2.678   0.002   6.085  0.2743  0.1109  0.0084
 6669SOL    HW131643   2.611   4.710   6.148 -0.5556 -0.9610 -1.3542
 6669SOL    HW231644   2.755   4.728   6.140  1.2076 -0.4090 -1.3989
 6670SOL     OW31645   0.890   1.631   5.544  0.8700  0.1028 -0.6169
 6670SOL    HW131646   0.852   1.646   5.457 -0.9867 -0.1537  0.1488
 6670SOL    HW231647   0.818   1.586   5.587  0.4318 -0.2481 -1.7037
 6671SOL     OW31648   1.659   4.530   8.333 -0.4594 -0.3751  0.4471
 6671SOL    HW131649   1.623   4.549   8.420 -1.4702  0.2710 -0.1195
 6671SOL    HW231650   1.619   4.585   8.267 -0.8545 -0.6660  0.4436
 6672SOL     OW31651   4.635   4.647  13.386 -0.3139 -0.7562 -0.3081
 6672SOL    HW131652   4.715   4.700  13.386 -2.2339  2.1435  2.3687
 6672SOL    HW231653   4.672   4.574  13.336  0.7948 -1.3552  1.3950
 6673SOL     OW31654   3.036   2.774   3.772  0.5824  0.0160 -0.2404
 6673SOL    HW131655   2.973   2.846   3.774 -0.6973 -1.1453  0.6718
 6673SOL    HW231656   3.093   2.797   3.846  0.7297  0.4278 -0.4791
 6674SOL     OW31657   2.078   1.507   7.964 -0.0033 -0.3300 -0.1882
 6674SOL    HW131658   2.125   1.431   7.932  2.0412  0.6891  0.4372
 6674SOL    HW231659   2.071   1.478   8.055 -0.5972  0.7551  0.1129
 6675SOL     OW31660   1.854   4.146  12.999 -0.1336 -0.2908 -0.8654
 6675SOL    HW131661   1.906   4.209  12.949  0.4107 -0.0197  0.0483
 6675SOL    HW231662   1.771   4.191  12.986  1.1444  2.3187  0.2054
 6676SOL     OW31663   1.750   0.117  10.131  0.1634 -0.4089  0.2856
 6676SOL    HW131664   1.753   0.183  10.200 -1.4484  0.1517 -0.1891
 6676SOL    HW231665   1.816   0.161  10.077  0.6455  0.6607  1.7410
 6677SOL     OW31666   4.359   4.476   9.586  0.3091 -0.3353  0.0493
 6677SOL    HW131667   4.285   4.444   9.535 -1.0807 -0.0743  1.8742
 6677SOL    HW231668   4.359   4.412   9.658  1.7307  1.0365  1.2533
 6678SOL     OW31669   1.900   2.900   7.505 -0.4442 -0.7382  0.2207
 6678SOL    HW131670   1.898   2.950   7.587  0.9705  1.3593 -1.0240
 6678SOL    HW231671   1.815   2.928   7.473 -0.2624 -0.8242 -0.3273
 6679SOL     OW31672   3.543   4.114   8.674 -0.2886  0.6324  0.1761
 6679SOL    HW131673   3.630   4.151   8.658  1.2913 -1.6645  3.5933
 6679SOL    HW231674   3.566   4.021   8.663 -1.2855  0.8593 -3.9521
 6680SOL     OW31675   1.941   0.774   6.880 -0.5957 -0.2232 -0.2767
 6680SOL    HW131676   1.929   0.867   6.866  0.3223  0.1453  1.3375
 6680SOL    HW231677   2.013   0.784   6.943 -0.9633 -0.6094  0.2120
 6681SOL     OW31678   0.938   1.268   5.396  0.0578  0.2037  0.0760
 6681SOL    HW131679   0.857   1.240   5.437 -1.2335  2.0796 -1.2163
 6681SOL    HW231680   0.905   1.331   5.332  1.7694 -0.1627 -1.1567
 6682SOL     OW31681   1.429   3.562   5.124 -0.3379 -0.2154 -0.1027
 6682SOL    HW131682   1.336   3.541   5.134 -1.0817  0.7396 -4.9152
 6682SOL    HW231683   1.426   3.626   5.053 -0.7830 -0.2895 -0.1520
 6683SOL     OW31684   1.332   3.252   2.268  0.4530 -0.4042  0.4761
 6683SOL    HW131685   1.265   3.306   2.309 -0.0711 -0.5555 -0.1665
 6683SOL    HW231686   1.280   3.172   2.261 -2.1144  1.1582  1.6291
 6684SOL     OW31687   3.219   4.662  14.799  0.1751 -0.4098  0.0172
 6684SOL    HW131688   3.270   4.594  14.754  0.9060 -2.1616  3.5172
 6684SOL    HW231689   3.131   4.650  14.764  0.3348 -1.0631 -0.1668
 6685SOL     OW31690   4.469   4.090   8.160  0.5303  0.4287 -0.0703
 6685SOL    HW131691   4.406   4.162   8.150 -0.6799 -0.8846 -1.8321
 6685SOL    HW231692   4.477   4.095   8.255  1.1745  0.2392 -0.1200
 6686SOL     OW31693   4.086   0.913  14.214  0.4826  0.1428 -0.1546
 6686SOL    HW131694   4.162   0.972  14.210 -0.8326  1.6740 -2.6010
 6686SOL    HW231695   4.023   0.949  14.276  3.7506  2.1010  2.0387
 6687SOL     OW31696   4.377   2.434  12.147 -0.4390  0.6966  0.1175
 6687SOL    HW131697   4.442   2.364  12.154  0.5551  1.8513  2.5371
 6687SOL    HW231698   4.408   2.495  12.080  1.0743  0.4880  0.6273
 6688SOL     OW31699   3.619   4.589   5.116  0.5090  0.2287 -0.2977
 6688SOL    HW131700   3.580   4.624   5.036  1.0602  2.2989  0.3460
 6688SOL    HW231701   3.685   4.654   5.139 -0.4761  1.6616 -1.4729
 6689SOL     OW31702   2.526   2.680   2.914 -0.2907  0.4931  0.1086
 6689SOL    HW131703   2.598   2.627   2.946 -0.4310  1.2769  1.7687
 6689SOL    HW231704   2.575   2.712   2.838  1.1798 -0.3992  0.6859
 6690SOL     OW31705   4.585   0.657  10.190  0.1283 -0.4825 -0.1634
 6690SOL    HW131706   4.560   0.648  10.281  0.2004  1.9175  0.0906
 6690SOL    HW231707   4.666   0.606  10.188 -0.8789 -2.0865 -0.5659
 6691SOL     OW31708   3.184   4.134   1.941  0.1384  0.4635 -0.0492
 6691SOL    HW131709   3.101   4.141   1.989 -0.4990 -0.8955 -0.9486
 6691SOL    HW231710   3.170   4.075   1.867 -0.3546  1.0138 -0.3893
 6692SOL     OW31711   0.417   0.074   1.771 -0.2865 -0.2039 -0.0839
 6692SOL    HW131712   0.360   0.001   1.791  0.6414 -1.0096 -0.3856
 6692SOL    HW231713   0.419   0.109   1.861 -1.2431  1.3596 -0.6717
 6693SOL     OW31714   4.652   2.662   4.613 -0.3958 -0.1492  0.2885
 6693SOL    HW131715   4.685   2.749   4.591  0.4109 -0.7952 -0.9969
 6693SOL    HW231716   4.700   2.606   4.553 -2.0104 -1.8556  0.5755
 6694SOL     OW31717   1.605   3.865   8.318 -0.2475  0.3973 -0.3248
 6694SOL    HW131718   1.522   3.897   8.353 -0.7119  0.3215 -1.3647
 6694SOL    HW231719   1.644   3.948   8.291 -0.5159  0.7717  0.4361
 6695SOL     OW31720   2.464   1.629   9.526  0.0647 -0.0145  0.0818
 6695SOL    HW131721   2.496   1.560   9.584  1.2535  0.9330  0.5615
 6695SOL    HW231722   2.472   1.711   9.574  0.1795  0.3156 -0.5003
 6696SOL     OW31723   4.253   3.487  15.722  0.6499 -0.1713 -0.3531
 6696SOL    HW131724   4.302   3.421  15.673 -0.4305 -0.2642 -1.3056
 6696SOL    HW231725   4.329   3.531  15.760  0.7504  0.2817 -1.0653
 6697SOL     OW31726   3.959   1.260   7.421  0.0233 -0.0659  0.0711
 6697SOL    HW131727   3.922   1.259   7.509 -1.0538 -0.8150 -0.4047
 6697SOL    HW231728   4.052   1.249   7.444 -0.1839  0.7402  1.2755
 6698SOL     OW31729   3.558   0.087   7.527  0.5582  0.4147 -0.3838
 6698SOL    HW131730   3.639   0.049   7.558 -0.6436 -0.7043  1.3781
 6698SOL    HW231731   3.561   0.179   7.555  2.2516  0.4915 -0.8621
 6699SOL     OW31732   2.994   0.326   7.064  0.4015 -0.2428 -0.3316
 6699SOL    HW131733   3.011   0.282   7.147 -0.7166 -0.0852 -0.0190
 6699SOL    HW231734   3.022   0.255   7.007  0.3852  0.3166 -1.0370
 6700SOL     OW31735   0.983   2.235   6.323 -0.2332 -0.8830 -0.0348
 6700SOL    HW131736   0.931   2.311   6.347  0.7677 -0.7280  1.5693
 6700SOL    HW231737   0.933   2.204   6.247  1.9357 -0.8886 -1.4587
 6701SOL     OW31738   2.030   1.175   8.902 -0.2237  0.2650  0.2854
 6701SOL    HW131739   2.104   1.216   8.946  1.3527 -2.8005  0.4934
 6701SOL    HW231740   2.063   1.089   8.874  0.3668  0.6792 -0.2630
 6702SOL     OW31741   3.392   4.444   6.090  0.1898  0.5472  0.4571
 6702SOL    HW131742   3.460   4.376   6.093  0.6466  1.0079  0.5645
 6702SOL    HW231743   3.434   4.503   6.028 -1.1609  1.2780  0.2391
 6703SOL     OW31744   3.132   2.881  13.398 -0.0099  0.5717  0.0831
 6703SOL    HW131745   3.218   2.868  13.437  0.2975  2.7191  0.1163
 6703SOL    HW231746   3.085   2.929  13.465  2.6848 -0.6789  2.8664
 6704SOL     OW31747   0.865   2.477   6.000  0.3134 -0.1328 -0.5596
 6704SOL    HW131748   0.820   2.392   6.000  1.7978 -0.9257 -2.3748
 6704SOL    HW231749   0.886   2.485   5.907  2.3355 -2.2870 -0.3116
 6705SOL     OW31750   3.823   1.727  14.366  0.0179  0.4720 -0.4113
 6705SOL    HW131751   3.815   1.666  14.293  2.3768  1.5458 -1.5672
 6705SOL    HW231752   3.918   1.727  14.372 -0.0391  0.5665  0.4119
 6706SOL     OW31753   0.479   4.383  15.767 -0.0377 -0.0179 -0.4086
 6706SOL    HW131754   0.553   4.346  15.718  1.6699 -0.5961  2.5927
 6706SOL    HW231755   0.405   4.376  15.707  0.0993 -0.7911 -0.4923
 6707SOL     OW31756   0.184   3.761   2.089 -0.2446  0.6304 -0.1449
 6707SOL    HW131757   0.225   3.675   2.102 -0.3543  0.7745  1.1745
 6707SOL    HW231758   0.093   3.735   2.099  0.2187 -1.1642 -0.5298
 6708SOL     OW31759   1.095   3.323  17.291  0.2153 -0.2864  0.1690
 6708SOL    HW131760   1.061   3.401  17.334 -1.8900 -2.0511  1.6772
 6708SOL    HW231761   1.061   3.262  17.355  1.2838 -0.2896  0.7317
 6709SOL     OW31762   0.142   3.554  11.106  0.0164  0.4726 -0.5332
 6709SOL    HW131763   0.138   3.483  11.042 -0.2081  0.0470 -0.0449
 6709SOL    HW231764   0.132   3.634  11.054  1.7556  0.8598 -0.2970
 6710SOL     OW31765   1.918   3.086   6.786  0.4808  0.6098 -0.6077
 6710SOL    HW131766   1.851   3.020   6.801 -0.6493  1.5234 -1.5892
 6710SOL    HW231767   1.924   3.129   6.871  0.6509 -0.1825 -0.2163
 6711SOL     OW31768   0.285   1.153   8.402 -0.5514 -0.2249  0.1169
 6711SOL    HW131769   0.245   1.141   8.316 -0.6634  0.0632  0.1309
 6711SOL    HW231770   0.217   1.207   8.442 -1.8543 -0.5513 -1.6804
 6712SOL     OW31771   4.048   3.622   6.029  0.5159  0.3510 -0.3491
 6712SOL    HW131772   4.107   3.547   6.020 -0.4991 -0.4456 -0.3734
 6712SOL    HW231773   4.077   3.673   5.953 -0.9359  0.0248 -1.1403
 6713SOL     OW31774   0.298   1.394   6.024 -0.3624  0.6832 -0.4416
 6713SOL    HW131775   0.227   1.353   6.074  2.0581 -1.7264  1.0087
 6713SOL    HW231776   0.281   1.347   5.943 -0.1126 -2.0762  1.1031
 6714SOL     OW31777   1.552   2.818   7.450  0.0469 -0.3690  0.4082
 6714SOL    HW131778   1.607   2.892   7.474 -0.8151  0.2027  0.6403
 6714SOL    HW231779   1.502   2.848   7.374  1.1522 -0.6400 -0.4243
 6715SOL     OW31780   1.354   3.498   1.961  0.0854  0.3793 -0.6755
 6715SOL    HW131781   1.388   3.412   1.984  0.3304  0.4856 -0.6409
 6715SOL    HW231782   1.261   3.495   1.986  1.1063 -2.0620  2.7952
 6716SOL     OW31783   3.604   4.481   1.968 -0.5979 -0.1181 -0.1005
 6716SOL    HW131784   3.650   4.407   1.928 -2.7703 -1.7182  0.3561
 6716SOL    HW231785   3.524   4.435   1.994 -1.3190  1.4977  0.5059
 6717SOL     OW31786   0.764   2.541  11.583 -0.3646 -0.0983 -0.5936
 6717SOL    HW131787   0.814   2.496  11.515  0.0814 -1.2375  0.4849
 6717SOL    HW231788   0.719   2.601  11.523 -0.9147 -0.3976 -0.4743
 6718SOL     OW31789   2.500   2.631   3.742 -0.0760 -0.0141  0.1603
 6718SOL    HW131790   2.446   2.703   3.710  0.0911  0.0742  0.0771
 6718SOL    HW231791   2.438   2.567   3.777 -0.0360 -0.7692 -1.1623
 6719SOL     OW31792   2.456   4.562   1.571 -0.7719  0.0869  0.1975
 6719SOL    HW131793   2.419   4.561   1.660  1.4037 -0.7954  1.1002
 6719SOL    HW231794   2.406   4.629   1.525  1.1978  0.0870 -1.9150
 6720SOL     OW31795   0.462   3.299  16.691  0.1545 -0.3650  0.5334
 6720SOL    HW131796   0.412   3.337  16.763  1.0029  1.1784  0.3174
 6720SOL    HW231797   0.473   3.205  16.705 -1.2900 -0.1714  2.9927
 6721SOL     OW31798   3.809   3.718   9.727  0.0239  0.0155  0.5065
 6721SOL    HW131799   3.836   3.749   9.640 -2.4754  0.3653 -0.1385
 6721SOL    HW231800   3.883   3.667   9.760  0.5730  0.6703  0.2894
 6722SOL     OW31801   1.550   3.942   4.141 -0.2347 -0.1821  0.3391
 6722SOL    HW131802   1.607   3.920   4.067  1.2008  2.6004  0.6179
 6722SOL    HW231803   1.535   3.853   4.173  3.4784 -0.8240  0.2885
 6723SOL     OW31804   4.627   2.365  16.902 -0.5532 -0.4033 -0.4668
 6723SOL    HW131805   4.646   2.276  16.872 -2.1860 -0.2891 -1.8483
 6723SOL    HW231806   4.694   2.416  16.857  0.6591 -0.4073  1.3328
 6724SOL     OW31807   0.593   1.021   6.047  0.3600  0.1362 -0.4525
 6724SOL    HW131808   0.658   0.986   6.108 -0.5024  0.3729  0.5903
 6724SOL    HW231809   0.597   1.114   6.069  1.2854 -0.4741  1.9200
 6725SOL     OW31810   3.263   3.179   2.033 -0.6502 -0.1901 -0.0644
 6725SOL    HW131811   3.223   3.201   2.118 -0.1248 -0.2329  0.1894
 6725SOL    HW231812   3.236   3.256   1.983  0.9208  0.6789  0.4424
 6726SOL     OW31813   1.396   3.211  15.072 -0.3964  0.2260 -0.9852
 6726SOL    HW131814   1.336   3.277  15.106  0.1069 -0.8690  2.0801
 6726SOL    HW231815   1.399   3.140  15.137 -2.2292  0.5839 -0.5168
 6727SOL     OW31816   2.403   0.611   6.466  0.5323  0.1777  0.1152
 6727SOL    HW131817   2.328   0.623   6.525  0.4093  1.9144 -0.4117
 6727SOL    HW231818   2.457   0.565   6.530  1.9561 -0.8179 -1.8329
 6728SOL     OW31819   1.514   0.811   7.178  0.2575  0.2218 -0.1635
 6728SOL    HW131820   1.588   0.835   7.121 -0.6109 -1.0034 -1.7843
 6728SOL    HW231821   1.465   0.894   7.181  1.5309  0.9550  0.6885
 6729SOL     OW31822   2.370   1.620   5.605  0.5795  0.2113 -0.5931
 6729SOL    HW131823   2.334   1.632   5.517 -0.7570 -1.0471 -0.2227
 6729SOL    HW231824   2.451   1.573   5.589  0.2458 -1.8334  3.7216
 6730SOL     OW31825   0.210   0.347   0.909 -0.0842 -0.4945 -0.4105
 6730SOL    HW131826   0.196   0.255   0.888  0.2325 -0.7225  0.3865
 6730SOL    HW231827   0.291   0.378   0.869  0.4081  0.8135  1.5763
 6731SOL     OW31828   3.110   1.744  16.375 -0.3346 -0.4424 -0.3734
 6731SOL    HW131829   3.090   1.797  16.298  3.3884  0.5446 -0.6877
 6731SOL    HW231830   3.085   1.656  16.348 -2.3917 -0.1872  0.6889
 6732SOL     OW31831   0.071   3.543  15.360  0.4784  0.0374  0.3687
 6732SOL    HW131832   4.728   3.525  15.410  0.7706  2.1519  1.6074
 6732SOL    HW231833   0.047   3.592  15.282  1.0339  1.2693  0.9602
 6733SOL     OW31834   1.708   4.630   1.499 -0.5730  0.5057 -0.1565
 6733SOL    HW131835   1.648   4.604   1.430  0.3583  1.2555 -1.2528
 6733SOL    HW231836   1.779   4.570   1.475 -1.3896 -1.4407  2.2061
 6734SOL     OW31837   1.255   0.516   9.282 -0.2917  0.0543 -0.1322
 6734SOL    HW131838   1.249   0.611   9.286  1.3273  0.2031 -0.7753
 6734SOL    HW231839   1.219   0.495   9.196  1.1387 -1.3993 -0.3853
 6735SOL     OW31840   1.006   4.055  15.894 -0.3208 -0.2968 -0.1494
 6735SOL    HW131841   0.960   4.125  15.846  1.0342  1.4741  1.1166
 6735SOL    HW231842   1.093   4.090  15.914 -0.6997 -0.3324  1.5895
 6736SOL     OW31843   4.703   1.725  11.504  0.6387  0.3334 -0.0731
 6736SOL    HW131844   4.674   1.693  11.590 -1.0194  2.6893  0.2789
 6736SOL    HW231845   0.049   1.769  11.525 -0.1295  2.6075 -1.8747
 6737SOL     OW31846   4.284   1.556   7.979  0.3154  0.9993 -0.0942
 6737SOL    HW131847   4.199   1.578   8.017 -0.9443  0.1174 -2.3430
 6737SOL    HW231848   4.326   1.640   7.997  2.1813  0.3194 -1.2843
 6738SOL     OW31849   2.297   4.236   0.585  0.3292 -0.5509  0.0838
 6738SOL    HW131850   2.244   4.156   0.580  0.1925 -0.4674  0.2216
 6738SOL    HW231851   2.355   4.225   0.509  2.8235 -0.1157  1.9030
 6739SOL     OW31852   2.170   2.744  14.430 -0.9240 -0.3341 -0.2203
 6739SOL    HW131853   2.154   2.828  14.386  0.7231 -0.2932 -0.7166
 6739SOL    HW231854   2.153   2.684  14.358 -0.8338 -0.7423  0.0984
 6740SOL     OW31855   2.736   2.901   3.458  0.5259  0.4274  0.2599
 6740SOL    HW131856   2.677   2.960   3.505  1.1654  1.5677 -0.3728
 6740SOL    HW231857   2.777   2.962   3.397  1.8331 -1.5615 -0.8211
 6741SOL     OW31858   0.724   0.447   5.944  0.7673 -0.6697 -0.4639
 6741SOL    HW131859   0.814   0.452   5.911  1.1353 -1.2247  0.4465
 6741SOL    HW231860   0.693   0.527   5.903  2.4448  0.7322  1.0175
 6742SOL     OW31861   1.981   0.337   4.561 -0.7608  0.3438  0.0794
 6742SOL    HW131862   1.969   0.248   4.528 -0.7813 -0.2996  1.8255
 6742SOL    HW231863   2.007   0.325   4.652  2.0231  1.9773 -0.4922
 6743SOL     OW31864   0.348   4.290   8.585  0.7313 -0.6940  0.2546
 6743SOL    HW131865   0.355   4.218   8.647 -0.1783  0.3650  1.5646
 6743SOL    HW231866   0.314   4.247   8.506 -0.4170 -1.0956  0.9824
 6744SOL     OW31867   4.459   4.086   9.282  0.0119  0.0759  0.1977
 6744SOL    HW131868   4.485   4.133   9.203  2.0455 -0.4799  0.5569
 6744SOL    HW231869   4.526   4.117   9.343  0.2292  0.6226 -0.3174
 6745SOL     OW31870   2.929   0.111   7.731  0.2589 -0.3311 -0.5494
 6745SOL    HW131871   2.930   0.133   7.638  1.7843 -0.6291 -0.6008
 6745SOL    HW231872   2.908   0.191   7.779  1.4084 -0.7673  0.6753
 6746SOL     OW31873   0.282   3.107   5.831 -0.6106  0.1294  0.4359
 6746SOL    HW131874   0.312   3.195   5.856  1.1069  0.2300 -1.9723
 6746SOL    HW231875   0.284   3.063   5.916 -1.1304 -1.4104 -0.3486
 6747SOL     OW31876   2.247   0.580   2.160  0.0598  0.1967 -0.0061
 6747SOL    HW131877   2.156   0.568   2.131  0.3675 -0.2095 -0.7853
 6747SOL    HW231878   2.232   0.591   2.254  0.3277  1.4493 -0.1075
 6748SOL     OW31879   2.051   0.651  16.615  0.6794 -0.5370  0.7591
 6748SOL    HW131880   2.019   0.563  16.635 -0.7861  0.0097  0.7939
 6748SOL    HW231881   2.066   0.688  16.702 -0.1106  1.6811 -0.0512
 6749SOL     OW31882   3.751   4.449   4.701  0.0495 -0.6725  0.3099
 6749SOL    HW131883   3.663   4.485   4.692  0.5176  0.4583  0.2730
 6749SOL    HW231884   3.802   4.527   4.720 -0.5260 -0.8857  2.6914
 6750SOL     OW31885   3.697   1.300   5.672  0.4136  0.1115 -0.2295
 6750SOL    HW131886   3.626   1.330   5.615 -0.8490  0.8155  1.7324
 6750SOL    HW231887   3.679   1.207   5.660 -1.0234  0.1707  1.5227
 6751SOL     OW31888   0.048   3.424   4.884  0.0335 -0.1790  0.7210
 6751SOL    HW131889   0.129   3.474   4.891  0.0294 -0.1674  0.6812
 6751SOL    HW231890   0.080   3.340   4.851  0.2898  0.9726 -1.9169
 6752SOL     OW31891   4.531   1.853   5.525  0.4979  0.4786 -0.4917
 6752SOL    HW131892   4.583   1.926   5.558 -0.1916  0.6344  0.2305
 6752SOL    HW231893   4.453   1.851   5.580  0.5532 -0.2469 -0.4350
 6753SOL     OW31894   2.658   3.173   8.983 -0.5970 -0.4078 -0.3789
 6753SOL    HW131895   2.574   3.126   8.976 -0.3168 -1.0744  0.8565
 6753SOL    HW231896   2.712   3.096   8.997  0.4075 -0.0382 -2.3122
 6754SOL     OW31897   0.965   2.460   3.874  0.1412 -0.1063  0.0775
 6754SOL    HW131898   0.883   2.456   3.924  0.2528 -4.7488 -0.1009
 6754SOL    HW231899   0.984   2.554   3.870  0.3857 -0.2710 -2.5189
 6755SOL     OW31900   1.123   2.670   0.961  0.0604 -0.2724  0.4371
 6755SOL    HW131901   1.143   2.706   0.875  2.5618 -1.3132  0.5549
 6755SOL    HW231902   1.152   2.740   1.019 -1.0220  0.0258  0.6067
 6756SOL     OW31903   1.811   3.847  15.122  0.1457  0.3210 -0.0132
 6756SOL    HW131904   1.829   3.939  15.143 -0.1830  0.5325 -0.6551
 6756SOL    HW231905   1.807   3.855  15.026 -0.7153  0.6415  0.0493
 6757SOL     OW31906   2.897   4.577   1.928 -0.2500  0.0709 -0.0193
 6757SOL    HW131907   2.890   4.619   2.014 -0.1545 -1.3399  0.6775
 6757SOL    HW231908   2.901   4.490   1.967 -1.3977  0.3540  0.7588
 6758SOL     OW31909   3.446   4.670   2.398 -0.2584  0.3069  0.1737
 6758SOL    HW131910   3.513   4.653   2.332 -0.8929  0.0037 -0.3870
 6758SOL    HW231911   3.479   4.599   2.451  0.3977  0.0963 -0.5166
 6759SOL     OW31912   0.177   2.847   8.636 -0.7634  0.5414 -0.0012
 6759SOL    HW131913   0.253   2.903   8.625 -0.0010  0.0918  3.0426
 6759SOL    HW231914   0.103   2.906   8.648 -1.5535 -0.0718 -1.8882
 6760SOL     OW31915   2.446   4.405   5.473 -0.1408 -0.2144 -0.2392
 6760SOL    HW131916   2.483   4.326   5.511 -0.1760 -0.2865 -0.3560
 6760SOL    HW231917   2.371   4.372   5.423 -1.8830  1.2261  1.3877
 6761SOL     OW31918   3.498   1.851   6.562  0.1888 -0.2129  0.0658
 6761SOL    HW131919   3.475   1.779   6.503 -0.4825 -0.4025  0.5600
 6761SOL    HW231920   3.527   1.799   6.637  0.3197 -1.4762 -0.8562
 6762SOL     OW31921   3.357   0.092  10.707 -0.0942  0.1520 -0.2288
 6762SOL    HW131922   3.409   0.173  10.707  0.5366 -0.2520  0.0021
 6762SOL    HW231923   3.348   0.086  10.802 -0.0166 -3.7185 -0.4932
 6763SOL     OW31924   2.865   2.674   7.524  0.0422  0.5197 -0.2029
 6763SOL    HW131925   2.788   2.722   7.495 -0.4999 -0.2266  0.0041
 6763SOL    HW231926   2.894   2.643   7.438 -0.7465 -1.8000  0.3662
 6764SOL     OW31927   4.447   2.555   2.125 -0.3325 -0.0656 -0.4480
 6764SOL    HW131928   4.534   2.595   2.134 -1.6353  2.5410  0.4816
 6764SOL    HW231929   4.421   2.594   2.041 -2.4438 -1.9730 -0.6700
 6765SOL     OW31930   2.267   3.777   6.540 -0.4218 -0.4616 -0.0126
 6765SOL    HW131931   2.305   3.691   6.522 -0.4495 -0.5469  0.3379
 6765SOL    HW231932   2.298   3.829   6.466 -1.0183 -1.8284 -1.2262
 6766SOL     OW31933   0.647   1.181   9.523 -0.1523 -0.1531 -0.0429
 6766SOL    HW131934   0.725   1.129   9.503 -0.4650 -0.7557  0.3006
 6766SOL    HW231935   0.687   1.265   9.502 -0.3003  0.2454  1.2535
 6767SOL     OW31936   4.673   3.675   6.079 -0.3273 -0.3597 -0.5601
 6767SOL    HW131937   4.668   3.623   5.999  0.3317  0.5226 -1.1718
 6767SOL    HW231938   4.722   3.752   6.051 -1.6537  1.0287  0.9360
 6768SOL     OW31939   0.970   2.903   5.964  1.1953 -0.2852 -0.9941
 6768SOL    HW131940   1.008   2.817   5.981 -0.9419 -0.9615  0.3604
 6768SOL    HW231941   0.971   2.933   6.055  2.1894  0.9506 -1.4111
 6769SOL     OW31942   3.291   4.540  11.282 -0.3449 -0.0998  0.8270
 6769SOL    HW131943   3.384   4.550  11.265 -0.0367 -0.5366  2.3210
 6769SOL    HW231944   3.284   4.572  11.372  1.4940  1.4643  0.4069
 6770SOL     OW31945   4.175   3.574   8.704 -0.3763  0.2237 -0.2966
 6770SOL    HW131946   4.130   3.606   8.626 -1.2771 -2.6802 -0.9662
 6770SOL    HW231947   4.098   3.563   8.759  0.6333 -0.1694  1.0392
 6771SOL     OW31948   4.292   3.244   4.444  0.0461  0.0848 -0.2040
 6771SOL    HW131949   4.312   3.176   4.508  2.5886 -2.1200 -3.2870
 6771SOL    HW231950   4.374   3.294   4.444 -0.1929  0.4745 -0.5752
 6772SOL     OW31951   2.404   2.535   8.847  0.3969  0.4437 -0.7718
 6772SOL    HW131952   2.433   2.444   8.836 -0.2491  0.3670 -1.9141
 6772SOL    HW231953   2.358   2.544   8.763  0.1925 -0.7398 -0.7898
 6773SOL     OW31954   3.390   1.310  11.475 -0.2156  0.0811  0.4867
 6773SOL    HW131955   3.373   1.247  11.405  1.5722  1.7115 -1.4039
 6773SOL    HW231956   3.470   1.274  11.513 -1.0758  1.3096  3.4935
 6774SOL     OW31957   0.775   3.921  10.114 -0.2821  0.0784 -0.7027
 6774SOL    HW131958   0.811   4.008  10.133 -2.1766 -0.1760  4.0392
 6774SOL    HW231959   0.855   3.868  10.110  0.1695  0.8036 -1.2172
 6775SOL     OW31960   4.040   3.788  13.237  0.4541 -0.6298 -0.1763
 6775SOL    HW131961   3.983   3.770  13.163  0.0227  0.2740 -0.0623
 6775SOL    HW231962   4.087   3.868  13.214  4.2484 -3.4432 -2.1238
 6776SOL     OW31963   1.696   2.155   2.027 -0.1214 -0.3210  0.2680
 6776SOL    HW131964   1.604   2.157   2.053  0.4081 -1.8885  2.2885
 6776SOL    HW231965   1.721   2.065   2.049  0.0264 -0.3846 -0.1501
 6777SOL     OW31966   1.393   0.591   4.067 -0.2031  0.1579 -0.6255
 6777SOL    HW131967   1.441   0.579   3.985  0.4444 -0.8307 -0.1094
 6777SOL    HW231968   1.318   0.645   4.043 -0.8005 -0.2103  0.4066
 6778SOL     OW31969   0.934   3.883   7.112 -0.2700 -0.6202  0.4058
 6778SOL    HW131970   0.941   3.978   7.114 -0.9305 -0.5969  2.2529
 6778SOL    HW231971   1.022   3.862   7.143 -0.0536  0.4686  0.5064
 6779SOL     OW31972   3.570   3.037   3.594 -0.1934  0.2400  0.5199
 6779SOL    HW131973   3.477   3.029   3.612  0.1490 -0.8970  1.7913
 6779SOL    HW231974   3.594   3.075   3.678 -2.1224  0.5547  0.9133
 6780SOL     OW31975   2.218   2.894   8.198 -0.1881 -0.3339  0.8356
 6780SOL    HW131976   2.176   2.888   8.284 -2.4161  1.2443 -0.1269
 6780SOL    HW231977   2.152   2.946   8.153  0.8400 -1.9136 -2.4930
 6781SOL     OW31978   4.444   4.695   9.446  0.9772  0.0416  0.2571
 6781SOL    HW131979   4.412   4.625   9.503  0.9466  0.1251  0.3418
 6781SOL    HW231980   4.439   4.650   9.361 -1.7818  0.7373  0.0490
 6782SOL     OW31981   4.015   2.341   6.600  0.1595  0.0848  0.5871
 6782SOL    HW131982   3.989   2.421   6.647 -1.1268 -1.1529  1.9616
 6782SOL    HW231983   4.071   2.382   6.535 -0.9533  0.8659  0.1160
 6783SOL     OW31984   4.161   2.270   3.322  0.2558 -0.2552 -0.5235
 6783SOL    HW131985   4.086   2.326   3.341  0.0400  0.2720 -2.9380
 6783SOL    HW231986   4.223   2.331   3.282 -0.2755 -0.0438 -1.0209
 6784SOL     OW31987   4.037   4.641   3.671 -0.1263  0.3300 -0.6682
 6784SOL    HW131988   3.944   4.652   3.691  0.3815  0.2065  1.7407
 6784SOL    HW231989   4.058   4.598   3.753 -2.3562  0.2058 -0.1752
 6785SOL     OW31990   1.952   2.338   0.584 -0.0069 -0.2161 -0.2369
 6785SOL    HW131991   1.856   2.337   0.592 -0.0379  0.9965 -0.3845
 6785SOL    HW231992   1.961   2.431   0.564  0.3600  0.0138  1.0153
 6786SOL     OW31993   1.620   0.817   0.775 -0.6735 -0.2205  0.6821
 6786SOL    HW131994   1.574   0.751   0.827  2.3368 -1.2817  2.0098
 6786SOL    HW231995   1.712   0.799   0.794 -0.3044  1.2970  0.3138
 6787SOL     OW31996   0.981   2.335  12.749  0.5013  0.6036  0.5817
 6787SOL    HW131997   0.916   2.307  12.685 -0.3885  1.9426  0.9093
 6787SOL    HW231998   0.922   2.388  12.803 -0.4360  1.0082 -0.8662
 6788SOL     OW31999   1.993   1.887   2.418  0.1993  0.3895 -0.4825
 6788SOL    HW132000   1.901   1.900   2.442 -0.5120 -1.5036 -2.1978
 6788SOL    HW232001   2.007   1.952   2.349  0.8991  1.6501  0.8380
 6789SOL     OW32002   0.310   1.044   1.271  0.7374  0.1390 -0.1245
 6789SOL    HW132003   0.393   1.043   1.320  0.1062  0.6761  0.9713
 6789SOL    HW232004   0.255   1.101   1.325  1.1800 -0.1604  0.6554
 6790SOL     OW32005   0.613   2.523   4.857  0.3046  0.0195 -0.3643
 6790SOL    HW132006   0.542   2.484   4.805 -1.6227 -0.8290  2.8988
 6790SOL    HW232007   0.683   2.513   4.792  1.4796 -0.1945  0.9470
 6791SOL     OW32008   0.093   0.066  13.339 -0.5444 -0.1316 -0.4388
 6791SOL    HW132009   0.092   0.160  13.318 -0.9410 -0.4565 -1.8674
 6791SOL    HW232010   0.145   0.032  13.266  2.1970 -2.0305  2.3924
 6792SOL     OW32011   1.824   1.662  17.365  0.2255 -0.0896 -0.3785
 6792SOL    HW132012   1.867   1.651  17.279 -0.9280 -0.3097 -0.9236
 6792SOL    HW232013   1.791   1.751  17.354 -1.2964 -0.8249 -1.7803
 6793SOL     OW32014   0.634   2.725  11.429  0.5781 -0.3686  0.8053
 6793SOL    HW132015   0.587   2.808  11.424  2.0509  0.3530 -1.2049
 6793SOL    HW232016   0.669   2.712  11.341  1.3519  1.3273  0.8686
 6794SOL     OW32017   4.569   2.164   6.873 -0.2202 -0.2601 -0.0915
 6794SOL    HW132018   4.597   2.128   6.957  3.1532  3.0878  0.2190
 6794SOL    HW232019   4.479   2.133   6.861 -0.4315  0.3411 -0.0791
 6795SOL     OW32020   4.517   1.767   1.816 -0.0920 -0.1176 -1.0257
 6795SOL    HW132021   4.520   1.860   1.841  2.2171 -0.0354 -1.5740
 6795SOL    HW232022   4.467   1.731   1.889 -0.8073  0.9373 -0.9794
 6796SOL     OW32023   0.102   4.663  15.090 -0.3236  0.4327  0.1758
 6796SOL    HW132024   0.041   4.692  15.022 -1.3203  0.8354  1.2491
 6796SOL    HW232025   0.174   4.618  15.045 -0.3566  1.5694 -1.0210
 6797SOL     OW32026   2.853   2.971   3.786  0.1350  0.7018 -1.3011
 6797SOL    HW132027   2.806   2.888   3.798  1.1979  0.2047 -0.5520
 6797SOL    HW232028   2.810   3.018   3.858 -0.0897  1.1161 -1.7050
 6798SOL     OW32029   2.122   3.316   6.429  0.4330  0.2933  0.1701
 6798SOL    HW132030   2.038   3.356   6.451  0.0468  0.2501 -1.2643
 6798SOL    HW232031   2.160   3.364   6.356  1.3839 -0.5126  0.1360
 6799SOL     OW32032   2.608   4.701  13.701 -0.1448 -0.4067  0.2191
 6799SOL    HW132033   2.690   0.001  13.733  1.1702 -2.6853 -0.5678
 6799SOL    HW232034   2.629   4.608  13.691  4.6653  0.5895  1.4751
 6800SOL     OW32035   3.958   1.568  13.984  0.1986  0.4119  0.5565
 6800SOL    HW132036   3.988   1.511  13.913 -4.2853 -1.1819 -0.0798
 6800SOL    HW232037   3.991   1.655  13.961 -1.8685  1.2092  0.6231
 6801SOL     OW32038   4.338   3.186   8.450 -0.2160  0.2897 -0.6116
 6801SOL    HW132039   4.255   3.219   8.414 -0.0864 -1.2873 -2.3457
 6801SOL    HW232040   4.335   3.093   8.427  0.1886  0.2325 -0.4255
 6802SOL     OW32041   2.709   3.922   1.655  0.3004  0.2366  0.2134
 6802SOL    HW132042   2.740   4.007   1.626  1.0911  0.6897  2.3664
 6802SOL    HW232043   2.663   3.894   1.576 -2.2187  2.0678  1.0053
 6803SOL     OW32044   2.413   2.810  12.167 -0.0696  0.1254 -0.2659
 6803SOL    HW132045   2.463   2.884  12.203  0.8084 -0.3366 -0.5242
 6803SOL    HW232046   2.355   2.782  12.237 -0.2566 -0.3078 -0.5929
 6804SOL     OW32047   1.410   4.066   2.479 -0.6790  0.3182  0.2079
 6804SOL    HW132048   1.375   4.118   2.407  1.7273 -0.0152 -1.2270
 6804SOL    HW232049   1.344   3.997   2.478 -0.6619  0.2984  1.1193
 6805SOL     OW32050   3.812   3.253   8.598 -0.4909  0.2395 -0.0933
 6805SOL    HW132051   3.752   3.178   8.596  1.1371 -1.0166 -1.9918
 6805SOL    HW232052   3.800   3.290   8.510 -1.8851 -0.3513 -0.1617
 6806SOL     OW32053   3.829   2.701  14.203  0.0999  0.0645 -0.5712
 6806SOL    HW132054   3.831   2.605  14.206  0.6967  0.1130  0.5570
 6806SOL    HW232055   3.734   2.713  14.209  0.0027 -0.7622 -0.4686
 6807SOL     OW32056   2.083   3.917   7.158  0.0114 -0.1665  0.1424
 6807SOL    HW132057   2.086   3.831   7.200  1.0216 -0.5197 -0.6413
 6807SOL    HW232058   2.035   3.976   7.216  0.9866 -0.9645  1.7449
 6808SOL     OW32059   0.035   0.098   5.547  0.2226  0.1676 -0.4535
 6808SOL    HW132060   0.092   0.114   5.623 -0.1605  1.2095 -0.3974
 6808SOL    HW232061   0.047   0.186   5.512 -1.3110  0.4725 -0.1888
 6809SOL     OW32062   0.332   1.282  11.599 -0.4930 -0.6491 -0.1592
 6809SOL    HW132063   0.249   1.330  11.604 -0.1326  0.1378 -1.9280
 6809SOL    HW232064   0.326   1.227  11.677 -1.5635  1.2179  1.0942
 6810SOL     OW32065   4.029   4.088   5.596 -0.6130 -0.7629  0.3933
 6810SOL    HW132066   3.978   4.116   5.520  0.8779  0.9430  0.0151
 6810SOL    HW232067   4.018   4.159   5.659 -0.0806 -2.6035  2.5801
 6811SOL     OW32068   2.196   0.914   7.576 -0.7872  0.0854  0.2375
 6811SOL    HW132069   2.274   0.961   7.547  0.3108 -0.8438  1.6410
 6811SOL    HW232070   2.120   0.967   7.554  0.0070  0.8716 -0.5584
 6812SOL     OW32071   1.536   0.471   4.823 -0.1511 -1.0211 -0.3833
 6812SOL    HW132072   1.566   0.469   4.732 -0.0276  4.6571 -0.4119
 6812SOL    HW232073   1.476   0.544   4.812 -0.1196 -1.0957 -1.0455
 6813SOL     OW32074   0.083   0.060   4.124  0.2213  0.6219 -0.5083
 6813SOL    HW132075   0.001   0.022   4.093 -1.9352  2.5287  2.8100
 6813SOL    HW232076   0.069   0.149   4.091  1.5937  1.2942  0.6881
 6814SOL     OW32077   3.770   4.644   7.212 -0.0480  0.2178  0.2834
 6814SOL    HW132078   3.759   4.684   7.125  1.4166 -1.2446 -0.5606
 6814SOL    HW232079   3.773   4.550   7.197 -1.4541  0.8067 -3.7777
 6815SOL     OW32080   4.547   3.730   2.582 -0.2843  0.6091 -0.0743
 6815SOL    HW132081   4.466   3.694   2.620 -0.8810  1.5323 -0.4688
 6815SOL    HW232082   4.576   3.649   2.540  0.2520  1.5091 -1.4345
 6816SOL     OW32083   2.904   2.589   6.196 -0.1609  0.4667  0.5165
 6816SOL    HW132084   2.833   2.623   6.141  0.6951 -0.2450 -1.0324
 6816SOL    HW232085   2.881   2.496   6.204 -1.4211  0.8840  1.6102
 6817SOL     OW32086   0.940   2.480   5.702 -0.1971 -0.5804 -0.5094
 6817SOL    HW132087   1.012   2.418   5.706  0.2884  0.0249  0.1963
 6817SOL    HW232088   0.973   2.545   5.640  1.9179  1.9672  3.2682
 6818SOL     OW32089   0.938   4.243   4.575 -1.0399  0.2283 -0.1883
 6818SOL    HW132090   0.933   4.295   4.496  2.5341  0.5370 -0.2096
 6818SOL    HW232091   0.948   4.157   4.534  2.7390  0.0093  1.1441
 6819SOL     OW32092   0.526   0.815   8.819  0.4472 -0.2027 -0.9180
 6819SOL    HW132093   0.484   0.888   8.864 -0.3473 -0.2628 -1.5615
 6819SOL    HW232094   0.508   0.843   8.729  0.3143  1.2776 -0.4194
 6820SOL     OW32095   1.353   3.505   2.762  0.0353  0.0756 -0.0981
 6820SOL    HW132096   1.327   3.575   2.703 -0.7052 -1.4837 -1.6314
 6820SOL    HW232097   1.322   3.542   2.844  0.1772  1.3225 -0.6135
 6821SOL     OW32098   2.013   4.633   4.101  0.2014  0.2622  0.1413
 6821SOL    HW132099   2.006   4.594   4.188  0.2534  1.0058  0.4845
 6821SOL    HW232100   2.033   4.563   4.040 -0.7920  1.6164 -1.7516
 6822SOL     OW32101   3.159   3.437   6.344  0.3311  0.9361 -0.4370
 6822SOL    HW132102   3.174   3.448   6.250  2.0155  1.0608 -0.1621
 6822SOL    HW232103   3.084   3.493   6.361  1.3510  1.8256  1.1174
 6823SOL     OW32104   2.034   1.825   8.161  0.4454 -0.3769  0.0987
 6823SOL    HW132105   1.964   1.891   8.162  0.2917 -0.5320 -0.2739
 6823SOL    HW232106   2.090   1.862   8.092 -0.9804  2.3280  0.3726
 6824SOL     OW32107   1.473   0.029   1.546  0.0244 -0.0811  0.0944
 6824SOL    HW132108   1.522   0.111   1.548  0.0095 -0.0341 -2.1467
 6824SOL    HW232109   1.539   4.700   1.570 -2.1175 -2.2459  0.1208
 6825SOL     OW32110   0.066   4.715  11.976  0.2323  0.3284  0.1311
 6825SOL    HW132111   0.103   4.633  12.008 -0.4989 -0.6112 -1.3787
 6825SOL    HW232112   0.138   0.040  11.985  1.7453 -1.4683  0.3582
 6826SOL     OW32113   4.465   0.059   3.087 -0.1239 -0.0801  0.5603
 6826SOL    HW132114   4.419   4.714   3.103 -0.1457 -0.1233  0.2795
 6826SOL    HW232115   4.423   0.110   3.157  1.5282 -0.4635  1.8439
 6827SOL     OW32116   3.397   3.152   7.804 -0.3349  0.3478 -0.1525
 6827SOL    HW132117   3.362   3.076   7.850  1.7700 -0.2588  0.4190
 6827SOL    HW232118   3.421   3.117   7.719 -2.7568 -3.2970  0.6999
 6828SOL     OW32119   0.498   3.305   0.697  0.3958 -0.1204 -0.1814
 6828SOL    HW132120   0.588   3.272   0.700  1.4946  2.6719 -2.0151
 6828SOL    HW232121   0.472   3.263   0.615  0.9892  0.3206 -0.5960
 6829SOL     OW32122   2.283   3.067  14.833  0.3086 -0.0822  0.1281
 6829SOL    HW132123   2.237   3.075  14.917 -0.8051 -0.2372 -0.4613
 6829SOL    HW232124   2.226   3.117  14.775  0.9998  0.6096  0.0532
 6830SOL     OW32125   2.843   4.656   8.952 -0.1724  0.1423  0.7544
 6830SOL    HW132126   2.854   0.015   8.951  1.2467 -0.0478 -1.2285
 6830SOL    HW232127   2.773   4.651   8.888  0.2683 -0.9819  0.3632
 6831SOL     OW32128   1.717   4.077   9.672  0.1634 -0.3938 -0.1719
 6831SOL    HW132129   1.670   4.032   9.742  0.9019  0.3844  0.8142
 6831SOL    HW232130   1.726   4.007   9.607 -1.8939 -1.1868  0.3973
 6832SOL     OW32131   2.479   0.617   0.726 -0.2284 -0.1800  0.1917
 6832SOL    HW132132   2.526   0.576   0.798 -1.2290  0.9886  1.5187
 6832SOL    HW232133   2.536   0.609   0.649 -2.4894  1.2875 -1.6512
 6833SOL     OW32134   4.178   3.805   4.014 -0.6970 -0.3832 -0.3304
 6833SOL    HW132135   4.229   3.727   3.993 -1.4991 -0.9356 -0.2399
 6833SOL    HW232136   4.125   3.820   3.936 -0.4250  3.8400  0.3106
 6834SOL     OW32137   2.747   2.595   8.122 -0.3103  0.1629 -0.1534
 6834SOL    HW132138   2.662   2.635   8.140 -0.0209  0.0834  1.4766
 6834SOL    HW232139   2.774   2.636   8.040  0.1334 -1.4426 -0.8088
 6835SOL     OW32140   1.054   0.036   9.745  0.0462 -0.1318  0.7906
 6835SOL    HW132141   1.066   0.041   9.650  0.8457  1.0345  0.9404
 6835SOL    HW232142   1.019   0.123   9.765  2.8341  1.3636 -0.6673
 6836SOL     OW32143   1.890   3.733  15.347  0.0916  0.3624 -0.0438
 6836SOL    HW132144   1.975   3.691  15.332 -0.4733 -0.7729 -0.0634
 6836SOL    HW232145   1.890   3.802  15.281  0.2153 -0.9246 -1.4039
 6837SOL     OW32146   4.443   0.823   3.604 -0.2217  0.3439  0.5275
 6837SOL    HW132147   4.517   0.804   3.661 -0.9797  2.0647  2.0866
 6837SOL    HW232148   4.457   0.749   3.545 -0.0085 -0.1006  1.1448
 6838SOL     OW32149   3.650   0.366   7.554  0.2132  0.1802  0.6326
 6838SOL    HW132150   3.559   0.392   7.549  0.2032  0.2896  1.4814
 6838SOL    HW232151   3.692   0.428   7.494  0.9956  0.1937  1.1910
 6839SOL     OW32152   0.331   3.065   8.582 -0.2201  0.4799  0.2960
 6839SOL    HW132153   0.306   3.130   8.647  0.7061 -0.2682  1.4007
 6839SOL    HW232154   0.396   3.104   8.524  0.7305 -0.1188  0.9627
 6840SOL     OW32155   4.400   0.759   3.961  0.1035  0.3971 -0.0366
 6840SOL    HW132156   4.418   0.726   3.873  1.5727 -2.1114  1.2138
 6840SOL    HW232157   4.365   0.847   3.944 -0.1429  0.4079  0.5141
 6841SOL     OW32158   2.992   2.647  11.487  0.0624 -0.4976 -0.3148
 6841SOL    HW132159   2.952   2.569  11.525 -0.9998 -0.2532 -0.9309
 6841SOL    HW232160   2.973   2.638  11.394 -1.1549 -0.5334 -0.0613
 6842SOL     OW32161   2.609   1.297   6.991 -0.1680 -0.3118 -0.1613
 6842SOL    HW132162   2.567   1.364   6.937  2.1168  0.4184 -0.9980
 6842SOL    HW232163   2.531   1.276   7.043  1.5902 -1.5144  1.9898
 6843SOL     OW32164   0.502   3.721   2.895  0.0242  0.5480  0.3315
 6843SOL    HW132165   0.419   3.766   2.880 -0.6045 -0.6198  0.2351
 6843SOL    HW232166   0.514   3.670   2.815 -0.9179  0.7521  0.0587
 6844SOL     OW32167   4.274   2.152  12.490  0.3220 -0.3695  0.0395
 6844SOL    HW132168   4.301   2.224  12.547  1.7753 -2.1912  1.6555
 6844SOL    HW232169   4.248   2.207  12.417 -1.4208 -0.0127  0.9449
 6845SOL     OW32170   2.227   0.033  10.442 -0.2775  0.2693  0.0319
 6845SOL    HW132171   2.226   0.093  10.517 -0.4285  1.2105 -0.7311
 6845SOL    HW232172   2.150   0.053  10.388  0.6145  1.8777 -0.6182
 6846SOL     OW32173   3.795   0.065   2.172  0.4092 -0.1908  0.0571
 6846SOL    HW132174   3.839   0.140   2.212  2.4072 -1.7585  0.7679
 6846SOL    HW232175   3.710   0.098   2.143 -0.5724 -3.0175 -0.3026
 6847SOL     OW32176   0.365   4.060  15.433  0.6068 -0.0399  0.2276
 6847SOL    HW132177   0.355   3.983  15.377  0.4731  1.4513 -1.7951
 6847SOL    HW232178   0.314   4.029  15.508  0.8690  0.2129  0.5075
 6848SOL     OW32179   2.463   1.292  11.943  0.0297  0.5705 -0.3383
 6848SOL    HW132180   2.511   1.210  11.958  0.4500  1.0203  0.7973
 6848SOL    HW232181   2.535   1.354  11.937  0.0589  0.7687  1.8043
 6849SOL     OW32182   2.931   2.092  10.901  0.5619 -0.6218  0.1925
 6849SOL    HW132183   2.875   2.069  10.976 -0.0556 -1.8641 -0.6537
 6849SOL    HW232184   2.992   2.153  10.944  1.6934 -2.4768  1.2258
 6850SOL     OW32185   1.921   1.460   9.072  0.6776  0.1944  0.1849
 6850SOL    HW132186   2.000   1.485   9.121  1.5032 -0.1578 -0.9555
 6850SOL    HW232187   1.940   1.491   8.983 -1.6267 -0.5924 -0.5720
 6851SOL     OW32188   2.924   1.848   7.620  0.2588 -0.2262  0.2057
 6851SOL    HW132189   2.984   1.915   7.654  0.0795 -0.3436  0.7592
 6851SOL    HW232190   2.869   1.891   7.555  0.6437 -0.5465 -0.3416
 6852SOL     OW32191   0.033   4.127   1.995 -0.0711 -0.7647 -0.1293
 6852SOL    HW132192   4.707   4.199   2.010  1.1446  0.6762 -1.9718
 6852SOL    HW232193   0.014   4.109   1.902  1.8524 -1.3192 -0.4084
 6853SOL     OW32194   4.528   2.648   7.250 -0.2593 -0.3307 -0.5028
 6853SOL    HW132195   4.473   2.655   7.328 -0.0663  1.1836 -0.5021
 6853SOL    HW232196   4.487   2.717   7.198 -0.1414 -0.9665 -1.4380
 6854SOL     OW32197   0.374   2.648   6.105  0.0632  0.2362  0.0808
 6854SOL    HW132198   0.314   2.592   6.155  2.9054 -1.7624  1.2322
 6854SOL    HW232199   0.448   2.587   6.104  0.1322  0.2535  2.5349
 6855SOL     OW32200   3.635   4.547   3.917  0.0451 -0.8173 -0.4579
 6855SOL    HW132201   3.550   4.514   3.945 -0.4349  0.3388 -0.5551
 6855SOL    HW232202   3.666   4.590   3.997 -3.1393  1.0180 -0.2236
 6856SOL     OW32203   3.403   2.926   2.281 -0.3502  0.0725 -0.0058
 6856SOL    HW132204   3.399   3.005   2.334 -1.1137  0.5519 -0.7898
 6856SOL    HW232205   3.356   2.862   2.335 -1.1956  1.1560  0.5392
 6857SOL     OW32206   2.826   1.568   4.865  0.5065  0.3286 -0.2707
 6857SOL    HW132207   2.838   1.487   4.816  2.1024 -1.4519  3.0553
 6857SOL    HW232208   2.744   1.600   4.828 -0.6096  0.1449  2.0226
 6858SOL     OW32209   2.176   3.875  13.029 -0.2057 -1.0521  0.0167
 6858SOL    HW132210   2.081   3.873  13.026 -0.2181 -0.2429 -0.4561
 6858SOL    HW232211   2.198   3.859  13.121 -0.3484 -1.6002 -0.0490
 6859SOL     OW32212   2.757   0.362   6.933 -0.0396  0.4022  0.4574
 6859SOL    HW132213   2.718   0.450   6.939  0.6670  0.8103 -0.8667
 6859SOL    HW232214   2.850   0.380   6.944 -0.4196  1.5815  1.7564
 6860SOL     OW32215   0.696   2.676   3.411  0.2152  0.1953 -0.5454
 6860SOL    HW132216   0.699   2.590   3.370 -0.2434  1.0101 -2.2500
 6860SOL    HW232217   0.765   2.726   3.368  0.3409  1.6772  1.3262
 6861SOL     OW32218   3.794   2.141   5.024 -0.1512 -0.1768 -0.0619
 6861SOL    HW132219   3.699   2.142   5.022 -0.1777 -1.4166  0.0438
 6861SOL    HW232220   3.810   2.081   5.097 -1.0518  1.1997  1.2651
 6862SOL     OW32221   2.756   1.861   4.063 -0.4201 -0.5500 -0.0659
 6862SOL    HW132222   2.825   1.829   4.121 -0.8708  1.0630  1.3741
 6862SOL    HW232223   2.798   1.857   3.977 -1.6945 -0.8313 -0.6860
 6863SOL     OW32224   0.150   3.695   4.405 -0.2133  0.6980  0.1727
 6863SOL    HW132225   0.142   3.712   4.311 -0.8448 -0.4298  0.0283
 6863SOL    HW232226   0.225   3.752   4.421  0.0830  0.1156  0.8160
 6864SOL     OW32227   1.269   2.952   5.486  0.3941 -0.1013 -0.5201
 6864SOL    HW132228   1.228   3.010   5.550 -0.6158 -1.1828 -0.1793
 6864SOL    HW232229   1.231   2.990   5.407  1.1888  2.4361  0.2946
 6865SOL     OW32230   0.275   1.244   6.509 -0.0037  0.3187  0.1767
 6865SOL    HW132231   0.315   1.181   6.568 -0.2306  0.9476  1.0015
 6865SOL    HW232232   0.341   1.237   6.440 -1.0369 -0.1921 -0.7664
 6866SOL     OW32233   1.405   2.142   8.399  0.0654 -0.6104 -0.3057
 6866SOL    HW132234   1.395   2.128   8.305 -0.0621  0.4450 -0.4511
 6866SOL    HW232235   1.489   2.185   8.411  0.3425 -0.2618 -3.3539
 6867SOL     OW32236   4.443   0.354   3.898  0.3579 -0.3470 -0.1193
 6867SOL    HW132237   4.401   0.331   3.980 -3.1381  2.6121 -1.0351
 6867SOL    HW232238   4.418   0.285   3.837  2.3223  0.9393 -2.4117
 6868SOL     OW32239   0.689   2.223  11.925  0.5891 -0.6020 -0.0153
 6868SOL    HW132240   0.759   2.266  11.974 -0.2169 -0.9337  1.4343
 6868SOL    HW232241   0.622   2.291  11.922  1.8876  0.7001  0.8915
 6869SOL     OW32242   2.777   4.235   3.180 -0.4619 -0.4506  0.4877
 6869SOL    HW132243   2.758   4.194   3.265 -0.4812 -0.8198  0.3058
 6869SOL    HW232244   2.751   4.326   3.195 -0.0596 -0.0878 -1.0155
 6870SOL     OW32245   3.233   1.334   8.162  0.8361  0.1772 -0.5917
 6870SOL    HW132246   3.295   1.281   8.112  1.1033 -0.3304  0.2810
 6870SOL    HW232247   3.258   1.419   8.128  1.1889 -0.5426 -2.1257
 6871SOL     OW32248   3.449   0.053   1.169 -1.1788 -0.1665  0.2694
 6871SOL    HW132249   3.376   0.113   1.182  0.5691  1.8436  0.9368
 6871SOL    HW232250   3.435   4.723   1.237  1.5750 -1.8761 -0.8154
 6872SOL     OW32251   4.273   4.445   6.598 -0.8684  0.1344  0.3003
 6872SOL    HW132252   4.230   4.483   6.675  0.3093 -2.3844  2.2011
 6872SOL    HW232253   4.364   4.424   6.616 -0.3694  0.2973 -2.0641
 6873SOL     OW32254   2.652   2.437  14.832 -0.8041  0.1679 -0.4907
 6873SOL    HW132255   2.623   2.444  14.741 -3.5340  1.1874  0.4589
 6873SOL    HW232256   2.617   2.524  14.849 -0.2375 -0.2468  2.8582
 6874SOL     OW32257   2.787   2.330   8.078  0.3070  0.0387 -0.7035
 6874SOL    HW132258   2.764   2.414   8.116  1.3672 -0.1708  0.4432
 6874SOL    HW232259   2.757   2.337   7.988  0.0232 -0.6292 -0.6621
 6875SOL     OW32260   4.251   3.649   2.648  0.0746 -0.2741  0.5773
 6875SOL    HW132261   4.254   3.650   2.744  1.9067  2.2205  0.5037
 6875SOL    HW232262   4.224   3.734   2.613  1.5659 -0.1334 -0.2159
 6876SOL     OW32263   3.113   1.193   2.824  0.2632  0.5071 -1.0207
 6876SOL    HW132264   3.095   1.208   2.731 -1.0008 -1.3499 -1.0965
 6876SOL    HW232265   3.089   1.280   2.856  1.4911  1.7301 -3.4371
 6877SOL     OW32266   0.773   2.302   5.218 -0.9861 -0.0048  0.4105
 6877SOL    HW132267   0.740   2.388   5.245 -0.2263 -0.1393  1.7378
 6877SOL    HW232268   0.758   2.262   5.303 -0.0294 -3.2317 -0.9239
 6878SOL     OW32269   0.132   3.992   6.489  0.3509 -0.4179  0.1493
 6878SOL    HW132270   0.056   4.004   6.546  0.7820  0.9352  0.4368
 6878SOL    HW232271   0.194   3.948   6.548  0.1405 -0.4758  0.3283
 6879SOL     OW32272   0.567   2.591   7.148 -0.2381  0.2217 -0.1403
 6879SOL    HW132273   0.627   2.583   7.222  0.7066 -1.8263 -1.1162
 6879SOL    HW232274   0.500   2.524   7.163 -1.9195  1.5872 -1.6399
 6880SOL     OW32275   0.514   1.640   2.641  0.2172 -0.0750  0.0673
 6880SOL    HW132276   0.506   1.592   2.558  0.9396  0.5186 -0.3520
 6880SOL    HW232277   0.564   1.574   2.689  1.0145  0.0764 -0.5464
 6881SOL     OW32278   1.829   1.248   5.872 -0.5252  0.4438 -0.6765
 6881SOL    HW132279   1.884   1.324   5.891 -1.6399  1.4937 -1.6474
 6881SOL    HW232280   1.822   1.207   5.958 -1.7738 -0.2530 -1.1077
 6882SOL     OW32281   1.995   0.598   2.333 -0.7491  0.1528 -0.1102
 6882SOL    HW132282   2.005   0.658   2.260  1.9919  0.0767  0.1982
 6882SOL    HW232283   1.999   0.513   2.290 -0.0313  1.2416 -2.1886
 6883SOL     OW32284   2.332   0.207   1.862 -0.7117 -0.2126 -0.2822
 6883SOL    HW132285   2.284   0.231   1.783  0.1896  1.2340 -0.3834
 6883SOL    HW232286   2.412   0.167   1.828 -1.2761 -1.8348  0.2776
 6884SOL     OW32287   4.243   0.505  10.392 -0.0438  0.0346 -0.0626
 6884SOL    HW132288   4.173   0.443  10.374 -0.6837 -0.1392  3.0207
 6884SOL    HW232289   4.232   0.572  10.325 -0.3532  2.6391  2.5981
 6885SOL     OW32290   1.052   0.531   7.000  0.6697 -0.5330  0.2234
 6885SOL    HW132291   1.132   0.508   6.952 -1.0516 -1.6712 -2.1166
 6885SOL    HW232292   1.072   0.519   7.092  3.2529  0.1690 -0.2424
 6886SOL     OW32293   3.248   1.369   1.354 -0.1413 -0.3613  0.2729
 6886SOL    HW132294   3.260   1.328   1.268  2.4625  0.7951  0.0994
 6886SOL    HW232295   3.234   1.461   1.331  3.6352  0.5370  1.6187
 6887SOL     OW32296   3.256   1.494   6.389 -0.3748  0.1608 -0.0547
 6887SOL    HW132297   3.191   1.451   6.445  3.5614 -4.2337  1.1409
 6887SOL    HW232298   3.264   1.435   6.314  0.6525 -0.0341  0.1995
 6888SOL     OW32299   2.415   3.262   7.207  0.3238 -0.7252 -0.0980
 6888SOL    HW132300   2.335   3.238   7.254  0.0991 -2.2469 -1.2506
 6888SOL    HW232301   2.430   3.343   7.256  2.9001  0.1569 -2.2997
 6889SOL     OW32302   2.569   2.512   0.717  0.2280  0.2572 -0.0538
 6889SOL    HW132303   2.656   2.488   0.750  0.5289  2.5963  0.8635
 6889SOL    HW232304   2.587   2.526   0.624  0.2932 -1.2968 -0.2684
 6890SOL     OW32305   2.745   1.517   2.152 -0.4754  0.3591 -0.0339
 6890SOL    HW132306   2.699   1.523   2.235  0.7777  2.1727  0.5252
 6890SOL    HW232307   2.832   1.485   2.176 -0.2464  0.2963 -0.9353
 6891SOL     OW32308   2.885   2.279   7.156  0.2631 -0.4851 -0.3075
 6891SOL    HW132309   2.862   2.187   7.171 -0.7508  0.3035  2.7871
 6891SOL    HW232310   2.962   2.265   7.100  1.0554  1.0132  0.4210
 6892SOL     OW32311   4.403   1.644   9.169  0.0137  0.0978  0.0216
 6892SOL    HW132312   4.313   1.617   9.149 -0.3738  2.5600 -1.5285
 6892SOL    HW232313   4.461   1.569   9.154 -0.8251 -0.4726 -0.3755
 6893SOL     OW32314   1.829   2.782   3.032  0.5725  0.3587  0.2995
 6893SOL    HW132315   1.907   2.798   2.979  1.0718  0.6994  1.1333
 6893SOL    HW232316   1.876   2.749   3.109  1.2042 -1.1175 -0.7200
 6894SOL     OW32317   4.123   2.401   7.267 -0.1590 -0.2118 -0.0237
 6894SOL    HW132318   4.080   2.486   7.261  0.6977  0.3653  2.0167
 6894SOL    HW232319   4.213   2.430   7.277  0.0270 -0.9529  0.5138
 6895SOL     OW32320   4.193   0.772   5.919 -0.0465  0.3917 -0.0622
 6895SOL    HW132321   4.161   0.862   5.926 -0.4280  0.3684 -1.6497
 6895SOL    HW232322   4.284   0.789   5.943 -0.2384  0.2946  0.7364
 6896SOL     OW32323   0.561   2.571   3.081 -0.4843  0.1862 -0.6059
 6896SOL    HW132324   0.545   2.492   3.030  0.4042 -0.5492  0.2365
 6896SOL    HW232325   0.626   2.538   3.143  0.5899  0.0206 -1.8192
 6897SOL     OW32326   4.276   2.633   7.425 -0.2188 -0.1614  0.9407
 6897SOL    HW132327   4.183   2.644   7.405 -0.6036 -1.6377  1.9094
 6897SOL    HW232328   4.269   2.624   7.520 -0.2554 -0.1392  0.9401
 6898SOL     OW32329   3.839   1.826  11.512 -0.2918  0.2924  0.2903
 6898SOL    HW132330   3.882   1.877  11.444  1.1075  0.6906  1.4749
 6898SOL    HW232331   3.757   1.805  11.467 -0.4032 -0.5743  0.8850
 6899SOL     OW32332   0.937   4.346  10.425  0.3947  0.8070 -0.2543
 6899SOL    HW132333   1.004   4.383  10.367  0.0982  4.5914  1.8277
 6899SOL    HW232334   0.868   4.413  10.422 -0.7655 -0.4023 -0.1966
 6900SOL     OW32335   4.462   2.837   2.863  0.8397  0.3433  0.0050
 6900SOL    HW132336   4.451   2.838   2.768  0.3255  1.2078  0.0746
 6900SOL    HW232337   4.468   2.932   2.871  0.5690  0.4054 -0.5112
 6901SOL     OW32338   0.091   0.503  10.174  0.6079  0.5693  0.4407
 6901SOL    HW132339   0.017   0.443  10.187  1.0985  0.1708  1.4269
 6901SOL    HW232340   0.135   0.486  10.257  0.5226  1.5914  0.6936
 6902SOL     OW32341   2.358   2.632   1.934  0.2562 -0.4516 -0.1229
 6902SOL    HW132342   2.428   2.697   1.943  0.6462 -0.9195  0.2138
 6902SOL    HW232343   2.288   2.688   1.902 -0.7869 -1.7424 -0.1082
 6903SOL     OW32344   3.986   2.456   4.546 -0.4721 -0.3975 -0.2627
 6903SOL    HW132345   3.921   2.386   4.554  0.4087 -1.0716  1.0085
 6903SOL    HW232346   3.968   2.486   4.456  1.3670  2.1427  0.2379
 6904SOL     OW32347   0.859   2.591  17.196 -0.2669 -0.4708  0.3934
 6904SOL    HW132348   0.946   2.632  17.196 -0.1464 -0.7221 -0.1470
 6904SOL    HW232349   0.844   2.598  17.102 -1.7956  0.1442  0.6878
 6905SOL     OW32350   0.541   4.094  11.048 -0.3331 -0.2012 -0.5392
 6905SOL    HW132351   0.528   4.084  10.953 -0.0200 -2.7267 -0.3206
 6905SOL    HW232352   0.480   4.162  11.074 -0.0431  0.1095 -0.6743
 6906SOL     OW32353   3.449   3.988  14.759 -0.0403  0.0638 -0.5407
 6906SOL    HW132354   3.404   4.002  14.842 -0.1703  0.4897 -0.6839
 6906SOL    HW232355   3.515   4.057  14.758 -1.0438  1.0248 -0.6582
 6907SOL     OW32356   3.915   0.345   2.931 -0.2469 -0.3641  0.0679
 6907SOL    HW132357   3.995   0.306   2.965  0.1541  0.4481  0.0329
 6907SOL    HW232358   3.863   0.266   2.912 -2.7958  0.9063  1.6853
 6908SOL     OW32359   0.306   2.351   3.893 -0.1234  0.1692  0.0984
 6908SOL    HW132360   0.219   2.338   3.930 -1.3844 -0.6385 -3.0917
 6908SOL    HW232361   0.311   2.446   3.878  2.1402  0.3273  1.9104
 6909SOL     OW32362   4.361   2.610  13.067 -0.3195 -0.3808 -1.0003
 6909SOL    HW132363   4.304   2.684  13.044 -0.3452 -0.2874 -0.6316
 6909SOL    HW232364   4.353   2.614  13.162 -0.8939  1.1545 -1.1048
 6910SOL     OW32365   4.274   2.890  16.311  0.4355  0.3864 -0.2938
 6910SOL    HW132366   4.241   2.900  16.222 -1.1074 -0.6328  0.1475
 6910SOL    HW232367   4.228   2.809  16.332  0.9277  0.5686  1.5397
 6911SOL     OW32368   4.436   0.936  12.554  0.4069 -0.1139 -0.1008
 6911SOL    HW132369   4.345   0.912  12.537  0.3021  0.2033  0.0035
 6911SOL    HW232370   4.407   1.018  12.594 -2.1858 -0.6156 -0.9346
 6912SOL     OW32371   3.401   0.310  12.321 -0.1451  0.2174  0.3580
 6912SOL    HW132372   3.336   0.242  12.340 -0.6592  0.3834 -0.7454
 6912SOL    HW232373   3.366   0.363  12.249 -1.1027  0.7667  1.2340
 6913SOL     OW32374   2.655   4.120   9.511  0.4091 -0.2316 -0.7286
 6913SOL    HW132375   2.569   4.144   9.545  0.3673 -1.7969  0.2955
 6913SOL    HW232376   2.708   4.183   9.561 -2.5806  0.5330  1.4926
 6914SOL     OW32377   4.620   0.319   9.975  0.1469 -0.7809 -0.8760
 6914SOL    HW132378   4.552   0.300  10.040  1.0753 -3.0917 -0.5731
 6914SOL    HW232379   4.694   0.261   9.997 -0.2802 -0.8255  0.4646
 6915SOL     OW32380   1.417   1.247   6.252 -0.6149 -0.2121 -0.3176
 6915SOL    HW132381   1.454   1.260   6.339  0.7427 -2.0111 -0.6313
 6915SOL    HW232382   1.345   1.310   6.258  0.4499  0.9590  0.1245
 6916SOL     OW32383   1.478   2.284   9.985 -0.4874 -0.4742 -0.7523
 6916SOL    HW132384   1.478   2.188   9.983  0.6465 -0.4833  0.5954
 6916SOL    HW232385   1.398   2.302  10.035 -0.3465  0.3803 -0.8466
 6917SOL     OW32386   3.811   3.082   6.076  0.4282  0.1118 -0.2914
 6917SOL    HW132387   3.735   3.136   6.096  1.3137  1.5552 -0.7893
 6917SOL    HW232388   3.872   3.106   6.145 -0.0564 -0.5060  0.3518
 6918SOL     OW32389   0.570   3.445   6.790  0.2106 -0.1429  0.0219
 6918SOL    HW132390   0.653   3.399   6.779  0.4958  0.5742 -0.8659
 6918SOL    HW232391   0.510   3.371   6.797  1.3281 -1.0748 -0.4304
 6919SOL     OW32392   1.356   4.243   9.650  0.0387 -0.1679 -0.0609
 6919SOL    HW132393   1.437   4.276   9.689  1.3594 -0.2712 -2.7371
 6919SOL    HW232394   1.375   4.151   9.632 -0.9027 -0.7399  1.8521
 6920SOL     OW32395   2.571   3.127   3.638  0.1273  0.0200  0.1148
 6920SOL    HW132396   2.502   3.189   3.612 -0.3975 -0.3251  0.6844
 6920SOL    HW232397   2.524   3.074   3.702 -0.2220  0.5240  0.2836
 6921SOL     OW32398   2.091   1.606   2.608  0.0386 -0.4882 -0.2767
 6921SOL    HW132399   2.071   1.691   2.647  0.7029 -0.6943  0.5353
 6921SOL    HW232400   2.013   1.586   2.557  0.0024  0.2954 -0.5259
 6922SOL     OW32401   3.192   4.571   8.117  0.4104  0.4531 -0.6455
 6922SOL    HW132402   3.158   4.482   8.106 -2.7364  2.0114 -3.4373
 6922SOL    HW232403   3.190   4.596   8.025 -1.3488  0.4605 -0.6052
 6923SOL     OW32404   4.348   4.673  15.725 -0.2045  0.2202  0.0022
 6923SOL    HW132405   4.416   4.731  15.691 -0.1896  1.5298  2.2233
 6923SOL    HW232406   4.268   4.725  15.722 -0.1750  0.2602 -0.0885
 6924SOL     OW32407   4.287   0.954   0.622  0.1953 -0.3759  0.1915
 6924SOL    HW132408   4.274   0.878   0.679  0.1654  1.0951  2.1442
 6924SOL    HW232409   4.198   0.969   0.590  0.0424 -2.1652 -0.2108
 6925SOL     OW32410   1.503   4.345  14.953 -0.3522  0.6382  0.4039
 6925SOL    HW132411   1.489   4.431  14.912 -2.6338  0.0665  0.0119
 6925SOL    HW232412   1.440   4.346  15.024  0.2794 -1.0996  0.9674
 6926SOL     OW32413   3.628   4.669   0.086  0.2813 -0.2524 -0.5888
 6926SOL    HW132414   3.641   4.721   0.007  1.5682  1.6621  0.8948
 6926SOL    HW232415   3.674   4.721   0.152 -0.8517  2.6041 -2.0424
 6927SOL     OW32416   3.223   3.899   7.516  0.2925  0.3121  0.2651
 6927SOL    HW132417   3.255   3.892   7.606  2.9497 -0.4941 -0.7435
 6927SOL    HW232418   3.186   3.812   7.501 -0.0150  0.5991 -0.6432
 6928SOL     OW32419   3.040   0.171   9.308 -0.5441 -0.2451 -0.4554
 6928SOL    HW132420   3.095   0.214   9.243 -0.4924 -1.1281 -0.9877
 6928SOL    HW232421   3.102   0.107   9.341  0.2293  0.4527 -0.5616
 6929SOL     OW32422   2.500   3.427   6.308 -0.4970  0.1143 -0.1781
 6929SOL    HW132423   2.466   3.338   6.304 -3.3668  1.2721 -1.5990
 6929SOL    HW232424   2.548   3.430   6.225 -1.7736 -0.8497 -0.9418
 6930SOL     OW32425   2.899   1.912   2.163 -0.4862  0.3030 -0.0370
 6930SOL    HW132426   2.851   1.871   2.091 -1.3984 -1.3120  1.4667
 6930SOL    HW232427   2.894   1.831   2.214  1.5852  0.3096  0.1760
 6931SOL     OW32428   1.445   4.594  11.124 -0.7079  0.1765  0.4327
 6931SOL    HW132429   1.513   4.564  11.184  0.0600 -0.1662 -0.6147
 6931SOL    HW232430   1.468   4.687  11.119  1.2151 -0.4030 -1.2609
 6932SOL     OW32431   2.736   4.185   5.773  0.3918 -0.1939  0.0449
 6932SOL    HW132432   2.688   4.222   5.847  0.1801 -1.1154  0.3730
 6932SOL    HW232433   2.805   4.250   5.763 -1.6215  1.9725  0.1288
 6933SOL     OW32434   1.156   4.020   3.094 -0.1602 -0.1429  0.0838
 6933SOL    HW132435   1.163   3.996   3.186 -0.5474  1.0185  0.4159
 6933SOL    HW232436   1.106   4.101   3.100  0.8418  0.6662 -2.4239
 6934SOL     OW32437   4.179   1.257   3.945 -0.0328 -0.0970 -0.3551
 6934SOL    HW132438   4.096   1.284   3.905  0.9936  2.8022 -0.4653
 6934SOL    HW232439   4.190   1.329   4.006 -1.0994  0.2583 -0.5745
 6935SOL     OW32440   1.034   2.049   1.947 -0.4946  0.4290  0.4300
 6935SOL    HW132441   1.075   1.965   1.928 -1.2023  0.1279  0.2132
 6935SOL    HW232442   0.949   2.032   1.906 -0.5324  2.6996 -0.4188
 6936SOL     OW32443   3.256   0.393   0.824  0.3333  0.1767  0.1668
 6936SOL    HW132444   3.232   0.310   0.867 -2.6665  1.3804  0.8215
 6936SOL    HW232445   3.326   0.427   0.880 -1.4565  1.2492  1.7431
 6937SOL     OW32446   3.974   0.053   9.638 -0.0350  0.0027  0.2274
 6937SOL    HW132447   4.058   0.100   9.639 -0.3138  0.5805 -2.0507
 6937SOL    HW232448   3.998   0.008   9.557  1.3858  1.6944 -0.3103
 6938SOL     OW32449   2.540   0.249   8.788  0.4480 -0.2781  0.1012
 6938SOL    HW132450   2.600   0.285   8.853 -0.0933  0.4594  0.2006
 6938SOL    HW232451   2.469   0.314   8.792 -0.2597 -1.0889  0.7727
 6939SOL     OW32452   1.565   3.060   6.850  0.4503  0.0470  0.5838
 6939SOL    HW132453   1.541   3.057   6.943  0.4969 -0.3469  0.5869
 6939SOL    HW232454   1.617   3.140   6.845  1.4290 -0.6394 -0.1946
 6940SOL     OW32455   3.438   0.642   6.459 -0.0383 -0.1094  0.3903
 6940SOL    HW132456   3.354   0.679   6.435 -0.1348  0.2591  1.3039
 6940SOL    HW232457   3.424   0.635   6.553  1.9082 -1.1934  0.6264
 6941SOL     OW32458   4.515   0.981   8.300 -0.6793  0.4126 -0.4945
 6941SOL    HW132459   4.528   1.067   8.339 -1.5463  0.4447 -0.2675
 6941SOL    HW232460   4.603   0.946   8.310 -0.8629 -0.0293 -0.4183
 6942SOL     OW32461   1.940   3.119   7.287 -0.5906 -0.3394  0.6648
 6942SOL    HW132462   1.963   3.143   7.376  1.2499  2.0457 -0.4357
 6942SOL    HW232463   1.965   3.026   7.288  0.4966 -0.0563  0.2349
 6943SOL     OW32464   0.782   2.538   1.541  0.6736  0.0145  0.2771
 6943SOL    HW132465   0.742   2.461   1.581  2.4576 -1.2977 -0.5143
 6943SOL    HW232466   0.795   2.504   1.452 -1.6743 -0.8421  0.2653
 6944SOL     OW32467   1.940   4.279   3.178  0.0435 -0.1795  0.5237
 6944SOL    HW132468   1.915   4.367   3.150 -2.1518 -1.4783 -1.5377
 6944SOL    HW232469   2.034   4.276   3.163  0.4246  1.4548  2.4715
 6945SOL     OW32470   1.541   1.430  11.950 -0.8883 -0.6598  0.1929
 6945SOL    HW132471   1.578   1.350  11.987  1.0092  0.4244  0.6583
 6945SOL    HW232472   1.624   1.472  11.928 -0.8308 -0.8284  0.0860
 6946SOL     OW32473   4.011   3.755   5.118 -0.0121  0.2773 -0.2288
 6946SOL    HW132474   3.963   3.811   5.058 -1.8967 -1.2022 -0.1043
 6946SOL    HW232475   3.949   3.757   5.191  1.6395  0.4029  1.1593
 6947SOL     OW32476   4.726   0.799   3.741 -0.2143  0.4211  0.6233
 6947SOL    HW132477   4.668   0.735   3.783  0.7993  0.5528  2.2605
 6947SOL    HW232478   0.032   0.754   3.668 -0.8930 -0.0589  0.5216
 6948SOL     OW32479   1.582   3.839   5.189 -0.2419  0.2235  0.1973
 6948SOL    HW132480   1.619   3.781   5.123 -0.1562 -0.5210  0.9105
 6948SOL    HW232481   1.565   3.797   5.273 -0.3628 -2.5825 -1.2484
 6949SOL     OW32482   0.342   4.686  11.513  0.4196 -0.7804 -0.3826
 6949SOL    HW132483   0.364   4.614  11.572 -2.9523 -0.4644  1.2553
 6949SOL    HW232484   0.365   4.642  11.431 -0.7838 -0.8482 -0.6808
 6950SOL     OW32485   0.623   0.653   6.240  0.5799  0.2291  0.1108
 6950SOL    HW132486   0.628   0.561   6.215 -0.9095  0.0613  0.4525
 6950SOL    HW232487   0.543   0.680   6.195  0.2742  0.7090  0.9312
 6951SOL     OW32488   4.015   2.235   5.415  0.0912  0.7670  0.2312
 6951SOL    HW132489   4.093   2.283   5.445  0.2439  1.4876 -1.3380
 6951SOL    HW232490   3.967   2.231   5.497 -2.7415  2.7018 -1.3282
 6952SOL     OW32491   1.843   2.599   5.585  0.5498  0.2883  0.5739
 6952SOL    HW132492   1.754   2.590   5.550  0.2362  0.3067  1.3561
 6952SOL    HW232493   1.816   2.607   5.677  3.4823  1.1529  1.3568
 6953SOL     OW32494   3.469   2.353  10.720  0.4585  0.2493 -0.4666
 6953SOL    HW132495   3.498   2.379  10.632  1.2702 -1.2591 -0.6446
 6953SOL    HW232496   3.445   2.261  10.705  1.0841  0.2392 -1.4071
 6954SOL     OW32497   2.370   1.865   4.343 -0.0522  0.0308  0.5182
 6954SOL    HW132498   2.412   1.939   4.300 -1.6781  0.6127 -0.0749
 6954SOL    HW232499   2.329   1.911   4.416  0.8436 -0.4816  1.3375
 6955SOL     OW32500   4.422   0.252   5.828  0.0160 -0.0241 -0.5103
 6955SOL    HW132501   4.457   0.163   5.820 -2.1047 -0.8642 -0.3828
 6955SOL    HW232502   4.390   0.263   5.738  0.0101 -1.3592 -0.6708
 6956SOL     OW32503   3.520   3.227   1.770  0.0086  0.5577 -0.5567
 6956SOL    HW132504   3.567   3.308   1.789  0.0364  0.5715 -0.6860
 6956SOL    HW232505   3.534   3.185   1.855 -0.4430  1.7643  0.1082
 6957SOL     OW32506   2.196   2.138   6.762 -0.4840  0.1751 -0.0152
 6957SOL    HW132507   2.109   2.178   6.772 -0.0316  1.3381 -0.8046
 6957SOL    HW232508   2.250   2.215   6.778 -1.6533  1.0739 -0.4336
 6958SOL     OW32509   0.872   3.682   1.965 -0.3564  0.0864 -0.1252
 6958SOL    HW132510   0.874   3.773   1.936 -0.4164  0.1662  0.1231
 6958SOL    HW232511   0.782   3.652   1.948 -0.7518  2.0404 -1.4860
 6959SOL     OW32512   1.814   0.723   7.530 -0.4635  0.3744 -0.0404
 6959SOL    HW132513   1.901   0.686   7.517 -0.0134  1.2134  0.6310
 6959SOL    HW232514   1.761   0.645   7.547  1.0645 -0.8087 -0.7170
 6960SOL     OW32515   2.533   0.840   6.413 -0.2502 -0.1240  0.2661
 6960SOL    HW132516   2.615   0.801   6.445  0.9039  0.8943 -1.4728
 6960SOL    HW232517   2.469   0.770   6.429  0.3508 -1.3772 -2.7318
 6961SOL     OW32518   1.461   0.388   2.787 -0.6958  0.3166  0.0496
 6961SOL    HW132519   1.387   0.446   2.807 -0.4335  1.1010 -1.2571
 6961SOL    HW232520   1.410   0.307   2.783  0.7758 -0.4402 -3.7432
 6962SOL     OW32521   0.504   4.169   4.282 -0.4676  0.0598 -0.1150
 6962SOL    HW132522   0.515   4.211   4.367 -0.4283  2.4729 -1.2849
 6962SOL    HW232523   0.589   4.125   4.275 -0.5800 -0.1734 -0.0059
 6963SOL     OW32524   2.377   3.937   0.472 -0.1650  0.3134  0.2812
 6963SOL    HW132525   2.407   4.010   0.417 -0.7180 -1.2844 -2.1503
 6963SOL    HW232526   2.283   3.954   0.479 -0.4590 -1.8240  1.3174
 6964SOL     OW32527   0.976   2.458   9.492 -0.8414  0.3985 -0.0081
 6964SOL    HW132528   0.966   2.370   9.455 -0.1401  0.3874 -0.1581
 6964SOL    HW232529   0.896   2.496   9.455  0.4907  2.9378 -0.2586
 6965SOL     OW32530   1.850   4.165   3.409 -0.8994 -0.4675 -0.0656
 6965SOL    HW132531   1.768   4.123   3.382 -0.1293 -0.2508 -2.6976
 6965SOL    HW232532   1.887   4.185   3.323  0.5423 -1.0727  0.4193
 6966SOL     OW32533   1.768   1.449   5.372 -0.0904  0.0206 -0.3599
 6966SOL    HW132534   1.679   1.480   5.354  0.1646  0.8862 -0.1366
 6966SOL    HW232535   1.753   1.391   5.446  1.1686 -0.5166 -0.5181
 6967SOL     OW32536   1.701   0.204   9.253  0.1919  0.4918 -0.3470
 6967SOL    HW132537   1.676   0.114   9.232  1.3079 -0.2831  1.6687
 6967SOL    HW232538   1.624   0.247   9.215 -1.3346  1.1601  3.5307
 6968SOL     OW32539   0.224   0.918   6.576  0.6025  0.3867  0.4111
 6968SOL    HW132540   0.247   0.845   6.518  2.1971  0.5584  0.8343
 6968SOL    HW232541   0.135   0.895   6.603  0.7944  0.1529  0.8319
 6969SOL     OW32542   3.468   3.851   6.014  0.0798 -0.2192 -0.6301
 6969SOL    HW132543   3.549   3.801   6.024  0.6164  0.5581 -1.1279
 6969SOL    HW232544   3.412   3.793   6.067 -0.1933  0.8977  0.3035
 6970SOL     OW32545   0.635   2.798  12.969  0.4488 -0.0806 -0.3180
 6970SOL    HW132546   0.630   2.715  13.015  3.0131  0.0950  0.2842
 6970SOL    HW232547   0.550   2.800  12.924 -0.9461 -2.6498  2.1872
 6971SOL     OW32548   2.562   2.193   4.555 -0.6264 -0.2998  0.1179
 6971SOL    HW132549   2.486   2.170   4.502 -1.6186  0.6101  1.1529
 6971SOL    HW232550   2.604   2.251   4.491 -0.7001  0.8345  1.1029
 6972SOL     OW32551   2.690   4.621  14.578  0.3888 -0.0328  0.1360
 6972SOL    HW132552   2.689   4.541  14.526  0.4974 -0.7776  1.2956
 6972SOL    HW232553   2.598   4.641  14.597 -0.1814  0.2691 -2.9761
 6973SOL     OW32554   1.242   1.077  16.917  0.6630  0.3133 -0.9295
 6973SOL    HW132555   1.223   0.985  16.902  2.9148 -0.2959  0.0341
 6973SOL    HW232556   1.185   1.089  16.992  1.2843  3.7967 -1.0132
 6974SOL     OW32557   3.455   2.201   6.020  1.0104  0.2613 -0.7305
 6974SOL    HW132558   3.514   2.125   6.020  1.1170  0.3641  1.8471
 6974SOL    HW232559   3.428   2.205   6.111  1.1500 -1.2660 -0.6142
 6975SOL     OW32560   2.207   0.925   5.635 -0.2169 -0.7896 -0.0623
 6975SOL    HW132561   2.174   1.007   5.673 -2.8085 -1.2561 -1.2885
 6975SOL    HW232562   2.125   0.880   5.617 -0.8772  0.8365 -1.0917
 6976SOL     OW32563   0.021   3.379   5.610 -0.0024 -0.0632 -0.1003
 6976SOL    HW132564   0.076   3.317   5.562  1.6530  1.5312 -0.3007
 6976SOL    HW232565   4.717   3.431   5.541 -0.1555  0.0091  0.0433
 6977SOL     OW32566   2.224   3.941   4.571 -0.0214  0.4101  0.1470
 6977SOL    HW132567   2.151   4.000   4.553 -0.1402  0.2954  0.2461
 6977SOL    HW232568   2.183   3.878   4.631  0.4005 -0.4876 -0.5030
 6978SOL     OW32569   1.707   1.240  17.083 -0.6014 -0.2206  0.6586
 6978SOL    HW132570   1.773   1.176  17.110 -0.3585 -1.2070 -2.3368
 6978SOL    HW232571   1.702   1.293  17.162 -2.4515  1.5703 -0.6738
 6979SOL     OW32572   2.437   1.624  17.015 -0.3874  0.2125  0.5386
 6979SOL    HW132573   2.428   1.678  17.093 -0.9183  0.1490  0.5183
 6979SOL    HW232574   2.447   1.700  16.958 -1.6169  0.0712  0.1179
 6980SOL     OW32575   2.685   3.793   6.819 -0.3334  0.4249 -0.1262
 6980SOL    HW132576   2.645   3.880   6.831  0.1730  0.3987  1.7860
 6980SOL    HW232577   2.675   3.756   6.907  1.1831  0.3243  0.0038
 6981SOL     OW32578   2.383   3.602   6.804 -0.1888 -0.6039  0.1615
 6981SOL    HW132579   2.392   3.598   6.709 -0.3874  0.9960  0.0835
 6981SOL    HW232580   2.452   3.537   6.821 -0.0092  0.2943  2.8089
 6982SOL     OW32581   0.537   0.991   7.684 -0.1115 -0.1904  0.6039
 6982SOL    HW132582   0.465   1.054   7.686  0.2148  0.3124 -3.8259
 6982SOL    HW232583   0.509   0.930   7.615  0.4038  0.6014 -0.3002
 6983SOL     OW32584   3.451   3.587   7.343  0.6966  0.6201  1.0408
 6983SOL    HW132585   3.374   3.578   7.399 -2.5986  1.4869 -3.2882
 6983SOL    HW232586   3.524   3.638   7.379  2.5183 -1.2980  0.0479
 6984SOL     OW32587   2.519   0.791   1.770  0.0748 -0.1963  0.7374
 6984SOL    HW132588   2.497   0.829   1.855  0.1373  0.6287  0.3850
 6984SOL    HW232589   2.614   0.798   1.768  0.1320 -0.9423  0.9607
 6985SOL     OW32590   4.300   2.160   7.080  0.4178  0.4362 -0.3536
 6985SOL    HW132591   4.270   2.248   7.059 -2.1867 -0.3063  0.2118
 6985SOL    HW232592   4.319   2.115   6.998  1.6907 -2.1074  1.3077
 6986SOL     OW32593   2.105   1.087   8.269 -0.0035 -0.0190  0.0600
 6986SOL    HW132594   2.103   1.030   8.346 -0.5839 -1.1295 -0.7658
 6986SOL    HW232595   2.184   1.043   8.236  0.0166 -0.1453  0.2801
 6987SOL     OW32596   0.507   0.052  10.353  0.0390  0.3443 -0.4411
 6987SOL    HW132597   0.467   0.051  10.266 -0.0566 -1.1435 -0.3802
 6987SOL    HW232598   0.438   0.061  10.419  0.5180 -3.3140  0.5335
 6988SOL     OW32599   4.063   4.162   4.989 -0.7391  0.3412  0.2933
 6988SOL    HW132600   4.010   4.125   4.919  1.0243 -1.2609 -0.1875
 6988SOL    HW232601   4.030   4.252   4.996  1.1205  0.8447  2.5680
 6989SOL     OW32602   3.048   3.218   2.305  0.4444  0.1700 -0.6309
 6989SOL    HW132603   3.094   3.300   2.290 -1.3675  1.6923  2.2487
 6989SOL    HW232604   3.011   3.234   2.392  2.2924 -0.8277  0.3486
 6990SOL     OW32605   3.175   2.034   8.435  0.0753 -0.2662  0.3095
 6990SOL    HW132606   3.189   1.979   8.358 -3.2415 -1.0828  0.2745
 6990SOL    HW232607   3.260   2.028   8.478  0.1704 -1.6462 -0.0782
 6991SOL     OW32608   1.678   0.374   6.609  0.0371  0.4957 -0.1519
 6991SOL    HW132609   1.587   0.391   6.586 -0.3529 -0.4382  0.6925
 6991SOL    HW232610   1.665   0.324   6.690  0.2406 -1.1698 -1.1601
 6992SOL     OW32611   2.597   1.744   8.707 -0.7593 -0.3166 -0.1802
 6992SOL    HW132612   2.594   1.676   8.774 -0.1892  0.0604  0.2206
 6992SOL    HW232613   2.537   1.702   8.644 -0.2826  3.9027 -3.4517
 6993SOL     OW32614   1.256   3.686   3.043 -0.0254  0.0448 -0.5509
 6993SOL    HW132615   1.313   3.754   3.080  1.3657 -0.9652 -0.8640
 6993SOL    HW232616   1.197   3.737   2.987  0.5739  1.7934  0.4073
 6994SOL     OW32617   0.695   0.573  13.451  0.7027 -0.0972 -0.6941
 6994SOL    HW132618   0.768   0.529  13.494 -1.0988  0.1745  2.5958
 6994SOL    HW232619   0.734   0.660  13.443  1.5905 -0.4956 -0.7231
 6995SOL     OW32620   1.975   1.941   8.518  0.6502 -0.2667 -0.5505
 6995SOL    HW132621   1.945   1.867   8.571  2.0376  0.4134  1.1979
 6995SOL    HW232622   1.899   1.947   8.461 -0.1601  1.5021  0.7284
 6996SOL     OW32623   1.067   1.275   7.977  0.0136  0.1099  0.7589
 6996SOL    HW132624   1.155   1.296   7.945 -1.4054  1.2450 -2.4568
 6996SOL    HW232625   1.097   1.207   8.037  0.6736 -1.5216 -1.4271
 6997SOL     OW32626   4.361   4.272   5.901 -0.2829  0.4880 -0.3235
 6997SOL    HW132627   4.288   4.218   5.932 -0.5542  1.4669  0.7176
 6997SOL    HW232628   4.358   4.344   5.963  1.5551 -0.8494  1.3326
 6998SOL     OW32629   2.436   1.808   9.327 -0.2342  0.4914  0.5162
 6998SOL    HW132630   2.380   1.876   9.365 -0.6251  0.5708 -0.1883
 6998SOL    HW232631   2.432   1.740   9.394  0.3778 -0.2606 -0.2103
 6999SOL     OW32632   3.065   2.258  17.152 -0.2188  0.1164 -0.0950
 6999SOL    HW132633   3.138   2.251  17.090 -0.8492 -0.8239 -0.7307
 6999SOL    HW232634   2.991   2.238  17.095 -0.0284 -0.6478 -0.0794
 7000SOL     OW32635   4.249   0.356   0.558 -0.8888  0.3330  0.0556
 7000SOL    HW132636   4.214   0.362   0.469 -2.7097 -0.8010  0.7081
 7000SOL    HW232637   4.172   0.390   0.604 -0.5497  1.9390 -0.5730
 7001SOL     OW32638   2.271   0.997   6.186 -0.3187 -0.7411  0.2386
 7001SOL    HW132639   2.343   1.041   6.231  0.8132 -3.4966  1.1414
 7001SOL    HW232640   2.189   1.037   6.215 -0.5338 -0.7964 -0.2902
 7002SOL     OW32641   3.973   4.077   7.689 -0.1409 -0.1118 -0.2731
 7002SOL    HW132642   4.017   4.093   7.772 -1.1777  2.4581 -0.2221
 7002SOL    HW232643   4.020   4.143   7.637 -1.0711 -0.5181 -1.6495
 7003SOL     OW32644   3.578   2.863   6.592  0.3343 -0.2403  0.6954
 7003SOL    HW132645   3.529   2.934   6.635 -2.6959 -2.0348  0.1507
 7003SOL    HW232646   3.556   2.868   6.499  0.2440  1.1384  0.7837
 7004SOL     OW32647   0.131   1.947   6.828 -0.1159  0.1776  0.1464
 7004SOL    HW132648   0.044   1.940   6.788 -1.0999  1.3477  2.0642
 7004SOL    HW232649   0.162   1.857   6.833  2.6214  1.0242 -1.3524
 7005SOL     OW32650   0.158   3.115   6.714  0.1018  0.1665 -0.1276
 7005SOL    HW132651   0.097   3.124   6.787 -0.2723  1.6655 -0.6248
 7005SOL    HW232652   0.229   3.068   6.758 -1.8098 -1.3698  1.2574
 7006SOL     OW32653   0.029   0.899   3.150  0.0998 -0.0669  0.5402
 7006SOL    HW132654   0.120   0.926   3.137  0.2760 -0.1518  1.5616
 7006SOL    HW232655   0.006   0.955   3.224 -1.5762  0.6156 -0.4981
 7007SOL     OW32656   0.324   0.618   5.712  0.2568  0.4063 -0.0434
 7007SOL    HW132657   0.365   0.645   5.630 -1.6629  1.3263 -0.6887
 7007SOL    HW232658   0.295   0.705   5.738  1.7481  0.9894 -0.3358
 7008SOL     OW32659   4.385   0.457   6.916 -0.1074  0.4374 -0.3638
 7008SOL    HW132660   4.408   0.420   7.001 -0.2213  0.4555 -0.3245
 7008SOL    HW232661   4.414   0.548   6.914 -1.8451  0.9966 -0.5313
 7009SOL     OW32662   4.640   0.711   8.984 -0.4466 -0.2527 -0.6841
 7009SOL    HW132663   4.599   0.663   9.056  0.0739 -0.5818 -0.6038
 7009SOL    HW232664   4.649   0.798   9.023  0.4787 -0.7500  0.2137
 7010SOL     OW32665   0.462   4.717   4.958 -0.0104  0.4397 -0.1491
 7010SOL    HW132666   0.532   0.046   4.962 -0.3880  0.8623 -0.3556
 7010SOL    HW232667   0.500   4.638   4.997  1.7864  0.9103 -1.0005
 7011SOL     OW32668   0.688   4.735   7.566  0.3195  0.1285  0.3485
 7011SOL    HW132669   0.593   4.736   7.554  0.5728 -2.2000 -1.7838
 7011SOL    HW232670   0.705   4.727   7.472  0.6328  2.0274  0.2488
 7012SOL     OW32671   0.978   0.307   9.746  0.3193  0.2033 -0.2409
 7012SOL    HW132672   0.898   0.325   9.697 -0.8948 -0.4305  1.5041
 7012SOL    HW232673   0.970   0.375   9.814 -0.2898 -0.3180  0.2022
 7013SOL     OW32674   4.107   4.412  11.056  0.3733  0.1757 -0.4156
 7013SOL    HW132675   4.119   4.394  11.149  2.1279  1.6935 -0.3415
 7013SOL    HW232676   4.087   4.506  11.062  2.9625  0.8049 -1.7651
 7014SOL     OW32677   0.471   3.643   3.798  0.9852 -0.8864 -0.1360
 7014SOL    HW132678   0.511   3.659   3.712 -1.2341  1.4563 -0.7207
 7014SOL    HW232679   0.379   3.669   3.789  0.9715 -0.3651  1.6542
 7015SOL     OW32680   0.269   1.124   7.578 -0.4452 -0.2721  0.3534
 7015SOL    HW132681   0.195   1.068   7.600 -0.6256  0.2094  0.9924
 7015SOL    HW232682   0.325   1.068   7.525 -0.8762 -1.0766  0.7381
 7016SOL     OW32683   0.384   4.704   2.310 -0.0304 -0.3002  0.0615
 7016SOL    HW132684   0.437   0.042   2.337 -0.1828 -0.3627  0.5360
 7016SOL    HW232685   0.439   4.627   2.321 -1.0067 -1.1001 -0.6318
 7017SOL     OW32686   2.495   1.440   4.551 -0.4803 -0.3105  0.3396
 7017SOL    HW132687   2.519   1.443   4.644  1.7158 -2.0593 -0.1823
 7017SOL    HW232688   2.529   1.522   4.515 -4.1914  0.4985 -1.3533
 7018SOL     OW32689   2.453   3.160  11.678  0.0111  0.4564  0.5280
 7018SOL    HW132690   2.467   3.244  11.634  0.9823 -1.0348 -1.9946
 7018SOL    HW232691   2.505   3.177  11.756  1.0058 -0.2208  0.0057
 7019SOL     OW32692   1.773   0.497   6.077  0.2327 -0.3602 -0.5207
 7019SOL    HW132693   1.756   0.405   6.056  1.1132 -0.8840  1.0480
 7019SOL    HW232694   1.841   0.518   6.013  1.2960  0.9037  1.0380
 7020SOL     OW32695   2.364   2.934   3.579  0.0273 -0.2842 -0.5056
 7020SOL    HW132696   2.357   2.996   3.507 -0.9105 -0.1150 -0.2674
 7020SOL    HW232697   2.322   2.976   3.654  1.0708  0.4480 -0.3315
 7021SOL     OW32698   0.477   0.525   8.520 -0.2062  0.4193 -0.4387
 7021SOL    HW132699   0.470   0.556   8.429  3.3899 -0.6218 -1.0599
 7021SOL    HW232700   0.517   0.595   8.571 -0.2878 -0.5405  0.9375
 7022SOL     OW32701   2.989   2.031  10.002 -0.1119 -0.3202  0.4185
 7022SOL    HW132702   2.957   2.025  10.092  0.7412  1.1755  0.8167
 7022SOL    HW232703   3.080   2.004  10.015  0.1337  0.2858 -0.0749
 7023SOL     OW32704   1.328   1.276  16.747  0.5030  0.3728  0.1189
 7023SOL    HW132705   1.271   1.209  16.785  1.7486 -0.8890 -0.2330
 7023SOL    HW232706   1.375   1.300  16.828  0.5484  1.2778 -0.1718
 7024SOL     OW32707   0.997   4.031   8.052  0.2933 -0.4047 -0.1870
 7024SOL    HW132708   1.065   4.097   8.049 -0.9101  0.7538 -1.7120
 7024SOL    HW232709   1.046   3.960   8.095 -1.0474 -1.3660 -0.2534
 7025SOL     OW32710   0.091   1.247   9.096  0.2258 -0.0429 -0.2654
 7025SOL    HW132711   0.051   1.170   9.056 -1.5804 -0.6913  2.8395
 7025SOL    HW232712   0.010   1.295   9.111  0.7826  0.9591 -0.4502
 7026SOL     OW32713   4.293   0.928   6.278 -0.3725 -0.6682 -0.5407
 7026SOL    HW132714   4.386   0.946   6.291 -0.4547 -0.2699 -0.5077
 7026SOL    HW232715   4.297   0.832   6.282  2.9838 -0.5129 -0.5975
 7027SOL     OW32716   1.457   0.060   6.628 -0.7046  0.4470  0.1734
 7027SOL    HW132717   1.431   0.105   6.708  0.5194 -1.6199  1.7504
 7027SOL    HW232718   1.543   0.027   6.654 -0.0292  3.4646  1.6384
 7028SOL     OW32719   1.107   1.276   8.987 -0.3721 -0.4666  0.1869
 7028SOL    HW132720   1.026   1.288   9.035  0.8388 -1.2301  2.4078
 7028SOL    HW232721   1.086   1.337   8.916  0.4128 -0.5907 -0.1585
 7029SOL     OW32722   1.571   3.658  14.075 -0.6885  0.0998 -0.3655
 7029SOL    HW132723   1.533   3.571  14.079  1.2954 -0.7102  1.3998
 7029SOL    HW232724   1.645   3.646  14.136 -2.0247 -1.2310  0.9887
 7030SOL     OW32725   3.066   1.072  17.656  0.5006 -0.4307  0.6574
 7030SOL    HW132726   3.032   1.153  17.617  0.8767 -0.4583  0.2712
 7030SOL    HW232727   3.106   1.041  17.575 -0.6426  0.5986 -0.3056
 7031SOL     OW32728   3.807   4.120   8.059  0.7347 -0.2457 -0.1247
 7031SOL    HW132729   3.893   4.140   8.022  0.2168  2.0310 -0.0636
 7031SOL    HW232730   3.760   4.184   8.006  1.3642  1.3112  1.1925
 7032SOL     OW32731   1.112   0.505   9.049  0.6322  0.1720  0.0135
 7032SOL    HW132732   1.138   0.592   9.018 -0.9729  0.2189 -1.1841
 7032SOL    HW232733   1.020   0.519   9.030  1.1040 -1.2546 -3.2517
 7033SOL     OW32734   0.771   4.224  15.602  0.1309 -0.4617  0.4076
 7033SOL    HW132735   0.695   4.203  15.549 -0.6493 -0.3626  1.4955
 7033SOL    HW232736   0.827   4.263  15.534 -1.5822  1.9230  0.3609
 7034SOL     OW32737   2.081   4.031   2.333  0.8655 -0.5611  0.6921
 7034SOL    HW132738   2.020   4.054   2.263  2.3182  0.8664 -0.1348
 7034SOL    HW232739   2.020   3.973   2.377 -1.2702  1.2073  0.0234
 7035SOL     OW32740   2.649   2.784   3.884  0.4444 -0.0565 -0.3847
 7035SOL    HW132741   2.588   2.724   3.841 -3.0450  2.4074  1.1722
 7035SOL    HW232742   2.588   2.839   3.933  0.9439  0.9862 -0.9382
 7036SOL     OW32743   4.450   1.958  13.986 -0.8166  0.4226 -0.4497
 7036SOL    HW132744   4.409   1.908  14.057 -0.6867  3.5989  1.9128
 7036SOL    HW232745   4.495   1.892  13.934 -0.8026 -0.1707  0.3183
 7037SOL     OW32746   0.347   4.111  13.684  0.6517 -0.2134  0.1940
 7037SOL    HW132747   0.416   4.161  13.639  1.2874  0.3957  1.8315
 7037SOL    HW232748   0.323   4.164  13.760 -3.1045 -0.9543 -0.5027
 7038SOL     OW32749   3.827   4.123   5.396  0.1450 -0.2853 -0.4397
 7038SOL    HW132750   3.734   4.114   5.418 -0.2830  1.1426 -1.6267
 7038SOL    HW232751   3.833   4.219   5.394 -3.0597 -0.0544  2.0383
 7039SOL     OW32752   4.425   2.696   7.698 -0.4209 -0.8356  0.2882
 7039SOL    HW132753   4.388   2.783   7.713 -2.1545 -1.3642 -0.8527
 7039SOL    HW232754   4.344   2.645   7.705 -1.8006  1.2534 -0.4016
 7040SOL     OW32755   4.423   3.276   8.117  0.2155  0.1662 -0.1452
 7040SOL    HW132756   4.398   3.359   8.077 -0.0989  1.9214  3.6850
 7040SOL    HW232757   4.335   3.239   8.130  0.8528 -0.5900  1.8903
 7041SOL     OW32758   2.717   0.270   2.742  0.0765  0.0565 -0.0994
 7041SOL    HW132759   2.810   0.250   2.733 -0.3760 -2.1822  0.1245
 7041SOL    HW232760   2.706   0.230   2.828 -1.5081  1.7046  0.4552
 7042SOL     OW32761   2.902   4.620   2.580 -0.5081 -0.2967 -0.5744
 7042SOL    HW132762   2.974   4.556   2.589  1.2203  1.8944  1.1160
 7042SOL    HW232763   2.832   4.578   2.531 -2.1277  1.4319  0.2844
 7043SOL     OW32764   0.671   1.809   4.533  0.1496 -0.2291 -0.0292
 7043SOL    HW132765   0.658   1.725   4.487 -0.2264  1.3710 -2.8388
 7043SOL    HW232766   0.579   1.826   4.555  0.0112  2.5685 -2.8404
 7044SOL     OW32767   2.227   4.474   0.697 -0.5232  0.7549  0.2546
 7044SOL    HW132768   2.238   4.393   0.648  0.4675  0.1936  1.3978
 7044SOL    HW232769   2.320   4.486   0.718 -0.5776  1.7106 -0.0674
 7045SOL     OW32770   4.360   0.673   6.265  0.4458  0.1574  0.5443
 7045SOL    HW132771   4.425   0.687   6.334 -0.6933  2.0385  1.2291
 7045SOL    HW232772   4.395   0.596   6.220  1.0396  0.1116  1.0755
 7046SOL     OW32773   4.079   3.572  14.783  0.2989 -0.1471  0.1331
 7046SOL    HW132774   3.998   3.606  14.744  0.8024  1.9023  0.8752
 7046SOL    HW232775   4.088   3.482  14.750 -1.7577 -0.7247  1.1314
 7047SOL     OW32776   4.153   1.829   6.926 -0.3773 -0.0292 -0.3133
 7047SOL    HW132777   4.162   1.746   6.879 -0.2632 -0.7522  0.9981
 7047SOL    HW232778   4.061   1.849   6.909 -0.5281  0.3500  0.9478
 7048SOL     OW32779   2.746   2.136   4.094  0.1531 -0.5647 -0.2131
 7048SOL    HW132780   2.775   2.142   4.185 -0.2041  0.5422 -0.1704
 7048SOL    HW232781   2.734   2.042   4.082  0.2619 -0.4698 -1.1129
 7049SOL     OW32782   1.809   0.375   5.219 -0.3422 -0.0230  0.2660
 7049SOL    HW132783   1.795   0.294   5.170  3.4707 -0.2375 -0.5149
 7049SOL    HW232784   1.739   0.431   5.185 -0.1547  1.2148  1.9159
 7050SOL     OW32785   2.931   0.379  16.931  0.2564 -0.0716  0.0720
 7050SOL    HW132786   2.956   0.411  16.845  0.8376  2.8027  1.3227
 7050SOL    HW232787   2.855   0.433  16.953  0.0770 -1.2209  2.3365
 7051SOL     OW32788   4.345   3.191  14.665  0.1357  0.4413  0.4268
 7051SOL    HW132789   4.307   3.122  14.720  0.1721  1.1069  1.2859
 7051SOL    HW232790   4.437   3.166  14.659  0.0222  0.6759 -2.0977
 7052SOL     OW32791   3.796   3.836   7.055  0.4878  0.1373  0.3820
 7052SOL    HW132792   3.831   3.775   7.120  0.3439 -0.6895 -0.3154
 7052SOL    HW232793   3.764   3.769   6.995  1.1469  0.3630 -0.2087
 7053SOL     OW32794   1.788   3.455  12.251  0.4548 -0.2622 -0.1230
 7053SOL    HW132795   1.743   3.478  12.333  0.1028 -0.0046 -0.3893
 7053SOL    HW232796   1.740   3.380  12.217 -0.7819 -0.0388  1.1184
 7054SOL     OW32797   3.983   2.864   1.003 -0.0029 -0.2810  1.1268
 7054SOL    HW132798   3.978   2.841   0.911  0.0625  1.6603  0.6374
 7054SOL    HW232799   3.891   2.852   1.025 -0.4685  0.3822 -0.4624
 7055SOL     OW32800   3.011   3.440   7.499  0.0641  0.3734  0.1069
 7055SOL    HW132801   3.009   3.345   7.513  1.2109  0.5421  1.4110
 7055SOL    HW232802   2.922   3.477   7.505  0.6097  1.4705  1.3238
 7056SOL     OW32803   1.635   3.239  16.905  0.0792  0.5026 -0.4362
 7056SOL    HW132804   1.548   3.252  16.943  1.2967  1.0646  2.1850
 7056SOL    HW232805   1.633   3.145  16.890  2.2571  0.2362  0.9869
 7057SOL     OW32806   2.410   2.746   0.295  0.2443 -0.2119 -0.3479
 7057SOL    HW132807   2.400   2.795   0.377 -0.3701 -0.9223  0.0048
 7057SOL    HW232808   2.400   2.824   0.241  0.8405  0.3603  0.3729
 7058SOL     OW32809   0.319   3.301  15.688  0.3873  0.4398 -0.3875
 7058SOL    HW132810   0.267   3.243  15.744  0.6872 -0.4609 -1.0420
 7058SOL    HW232811   0.327   3.367  15.756  0.8945 -2.7835  2.7057
 7059SOL     OW32812   4.613   3.019   3.736 -0.0496  0.0657 -0.3228
 7059SOL    HW132813   4.670   2.950   3.701  0.3499 -0.1033  0.6864
 7059SOL    HW232814   4.545   3.029   3.669 -1.5743  1.1932  1.4108
 7060SOL     OW32815   4.003   2.766   3.490  0.3008 -0.3815  0.4338
 7060SOL    HW132816   3.990   2.808   3.405  1.3264 -0.5332  0.2083
 7060SOL    HW232817   3.922   2.786   3.536  0.4744  0.5089  0.3609
 7061SOL     OW32818   4.350   3.638   6.637 -0.4736 -0.4490 -0.1944
 7061SOL    HW132819   4.436   3.664   6.670  0.2868 -1.9973 -1.0249
 7061SOL    HW232820   4.302   3.670   6.714  1.8649  3.4670 -0.3501
 7062SOL     OW32821   2.569   2.116   3.145  0.4664 -0.6441  0.2014
 7062SOL    HW132822   2.568   2.042   3.084  0.1195  0.6350 -1.3277
 7062SOL    HW232823   2.583   2.192   3.088  0.2363 -0.1242  0.8336
 7063SOL     OW32824   0.552   3.189   2.431 -0.0747  0.2551 -0.2373
 7063SOL    HW132825   0.635   3.142   2.420  0.1975  0.1793  2.0237
 7063SOL    HW232826   0.492   3.125   2.392 -2.5301  2.8060 -0.6597
 7064SOL     OW32827   0.171   0.695  12.198  0.3671 -0.1936 -0.2120
 7064SOL    HW132828   0.158   0.765  12.262 -0.5793 -0.6923  0.1472
 7064SOL    HW232829   0.192   0.617  12.249 -0.6120  0.9952  2.0145
 7065SOL     OW32830   0.669   0.681   7.037 -0.5510  0.2850 -0.6461
 7065SOL    HW132831   0.693   0.604   6.985 -1.3996 -1.2061  1.1624
 7065SOL    HW232832   0.737   0.686   7.104  0.3320  0.0523 -1.5363
 7066SOL     OW32833   1.154   0.427  13.747 -0.4001 -0.1583  0.3169
 7066SOL    HW132834   1.209   0.355  13.777  1.4556  0.5326 -1.3545
 7066SOL    HW232835   1.206   0.499  13.783  2.0807 -2.5351  1.4346
 7067SOL     OW32836   0.954   1.664   4.434  0.1401 -0.1505 -0.1742
 7067SOL    HW132837   1.038   1.666   4.388  0.8108 -0.4640  1.0145
 7067SOL    HW232838   0.883   1.663   4.370 -0.8346  0.8921  0.8803
 7068SOL     OW32839   3.039   3.211  16.654  0.6014  0.4957  0.2522
 7068SOL    HW132840   3.041   3.160  16.735  2.4133 -1.3800 -0.9878
 7068SOL    HW232841   3.114   3.184  16.602 -0.4818 -0.8369 -0.6175
 7069SOL     OW32842   2.226   4.109   2.085  0.3002 -0.5832  0.3928
 7069SOL    HW132843   2.182   4.095   2.169  3.2678 -0.1683  2.0213
 7069SOL    HW232844   2.306   4.056   2.092  1.0246  0.1971 -2.1540
 7070SOL     OW32845   0.170   3.714   8.976 -0.0820 -0.3500 -0.5522
 7070SOL    HW132846   0.105   3.737   9.042  0.9010 -2.5781  1.2140
 7070SOL    HW232847   0.233   3.776   9.013 -1.0260  0.6339 -0.5945
 7071SOL     OW32848   2.053   2.297   1.362 -0.4910 -0.6116  0.2358
 7071SOL    HW132849   1.978   2.319   1.416 -0.0892 -0.6962  0.8248
 7071SOL    HW232850   2.054   2.376   1.308  0.6492  1.1969  2.9147
 7072SOL     OW32851   4.213   0.773  15.551 -0.1334  0.3105 -0.5666
 7072SOL    HW132852   4.245   0.795  15.464  1.4500  1.6614  0.3475
 7072SOL    HW232853   4.287   0.719  15.578 -0.4448 -0.3795 -1.0858
 7073SOL     OW32854   0.666   2.943   6.987 -0.1711 -0.0785 -0.3235
 7073SOL    HW132855   0.694   3.023   7.032 -1.6704  0.9909 -1.2889
 7073SOL    HW232856   0.745   2.903   6.950  0.9032  0.8012  1.0090
 7074SOL     OW32857   0.073   2.086   2.445  0.2548  0.1297  0.2045
 7074SOL    HW132858   0.066   2.079   2.350 -0.7926 -0.0073  0.2928
 7074SOL    HW232859   0.124   2.007   2.465  0.8162  0.6385  0.7759
 7075SOL     OW32860   3.358   3.205   3.866 -0.0580  0.0029  0.2288
 7075SOL    HW132861   3.309   3.276   3.824  1.1962 -0.8282 -2.6187
 7075SOL    HW232862   3.365   3.138   3.798 -0.5142  1.9008 -1.7265
 7076SOL     OW32863   1.028   1.989   8.062  0.5443  0.2255 -0.9668
 7076SOL    HW132864   0.978   1.912   8.036  0.7878 -0.4433  0.5281
 7076SOL    HW232865   1.029   1.990   8.158 -0.2424 -0.5689 -0.9593
 7077SOL     OW32866   2.783   0.600  17.017 -0.1936  0.2378  0.3321
 7077SOL    HW132867   2.796   0.686  16.976  0.6623  0.1708  0.4705
 7077SOL    HW232868   2.799   0.611  17.111 -0.6012  2.1996  0.1678
 7078SOL     OW32869   3.687   1.029   8.046 -0.2194 -0.1455 -0.0665
 7078SOL    HW132870   3.678   1.108   8.099  1.4368 -0.7518  1.1160
 7078SOL    HW232871   3.708   0.969   8.118 -1.0028 -1.8851 -1.2793
 7079SOL     OW32872   4.182   0.226  10.284 -0.2849 -0.4039  0.0245
 7079SOL    HW132873   4.093   0.193  10.277 -0.0430 -0.6910 -1.6577
 7079SOL    HW232874   4.222   0.181  10.358 -3.0178 -1.8685  0.5949
 7080SOL     OW32875   0.248   0.432   3.632  0.2917 -0.3199 -0.4093
 7080SOL    HW132876   0.280   0.371   3.566 -1.5809 -0.6791 -0.9690
 7080SOL    HW232877   0.237   0.377   3.710  1.8130  0.8550  0.6512
 7081SOL     OW32878   4.074   2.105   3.996 -0.5070  0.4336 -0.4088
 7081SOL    HW132879   4.023   2.024   3.990 -0.2698  0.1191  1.7909
 7081SOL    HW232880   4.049   2.163   3.924  0.3710 -0.8248 -1.7451
 7082SOL     OW32881   1.593   3.447   0.598 -0.8631  0.0447  0.4476
 7082SOL    HW132882   1.503   3.468   0.572 -1.2003 -1.5282  0.3084
 7082SOL    HW232883   1.636   3.532   0.597  1.0692 -0.9819 -1.2479
 7083SOL     OW32884   0.434   2.326   9.215  0.6478  0.3299  0.0285
 7083SOL    HW132885   0.443   2.385   9.140  0.8861 -1.8809 -1.6810
 7083SOL    HW232886   0.469   2.386   9.281 -0.3325  0.6077  0.2995
 7084SOL     OW32887   4.486   4.169   2.512 -0.0099  0.4397  0.6114
 7084SOL    HW132888   4.571   4.210   2.495  0.2957 -0.7300 -0.7126
 7084SOL    HW232889   4.522   4.081   2.520 -1.8691 -0.3882 -0.2856
 7085SOL     OW32890   4.557   3.823   5.141 -0.2418  1.0236  0.3062
 7085SOL    HW132891   4.528   3.883   5.209 -2.2214  0.3044  0.0735
 7085SOL    HW232892   4.475   3.787   5.109 -1.1489  2.0558  1.5126
 7086SOL     OW32893   1.811   0.381   7.394  0.1584 -0.1325 -0.9058
 7086SOL    HW132894   1.741   0.427   7.441  0.4762  0.1751 -0.7391
 7086SOL    HW232895   1.875   0.451   7.406  0.5100 -0.1302 -2.7846
 7087SOL     OW32896   1.072   4.462  11.760 -0.2751 -0.6132  0.0113
 7087SOL    HW132897   1.131   4.503  11.698  3.0652 -3.5254  1.2685
 7087SOL    HW232898   1.119   4.468  11.843  0.8304 -1.1669 -0.5741
 7088SOL     OW32899   0.545   0.393   7.318 -0.3497 -0.0597  0.5254
 7088SOL    HW132900   0.484   0.324   7.290  0.6266 -0.1279 -1.4314
 7088SOL    HW232901   0.633   0.356   7.313 -0.3846 -0.2086  1.0185
 7089SOL     OW32902   3.611   4.269   4.355  0.3243 -0.1707 -0.2602
 7089SOL    HW132903   3.679   4.297   4.293  0.4992  2.0617  0.9554
 7089SOL    HW232904   3.590   4.348   4.404 -1.5480  0.3477 -1.9177
 7090SOL     OW32905   0.958   0.831   5.391  0.6264  0.1055  0.2416
 7090SOL    HW132906   1.035   0.794   5.434 -0.1400 -1.5758  0.1505
 7090SOL    HW232907   0.891   0.838   5.459  0.6893 -1.0372  0.4204
 7091SOL     OW32908   3.069   0.059  17.470  0.1238 -0.1542 -0.2686
 7091SOL    HW132909   3.042   0.115  17.544 -0.4746 -1.6270  0.6359
 7091SOL    HW232910   3.100   4.725  17.526 -0.8070 -0.0356  0.4008
 7092SOL     OW32911   0.208   3.643   5.633  0.3694 -0.4586  0.0659
 7092SOL    HW132912   0.234   3.606   5.549  0.2385 -0.7647  0.1594
 7092SOL    HW232913   0.239   3.578   5.696  1.7005  0.8232  0.7345
 7093SOL     OW32914   3.675   2.371   8.783  0.3136  0.2132  0.1269
 7093SOL    HW132915   3.647   2.279   8.782 -1.2762  0.7141 -0.6884
 7093SOL    HW232916   3.627   2.396   8.705  2.6799  0.6836 -1.1740
 7094SOL     OW32917   2.388   0.591   3.626  0.2886  0.1700  0.0218
 7094SOL    HW132918   2.370   0.628   3.540 -3.3422 -0.0610  0.6811
 7094SOL    HW232919   2.432   0.511   3.597  2.2626  0.6370  1.7199
 7095SOL     OW32920   3.493   3.227   5.577 -0.3097 -0.3279 -0.0336
 7095SOL    HW132921   3.577   3.184   5.591  0.1074  1.0929  1.7720
 7095SOL    HW232922   3.501   3.215   5.482  1.6762  0.6638  0.0166
 7096SOL     OW32923   1.343   0.490  11.278 -0.2870 -0.1299 -0.9631
 7096SOL    HW132924   1.408   0.442  11.331  1.7015  0.8261 -2.5760
 7096SOL    HW232925   1.335   0.433  11.201  1.6838 -1.5089 -0.1603
 7097SOL     OW32926   4.635   0.164  15.654 -0.4270 -0.3538 -0.0984
 7097SOL    HW132927   4.689   0.228  15.699  2.9808 -2.9539 -0.4723
 7097SOL    HW232928   4.543   0.184  15.670 -0.2510 -0.2427  0.7650
 7098SOL     OW32929   2.591   2.739   2.056 -0.3916 -0.3481 -0.3861
 7098SOL    HW132930   2.668   2.717   2.004 -0.6372  0.7032 -1.2123
 7098SOL    HW232931   2.586   2.666   2.118  1.4897 -0.1804 -0.0462
 7099SOL     OW32932   1.218   0.766   2.763 -0.5403 -0.0730 -0.0633
 7099SOL    HW132933   1.234   0.854   2.730  3.1083 -0.8099 -0.2064
 7099SOL    HW232934   1.232   0.712   2.686  0.3722  0.6367 -0.3966
 7100SOL     OW32935   4.509   3.440   6.912  0.1192  1.0485 -0.1736
 7100SOL    HW132936   4.436   3.396   6.868 -1.3392  1.1588  2.1154
 7100SOL    HW232937   4.535   3.492   6.836  1.1498  0.9571  0.1232
 7101SOL     OW32938   4.402   3.447   9.037 -0.1412  0.1603  0.5335
 7101SOL    HW132939   4.417   3.383   8.966 -1.3457  0.1366  0.3001
 7101SOL    HW232940   4.486   3.450   9.082 -0.5177 -0.7862  1.2990
 7102SOL     OW32941   2.524   1.727   5.968 -0.2228  0.1931 -0.1565
 7102SOL    HW132942   2.612   1.704   5.998  0.1733  0.9511 -0.7602
 7102SOL    HW232943   2.478   1.650   6.002 -2.5621  1.3367 -0.7391
 7103SOL     OW32944   2.616   1.491   6.817 -0.5978 -0.2431  0.2342
 7103SOL    HW132945   2.681   1.430   6.783 -0.2404 -1.1795  2.5740
 7103SOL    HW232946   2.612   1.562   6.754  0.2690 -0.8024 -0.4568
 7104SOL     OW32947   1.139   0.676   5.155  0.5688  0.5237 -0.0917
 7104SOL    HW132948   1.170   0.731   5.226 -1.2821  1.2024  0.1955
 7104SOL    HW232949   1.113   0.738   5.087 -1.3254 -0.7023 -0.5030
 7105SOL     OW32950   0.100   3.423  14.572  0.3271 -0.0719  0.4296
 7105SOL    HW132951   0.007   3.444  14.568  0.0821 -1.4036 -0.5805
 7105SOL    HW232952   0.113   3.406  14.479 -1.6560  0.1354  0.1265
 7106SOL     OW32953   4.297   2.835  12.796 -0.1559  0.0329  0.1381
 7106SOL    HW132954   4.392   2.837  12.783 -0.4718  1.1739 -1.9635
 7106SOL    HW232955   4.266   2.901  12.734 -0.0092 -1.4424 -1.4891
 7107SOL     OW32956   0.478   1.161  16.612  0.3080  0.4675  0.1511
 7107SOL    HW132957   0.472   1.071  16.644  0.0543  0.4593  0.0833
 7107SOL    HW232958   0.387   1.188  16.597  0.8256  3.4029  2.2710
 7108SOL     OW32959   0.094   2.797   2.771  0.2206  0.1085  0.8701
 7108SOL    HW132960   0.027   2.796   2.840 -0.0048 -1.0146  0.6434
 7108SOL    HW232961   0.169   2.762   2.819  1.8281  2.4835  0.0525
 7109SOL     OW32962   4.187   4.647  12.725 -0.0442 -0.2992 -0.1754
 7109SOL    HW132963   4.196   0.005  12.732 -0.5056 -0.3402  1.1234
 7109SOL    HW232964   4.272   4.619  12.692  0.2421  0.0122  0.2996
 7110SOL     OW32965   3.639   0.968   2.459  0.0636  0.0214 -0.0246
 7110SOL    HW132966   3.727   0.978   2.497 -0.7952  0.2350  1.9166
 7110SOL    HW232967   3.646   0.876   2.435  1.1410  0.4624 -1.4427
 7111SOL     OW32968   4.381   1.766   4.134 -0.1176  0.1001 -0.3056
 7111SOL    HW132969   4.348   1.689   4.180  0.4207 -1.8884 -3.2480
 7111SOL    HW232970   4.455   1.735   4.082  2.3944  2.9046  1.6405
 7112SOL     OW32971   0.053   0.894  12.038 -0.2817  0.2883 -0.3634
 7112SOL    HW132972   0.050   0.958  12.109  1.2315  0.0292 -0.0758
 7112SOL    HW232973   0.097   0.821  12.081 -0.5644  0.7754  0.7405
 7113SOL     OW32974   2.877   0.906   4.224  0.0334  0.6182 -0.0946
 7113SOL    HW132975   2.948   0.874   4.169 -1.4819 -1.4519 -0.8547
 7113SOL    HW232976   2.801   0.857   4.192  0.1019  0.6168 -0.2537
 7114SOL     OW32977   3.599   4.478   6.876  1.0044 -0.0878 -0.2403
 7114SOL    HW132978   3.637   4.549   6.825  0.7239 -0.0056 -0.3391
 7114SOL    HW232979   3.551   4.524   6.945  0.0104  0.0950 -1.0424
 7115SOL     OW32980   3.701   0.095   8.045 -0.3542 -0.3967 -0.1363
 7115SOL    HW132981   3.629   0.054   8.092  0.0288  0.3251  1.0841
 7115SOL    HW232982   3.659   0.168   8.001  1.4893  0.8714  0.2150
 7116SOL     OW32983   1.532   3.127   1.073  0.5790 -0.1920  0.2444
 7116SOL    HW132984   1.626   3.141   1.070  0.6529 -1.2108 -1.9660
 7116SOL    HW232985   1.506   3.041   1.040  0.8352  0.2453 -1.0913
 7117SOL     OW32986   2.555   3.962  13.052 -0.5025 -0.1305  0.8067
 7117SOL    HW132987   2.548   4.042  13.104 -1.2249 -1.2557  2.4350
 7117SOL    HW232988   2.495   3.893  13.081  0.4219 -0.1501  2.6793
 7118SOL     OW32989   1.891   3.541   9.867 -0.0649 -0.5867 -0.5810
 7118SOL    HW132990   1.867   3.523   9.958  0.8925 -0.5269 -0.3181
 7118SOL    HW232991   1.821   3.499   9.817 -1.7815  0.5062  0.8937
 7119SOL     OW32992   0.963   3.936   3.698  0.3964 -0.2288 -0.1606
 7119SOL    HW132993   0.929   3.854   3.661  0.7535  0.6262 -2.3849
 7119SOL    HW232994   0.891   3.997   3.683  1.6285  0.8780 -1.6174
 7120SOL     OW32995   4.603   0.136  16.611  0.0259  0.3174  0.2518
 7120SOL    HW132996   4.525   0.098  16.652 -1.4195  1.0291 -1.8270
 7120SOL    HW232997   4.588   0.229  16.593  1.2187 -0.1664 -3.0922
 7121SOL     OW32998   1.140   3.236   2.703  0.0803  0.0491  0.5379
 7121SOL    HW132999   1.100   3.297   2.766 -0.4293 -2.2384  2.4539
 7121SOL    HW233000   1.081   3.242   2.628 -1.1080 -3.7077  1.1362
 7122SOL     OW33001   0.517   4.261   5.757 -0.2862 -0.0283  0.0536
 7122SOL    HW133002   0.550   4.179   5.721  1.3633  0.3584  0.7002
 7122SOL    HW233003   0.517   4.231   5.848  0.3774 -1.1084 -0.2934
 7123SOL     OW33004   1.353   3.358   8.923  0.2260 -0.1382  0.0587
 7123SOL    HW133005   1.448   3.357   8.927  0.1794 -1.9753  0.7054
 7123SOL    HW233006   1.335   3.301   8.849  0.5233 -1.1705  0.7749
 7124SOL     OW33007   3.558   0.332   9.326  0.1922 -0.2257  0.7510
 7124SOL    HW133008   3.559   0.339   9.422 -0.2202  0.0459  0.7307
 7124SOL    HW233009   3.565   0.237   9.319  1.4680 -0.0642 -0.1604
 7125SOL     OW33010   1.656   0.505   8.551 -0.3593  0.2173  0.2228
 7125SOL    HW133011   1.677   0.412   8.540  3.2859  1.1156 -0.1725
 7125SOL    HW233012   1.583   0.513   8.613 -0.6364  2.8252 -0.4361
 7126SOL     OW33013   1.239   0.634  10.302  0.0947  0.0604  0.3063
 7126SOL    HW133014   1.167   0.571  10.304  0.3355 -0.2131  0.3488
 7126SOL    HW233015   1.202   0.704  10.356  0.7459  0.8934 -0.3168
 7127SOL     OW33016   0.210   4.585   0.454 -0.0692  0.1607 -0.6081
 7127SOL    HW133017   0.265   4.521   0.408 -1.1622 -0.0010 -1.7038
 7127SOL    HW233018   0.202   4.538   0.537  2.3118  0.0423 -0.4273
 7128SOL     OW33019   4.328   4.641   5.365  0.0993 -0.4491  0.2317
 7128SOL    HW133020   4.355   4.596   5.444  0.6057 -1.2741 -0.4094
 7128SOL    HW233021   4.239   4.657   5.396  0.2734 -0.7350  0.8675
 7129SOL     OW33022   3.135   0.112   4.709 -0.1727  0.1915 -0.0110
 7129SOL    HW133023   3.150   0.025   4.746 -1.6561 -0.3142 -0.5864
 7129SOL    HW233024   3.229   0.130   4.704 -0.4164  1.9629  1.8508
 7130SOL     OW33025   0.198   0.765   2.571 -0.7355  0.0279  0.0011
 7130SOL    HW133026   0.148   0.798   2.497 -1.4355  0.4882  0.6736
 7130SOL    HW233027   0.196   0.835   2.636  1.0581 -1.4328  1.6252
 7131SOL     OW33028   1.072   4.112   5.439 -0.2045  0.1533 -0.0329
 7131SOL    HW133029   1.102   4.083   5.525  1.4271  0.6082 -0.4372
 7131SOL    HW233030   1.019   4.035   5.420 -0.2018  0.3363 -0.8089
 7132SOL     OW33031   4.301   1.157   5.758 -0.0922  0.1846 -0.2018
 7132SOL    HW133032   4.222   1.172   5.706 -1.3479 -0.8674  1.3992
 7132SOL    HW233033   4.332   1.247   5.753 -0.0740  0.2691  1.4503
 7133SOL     OW33034   1.844   3.297   2.808 -0.2730 -0.3532 -0.1891
 7133SOL    HW133035   1.754   3.322   2.785 -0.9544 -2.0086  0.6528
 7133SOL    HW233036   1.885   3.267   2.728 -0.5380  1.0850 -0.8610
 7134SOL     OW33037   1.312   0.502   3.113 -0.0820 -0.0047 -0.0028
 7134SOL    HW133038   1.339   0.576   3.060  0.4881  0.8410  1.4733
 7134SOL    HW233039   1.221   0.505   3.084  0.1647  0.5626 -0.6986
 7135SOL     OW33040   3.540   4.532   9.857 -0.1760  0.1078  0.0918
 7135SOL    HW133041   3.525   4.449   9.812  0.8732 -0.3546  0.6009
 7135SOL    HW233042   3.614   4.568   9.810 -0.6018  0.3250 -0.4170
 7136SOL     OW33043   4.218   3.326   5.447  0.0059 -0.8436  0.0346
 7136SOL    HW133044   4.187   3.294   5.362 -0.3337 -2.3578  0.7375
 7136SOL    HW233045   4.269   3.402   5.418  0.5492 -0.9603  0.7016
 7137SOL     OW33046   2.849   3.722   4.958 -0.8068  0.0586 -0.6821
 7137SOL    HW133047   2.815   3.797   4.911  0.7074  1.3362  0.2400
 7137SOL    HW233048   2.922   3.759   5.007  2.7364 -3.6060 -3.1022
 7138SOL     OW33049   0.472   2.596   8.479 -0.2808  0.1278 -0.1578
 7138SOL    HW133050   0.566   2.592   8.496 -0.0905  0.4066 -1.1109
 7138SOL    HW233051   0.475   2.679   8.431  2.1407  1.4945  2.3071
 7139SOL     OW33052   2.289   4.508  16.359 -0.1564 -0.4756  0.0461
 7139SOL    HW133053   2.353   4.453  16.313  1.4953  0.3877  1.2894
 7139SOL    HW233054   2.209   4.458  16.341 -0.5109  0.9194 -2.2619
 7140SOL     OW33055   4.361   1.943   6.603  0.2179  0.3681 -0.4105
 7140SOL    HW133056   4.411   1.990   6.537  1.2326 -1.4138 -0.9232
 7140SOL    HW233057   4.294   1.908   6.544  0.2109  1.0704 -0.8144
 7141SOL     OW33058   2.900   4.472   3.935 -0.0267 -0.5671  0.4382
 7141SOL    HW133059   2.916   4.386   3.896  0.5587 -0.5222  0.5692
 7141SOL    HW233060   2.932   4.445   4.021  1.2604  0.6413  0.3480
 7142SOL     OW33061   3.888   4.021   2.933  0.1792 -0.2450 -0.2603
 7142SOL    HW133062   3.845   4.036   3.018  0.5043 -0.4478 -0.0590
 7142SOL    HW233063   3.960   4.083   2.947 -1.6819  1.8750 -0.1203
 7143SOL     OW33064   1.760   3.621   6.516 -0.2212  0.3799  0.2674
 7143SOL    HW133065   1.845   3.664   6.513 -0.2727  0.6178  2.0530
 7143SOL    HW233066   1.784   3.546   6.462  1.2044  0.1167  1.2770
 7144SOL     OW33067   1.637   4.312   1.692  0.1370  0.3917  0.3509
 7144SOL    HW133068   1.544   4.325   1.712 -0.2423 -1.8411  0.0380
 7144SOL    HW233069   1.664   4.404   1.688  1.4726 -0.0905 -1.6699
 7145SOL     OW33070   0.863   0.750   4.590 -0.1776 -0.2575 -0.0487
 7145SOL    HW133071   0.879   0.662   4.556  0.2863 -0.3862  0.4906
 7145SOL    HW233072   0.884   0.803   4.513 -0.3599 -1.0439 -0.6428
 7146SOL     OW33073   3.745   3.526   4.949  0.0863  0.1022 -0.0057
 7146SOL    HW133074   3.683   3.569   5.009 -0.6972  0.3127 -0.9642
 7146SOL    HW233075   3.803   3.486   5.013 -0.2173  0.1546  0.3046
 7147SOL     OW33076   2.588   2.868   1.675  0.3358 -0.2538 -0.2293
 7147SOL    HW133077   2.505   2.915   1.671  1.1233  1.0629 -0.8460
 7147SOL    HW233078   2.559   2.778   1.660  2.6002 -1.0491  0.1594
 7148SOL     OW33079   1.881   3.991   1.335 -0.1424 -0.0211  0.3760
 7148SOL    HW133080   1.815   3.979   1.267  1.2319 -1.2620 -0.7256
 7148SOL    HW233081   1.918   4.074   1.306 -0.6375 -0.0407 -0.2996
 7149SOL     OW33082   2.232   3.105   3.385 -0.0092  0.2940  0.1628
 7149SOL    HW133083   2.180   3.185   3.396 -0.2638  0.4074 -1.8215
 7149SOL    HW233084   2.205   3.087   3.295  0.5948  0.5691 -0.0753
 7150SOL     OW33085   3.846   1.265  14.895 -0.7502  0.5649 -0.0685
 7150SOL    HW133086   3.878   1.347  14.934  0.0764  2.1252 -4.0297
 7150SOL    HW233087   3.925   1.221  14.863 -2.4685 -2.2530 -0.4229
 7151SOL     OW33088   0.842   1.663   9.352  0.0099  0.9362  0.1734
 7151SOL    HW133089   0.909   1.689   9.288 -1.7723  1.0166 -1.6557
 7151SOL    HW233090   0.773   1.726   9.330  1.8800  2.3737 -1.5965
 7152SOL     OW33091   2.857   0.418   5.860 -0.2120 -0.4783 -0.7221
 7152SOL    HW133092   2.886   0.329   5.882  1.9912  0.2107 -0.7821
 7152SOL    HW233093   2.765   0.394   5.855 -0.9423  2.0173  0.7223
 7153SOL     OW33094   1.679   0.658   4.376  0.2007  0.2327 -0.0405
 7153SOL    HW133095   1.770   0.628   4.381 -0.1027 -0.8512 -1.2991
 7153SOL    HW233096   1.681   0.745   4.417  0.0370  0.2075  0.0206
 7154SOL     OW33097   4.084   3.644   4.634  0.2750  0.6554 -0.6775
 7154SOL    HW133098   4.050   3.593   4.561  1.4701  1.1869 -1.6047
 7154SOL    HW233099   4.005   3.681   4.672 -0.4490 -1.3926 -0.1790
 7155SOL     OW33100   0.778   4.056   9.878  0.1345  0.1200  0.5935
 7155SOL    HW133101   0.830   4.112   9.936 -0.4218  1.2048  0.0383
 7155SOL    HW233102   0.770   3.987   9.944  2.1586  1.2118  1.9761
 7156SOL     OW33103   3.233   3.541   6.022 -0.4235  0.1377  0.1049
 7156SOL    HW133104   3.252   3.459   5.976  1.5971  1.4358 -1.3791
 7156SOL    HW233105   3.138   3.548   6.020 -0.4490 -0.3458 -0.2334
 7157SOL     OW33106   2.967   2.732   2.521  0.0926  0.6182  0.1605
 7157SOL    HW133107   3.017   2.711   2.600 -0.0112 -0.8421 -0.1702
 7157SOL    HW233108   3.012   2.813   2.495 -2.5951  1.3349 -2.1890
 7158SOL     OW33109   0.757   0.939   6.242 -0.3902  0.4496  0.1101
 7158SOL    HW133110   0.775   0.944   6.336 -2.3171 -0.4150  0.5133
 7158SOL    HW233111   0.725   0.850   6.230 -1.6092  0.6370  2.0305
 7159SOL     OW33112   1.930   1.884   9.419  0.5010  0.3003  0.0868
 7159SOL    HW133113   1.913   1.969   9.460 -0.0069 -0.1745  0.8567
 7159SOL    HW233114   1.865   1.829   9.462  0.5508 -0.4566 -0.7937
 7160SOL     OW33115   4.591   4.699   7.690  0.1943  0.1758  0.0552
 7160SOL    HW133116   4.497   4.703   7.671  0.0369  0.4338  0.9011
 7160SOL    HW233117   4.601   0.028   7.759  1.0757  0.0836  0.0124
 7161SOL     OW33118   1.934   0.188  15.229  0.0901 -0.8395  0.4575
 7161SOL    HW133119   1.867   0.241  15.185  2.2036  1.1794 -0.3520
 7161SOL    HW233120   1.938   0.105  15.181 -0.6230  0.2498 -1.5159
 7162SOL     OW33121   1.283   0.095  15.606 -0.3724  0.8089 -0.0767
 7162SOL    HW133122   1.216   0.030  15.585 -0.5653  0.7856  0.6381
 7162SOL    HW233123   1.353   0.056  15.552 -0.4062  0.1967  0.3273
 7163SOL     OW33124   3.600   0.580  13.955  0.5422 -0.4973  0.0077
 7163SOL    HW133125   3.560   0.625  13.880 -0.6861  0.9760  1.5490
 7163SOL    HW233126   3.526   0.580  14.016  0.4668 -0.0311 -0.0872
 7164SOL     OW33127   3.306   2.368   7.878 -0.4099  0.0681  0.1295
 7164SOL    HW133128   3.255   2.320   7.943 -2.2865  1.9731  0.0710
 7164SOL    HW233129   3.293   2.308   7.804  0.0508 -0.3922  0.4204
 7165SOL     OW33130   0.324   3.575  15.335 -0.0336 -0.5553 -0.1826
 7165SOL    HW133131   0.229   3.584  15.325 -0.2291  0.3692  2.5142
 7165SOL    HW233132   0.325   3.526  15.417 -1.1260  0.0696  0.2039
 7166SOL     OW33133   2.629   4.703   2.881  0.9639 -0.3644 -0.1702
 7166SOL    HW133134   2.564   4.634   2.868 -0.7530  0.9358  1.4720
 7166SOL    HW233135   2.704   4.670   2.831  0.6008 -1.7189  0.1838
 7167SOL     OW33136   4.043   1.282   0.472 -0.1871 -0.2249 -0.5131
 7167SOL    HW133137   4.035   1.317   0.561 -1.0661  0.2515 -0.7838
 7167SOL    HW233138   3.956   1.295   0.435  0.6405 -0.8847 -2.7240
 7168SOL     OW33139   4.233   1.567   9.504 -0.0967 -0.0596 -0.2791
 7168SOL    HW133140   4.236   1.522   9.588 -0.2996  0.5678  0.0594
 7168SOL    HW233141   4.187   1.507   9.446 -0.8740 -0.8621  1.1853
 7169SOL     OW33142   1.030   2.555   7.582  0.0745  0.1584  0.2339
 7169SOL    HW133143   1.049   2.500   7.506 -1.0050 -0.7671  0.6312
 7169SOL    HW233144   0.944   2.593   7.565 -0.3254 -0.6824  0.3592
 7170SOL     OW33145   3.815   0.835   7.360 -0.0073  0.5827 -0.0758
 7170SOL    HW133146   3.898   0.873   7.330  1.0997 -2.0511 -0.3522
 7170SOL    HW233147   3.757   0.883   7.301 -0.8683  0.6585  0.8281
 7171SOL     OW33148   4.422   3.401   7.182  0.1742 -0.0166 -0.0595
 7171SOL    HW133149   4.442   3.408   7.089  2.1153 -1.2556  0.2807
 7171SOL    HW233150   4.364   3.326   7.187 -1.1636  0.9947 -0.2949
 7172SOL     OW33151   1.102   4.067  15.169 -0.2686 -0.0435 -0.4823
 7172SOL    HW133152   1.018   4.034  15.202  0.0144  0.4898  0.7768
 7172SOL    HW233153   1.121   3.997  15.107 -1.8367 -0.4971 -0.4463
 7173SOL     OW33154   2.660   3.441   8.033 -0.0938  0.3191 -0.0371
 7173SOL    HW133155   2.717   3.378   8.077  0.1684  1.8931  1.8891
 7173SOL    HW233156   2.646   3.406   7.945  0.1169  2.3357 -0.8915
 7174SOL     OW33157   1.534   1.196  16.595  0.0509  0.5613 -0.0587
 7174SOL    HW133158   1.458   1.229  16.641 -0.6774 -1.4446  0.1645
 7174SOL    HW233159   1.498   1.109  16.578  2.5985 -0.6156  0.5566
 7175SOL     OW33160   1.818   1.468  11.971 -0.5855  0.0776  1.0130
 7175SOL    HW133161   1.887   1.411  11.936  0.0592  1.4552  0.0387
 7175SOL    HW233162   1.863   1.551  11.955 -3.2855  1.1180 -1.0958
 7176SOL     OW33163   0.851   1.886   7.303 -0.3631 -0.1786 -0.1331
 7176SOL    HW133164   0.818   1.834   7.376 -2.1179  0.1974 -0.6568
 7176SOL    HW233165   0.780   1.872   7.240 -0.1089  0.5066 -0.5758
 7177SOL     OW33166   3.786   4.720   7.657 -0.1834  0.3789 -0.5113
 7177SOL    HW133167   3.870   4.684   7.627 -0.6664  0.2100 -1.6660
 7177SOL    HW233168   3.811   0.059   7.710  1.2006 -0.8823  0.6484
 7178SOL     OW33169   1.978   4.186   6.159 -0.2418 -0.4006  0.1065
 7178SOL    HW133170   2.057   4.212   6.207 -1.5459  2.1702  0.7978
 7178SOL    HW233171   2.016   4.166   6.073 -0.4550 -0.1020 -0.0547
 7179SOL     OW33172   2.983   2.227  13.805  0.2366  0.0868  0.2672
 7179SOL    HW133173   3.005   2.320  13.801 -0.1402  0.0895 -2.0694
 7179SOL    HW233174   2.978   2.195  13.715  2.1470 -1.4560  0.7132
 7180SOL     OW33175   0.066   4.660   9.462 -0.2016 -0.0943  0.0500
 7180SOL    HW133176   0.059   4.721   9.535  1.0155  1.1673 -0.8922
 7180SOL    HW233177   0.009   4.590   9.495 -1.9319  2.0335  1.6197
 7181SOL     OW33178   3.626   4.040  16.500 -0.1047 -0.0348 -0.2221
 7181SOL    HW133179   3.544   3.994  16.516  0.8507 -0.7973  2.4742
 7181SOL    HW233180   3.666   4.043  16.587 -1.9926 -2.7349  0.7439
 7182SOL     OW33181   3.764   2.564   9.263 -0.2583  0.3278  0.1411
 7182SOL    HW133182   3.807   2.504   9.202 -0.7103 -1.2374  1.3906
 7182SOL    HW233183   3.831   2.633   9.270 -0.8680  1.0375 -0.9747
 7183SOL     OW33184   3.047   2.065  17.393 -0.4025  0.2092  0.4423
 7183SOL    HW133185   3.111   2.110  17.448 -0.5726 -0.3477  1.0958
 7183SOL    HW233186   3.019   2.126  17.324 -1.7664 -3.5131 -2.2981
 7184SOL     OW33187   4.011   2.592  13.105  0.4639 -0.2234  0.0251
 7184SOL    HW133188   4.059   2.668  13.071 -1.4814  0.8085 -0.4322
 7184SOL    HW233189   4.071   2.583  13.179 -1.1041 -0.5158  1.2521
 7185SOL     OW33190   4.375   0.663   3.135 -0.5075  0.1757  0.3259
 7185SOL    HW133191   4.354   0.606   3.061  1.2854  0.9193 -0.7499
 7185SOL    HW233192   4.283   0.680   3.157 -0.6430  0.0400 -0.1457
 7186SOL     OW33193   2.196   0.170   4.274  0.3855  0.3126 -0.6276
 7186SOL    HW133194   2.281   0.127   4.273  1.8694  3.2183  0.2693
 7186SOL    HW233195   2.209   0.243   4.213  0.8074 -0.8571 -1.9349
 7187SOL     OW33196   4.702   3.610   7.801 -0.4819  0.1521  0.4338
 7187SOL    HW133197   4.607   3.611   7.786 -0.6391 -0.7314  1.3679
 7187SOL    HW233198   4.702   3.625   7.895 -0.3503 -0.2240  0.4938
 7188SOL     OW33199   3.900   3.105   3.621 -0.1507 -0.4470 -0.2444
 7188SOL    HW133200   3.805   3.113   3.630 -0.0828  1.2534 -1.0248
 7188SOL    HW233201   3.922   3.076   3.710  0.6701 -0.9028 -0.6011
 7189SOL     OW33202   0.899   0.649   7.696 -0.4554  0.1750  0.7548
 7189SOL    HW133203   0.866   0.696   7.619 -0.0711 -2.8523 -1.2557
 7189SOL    HW233204   0.966   0.586   7.668 -2.1554 -0.1228 -2.6545
 7190SOL     OW33205   1.982   4.160  15.894  0.1066 -0.7074 -0.8331
 7190SOL    HW133206   1.956   4.217  15.821 -3.3306 -0.7788  0.3178
 7190SOL    HW233207   2.034   4.093  15.851  0.2394 -0.8263 -0.4850
 7191SOL     OW33208   0.264   4.418   5.785  0.0095  0.0629  0.4278
 7191SOL    HW133209   0.337   4.468   5.750 -1.1831  1.3418 -0.2125
 7191SOL    HW233210   0.300   4.338   5.824 -0.6912 -0.3442  0.2590
 7192SOL     OW33211   3.337   1.491   2.834  0.6040  0.1119  0.3093
 7192SOL    HW133212   3.258   1.528   2.872 -0.2393  1.1678 -2.4900
 7192SOL    HW233213   3.365   1.438   2.909  1.3179 -0.9971 -0.7310
 7193SOL     OW33214   2.847   3.853  13.351 -0.1666  0.2806 -0.5251
 7193SOL    HW133215   2.921   3.903  13.316 -0.8727 -0.3104 -2.8557
 7193SOL    HW233216   2.851   3.774  13.298 -0.1301  0.5200 -0.8787
 7194SOL     OW33217   3.838   2.243   7.874 -0.2336 -0.0261 -0.0909
 7194SOL    HW133218   3.759   2.294   7.891 -0.3811  0.2074 -1.4933
 7194SOL    HW233219   3.834   2.188   7.953  1.7540 -1.6659 -1.1472
 7195SOL     OW33220   1.625   0.502   7.585  0.3252  0.7462  0.4657
 7195SOL    HW133221   1.572   0.565   7.536  1.3424  4.2770  3.8367
 7195SOL    HW233222   1.618   0.531   7.677  0.9483 -1.4456  1.2041
 7196SOL     OW33223   3.929   1.667  12.200  0.0789 -0.0687 -0.0063
 7196SOL    HW133224   3.892   1.597  12.254  0.7264  2.3521  3.5903
 7196SOL    HW233225   4.021   1.643  12.208 -0.2727 -0.8075  1.9480
 7197SOL     OW33226   0.510   3.942   3.110 -0.0604 -0.2031  0.5209
 7197SOL    HW133227   0.484   3.881   3.041  1.6995  0.9498 -1.1711
 7197SOL    HW233228   0.479   3.897   3.188 -0.2957  1.8318  1.5998
 7198SOL     OW33229   1.516   1.531   9.487 -0.3438  0.1244 -0.1545
 7198SOL    HW133230   1.448   1.586   9.448  1.6599  2.0398 -0.9474
 7198SOL    HW233231   1.590   1.569   9.440 -1.0476  2.1165  0.3292
 7199SOL     OW33232   1.257   0.239   8.828  0.0113 -0.3279 -0.1556
 7199SOL    HW133233   1.317   0.165   8.819 -0.6674 -0.8098 -0.6448
 7199SOL    HW233234   1.311   0.308   8.868 -0.6082  1.0700 -1.7323
 7200SOL     OW33235   0.611   2.676   5.093 -0.3166 -0.2860 -0.3680
 7200SOL    HW133236   0.568   2.755   5.061  0.7667  0.4516  0.0106
 7200SOL    HW233237   0.607   2.629   5.010 -1.7660  0.0759 -0.5018
 7201SOL     OW33238   2.773   2.646   6.607  0.0734 -0.1305 -0.0001
 7201SOL    HW133239   2.800   2.699   6.681  1.6689 -0.5603 -0.2898
 7201SOL    HW233240   2.846   2.587   6.589 -0.7381 -0.4969 -2.1376
 7202SOL     OW33241   3.707   2.641   7.142 -0.7651 -0.0478  0.3307
 7202SOL    HW133242   3.642   2.659   7.073  0.8360  0.7513 -0.9503
 7202SOL    HW233243   3.781   2.688   7.104 -1.5025 -0.4665 -1.6504
 7203SOL     OW33244   2.227   4.285   5.374  0.3821 -0.0151 -0.4117
 7203SOL    HW133245   2.181   4.201   5.371 -0.0362  0.2245 -0.8698
 7203SOL    HW233246   2.206   4.315   5.285  0.6126  2.1052  0.2462
 7204SOL     OW33247   2.115   0.371   9.738  0.3820  0.1701 -0.2618
 7204SOL    HW133248   2.160   0.456   9.739 -0.4480  0.6289 -2.9486
 7204SOL    HW233249   2.025   0.401   9.726 -0.6125 -1.3630  3.3039
 7205SOL     OW33250   4.137   2.700   4.048 -0.3009 -0.2912 -0.3740
 7205SOL    HW133251   4.201   2.690   3.978 -0.7688  2.5685 -1.1737
 7205SOL    HW233252   4.189   2.668   4.122 -0.3114  0.6726  0.0451
 7206SOL     OW33253   4.578   2.160  10.587  0.0375 -0.1151 -0.7896
 7206SOL    HW133254   4.666   2.185  10.561 -0.1916  1.1740 -0.3132
 7206SOL    HW233255   4.515   2.154  10.515 -0.2593 -0.7371 -0.4855
 7207SOL     OW33256   3.719   1.888   8.317 -0.0996  0.1952 -0.4140
 7207SOL    HW133257   3.700   1.797   8.340 -2.4562  0.4554 -1.2580
 7207SOL    HW233258   3.657   1.943   8.365 -2.4629 -2.1093 -0.7791
 7208SOL     OW33259   0.000   4.177  12.158  0.1892  0.1683  0.1354
 7208SOL    HW133260   4.681   4.151  12.085 -1.9192  1.7111  1.1912
 7208SOL    HW233261   0.088   4.194  12.124  0.5586  1.9919  1.9650
 7209SOL     OW33262   2.035   3.328   4.981 -0.2799  0.1976 -0.1937
 7209SOL    HW133263   2.093   3.403   4.966  0.1746 -0.2252 -0.5265
 7209SOL    HW233264   1.989   3.354   5.061 -2.4300 -0.3170 -1.2704
 7210SOL     OW33265   2.648   1.106   6.724  0.3437  0.2588  0.3060
 7210SOL    HW133266   2.716   1.160   6.683 -0.4266  0.3188 -0.9018
 7210SOL    HW233267   2.622   1.162   6.797 -2.0317 -0.2857 -0.1018
 7211SOL     OW33268   1.517   2.875   8.050 -0.0684 -0.2637  0.4097
 7211SOL    HW133269   1.450   2.914   7.994  0.0720 -3.0342 -1.6657
 7211SOL    HW233270   1.484   2.898   8.137  0.6538  1.0305  0.3307
 7212SOL     OW33271   4.045   2.141   7.533 -0.0943 -0.1396 -0.0841
 7212SOL    HW133272   4.052   2.117   7.441 -2.0534  1.4348 -0.6628
 7212SOL    HW233273   3.994   2.076   7.581  2.5209 -0.0972  2.7064
 7213SOL     OW33274   1.352   1.244   2.791  0.0741 -0.1671  1.2969
 7213SOL    HW133275   1.298   1.289   2.855  0.5572 -0.2051  1.7341
 7213SOL    HW233276   1.369   1.315   2.729 -0.4070 -1.1346  0.0277
 7214SOL     OW33277   1.747   2.986   8.587  0.0464 -0.3865 -0.0946
 7214SOL    HW133278   1.792   2.981   8.671 -0.2304 -1.5049 -0.0190
 7214SOL    HW233279   1.667   2.943   8.616 -0.6358  1.2407  0.4492
 7215SOL     OW33280   1.364   0.974  14.172  0.1296  0.0209 -0.2577
 7215SOL    HW133281   1.304   1.015  14.110 -0.8625  0.3407  0.9096
 7215SOL    HW233282   1.427   1.046  14.178  0.1019  0.1521 -1.7714
 7216SOL     OW33283   4.083   1.754   7.194  0.1802 -0.2846  0.3707
 7216SOL    HW133284   4.081   1.666   7.157  1.4049  0.0802 -0.5943
 7216SOL    HW233285   4.122   1.804   7.122 -0.0717 -1.0939 -0.3385
 7217SOL     OW33286   1.504   1.512   5.310  0.2149  0.3484  0.4112
 7217SOL    HW133287   1.503   1.417   5.300  1.8890  0.3533  0.1585
 7217SOL    HW233288   1.420   1.521   5.355  0.5218  2.8857  0.4859
 7218SOL     OW33289   3.533   2.934  17.426 -0.3731 -0.4304  0.3948
 7218SOL    HW133290   3.556   2.916  17.516  2.1161 -2.3970 -0.6478
 7218SOL    HW233291   3.476   2.860  17.408  2.1139 -2.2846  0.1664
 7219SOL     OW33292   4.206   2.741   2.939  0.6875 -0.5095  0.0496
 7219SOL    HW133293   4.296   2.775   2.941  1.0711 -1.4837 -1.0427
 7219SOL    HW233294   4.194   2.751   2.845 -1.1874 -2.1369  0.1320
 7220SOL     OW33295   3.041   4.533  13.302  0.0755  0.5498  0.3950
 7220SOL    HW133296   3.068   4.553  13.212 -0.9199 -3.4273 -0.8205
 7220SOL    HW233297   2.999   4.617  13.321  2.0721  2.1502 -2.1990
 7221SOL     OW33298   0.799   2.223   4.810 -0.4164  0.2743 -0.0957
 7221SOL    HW133299   0.709   2.235   4.838 -0.2611 -0.0131  0.5364
 7221SOL    HW233300   0.795   2.249   4.718 -0.5376 -1.2679 -0.5271
 7222SOL     OW33301   1.771   1.363   3.239 -0.2755 -0.4317  0.6298
 7222SOL    HW133302   1.858   1.335   3.267 -0.2563  1.3995  2.4541
 7222SOL    HW233303   1.805   1.416   3.167  2.1899 -1.3648  1.1157
 7223SOL     OW33304   1.925   1.296  11.429 -0.4849 -0.4720 -0.1903
 7223SOL    HW133305   1.993   1.334  11.485  1.6964 -0.3008 -2.9804
 7223SOL    HW233306   1.857   1.364  11.429  0.4986  0.5210  0.8540
 7224SOL     OW33307   3.141   3.474   4.918  0.7273 -0.0131  0.0844
 7224SOL    HW133308   3.132   3.561   4.956 -0.1688  0.8904 -2.1749
 7224SOL    HW233309   3.219   3.478   4.864  0.1458  1.3741 -0.6548
 7225SOL     OW33310   1.343   2.590   4.768  0.3900  0.1884 -0.0386
 7225SOL    HW133311   1.280   2.552   4.828 -1.4279  1.6760 -0.9887
 7225SOL    HW233312   1.374   2.664   4.821 -0.2849  0.9039 -0.6430
 7226SOL     OW33313   4.033   0.532   0.679  0.1740  0.2839 -0.7843
 7226SOL    HW133314   4.037   0.627   0.684  2.1897  0.2049 -0.7679
 7226SOL    HW233315   4.013   0.513   0.771  1.3232 -2.3146 -1.0590
 7227SOL     OW33316   0.241   0.189  15.216  0.1891 -0.5759  0.4109
 7227SOL    HW133317   0.228   0.095  15.200 -0.9156 -0.3543 -0.0032
 7227SOL    HW233318   0.164   0.204  15.270 -1.8025 -0.6998 -2.4201
 7228SOL     OW33319   3.632   2.216   4.733 -0.1043 -0.3502  0.1504
 7228SOL    HW133320   3.556   2.166   4.763  1.2449 -2.1864  0.5216
 7228SOL    HW233321   3.700   2.148   4.732  0.1643 -0.0770 -0.1133
 7229SOL     OW33322   4.130   0.007   8.333 -0.3297 -0.7797 -0.2325
 7229SOL    HW133323   4.127   0.100   8.353 -1.0736 -0.6435 -0.9809
 7229SOL    HW233324   4.047   4.728   8.288  0.5132 -0.8831 -1.7473
 7230SOL     OW33325   2.863   0.618   0.335  0.0183  0.0568  0.0027
 7230SOL    HW133326   2.829   0.658   0.415  1.7677 -1.4517  1.5159
 7230SOL    HW233327   2.942   0.571   0.361 -0.3794 -0.2899  0.5779
 7231SOL     OW33328   1.003   1.943   9.028  0.2081 -0.5057  0.1078
 7231SOL    HW133329   0.943   2.017   9.038 -1.6745 -2.0394  0.1883
 7231SOL    HW233330   0.974   1.921   8.939  2.3263 -2.0413 -0.2060
 7232SOL     OW33331   1.857   2.258   3.758  1.1504 -0.1706 -0.6572
 7232SOL    HW133332   1.787   2.307   3.716  0.4755  0.0473  0.7202
 7232SOL    HW233333   1.816   2.173   3.773 -0.9712  1.3481  2.1631
 7233SOL     OW33334   4.007   0.944  17.296 -0.5903 -0.7377  0.1985
 7233SOL    HW133335   3.932   0.932  17.238 -1.5419 -0.2438  1.3206
 7233SOL    HW233336   4.008   0.867  17.353 -0.5994  0.0542  1.2650
 7234SOL     OW33337   0.630   3.484  16.243  0.1746  0.2535  0.1202
 7234SOL    HW133338   0.720   3.473  16.274  0.2476 -1.4126 -0.6777
 7234SOL    HW233339   0.652   3.490  16.150  1.4461  0.8845  0.4628
 7235SOL     OW33340   0.582   1.086   9.109  0.1290  0.2311  0.0065
 7235SOL    HW133341   0.548   1.129   9.030 -2.5820 -1.5023  0.2177
 7235SOL    HW233342   0.657   1.036   9.077  0.4264  1.0319 -0.5265
 7236SOL     OW33343   1.865   3.048   3.991  0.8740  0.2200 -0.5421
 7236SOL    HW133344   1.886   2.954   3.986 -1.3064 -0.2739 -0.6898
 7236SOL    HW233345   1.827   3.059   4.078  1.5294 -0.5448 -0.1581
 7237SOL     OW33346   3.461   2.217  12.063 -0.4827 -0.7052 -0.3168
 7237SOL    HW133347   3.514   2.167  12.126 -1.2989 -2.2238 -0.8291
 7237SOL    HW233348   3.385   2.242  12.116 -0.9747  0.0527 -1.3877
 7238SOL     OW33349   1.588   0.244   4.448  0.1293  0.3412  0.0955
 7238SOL    HW133350   1.631   0.255   4.363  0.9704  1.5520  0.6751
 7238SOL    HW233351   1.547   0.159   4.433 -1.1993  0.8134  1.0502
 7239SOL     OW33352   0.608   2.730   2.479  0.0343  0.1453 -0.1244
 7239SOL    HW133353   0.543   2.702   2.544  0.6443  1.7238  1.1480
 7239SOL    HW233354   0.682   2.750   2.537 -0.4175 -0.5846  0.7194
 7240SOL     OW33355   1.075   4.529   2.871 -0.1099 -0.3096  0.3978
 7240SOL    HW133356   0.981   4.528   2.891 -0.4816  0.3097 -1.3607
 7240SOL    HW233357   1.085   4.434   2.859  1.6617  0.0643 -0.9861
 7241SOL     OW33358   2.835   2.028   2.399 -0.7899 -0.1509 -0.6618
 7241SOL    HW133359   2.851   2.022   2.305 -2.0693  0.4310 -0.9066
 7241SOL    HW233360   2.870   1.943   2.426  1.2286  0.2295 -2.0578
 7242SOL     OW33361   2.580   1.460   5.581  0.4303 -0.5587 -0.1151
 7242SOL    HW133362   2.597   1.436   5.672  0.7705  1.7359  0.4258
 7242SOL    HW233363   2.563   1.370   5.551  0.1246 -0.5521  0.0345
 7243SOL     OW33364   2.706   0.737   9.011  0.7788  0.1620 -0.0545
 7243SOL    HW133365   2.723   0.828   9.035 -1.7522  0.9077 -1.0869
 7243SOL    HW233366   2.776   0.691   9.057 -2.0032 -1.3915  2.6480
 7244SOL     OW33367   1.065   0.266   7.177 -0.2165 -0.3595 -0.4024
 7244SOL    HW133368   1.020   0.262   7.093 -1.0646 -1.5672  0.1130
 7244SOL    HW233369   1.143   0.219   7.147  1.6375  2.8549 -0.6047
 7245SOL     OW33370   2.746   4.226  12.355  0.0650 -0.0889  0.5197
 7245SOL    HW133371   2.840   4.242  12.352  0.3605 -1.7634  0.8735
 7245SOL    HW233372   2.739   4.203  12.448 -0.9908 -1.5124  0.0856
 7246SOL     OW33373   0.141   0.198   6.817 -0.1318 -0.1456 -0.1173
 7246SOL    HW133374   0.152   0.117   6.867 -1.9247  0.0496  0.5892
 7246SOL    HW233375   0.201   0.250   6.871 -0.1316  0.8487 -1.0673
 7247SOL     OW33376   3.467   2.432   4.787 -0.2169  0.0435  0.3685
 7247SOL    HW133377   3.446   2.427   4.694 -0.9333 -0.6168  0.5658
 7247SOL    HW233378   3.519   2.354   4.808  0.4098  0.3148 -0.1798
 7248SOL     OW33379   2.290   2.078  15.765  0.4203  0.0176 -0.3407
 7248SOL    HW133380   2.205   2.033  15.765  1.0478 -1.1745  0.3043
 7248SOL    HW233381   2.258   2.166  15.784  0.8716 -0.1120  1.0106
 7249SOL     OW33382   2.848   0.637   9.243 -0.2015  0.3788  0.1317
 7249SOL    HW133383   2.811   0.578   9.309  0.7678 -0.7245 -0.3140
 7249SOL    HW233384   2.929   0.663   9.287  0.5782 -1.2085 -0.3529
 7250SOL     OW33385   1.771   1.757   5.955  0.4703  0.0276  0.7093
 7250SOL    HW133386   1.679   1.779   5.974  0.4094  0.7575 -0.4404
 7250SOL    HW233387   1.756   1.718   5.869 -1.0953  1.3376  0.3807
 7251SOL     OW33388   1.736   3.742   5.848 -0.3340 -0.4857 -0.3439
 7251SOL    HW133389   1.825   3.738   5.883 -0.8594  0.5487  1.1196
 7251SOL    HW233390   1.754   3.708   5.761 -0.3507 -0.8798 -0.1918
 7252SOL     OW33391   2.303   1.155   3.147  0.0658 -0.1931 -0.0745
 7252SOL    HW133392   2.233   1.195   3.096 -0.4755 -1.4420 -0.3048
 7252SOL    HW233393   2.346   1.115   3.072  0.1497 -0.0751 -0.0907
 7253SOL     OW33394   2.381   1.774  15.890  0.4652 -0.0533  0.3862
 7253SOL    HW133395   2.286   1.781  15.901  0.4307  0.3449 -0.1854
 7253SOL    HW233396   2.415   1.863  15.887 -1.4227  0.6338 -0.2148
 7254SOL     OW33397   4.589   3.621   4.833 -0.3498  0.0918 -0.0959
 7254SOL    HW133398   4.592   3.536   4.789 -0.4286 -1.4246  2.7949
 7254SOL    HW233399   4.505   3.612   4.877 -1.9997  0.9239 -3.1062
 7255SOL     OW33400   4.507   3.412   0.142 -0.1699 -0.1915 -0.0369
 7255SOL    HW133401   4.448   3.340   0.162  0.1744 -0.7305 -0.9832
 7255SOL    HW233402   4.570   3.379   0.078  0.6564  0.3357  0.5005
 7256SOL     OW33403   3.854   3.358   8.342 -0.1650 -0.6705 -0.6623
 7256SOL    HW133404   3.836   3.452   8.343  0.5382 -0.5018 -3.5380
 7256SOL    HW233405   3.948   3.364   8.356 -0.3118 -1.1425  0.4926
 7257SOL     OW33406   3.607   0.450   7.102 -0.0406  0.1684  0.1957
 7257SOL    HW133407   3.573   0.360   7.107  0.3255 -0.0197 -0.7993
 7257SOL    HW233408   3.688   0.447   7.153 -0.4127 -1.1610  0.7096
 7258SOL     OW33409   4.575   0.511   8.145  0.2298  0.1155  0.0048
 7258SOL    HW133410   4.630   0.458   8.202  1.9037  1.8893  0.0253
 7258SOL    HW233411   4.544   0.447   8.081 -1.4779  0.2883  0.6588
 7259SOL     OW33412   2.127   3.338  11.845 -0.2630 -0.2567 -0.2941
 7259SOL    HW133413   2.044   3.292  11.858 -1.2852  1.9182  0.7613
 7259SOL    HW233414   2.149   3.358  11.936 -1.1076  1.4484 -0.4759
 7260SOL     OW33415   0.913   2.829   2.249  0.3413  0.1045  0.0569
 7260SOL    HW133416   0.860   2.751   2.269  1.3202 -0.9799 -1.5557
 7260SOL    HW233417   0.874   2.841   2.163  1.2627  1.1657 -0.2012
 7261SOL     OW33418   1.497   1.355  16.954  0.4007 -0.1878  0.0772
 7261SOL    HW133419   1.571   1.337  17.012  2.1014 -0.8413 -2.2758
 7261SOL    HW233420   1.520   1.448  16.943  0.8566 -0.1930  0.9686
 7262SOL     OW33421   1.869   2.679  11.540  0.0190 -0.3334  0.3931
 7262SOL    HW133422   1.828   2.676  11.453  1.0484  1.5058 -0.1767
 7262SOL    HW233423   1.942   2.739  11.524 -0.0380 -0.2223  0.5480
 7263SOL     OW33424   4.430   4.564  12.632 -0.4506  0.1225  0.1073
 7263SOL    HW133425   4.473   4.479  12.630 -2.3764 -0.8403  0.1710
 7263SOL    HW233426   4.502   4.626  12.643  0.3617 -0.6303 -1.0321
 7264SOL     OW33427   0.176   2.457  11.186  0.3926 -0.5176 -0.7930
 7264SOL    HW133428   0.132   2.412  11.258 -2.1682  0.9468 -1.4728
 7264SOL    HW233429   0.121   2.447  11.109 -0.1820  1.9035 -0.6870
 7265SOL     OW33430   0.660   1.505  15.230  0.2576  0.5926 -0.4077
 7265SOL    HW133431   0.690   1.495  15.320  3.4687  2.8427 -1.2332
 7265SOL    HW233432   0.566   1.498  15.249  0.7127 -0.9287  1.2285
 7266SOL     OW33433   1.108   0.549   9.602  0.3266  0.4924 -0.5792
 7266SOL    HW133434   1.179   0.489   9.577 -0.4896 -1.7655  2.4506
 7266SOL    HW233435   1.040   0.520   9.541 -1.6406  3.2534  0.3221
 7267SOL     OW33436   2.843   2.916   1.733  0.3245  0.0495  0.3623
 7267SOL    HW133437   2.749   2.912   1.721  0.2944  3.3842 -0.5924
 7267SOL    HW233438   2.852   2.852   1.804  0.5929 -1.0820 -0.6923
 7268SOL     OW33439   1.627   0.156   7.556 -0.5068  0.7271  0.0929
 7268SOL    HW133440   1.615   0.158   7.651 -3.8538  1.4371 -0.3644
 7268SOL    HW233441   1.704   0.210   7.538  0.6937  0.0127  3.1120
 7269SOL     OW33442   4.182   1.576   6.502 -0.4815 -0.3924 -0.0370
 7269SOL    HW133443   4.237   1.510   6.460  1.3893  0.8582  0.4613
 7269SOL    HW233444   4.192   1.653   6.446  0.1526  1.5451  2.7594
 7270SOL     OW33445   4.348   1.460   8.680  0.0178 -0.3059 -0.2102
 7270SOL    HW133446   4.261   1.419   8.683 -0.3284  0.5889  2.1545
 7270SOL    HW233447   4.327   1.539   8.730 -1.6007 -0.3170 -0.8458
 7271SOL     OW33448   1.097   2.279  10.950 -0.1675 -0.2243  0.0239
 7271SOL    HW133449   1.112   2.373  10.949  1.4938 -0.4804  1.7194
 7271SOL    HW233450   1.068   2.265  10.859 -3.2403  0.0945  0.9727
 7272SOL     OW33451   0.492   3.882   8.041 -0.6900 -0.1291  0.0614
 7272SOL    HW133452   0.545   3.833   7.978 -1.7433 -1.9318  0.5750
 7272SOL    HW233453   0.543   3.861   8.119  1.0629 -2.4193 -1.6932
 7273SOL     OW33454   1.860   1.719   8.642 -0.5520 -0.6736 -0.0900
 7273SOL    HW133455   1.862   1.763   8.726 -0.6988 -2.6233  0.9381
 7273SOL    HW233456   1.841   1.628   8.666 -0.9908 -0.0184  1.9784
 7274SOL     OW33457   1.815   1.059   3.073 -0.2211 -0.6906 -0.7162
 7274SOL    HW133458   1.879   1.044   3.142  2.1874 -0.3951 -2.8708
 7274SOL    HW233459   1.789   0.968   3.063  3.0705 -1.8534  1.5616
 7275SOL     OW33460   0.806   2.446   6.345  0.4685 -0.5558  0.9475
 7275SOL    HW133461   0.762   2.501   6.281  0.6176 -1.2443  0.2619
 7275SOL    HW233462   0.837   2.507   6.413  0.0326  0.0360  0.6040
 7276SOL     OW33463   0.837   3.215  15.861  0.2926  0.0717  0.2056
 7276SOL    HW133464   0.820   3.131  15.818  0.5549 -0.8982  2.0090
 7276SOL    HW233465   0.754   3.262  15.851  1.8437  2.3829 -1.8020
 7277SOL     OW33466   3.977   3.148   7.196 -0.6792  0.3046 -0.0425
 7277SOL    HW133467   3.920   3.118   7.125 -1.6060 -3.2596  2.1988
 7277SOL    HW233468   3.967   3.066   7.245  0.9600 -0.4568 -0.9889
 7278SOL     OW33469   2.765   2.899   9.063 -0.0157  0.2524  0.0058
 7278SOL    HW133470   2.706   2.862   8.997  0.3296  0.0918 -0.2152
 7278SOL    HW233471   2.761   2.829   9.128 -0.1172 -0.6406 -0.9516
 7279SOL     OW33472   1.683   1.319   2.496  0.4158  0.5701  0.2265
 7279SOL    HW133473   1.623   1.392   2.511 -2.0715 -1.6749  1.2491
 7279SOL    HW233474   1.738   1.365   2.433 -1.5864  0.6403 -1.4728
 7280SOL     OW33475   0.180   1.147  10.039 -0.5707  0.3972  0.0251
 7280SOL    HW133476   0.153   1.102  10.120 -1.3442  0.5042 -0.1752
 7280SOL    HW233477   0.235   1.081   9.997 -1.7403 -0.0977 -0.7508
 7281SOL     OW33478   1.419   0.526  13.567  0.5637 -0.3391  0.0171
 7281SOL    HW133479   1.510   0.498  13.564  0.1496 -1.3320 -2.5218
 7281SOL    HW233480   1.426   0.595  13.633 -1.1087  1.5358 -1.7688
 7282SOL     OW33481   3.842   4.051  15.959 -0.9156 -0.5445  0.5246
 7282SOL    HW133482   3.885   4.027  16.041  1.9565  3.1724  0.0789
 7282SOL    HW233483   3.751   4.041  15.987 -0.8267 -0.8942  0.6873
 7283SOL     OW33484   2.687   4.520  16.814 -0.4645  0.0133 -0.6021
 7283SOL    HW133485   2.727   4.433  16.815  0.8133  0.5697 -2.8850
 7283SOL    HW233486   2.761   4.579  16.799  1.1405 -1.6480  0.6632
 7284SOL     OW33487   4.151   3.338   6.900 -0.3450 -0.2198  0.0850
 7284SOL    HW133488   4.077   3.359   6.843 -1.1302  1.1586  1.6132
 7284SOL    HW233489   4.110   3.341   6.987  0.6152 -0.2313  0.5326
 7285SOL     OW33490   0.815   1.036   7.673 -0.4975  0.4816  0.1814
 7285SOL    HW133491   0.777   1.101   7.614 -0.3328 -1.4745 -2.0872
 7285SOL    HW233492   0.728   0.998   7.685 -0.2953  0.7359  2.4622
 7286SOL     OW33493   0.566   3.466   3.019 -0.0594 -0.0700  0.0907
 7286SOL    HW133494   0.538   3.542   2.967  0.1561 -1.1053 -1.5542
 7286SOL    HW233495   0.494   3.472   3.081 -0.3098 -0.9798 -0.1149
 7287SOL     OW33496   3.871   3.901  15.078 -0.6339  0.4431 -0.1577
 7287SOL    HW133497   3.946   3.873  15.025 -0.3379 -2.1612  1.6064
 7287SOL    HW233498   3.904   3.958  15.147 -0.2651 -0.3809  0.3527
 7288SOL     OW33499   3.373   1.875   4.103 -0.2223  0.0885  0.0487
 7288SOL    HW133500   3.299   1.935   4.114 -1.2717 -1.2631  0.2813
 7288SOL    HW233501   3.440   1.924   4.151  0.6833 -2.0592  0.9572
 7289SOL     OW33502   2.648   3.185   5.224  0.3129 -0.2630  0.4732
 7289SOL    HW133503   2.730   3.153   5.261  0.5908 -0.0799  0.0218
 7289SOL    HW233504   2.617   3.242   5.294  1.5726  1.6892 -0.5446
 7290SOL     OW33505   3.976   3.174   6.247 -0.0130 -0.2119 -0.6891
 7290SOL    HW133506   4.025   3.099   6.282  0.9154 -0.3518 -2.2482
 7290SOL    HW233507   4.048   3.234   6.227  0.2188 -0.7722 -1.5957
 7291SOL     OW33508   1.320   3.240   8.682  0.0653 -0.7491 -0.3021
 7291SOL    HW133509   1.235   3.204   8.707  0.0160  0.5229  1.3443
 7291SOL    HW233510   1.337   3.194   8.599  2.0628 -1.8766  0.7325
 7292SOL     OW33511   1.104   1.029   8.081  0.0593 -0.1200 -0.4874
 7292SOL    HW133512   1.051   1.028   8.161 -0.3097  0.4132 -0.7258
 7292SOL    HW233513   1.140   0.940   8.080 -2.1339 -0.9982 -1.7195
 7293SOL     OW33514   2.140   1.967   3.960 -0.3195  0.4214  0.3788
 7293SOL    HW133515   2.231   1.975   3.987 -0.4903 -1.4829  1.5085
 7293SOL    HW233516   2.139   1.884   3.911  0.2964  1.0818 -0.7306
 7294SOL     OW33517   2.207   4.122   2.758 -0.6242  0.6287 -0.5023
 7294SOL    HW133518   2.260   4.158   2.829 -0.4516 -0.1732 -0.2213
 7294SOL    HW233519   2.197   4.202   2.707  1.2928  2.1199  1.4290
 7295SOL     OW33520   4.412   3.011   7.425  0.5684 -0.4655  0.1480
 7295SOL    HW133521   4.500   2.996   7.392  0.4594 -1.0183  0.1126
 7295SOL    HW233522   4.425   3.097   7.466  1.2634 -0.4824 -0.0405
 7296SOL     OW33523   3.131   3.608  14.173 -0.1724 -0.2487  0.1216
 7296SOL    HW133524   3.116   3.537  14.236 -0.0437 -0.6452 -0.2944
 7296SOL    HW233525   3.041   3.633  14.152 -0.4413 -1.0530  0.3274
 7297SOL     OW33526   4.397   4.492   7.875  0.4630 -0.4294  0.6194
 7297SOL    HW133527   4.415   4.469   7.966  0.9363  1.3084  0.9630
 7297SOL    HW233528   4.482   4.525   7.848  0.5421 -0.0990  1.2710
 7298SOL     OW33529   3.396   1.561   1.927  0.2299  0.1525  0.5271
 7298SOL    HW133530   3.315   1.512   1.938 -0.6125  1.6744  1.2135
 7298SOL    HW233531   3.391   1.578   1.833  1.9313  0.6356  0.5220
 7299SOL     OW33532   3.470   3.813  16.596 -0.0075  0.3186 -0.3936
 7299SOL    HW133533   3.541   3.812  16.660 -0.3398 -2.0199 -0.0485
 7299SOL    HW233534   3.489   3.729  16.554 -2.9403 -0.8474  0.5850
 7300SOL     OW33535   2.860   3.072   6.704 -0.3769  0.3734 -0.1670
 7300SOL    HW133536   2.800   3.142   6.731 -1.2741 -0.8091  0.9186
 7300SOL    HW233537   2.837   3.061   6.612  0.3401 -1.3598 -0.1494
 7301SOL     OW33538   4.520   1.337  11.458 -0.0760 -0.3751 -0.7246
 7301SOL    HW133539   4.571   1.275  11.407  0.6349 -1.5985  1.4660
 7301SOL    HW233540   4.548   1.416  11.412  0.9459 -0.0790  0.4119
 7302SOL     OW33541   1.120   1.650  12.509 -0.5493 -0.3068  0.2127
 7302SOL    HW133542   1.188   1.702  12.465  1.2667 -3.5546 -0.7952
 7302SOL    HW233543   1.162   1.565  12.502 -2.2293 -1.2562  1.7568
 7303SOL     OW33544   3.865   4.640   1.749  0.1031 -0.3068 -0.1549
 7303SOL    HW133545   3.938   4.607   1.696 -2.5190 -2.8162 -2.2089
 7303SOL    HW233546   3.882   4.733   1.757 -1.1936  0.0100 -1.0518
 7304SOL     OW33547   0.253   3.838   2.833  0.1946 -0.0341  0.1048
 7304SOL    HW133548   0.229   3.769   2.772 -2.2146 -0.1817  1.2111
 7304SOL    HW233549   0.264   3.914   2.776  3.7146 -2.0383 -1.9007
 7305SOL     OW33550   0.773   2.313  17.269  0.1631 -0.0045  0.2748
 7305SOL    HW133551   0.808   2.290  17.183  1.4822  1.0712  0.5254
 7305SOL    HW233552   0.810   2.400  17.275 -0.6521  0.2550  1.6189
 7306SOL     OW33553   2.062   3.290   8.453 -0.2935 -0.4147  0.1112
 7306SOL    HW133554   1.988   3.234   8.428 -0.4357  0.0742 -0.5551
 7306SOL    HW233555   2.118   3.286   8.376  1.9667 -0.7797  1.7856
 7307SOL     OW33556   0.218   2.622   4.813 -0.0468  0.5431  0.4343
 7307SOL    HW133557   0.284   2.609   4.745 -1.3207  1.2664 -0.9249
 7307SOL    HW233558   0.165   2.542   4.806 -1.3729  1.7515 -2.9004
 7308SOL     OW33559   4.017   0.812   4.855 -0.1981  0.2704  0.3663
 7308SOL    HW133560   4.077   0.878   4.890 -0.0210 -0.9108  2.3106
 7308SOL    HW233561   4.038   0.742   4.916 -1.2698 -0.9270 -0.6497
 7309SOL     OW33562   3.289   3.635   7.994  0.3448 -0.0080 -0.1110
 7309SOL    HW133563   3.322   3.724   8.009  0.9694 -0.1742 -0.4938
 7309SOL    HW233564   3.234   3.656   7.919 -0.7551 -2.9204 -0.1280
 7310SOL     OW33565   4.131   1.487   4.864  0.2505 -0.1016  0.3148
 7310SOL    HW133566   4.120   1.480   4.769 -0.4986  0.7626  0.3374
 7310SOL    HW233567   4.172   1.573   4.877  1.9991 -0.9059  0.0179
 7311SOL     OW33568   0.019   4.570  10.069  0.2750 -0.7249 -0.4633
 7311SOL    HW133569   4.700   4.553   9.993 -2.4043 -1.1385  1.5777
 7311SOL    HW233570   4.713   4.536  10.148  1.1452 -0.6314  0.0506
 7312SOL     OW33571   0.711   4.061   4.486 -0.1002  0.3721  0.1279
 7312SOL    HW133572   0.737   4.092   4.399  0.5188  2.2306  0.9636
 7312SOL    HW233573   0.701   3.970   4.458 -0.1353  0.6529 -0.7596
 7313SOL     OW33574   3.613   1.063   6.400  0.4188 -0.1031 -0.1743
 7313SOL    HW133575   3.620   1.156   6.419 -1.6626 -0.1654  0.8838
 7313SOL    HW233576   3.678   1.068   6.329 -1.1622  0.5143 -1.5695
 7314SOL     OW33577   1.737   3.550  12.562  0.5029 -0.1424  0.0404
 7314SOL    HW133578   1.643   3.563  12.577  0.3797  1.5222 -2.0535
 7314SOL    HW233579   1.769   3.639  12.548  3.5959 -0.9401  2.0061
 7315SOL     OW33580   3.029   3.162   7.578  0.3447 -0.9170 -0.0587
 7315SOL    HW133581   3.099   3.101   7.553  0.3006 -1.0622  0.1773
 7315SOL    HW233582   3.035   3.164   7.674  0.0054 -1.5571 -0.0266
 7316SOL     OW33583   4.030   3.856   3.762 -0.3733 -0.0424  0.6297
 7316SOL    HW133584   3.971   3.906   3.705  0.4208 -1.1130 -1.1306
 7316SOL    HW233585   4.070   3.799   3.696 -0.7550 -0.7911  1.0461
 7317SOL     OW33586   0.911   4.669   7.704 -0.0966 -0.3862 -0.0952
 7317SOL    HW133587   0.916   4.693   7.797  0.4778  1.6360 -0.6555
 7317SOL    HW233588   0.820   4.688   7.681 -0.6511  1.0512  3.2004
 7318SOL     OW33589   2.333   0.174   3.342  0.5201  0.4300 -0.6938
 7318SOL    HW133590   2.348   0.082   3.317  2.4460  0.2860  0.9621
 7318SOL    HW233591   2.303   0.213   3.260  2.2223 -1.0776 -2.0765
 7319SOL     OW33592   0.209   2.778  10.437  0.3844  0.2047 -0.8485
 7319SOL    HW133593   0.221   2.776  10.342  1.0215  2.1202 -0.8017
 7319SOL    HW233594   0.285   2.731  10.471 -1.4024 -2.1694 -0.0539
 7320SOL     OW33595   2.986   2.761  13.680  0.1866  0.1266 -0.5393
 7320SOL    HW133596   3.039   2.837  13.658 -1.8255  2.3605  2.3509
 7320SOL    HW233597   2.991   2.748  13.775 -4.6094 -2.4108 -0.6358
 7321SOL     OW33598   3.136   2.164   7.076 -0.4503 -0.3627 -0.2696
 7321SOL    HW133599   3.229   2.185   7.065 -0.2044 -1.4985 -0.4031
 7321SOL    HW233600   3.111   2.129   6.990  0.2407  1.8595 -1.3926
 7322SOL     OW33601   0.406   1.037   6.372 -0.3675  0.0327 -0.2102
 7322SOL    HW133602   0.341   1.029   6.442 -0.9563  0.7277 -0.6695
 7322SOL    HW233603   0.435   0.946   6.367  0.2139  0.2549 -0.8812
 7323SOL     OW33604   2.402   2.909   6.700 -0.8133 -0.4289 -0.9578
 7323SOL    HW133605   2.386   2.997   6.665 -0.5051  0.3071  0.7407
 7323SOL    HW233606   2.457   2.932   6.775  0.0925  0.2805 -1.8400
 7324SOL     OW33607   4.365   2.630   3.400  0.0489 -0.3366  0.0022
 7324SOL    HW133608   4.306   2.677   3.342 -0.8654 -0.6156  0.7088
 7324SOL    HW233609   4.391   2.554   3.348  0.6630 -2.6125  3.6375
 7325SOL     OW33610   4.038   0.446  11.923 -0.0538  0.2035 -0.2534
 7325SOL    HW133611   4.093   0.516  11.960 -1.5460  0.6465  1.1359
 7325SOL    HW233612   4.049   0.462  11.830 -2.5983  1.6520 -0.3228
 7326SOL     OW33613   2.151   1.050  10.900 -0.0991 -0.6035 -0.2072
 7326SOL    HW133614   2.217   1.027  10.835 -1.4579 -1.6344 -1.2165
 7326SOL    HW233615   2.140   0.967  10.946  1.7920 -0.9502 -0.3939
 7327SOL     OW33616   3.874   0.897  11.212  0.4175  0.9707 -0.0098
 7327SOL    HW133617   3.828   0.813  11.218 -0.0554  1.0594 -2.1303
 7327SOL    HW233618   3.894   0.908  11.119 -2.0184  0.2965 -0.6110
 7328SOL     OW33619   2.496   3.971   9.015  0.6356  0.0927  0.2670
 7328SOL    HW133620   2.530   3.915   9.085  0.0745  0.1007  0.5469
 7328SOL    HW233621   2.540   3.927   8.943  0.1529  1.6987 -1.0041
 7329SOL     OW33622   2.254   2.159  10.844  0.0496 -0.3565  0.6487
 7329SOL    HW133623   2.215   2.177  10.758 -0.2106  1.4909  1.1744
 7329SOL    HW233624   2.324   2.224  10.844  0.2893 -0.6128 -0.0228
 7330SOL     OW33625   1.156   3.168   6.952  0.5852 -0.4686  0.1122
 7330SOL    HW133626   1.223   3.236   6.946 -3.1412  3.1788 -0.1780
 7330SOL    HW233627   1.108   3.202   7.028  0.2552 -0.7271  0.0203
 7331SOL     OW33628   2.368   1.753   6.341  0.1739 -0.2050  0.0288
 7331SOL    HW133629   2.357   1.751   6.436  0.7121  2.5576  0.1417
 7331SOL    HW233630   2.437   1.688   6.333  0.0842 -0.2404 -0.4224
 7332SOL     OW33631   2.193   3.263   7.016  0.1224 -0.3395 -0.2093
 7332SOL    HW133632   2.109   3.217   7.018  1.3106 -2.4056  1.9773
 7332SOL    HW233633   2.169   3.342   7.065  1.1319  0.2128 -0.6042
 7333SOL     OW33634   2.381   2.980   4.412  0.1442  0.3727  0.7692
 7333SOL    HW133635   2.379   3.071   4.381 -0.8683  0.5854  1.4376
 7333SOL    HW233636   2.401   2.988   4.505  1.6706  0.7134  0.4087
 7334SOL     OW33637   2.915   4.707   6.235  0.0909  0.0786 -0.6570
 7334SOL    HW133638   2.948   0.051   6.275 -2.2249  0.6844  0.0645
 7334SOL    HW233639   2.997   4.658   6.237  0.5436  0.9087  0.9328
 7335SOL     OW33640   0.967   1.699   3.830  0.1776 -0.1909  0.6331
 7335SOL    HW133641   0.995   1.783   3.793  1.7529 -0.3209  1.5559
 7335SOL    HW233642   0.936   1.658   3.749  2.5274 -1.3278  0.3247
 7336SOL     OW33643   2.883   4.617   8.174  0.1792 -0.1240  0.5529
 7336SOL    HW133644   2.976   4.615   8.198  0.7999  0.1415 -1.8283
 7336SOL    HW233645   2.872   4.522   8.163 -0.8695  0.0418  0.1950
 7337SOL     OW33646   2.393   3.348  13.688  0.1361  0.3234  0.1689
 7337SOL    HW133647   2.421   3.440  13.684  1.3155 -0.0199  0.4462
 7337SOL    HW233648   2.305   3.354  13.724 -1.1628 -3.4809 -2.4701
 7338SOL     OW33649   1.794   3.614  13.163  0.4952  0.2252  0.1335
 7338SOL    HW133650   1.828   3.703  13.151  1.1022  0.3324  2.7020
 7338SOL    HW233651   1.704   3.631  13.189  1.4547  2.3929  2.0185
 7339SOL     OW33652   1.663   2.357  14.479 -0.5623  0.1484 -0.6781
 7339SOL    HW133653   1.577   2.341  14.517  0.7211 -0.0905  2.1348
 7339SOL    HW233654   1.635   2.446  14.459  1.3800  0.8644 -0.2089
 7340SOL     OW33655   3.449   0.637  16.963  0.3255  0.2765  0.0409
 7340SOL    HW133656   3.364   0.663  16.999  1.3549  0.1852  2.5458
 7340SOL    HW233657   3.421   0.575  16.895  0.5225  1.5121 -1.1480
 7341SOL     OW33658   0.043   3.970   3.099 -0.2069 -0.2433  0.0665
 7341SOL    HW133659   0.034   4.059   3.065  0.4201 -0.2473 -0.1199
 7341SOL    HW233660   4.720   3.929   3.035 -0.5427  0.5264 -0.1070
 7342SOL     OW33661   0.395   2.675   2.676 -0.0050  0.0737  0.0876
 7342SOL    HW133662   0.375   2.630   2.759  0.8342 -2.3177 -0.9910
 7342SOL    HW233663   0.309   2.667   2.635  0.4961  0.1204 -0.9574
 7343SOL     OW33664   1.548   1.568   6.823  0.1980 -0.0050  0.0812
 7343SOL    HW133665   1.463   1.575   6.865  1.0438 -2.4624  2.2153
 7343SOL    HW233666   1.599   1.575   6.904 -1.2493 -2.3265  1.1589
 7344SOL     OW33667   4.724   1.008   9.398  0.2008  0.4156 -0.2008
 7344SOL    HW133668   4.722   0.948   9.472  1.0848 -0.6453 -1.0310
 7344SOL    HW233669   0.074   0.989   9.362  0.6226  0.9274  0.5756
 7345SOL     OW33670   2.546   3.836   9.567  0.2545 -0.1390  0.2360
 7345SOL    HW133671   2.639   3.838   9.591  0.3023 -0.0562  0.0437
 7345SOL    HW233672   2.512   3.780   9.636 -1.5404 -2.8799 -2.9075
 7346SOL     OW33673   3.287   3.493   5.449 -0.0150 -0.5173 -0.2028
 7346SOL    HW133674   3.228   3.567   5.462  0.7765  0.3412 -1.5269
 7346SOL    HW233675   3.350   3.542   5.396 -0.3658  1.9724  1.6746
 7347SOL     OW33676   2.048   3.452   3.922  0.1461  0.0400  0.4854
 7347SOL    HW133677   2.136   3.431   3.955 -0.7559 -1.6767  1.8381
 7347SOL    HW233678   1.997   3.409   3.990  0.6608 -1.3639 -0.0108
 7348SOL     OW33679   0.406   4.443   6.347 -0.1188  0.6242 -0.4677
 7348SOL    HW133680   0.475   4.405   6.292  0.3158 -1.5468  1.5880
 7348SOL    HW233681   0.350   4.369   6.368  0.1174  0.5163 -0.2261
 7349SOL     OW33682   3.056   4.167   3.255  0.0660 -1.1470 -0.2188
 7349SOL    HW133683   2.974   4.170   3.207 -0.1271 -3.1852 -0.0215
 7349SOL    HW233684   3.055   4.078   3.291  1.4454 -0.2154  2.1184
 7350SOL     OW33685   2.995   4.059   4.560  0.1062  0.4454 -0.1906
 7350SOL    HW133686   2.975   4.153   4.560  1.4107  0.7258  1.0408
 7350SOL    HW233687   3.055   4.044   4.487  1.2706  1.5796  0.5287
 7351SOL     OW33688   3.888   1.865   6.835 -0.0319  0.2052  0.1035
 7351SOL    HW133689   3.831   1.881   6.760  1.5199 -2.7881 -1.7331
 7351SOL    HW233690   3.914   1.954   6.860  1.8446  0.0172 -1.1560
 7352SOL     OW33691   3.176   4.533   2.900  0.0989 -0.0680 -0.8038
 7352SOL    HW133692   3.240   4.585   2.852 -0.0608  2.3055  1.5667
 7352SOL    HW233693   3.120   4.597   2.944 -0.0537 -1.2712  0.7456
 7353SOL     OW33694   3.501   1.855   5.782  0.0283 -0.0087  0.2445
 7353SOL    HW133695   3.430   1.833   5.843  0.2113 -2.8586 -0.5965
 7353SOL    HW233696   3.568   1.815   5.837  2.4419 -0.3502 -3.0128
 7354SOL     OW33697   3.288   1.108  15.239  0.4073 -0.2972  0.1447
 7354SOL    HW133698   3.261   1.060  15.317  2.1590 -0.0925  0.8806
 7354SOL    HW233699   3.233   1.185  15.254  0.6440 -0.2676  0.8604
 7355SOL     OW33700   3.199   1.969   2.228 -0.3029 -0.1495 -0.5561
 7355SOL    HW133701   3.115   1.922   2.226  0.1892 -1.0593  0.5622
 7355SOL    HW233702   3.174   2.045   2.281 -0.4466 -1.2985  1.0151
 7356SOL     OW33703   0.658   3.747   0.323  0.1843  0.3160  0.3187
 7356SOL    HW133704   0.649   3.842   0.313  0.4198  0.3389  0.3149
 7356SOL    HW233705   0.623   3.739   0.412 -0.0573  1.5502  0.3338
 7357SOL     OW33706   2.932   1.192  17.426  0.6195  0.2727  0.5997
 7357SOL    HW133707   2.855   1.237  17.393  0.2568 -1.0377 -0.3060
 7357SOL    HW233708   2.968   1.149  17.348  1.0447 -0.0019  0.9432
 7358SOL     OW33709   2.108   3.861  11.557 -0.2195  0.0515 -0.3939
 7358SOL    HW133710   2.079   3.859  11.648  1.6446 -1.0266  0.1914
 7358SOL    HW233711   2.158   3.781  11.540 -0.5886 -0.3886  0.6152
 7359SOL     OW33712   1.315   0.682  11.464 -0.0602 -0.1698  0.3486
 7359SOL    HW133713   1.326   0.625  11.388 -0.2872 -0.0608  0.2345
 7359SOL    HW233714   1.237   0.734  11.445  0.5703  0.2340 -1.1034
 7360SOL     OW33715   3.908   0.579   3.914 -0.0708 -0.0711 -0.2342
 7360SOL    HW133716   4.000   0.584   3.888  0.1678  0.0652  0.6403
 7360SOL    HW233717   3.872   0.576   3.825 -0.8076  0.8957  0.0374
 7361SOL     OW33718   3.749   0.374   8.905 -0.2106 -0.1527  0.4514
 7361SOL    HW133719   3.713   0.368   8.816  1.4127  1.3014 -0.3165
 7361SOL    HW233720   3.669   0.366   8.957 -0.5230 -1.4721 -0.2391
 7362SOL     OW33721   1.745   4.231  14.895 -0.4096 -0.0537 -0.1524
 7362SOL    HW133722   1.728   4.138  14.882 -0.4541 -0.1383  0.5093
 7362SOL    HW233723   1.652   4.252  14.905 -0.4285  1.1856 -2.7867
 7363SOL     OW33724   2.731   1.947   6.390  0.7090  0.0938 -0.1116
 7363SOL    HW133725   2.654   1.998   6.417 -0.6478 -1.4990 -1.0268
 7363SOL    HW233726   2.693   1.908   6.311 -1.9046  3.4245 -0.5207
 7364SOL     OW33727   1.931   3.107   0.743  0.5706  0.2988 -0.3142
 7364SOL    HW133728   1.932   3.023   0.788  0.2375  2.3343  3.5303
 7364SOL    HW233729   1.841   3.113   0.709  0.5543  1.4784 -0.0798
 7365SOL     OW33730   0.490   4.252   4.015 -0.0831  0.2110  0.4174
 7365SOL    HW133731   0.452   4.166   3.995  1.0048 -0.2143  0.1522
 7365SOL    HW233732   0.521   4.242   4.105  1.2431  1.0569  0.0502
 7366SOL     OW33733   4.146   2.461   2.970 -0.5770  0.1659 -0.2095
 7366SOL    HW133734   4.162   2.549   2.936 -0.9775  1.0353  1.8356
 7366SOL    HW233735   4.230   2.461   3.016 -1.2972 -0.0724  1.1241
 7367SOL     OW33736   0.555   4.278   4.523 -0.0316 -0.5712 -0.4061
 7367SOL    HW133737   0.464   4.258   4.546 -0.0773  0.8242  0.6397
 7367SOL    HW233738   0.608   4.219   4.576 -0.5515 -0.2843  0.4351
 7368SOL     OW33739   4.705   3.515   8.586  0.2412 -0.3997 -0.4439
 7368SOL    HW133740   4.684   3.451   8.654  0.6472 -1.5814 -1.4277
 7368SOL    HW233741   4.636   3.499   8.522 -1.3474  0.2841  1.1108
 7369SOL     OW33742   2.664   1.060   4.543  0.6910 -0.0910  0.6068
 7369SOL    HW133743   2.576   1.085   4.571  1.6676  2.1774  1.5855
 7369SOL    HW233744   2.677   0.999   4.615  2.3007  1.2910  1.4554
 7370SOL     OW33745   0.933   4.144   7.114 -0.2505 -0.1637  0.0688
 7370SOL    HW133746   0.838   4.139   7.104 -0.6840  1.2530  3.4456
 7370SOL    HW233747   0.967   4.217   7.063  0.5003 -1.4009 -1.2166
 7371SOL     OW33748   3.179   0.419   5.164  0.0394 -0.5976  0.1087
 7371SOL    HW133749   3.197   0.505   5.128 -0.0114 -0.3108  0.7760
 7371SOL    HW233750   3.098   0.427   5.215  0.9035 -0.3638  1.4321
 7372SOL     OW33751   2.678   0.731   9.524 -0.1763  0.6380  0.2277
 7372SOL    HW133752   2.683   0.642   9.559 -3.2143  0.2560 -0.3000
 7372SOL    HW233753   2.653   0.785   9.598 -0.2656  0.0897  0.5969
 7373SOL     OW33754   4.578   0.797   2.981  0.0445  0.6986  0.3228
 7373SOL    HW133755   4.633   0.827   3.054 -2.1126  1.6062  1.5863
 7373SOL    HW233756   4.525   0.736   3.032 -0.6434 -0.3937 -1.6895
 7374SOL     OW33757   0.166   4.471   8.685  0.5723 -0.0570  0.0775
 7374SOL    HW133758   0.224   4.406   8.647  0.4320  0.4460 -1.0089
 7374SOL    HW233759   0.231   4.541   8.698  0.4411  0.3001 -1.1622
 7375SOL     OW33760   1.050   0.125   1.773 -0.2462  0.3767 -0.1984
 7375SOL    HW133761   1.090   0.039   1.761 -1.4089 -0.1453 -0.2607
 7375SOL    HW233762   1.116   0.190   1.747  1.1386 -1.7582 -2.0281
 7376SOL     OW33763   1.482   4.579   0.300  0.3795  0.3030 -0.1833
 7376SOL    HW133764   1.472   4.674   0.295  0.8270  0.3666  0.1364
 7376SOL    HW233765   1.439   4.559   0.383 -0.1547 -2.6723 -1.1566
 7377SOL     OW33766   1.688   3.200   6.346 -0.5745 -0.7328  0.4679
 7377SOL    HW133767   1.685   3.192   6.441 -0.5390  2.4001  0.7334
 7377SOL    HW233768   1.717   3.111   6.325  2.8131  0.6870 -0.9112
 7378SOL     OW33769   1.383   4.351   6.445 -0.2814 -0.2378 -0.0812
 7378SOL    HW133770   1.355   4.430   6.490  0.3310 -0.0060 -0.1162
 7378SOL    HW233771   1.308   4.347   6.386 -1.9237 -0.1990  1.9882
 7379SOL     OW33772   2.167   0.039  14.174  0.0099  0.4371  0.0534
 7379SOL    HW133773   2.224   4.720  14.121 -0.8518 -1.1863  0.8087
 7379SOL    HW233774   2.196   0.122  14.136 -0.4771  0.6852  0.2144
 7380SOL     OW33775   3.467   1.379   5.561  0.8356  0.6562 -0.2396
 7380SOL    HW133776   3.472   1.324   5.483 -0.5519  0.4422 -0.1953
 7380SOL    HW233777   3.386   1.425   5.540 -1.2238 -1.5027  2.8354
 7381SOL     OW33778   0.692   0.037   1.721 -0.3359  0.3678 -0.3098
 7381SOL    HW133779   0.727   0.047   1.810 -0.4624 -0.9957 -0.1061
 7381SOL    HW233780   0.618   0.098   1.724  0.4274  1.1504  2.8215
 7382SOL     OW33781   1.979   0.590   8.091 -0.3706 -0.1601 -0.4985
 7382SOL    HW133782   1.955   0.624   8.005 -1.9795  0.0155  0.0088
 7382SOL    HW233783   1.941   0.657   8.148  0.3391  0.5199 -0.8313
 7383SOL     OW33784   1.795   0.620  16.338 -0.1507  0.0898 -0.1701
 7383SOL    HW133785   1.761   0.691  16.284 -1.4511  0.1584  0.7501
 7383SOL    HW233786   1.728   0.604  16.405  1.9211 -0.3303  1.7795
 7384SOL     OW33787   3.383   0.409   7.543 -0.1465 -0.5745  0.5500
 7384SOL    HW133788   3.397   0.503   7.551  1.1807 -0.7743  0.5115
 7384SOL    HW233789   3.301   0.412   7.493  1.4059  2.2043 -1.8655
 7385SOL     OW33790   2.132   0.693  16.898 -0.1861 -0.3881 -0.8674
 7385SOL    HW133791   2.186   0.772  16.892 -0.3838 -0.2107 -0.3436
 7385SOL    HW233792   2.061   0.707  16.961  1.3080  1.6132  0.3909
 7386SOL     OW33793   3.013   0.965   3.516  0.3102 -0.9287  0.7258
 7386SOL    HW133794   2.960   0.992   3.441  0.1819 -0.0368  1.1372
 7386SOL    HW233795   3.092   1.019   3.512  1.8867 -3.2210  0.8026
 7387SOL     OW33796   3.670   4.371   0.156  0.0223 -0.3753  0.2419
 7387SOL    HW133797   3.690   4.464   0.148  2.0475 -0.7030  1.5428
 7387SOL    HW233798   3.653   4.368   0.250 -1.9516  0.7162 -0.0710
 7388SOL     OW33799   2.222   0.541   6.179 -0.0942 -0.0691 -0.3179
 7388SOL    HW133800   2.143   0.572   6.224  0.2419 -3.4883  2.5993
 7388SOL    HW233801   2.260   0.626   6.159 -0.0397  0.0364  0.2346
 7389SOL     OW33802   1.202   1.309  12.456 -0.0642  0.2970 -0.3372
 7389SOL    HW133803   1.228   1.287  12.367  0.5794 -0.7247  0.0998
 7389SOL    HW233804   1.275   1.367  12.478 -2.1846  2.1216  1.9189
 7390SOL     OW33805   2.826   3.530  16.563  0.3188  0.4192 -1.0068
 7390SOL    HW133806   2.902   3.492  16.521  1.4876  0.4154  1.1000
 7390SOL    HW233807   2.768   3.569  16.498  2.0003  4.3224 -0.1875
 7391SOL     OW33808   0.109   4.671   1.081 -0.0661 -0.4331 -0.2044
 7391SOL    HW133809   0.161   4.672   1.001  0.3304 -0.3590  0.0526
 7391SOL    HW233810   0.137   4.589   1.122  0.9322 -0.4467 -0.9287
 7392SOL     OW33811   1.372   1.635   6.519  0.6928  0.4549  0.6159
 7392SOL    HW133812   1.320   1.558   6.543 -0.5299  1.2203  0.4132
 7392SOL    HW233813   1.333   1.661   6.435  0.8121  2.6911  1.2707
 7393SOL     OW33814   4.143   1.130   7.091  0.0824  0.0835  0.2623
 7393SOL    HW133815   4.154   1.095   7.002  0.0399 -0.6800  0.5576
 7393SOL    HW233816   4.218   1.096   7.140 -0.6211 -0.4546  0.9500
 7394SOL     OW33817   2.367   2.882   0.913  0.4080 -0.3500  0.0646
 7394SOL    HW133818   2.324   2.959   0.877  1.1585 -1.1934 -2.6135
 7394SOL    HW233819   2.435   2.866   0.847  1.4241  0.1918  0.9941
 7395SOL     OW33820   2.258   1.662   1.649 -0.1840  0.2434 -0.1334
 7395SOL    HW133821   2.299   1.661   1.563  0.3227 -0.7914  0.1269
 7395SOL    HW233822   2.289   1.578   1.681  1.8691  1.9678  2.4332
 7396SOL     OW33823   1.815   3.341   7.743 -0.2630 -0.1040  0.2873
 7396SOL    HW133824   1.802   3.392   7.823 -0.7900 -0.4571  0.4247
 7396SOL    HW233825   1.725   3.316   7.725 -1.1094  1.1916  2.6976
 7397SOL     OW33826   0.375   0.295  10.925  0.2243  0.3078  0.1915
 7397SOL    HW133827   0.337   0.256  11.003  0.2388  2.1857  1.1407
 7397SOL    HW233828   0.453   0.240  10.915 -0.9835 -0.9786 -2.1285
 7398SOL     OW33829   2.855   4.015   3.963 -0.0614 -0.4739  0.2765
 7398SOL    HW133830   2.937   3.978   3.932  0.8774  2.7204 -1.0912
 7398SOL    HW233831   2.785   3.952   3.946 -0.8002  0.6234 -0.8000
 7399SOL     OW33832   3.032   2.615   8.749  0.0645 -0.4280  1.1135
 7399SOL    HW133833   2.982   2.539   8.779  1.7541 -1.4956  1.2262
 7399SOL    HW233834   3.046   2.664   8.830  0.3382  0.0479  0.7776
 7400SOL     OW33835   3.167   3.738   6.692 -0.3381  0.0416  0.7235
 7400SOL    HW133836   3.221   3.787   6.756  0.6941 -0.9084  0.5828
 7400SOL    HW233837   3.216   3.656   6.681 -0.9496 -0.1321 -0.6318
 7401SOL     OW33838   1.562   0.139  11.110 -0.3153  0.0631 -0.2307
 7401SOL    HW133839   1.592   0.119  11.021 -0.9511 -1.5161 -0.0930
 7401SOL    HW233840   1.478   0.177  11.086 -1.8973 -3.2823  0.0206
 7402SOL     OW33841   1.599   2.731   8.932 -0.2195  0.1285  0.3823
 7402SOL    HW133842   1.665   2.765   8.992  0.4269 -1.3359  0.4936
 7402SOL    HW233843   1.562   2.652   8.972  2.4929 -1.3901 -0.1146
 7403SOL     OW33844   3.580   3.137   4.356 -0.1170  0.1827  0.3028
 7403SOL    HW133845   3.624   3.065   4.311  0.5977  0.8741 -0.1128
 7403SOL    HW233846   3.633   3.210   4.325  3.0970 -0.4612  4.3047
 7404SOL     OW33847   0.754   4.186  15.889  0.2464  0.2517  0.2559
 7404SOL    HW133848   0.722   4.107  15.847 -1.9273  2.0189 -1.4129
 7404SOL    HW233849   0.769   4.239  15.810 -0.3557  2.4666  1.6163
 7405SOL     OW33850   2.484   0.434   2.271 -0.4671 -0.9267 -0.0500
 7405SOL    HW133851   2.436   0.397   2.196 -1.0330 -0.5679  0.1428
 7405SOL    HW233852   2.572   0.408   2.243 -0.7151 -2.6933  0.8058
 7406SOL     OW33853   3.517   1.276  11.170 -0.1943 -0.8496  0.3119
 7406SOL    HW133854   3.422   1.277  11.180 -0.1393 -1.9280  1.0160
 7406SOL    HW233855   3.545   1.185  11.186  2.4745  0.0796  0.9296
 7407SOL     OW33856   2.606   2.527   4.146 -0.0639  0.6710  0.4937
 7407SOL    HW133857   2.671   2.579   4.192  0.0173  0.9698  0.0383
 7407SOL    HW233858   2.561   2.598   4.102 -1.2084  0.6294  1.5897
 7408SOL     OW33859   3.339   4.600   7.706  0.2626  0.2079 -0.2742
 7408SOL    HW133860   3.272   4.625   7.770 -0.3865  1.7450 -1.5669
 7408SOL    HW233861   3.417   4.653   7.716  0.0162  0.8292 -1.7087
 7409SOL     OW33862   3.523   1.079   5.125  0.0016 -0.5595 -0.6984
 7409SOL    HW133863   3.463   1.017   5.084 -2.8858  2.9991 -1.7518
 7409SOL    HW233864   3.555   1.025   5.198 -2.6830  1.2306  1.7986
 7410SOL     OW33865   1.907   1.066  13.118 -0.2648 -0.4327 -0.4730
 7410SOL    HW133866   1.964   1.142  13.127 -0.0707 -0.2740 -2.9208
 7410SOL    HW233867   1.970   1.007  13.075 -1.8686 -0.6505 -2.5342
 7411SOL     OW33868   1.096   2.769   6.953  0.3730 -0.4290 -0.7523
 7411SOL    HW133869   1.021   2.757   6.895 -0.3551 -0.5360  0.2126
 7411SOL    HW233870   1.093   2.679   6.987  0.9261 -0.3295 -0.4379
 7412SOL     OW33871   2.514   1.476  11.133  0.1796  0.3051 -0.8242
 7412SOL    HW133872   2.431   1.462  11.177  0.7779 -1.5668 -0.2848
 7412SOL    HW233873   2.562   1.418  11.191 -0.6994 -0.0043 -0.4138
 7413SOL     OW33874   0.362   4.602   8.528 -0.0965 -0.1412 -0.0207
 7413SOL    HW133875   0.442   4.558   8.501 -0.2345 -0.8191  0.6681
 7413SOL    HW233876   0.400   4.660   8.594 -0.8045 -1.1722  1.2880
 7414SOL     OW33877   3.459   1.801   1.049 -0.1560  0.3601  0.3319
 7414SOL    HW133878   3.551   1.780   1.030 -0.8734 -1.7557 -0.7401
 7414SOL    HW233879   3.424   1.716   1.024 -3.2319  1.9973 -0.9752
 7415SOL     OW33880   2.432   2.371   2.005  0.3858 -0.3227 -0.7570
 7415SOL    HW133881   2.417   2.452   1.956  0.4672 -0.9944 -1.8978
 7415SOL    HW233882   2.377   2.393   2.081  0.3658  0.5105 -1.0092
 7416SOL     OW33883   0.770   3.136   3.746 -0.3167  0.0169  0.4268
 7416SOL    HW133884   0.776   3.203   3.814  0.3489  0.1167  0.2729
 7416SOL    HW233885   0.818   3.192   3.684 -1.9766 -0.6257 -1.4309
 7417SOL     OW33886   1.902   3.102   4.908 -0.6373 -0.6421  1.1471
 7417SOL    HW133887   1.947   3.042   4.968 -0.7941 -0.8124  1.0936
 7417SOL    HW233888   1.949   3.184   4.925 -0.4744 -0.1325 -1.8627
 7418SOL     OW33889   3.802   3.336   7.862  0.0950 -0.1270 -0.2406
 7418SOL    HW133890   3.739   3.297   7.923  0.9922 -0.0114  0.7721
 7418SOL    HW233891   3.751   3.340   7.781  2.4555 -0.2430 -1.7173
 7419SOL     OW33892   1.419   3.855   3.180 -0.2980 -0.1097  0.1151
 7419SOL    HW133893   1.495   3.802   3.157 -0.6464 -1.9301  3.1667
 7419SOL    HW233894   1.439   3.937   3.135 -2.2077  1.4774  2.1395
 7420SOL     OW33895   2.063   2.906   8.414 -0.3650  0.2547  0.4024
 7420SOL    HW133896   2.019   2.821   8.417  0.7181 -0.2580  1.4130
 7420SOL    HW233897   2.074   2.912   8.508  0.2145 -0.1410  0.3653
 7421SOL     OW33898   3.766   2.253  14.889 -0.4063  0.4674 -0.5868
 7421SOL    HW133899   3.697   2.288  14.832 -0.6553  0.7703 -0.1065
 7421SOL    HW233900   3.728   2.171  14.920  0.4500 -0.2601 -1.4837
 7422SOL     OW33901   2.908   3.853   6.026  0.1015 -0.0820  0.2845
 7422SOL    HW133902   2.925   3.886   6.114 -1.1322  0.4604  0.3290
 7422SOL    HW233903   2.934   3.761   6.034  1.2312  0.3075  0.9862
 7423SOL     OW33904   1.207   4.295   2.777 -0.1267 -0.1592 -0.2551
 7423SOL    HW133905   1.243   4.211   2.806 -0.1190 -0.3606 -0.8485
 7423SOL    HW233906   1.289   4.329   2.740  0.0694  0.1682  0.4869
 7424SOL     OW33907   0.710   4.019   7.280 -0.6766 -0.0316 -0.4865
 7424SOL    HW133908   0.705   4.101   7.330  0.7476  0.4932 -1.1981
 7424SOL    HW233909   0.778   3.973   7.330 -1.5000  0.9451  1.4976
 7425SOL     OW33910   1.685   3.270  11.674  0.0401  0.1879 -0.4502
 7425SOL    HW133911   1.718   3.206  11.737 -1.1355 -1.1925 -1.2294
 7425SOL    HW233912   1.620   3.313  11.729  0.3474 -0.0217  0.0798
 7426SOL     OW33913   3.629   3.486   2.992 -0.0923 -0.2244  0.0639
 7426SOL    HW133914   3.542   3.512   2.961 -0.0102  1.0556  0.8977
 7426SOL    HW233915   3.661   3.423   2.927 -2.1208 -2.2461  1.0062
 7427SOL     OW33916   0.415   1.818   6.566  0.6727 -0.1564 -0.4610
 7427SOL    HW133917   0.345   1.876   6.536  0.5170  0.3798  0.9359
 7427SOL    HW233918   0.416   1.855   6.655  2.0213  2.0946 -1.4134
 7428SOL     OW33919   2.202   4.392   9.114  0.0387  0.5824 -0.3513
 7428SOL    HW133920   2.279   4.339   9.092  0.5634  0.1024  2.6451
 7428SOL    HW233921   2.198   4.372   9.207 -2.1445 -0.0827 -0.5812
 7429SOL     OW33922   2.426   4.453  17.220  0.2479 -0.3766  0.2690
 7429SOL    HW133923   2.385   4.381  17.173  0.8981 -1.5881  1.5750
 7429SOL    HW233924   2.467   4.493  17.143 -1.3529 -0.0963 -0.4343
 7430SOL     OW33925   3.542   2.482   8.193  0.1523  0.1335 -0.3124
 7430SOL    HW133926   3.449   2.469   8.174  0.5409 -1.1512 -1.2935
 7430SOL    HW233927   3.553   2.577   8.199 -0.0600  0.1516 -0.2230
 7431SOL     OW33928   3.866   1.382   7.212 -0.8482  0.5886 -0.1976
 7431SOL    HW133929   3.831   1.316   7.153  0.9297  0.1073 -0.6985
 7431SOL    HW233930   3.911   1.321   7.270  0.2123  1.6355  0.0721
 7432SOL     OW33931   1.513   2.593  11.142 -0.3047 -0.3463  0.1437
 7432SOL    HW133932   1.582   2.653  11.113 -0.4522  0.8022  2.2271
 7432SOL    HW233933   1.441   2.653  11.128 -0.0205 -0.2822 -1.1126
 7433SOL     OW33934   1.659   0.633  11.274  0.1090 -0.5203  0.4326
 7433SOL    HW133935   1.629   0.544  11.291 -2.5396  0.4537  0.9767
 7433SOL    HW233936   1.663   0.681  11.357  2.0050 -1.4049  0.8326
 7434SOL     OW33937   1.815   0.885   8.790  0.0866  0.4736 -0.7465
 7434SOL    HW133938   1.846   0.856   8.705  1.6490 -1.7376  0.5911
 7434SOL    HW233939   1.724   0.855   8.789 -0.1159  1.0092  0.4181
 7435SOL     OW33940   1.900   0.385  16.624 -0.0276  0.2700 -0.5052
 7435SOL    HW133941   1.924   0.292  16.622  1.3864  0.6229  0.7527
 7435SOL    HW233942   1.821   0.385  16.678  0.6323  1.7554  0.4351
 7436SOL     OW33943   1.379   3.689   3.666 -0.1571 -0.3860 -0.3231
 7436SOL    HW133944   1.308   3.722   3.721  1.3197 -0.6567  1.7438
 7436SOL    HW233945   1.351   3.729   3.583 -0.3798 -0.1000 -0.1061
 7437SOL     OW33946   1.842   3.208   9.253  0.1228  0.5055 -0.0117
 7437SOL    HW133947   1.798   3.288   9.280  0.5015  0.9945 -0.8581
 7437SOL    HW233948   1.834   3.152   9.330  2.6022  0.5423  0.2765
 7438SOL     OW33949   2.534   3.590  13.698 -0.1558  0.5839 -0.2546
 7438SOL    HW133950   2.521   3.667  13.753 -1.6982 -0.4446  0.8260
 7438SOL    HW233951   2.593   3.621  13.629  0.0565 -1.4540 -0.9992
 7439SOL     OW33952   0.368   2.593   7.832  0.1010  0.4099 -0.1269
 7439SOL    HW133953   0.404   2.574   7.746  4.0332  1.1657  1.3228
 7439SOL    HW233954   0.293   2.647   7.809  0.8578  1.9207  0.9513
 7440SOL     OW33955   3.962   3.790  13.753  0.3513 -0.3479 -0.1038
 7440SOL    HW133956   3.881   3.840  13.766 -0.1872 -1.5082  0.9489
 7440SOL    HW233957   4.020   3.842  13.809  0.4306 -0.0208 -0.4936
 7441SOL     OW33958   2.583   3.024   6.870 -0.0942 -0.0551  0.0212
 7441SOL    HW133959   2.642   3.044   6.943  0.8631 -0.4360 -0.6457
 7441SOL    HW233960   2.523   3.096   6.888  2.1424  2.0672 -0.9968
 7442SOL     OW33961   3.459   4.578   4.703  0.1410  0.1335  0.1145
 7442SOL    HW133962   3.435   4.541   4.618  3.2592  0.8653 -1.0982
 7442SOL    HW233963   3.381   4.558   4.755 -0.0927  0.1221 -0.2410
 7443SOL     OW33964   1.838   3.493   1.525  0.0395 -0.4219 -0.4052
 7443SOL    HW133965   1.839   3.459   1.436 -1.5166 -1.9887  0.1824
 7443SOL    HW233966   1.798   3.576   1.502  1.6219  0.0983 -1.3103
 7444SOL     OW33967   2.138   3.398   1.496  0.0271  0.2467  0.1003
 7444SOL    HW133968   2.062   3.454   1.509 -1.7995 -1.3930 -3.4233
 7444SOL    HW233969   2.206   3.450   1.539  1.5889 -1.8734  0.1842
 7445SOL     OW33970   0.667   3.100   7.409  0.3411  0.0566  0.0181
 7445SOL    HW133971   0.681   3.044   7.486 -0.0476  0.0221  0.0633
 7445SOL    HW233972   0.624   3.038   7.350 -0.5238  0.4758  0.2054
 7446SOL     OW33973   4.045   3.331   3.104  1.3112 -0.2846 -0.7931
 7446SOL    HW133974   4.095   3.277   3.165  1.0255 -0.9777 -1.1724
 7446SOL    HW233975   4.025   3.396   3.171 -2.8676  0.1857 -2.5117
 7447SOL     OW33976   2.319   3.393   3.996  0.1257  0.3054  0.3852
 7447SOL    HW133977   2.271   3.323   4.040  1.2588  0.4157  1.7994
 7447SOL    HW233978   2.394   3.423   4.048  1.3642  0.7934 -1.6876
 7448SOL     OW33979   2.253   3.132   1.089  0.0439 -0.1336  0.5396
 7448SOL    HW133980   2.334   3.180   1.107 -2.6927  5.0925 -0.8893
 7448SOL    HW233981   2.194   3.173   1.154 -0.8676 -0.2495 -0.2162
 7449SOL     OW33982   0.626   1.171   3.026 -0.4933 -0.1472 -0.0076
 7449SOL    HW133983   0.648   1.138   3.114  1.9537 -1.3556 -1.0791
 7449SOL    HW233984   0.662   1.259   3.037  2.0527 -1.0752 -0.8815
 7450SOL     OW33985   2.956   3.406   5.305 -0.3747 -0.4898  0.0313
 7450SOL    HW133986   2.937   3.328   5.358 -1.7130  0.1865  0.5412
 7450SOL    HW233987   2.916   3.478   5.355  1.4927 -1.7718  3.4214
 7451SOL     OW33988   1.135   3.388   2.411 -0.1341  0.2767 -0.3659
 7451SOL    HW133989   1.114   3.463   2.467 -1.4337 -1.1184  1.0074
 7451SOL    HW233990   1.059   3.383   2.354 -1.7127  0.9645  1.6704
 7452SOL     OW33991   2.034   0.925   3.546  0.0262  0.1797 -0.6122
 7452SOL    HW133992   2.127   0.947   3.559  0.6680 -1.6945 -2.0798
 7452SOL    HW233993   2.012   1.018   3.548  0.5442  0.3134 -0.8962
 7453SOL     OW33994   4.277   1.680   5.149 -0.0754  0.6605  0.3084
 7453SOL    HW133995   4.208   1.623   5.114 -0.2118  1.2384 -0.3750
 7453SOL    HW233996   4.342   1.663   5.080 -1.4329  0.6699 -0.9829
 7454SOL     OW33997   1.057   2.051   0.308  0.2378 -0.1838 -0.0981
 7454SOL    HW133998   0.985   1.999   0.344 -1.2613  0.8356 -1.6657
 7454SOL    HW233999   1.056   2.028   0.215  0.9870 -2.8334  0.5505
 7455SOL     OW34000   2.727   3.478   6.608  0.5431  0.3127 -0.6084
 7455SOL    HW134001   2.702   3.415   6.676 -1.4824  0.4443 -1.2531
 7455SOL    HW234002   2.808   3.506   6.652 -1.2911  1.7737  1.8538
 7456SOL     OW34003   3.452   4.652   2.774  0.0214  0.1493  0.1212
 7456SOL    HW134004   3.544   4.633   2.761 -0.0358 -0.3932  0.5263
 7456SOL    HW234005   3.443   4.732   2.723 -1.0501 -1.5349 -2.3104
 7457SOL     OW34006   4.049   4.643   9.428 -0.4792 -0.1104 -0.6138
 7457SOL    HW134007   4.061   4.548   9.427  2.6679  0.3121 -1.5960
 7457SOL    HW234008   4.080   4.661   9.339 -1.3324  0.6417 -0.7614
 7458SOL     OW34009   1.732   4.633   7.292 -0.1421 -0.1803 -0.0954
 7458SOL    HW134010   1.683   4.714   7.279  1.1277  0.0154 -3.8891
 7458SOL    HW234011   1.806   4.655   7.235 -0.3305  1.6961  0.3795
 7459SOL     OW34012   1.949   0.088  16.632 -0.6206  0.2396  0.1941
 7459SOL    HW134013   1.992   0.035  16.564 -2.5360 -1.6575  0.4632
 7459SOL    HW234014   2.016   0.089  16.700  0.5127  2.0412 -0.9340
 7460SOL     OW34015   1.782   2.032   9.589 -0.4285 -0.3399  0.0307
 7460SOL    HW134016   1.790   2.120   9.552  0.9756 -0.2675  0.5002
 7460SOL    HW234017   1.763   2.062   9.678  2.8770 -0.9831  0.9489
 7461SOL     OW34018   4.696   3.388  15.962  0.1703 -0.2747 -0.6778
 7461SOL    HW134019   4.657   3.327  16.024  0.4064 -0.3343 -0.5912
 7461SOL    HW234020   0.039   3.338  15.943  0.7058 -0.5676  2.4380
 7462SOL     OW34021   2.677   1.637   3.253 -0.5382 -0.3954  0.2655
 7462SOL    HW134022   2.691   1.593   3.337  1.2615  0.4074  0.3953
 7462SOL    HW234023   2.651   1.562   3.200 -0.9028  1.7082 -2.5361
 7463SOL     OW34024   2.670   0.671   3.070 -0.3055  0.4118  0.2704
 7463SOL    HW134025   2.708   0.585   3.051  0.4209  0.6138  0.8189
 7463SOL    HW234026   2.705   0.712   2.991  1.8788 -3.7535 -0.9013
 7464SOL     OW34027   2.354   1.444   7.710  0.2706  0.5851 -0.9820
 7464SOL    HW134028   2.438   1.403   7.689 -0.1933 -0.2423 -1.2376
 7464SOL    HW234029   2.382   1.534   7.725 -0.4488  0.5582  0.5451
 7465SOL     OW34030   1.952   3.627   4.566  0.5704 -0.0168  0.1645
 7465SOL    HW134031   2.021   3.569   4.597 -0.9637 -0.9627  1.8069
 7465SOL    HW234032   1.910   3.577   4.496 -2.1515  1.0063  1.0680
 7466SOL     OW34033   2.333   3.600  13.927 -0.0035 -0.0800 -0.6195
 7466SOL    HW134034   2.323   3.641  13.840  1.1092 -0.7187 -1.0501
 7466SOL    HW234035   2.347   3.684  13.971  1.5828  0.6605 -2.5071
 7467SOL     OW34036   2.302   2.829   9.630 -0.2890  0.2426  0.0044
 7467SOL    HW134037   2.243   2.807   9.558 -1.1870 -1.1218  1.1396
 7467SOL    HW234038   2.268   2.918   9.641  0.8366  0.6798 -0.0305
 7468SOL     OW34039   1.585   2.869   9.560 -0.7531  0.0466 -0.1165
 7468SOL    HW134040   1.517   2.802   9.550 -0.5460 -0.2063  0.1792
 7468SOL    HW234041   1.617   2.846   9.647  0.1594 -1.0564 -0.7488
 7469SOL     OW34042   1.574   2.811  11.863  0.3238 -0.7277 -0.5144
 7469SOL    HW134043   1.517   2.736  11.848 -1.9164  0.6115  1.3964
 7469SOL    HW234044   1.515   2.884  11.846  0.5883 -0.6085 -0.9255
 7470SOL     OW34045   1.532   4.238   6.776  1.0562  0.0002 -0.0664
 7470SOL    HW134046   1.529   4.168   6.711  1.3017 -1.2346  1.2648
 7470SOL    HW234047   1.545   4.317   6.723 -0.2948  1.1168  1.2830
 7471SOL     OW34048   0.369   0.637  11.417  0.1016  0.4750 -0.4674
 7471SOL    HW134049   0.303   0.660  11.482 -1.6058  0.2603 -2.1185
 7471SOL    HW234050   0.437   0.588  11.463 -1.2291 -0.1511  0.8257
 7472SOL     OW34051   2.371   3.845  13.418 -0.1638  0.4791 -0.2354
 7472SOL    HW134052   2.280   3.871  13.402 -0.0546  0.7172 -0.4600
 7472SOL    HW234053   2.387   3.789  13.342 -2.0248 -0.7606  0.3015
 7473SOL     OW34054   4.094   1.754   6.164  0.1992  0.7161 -0.5223
 7473SOL    HW134055   4.030   1.813   6.123  0.1396  1.7686  1.0993
 7473SOL    HW234056   4.137   1.822   6.215 -2.0701  0.0400  2.3131
 7474SOL     OW34057   2.420   2.748  15.805 -0.7253 -0.5409 -0.6222
 7474SOL    HW134058   2.365   2.770  15.730  0.5224  0.2731 -1.2796
 7474SOL    HW234059   2.503   2.795  15.802 -1.0015 -0.2241 -3.3187
 7475SOL     OW34060   0.994   0.393  13.315 -0.3624 -0.0201  0.3781
 7475SOL    HW134061   0.951   0.383  13.401 -2.6613  2.9569 -0.4131
 7475SOL    HW234062   1.079   0.432  13.335 -1.2477  2.1120 -0.0214
 7476SOL     OW34063   1.188   4.476   8.833 -0.0046 -0.1056 -0.3267
 7476SOL    HW134064   1.136   4.397   8.848 -2.3637  1.4150 -0.5580
 7476SOL    HW234065   1.276   4.438   8.830  1.3890  3.0065  0.7781
 7477SOL     OW34066   1.044   0.216   4.861 -0.2109 -0.2994 -0.2716
 7477SOL    HW134067   0.973   0.188   4.803  1.6327 -2.6062 -1.4048
 7477SOL    HW234068   1.094   0.266   4.796 -0.9892  0.4737 -0.2748
 7478SOL     OW34069   4.086   3.637  10.457  0.1454  0.3321 -0.6765
 7478SOL    HW134070   4.032   3.709  10.425  0.3582  1.0812  0.6538
 7478SOL    HW234071   4.017   3.575  10.481 -0.6135  1.3244 -0.2992
 7479SOL     OW34072   3.681   0.971   1.391  0.9033 -0.4052 -0.1913
 7479SOL    HW134073   3.693   1.013   1.476 -0.4514  0.6911 -0.5355
 7479SOL    HW234074   3.649   1.053   1.353 -0.0354 -0.3473  0.7424
 7480SOL     OW34075   0.106   4.027   4.506 -0.6715  0.5330 -0.0136
 7480SOL    HW134076   0.072   3.961   4.567  0.0921 -1.9806 -2.2856
 7480SOL    HW234077   0.179   3.983   4.463 -0.5815  0.2807  0.4011
 7481SOL     OW34078   3.688   0.736   6.480  0.5991  0.0647  0.2192
 7481SOL    HW134079   3.710   0.725   6.388 -1.2700 -2.6957  0.1079
 7481SOL    HW234080   3.596   0.715   6.464  0.4572  0.3058  0.7334
 7482SOL     OW34081   0.897   2.527   8.304 -0.1735 -0.1835 -0.1768
 7482SOL    HW134082   0.877   2.500   8.215 -1.1251  2.1960 -0.6947
 7482SOL    HW234083   0.856   2.614   8.303 -0.4271 -0.3197 -1.3349
 7483SOL     OW34084   4.289   0.299  10.774 -0.0229  0.0447  0.7378
 7483SOL    HW134085   4.372   0.304  10.726 -0.5777 -0.8548 -0.3380
 7483SOL    HW234086   4.252   0.382  10.744  0.3118  0.8507  2.6367
 7484SOL     OW34087   1.797   1.093   3.788  0.4366  0.7138 -0.2612
 7484SOL    HW134088   1.870   1.045   3.826 -0.3806  0.4006  0.9164
 7484SOL    HW234089   1.789   1.159   3.857 -0.3589 -0.4610  0.7710
 7485SOL     OW34090   0.560   2.937   7.244  0.0396  0.3567 -0.3445
 7485SOL    HW134091   0.527   2.990   7.171  1.0900 -0.1072 -1.1466
 7485SOL    HW234092   0.617   2.890   7.183  1.3927 -1.5267  2.3349
 7486SOL     OW34093   2.457   1.266   7.314  0.3825 -0.7668  0.2409
 7486SOL    HW134094   2.444   1.213   7.235 -1.6510  0.1190  0.0098
 7486SOL    HW234095   2.454   1.355   7.281 -1.1147 -0.0113  2.4554
 7487SOL     OW34096   0.490   1.759  10.455 -0.2522 -0.0611 -0.4139
 7487SOL    HW134097   0.488   1.784  10.547 -1.6873 -1.9534  0.0724
 7487SOL    HW234098   0.540   1.831  10.417  0.3685 -0.7480 -0.8821
 7488SOL     OW34099   3.741   1.309  15.704  0.2166  0.4262 -0.0964
 7488SOL    HW134100   3.718   1.283  15.614 -4.0185 -0.6928  1.3373
 7488SOL    HW234101   3.652   1.308  15.738 -0.4162  1.1161 -1.6983
 7489SOL     OW34102   3.269   2.733   2.427 -0.5178 -0.7705 -0.2545
 7489SOL    HW134103   3.309   2.646   2.422 -1.5189 -1.2807  0.5199
 7489SOL    HW234104   3.263   2.757   2.520 -1.5795  1.1932 -0.8113
 7490SOL     OW34105   1.306   0.297   4.365  0.5114 -0.0184  0.1479
 7490SOL    HW134106   1.356   0.351   4.426  1.6230  0.3990 -1.1204
 7490SOL    HW234107   1.370   0.300   4.293 -0.3794 -1.4584 -0.7058
 7491SOL     OW34108   1.833   0.182   8.450  0.7397 -0.5560  0.7897
 7491SOL    HW134109   1.835   0.095   8.410 -0.1821  1.1567 -2.9583
 7491SOL    HW234110   1.850   0.242   8.377 -0.3486  0.3621  1.3020
 7492SOL     OW34111   1.846   2.338   7.538 -0.5538 -0.3210  0.2759
 7492SOL    HW134112   1.796   2.338   7.620  0.2871  0.5024  0.7857
 7492SOL    HW234113   1.900   2.414   7.558 -0.7775 -0.3483  0.9880
 7493SOL     OW34114   3.236   1.917   6.641  0.4489  0.3806  0.8083
 7493SOL    HW134115   3.326   1.895   6.616 -0.6609  1.6364 -4.2664
 7493SOL    HW234116   3.247   2.012   6.637  0.8178  0.3032 -0.0028
 7494SOL     OW34117   0.323   4.227   6.482  0.2618 -0.2002 -0.3516
 7494SOL    HW134118   0.302   4.264   6.568  2.6295  0.6378 -0.1436
 7494SOL    HW234119   0.282   4.141   6.491  1.9314 -1.1492 -1.7729
 7495SOL     OW34120   4.653   1.049   5.194 -0.0472 -0.1758  0.5155
 7495SOL    HW134121   4.558   1.048   5.183  0.1240  0.4550 -1.0090
 7495SOL    HW234122   4.650   0.962   5.234  1.4043 -0.4345  0.0632
 7496SOL     OW34123   2.196   1.243  11.312  0.5093  0.7037 -0.2621
 7496SOL    HW134124   2.108   1.257  11.347  0.0825  1.0116 -1.4684
 7496SOL    HW234125   2.208   1.327  11.268  1.3310 -0.5322 -2.4448
 7497SOL     OW34126   0.094   4.359  14.267 -0.1370  0.2423  0.8530
 7497SOL    HW134127   0.180   4.323  14.290  0.9585  2.6835  0.5454
 7497SOL    HW234128   0.072   4.405  14.348  0.1445 -0.1771  1.1683
 7498SOL     OW34129   1.733   3.836   7.684 -0.1217 -0.5177  0.4073
 7498SOL    HW134130   1.787   3.757   7.697 -1.6321 -1.6671 -0.2994
 7498SOL    HW234131   1.782   3.888   7.621  0.6470 -0.2825  1.1897
 7499SOL     OW34132   0.565   3.377   9.730  0.3320  0.0300 -0.0492
 7499SOL    HW134133   0.509   3.332   9.793 -0.6112  0.8399 -0.3178
 7499SOL    HW234134   0.530   3.466   9.732  1.5960  0.5069  0.9758
 7500SOL     OW34135   2.700   2.816  15.419 -0.4953  0.3901 -0.3823
 7500SOL    HW134136   2.616   2.856  15.443  0.1382  0.1880  2.1481
 7500SOL    HW234137   2.671   2.754  15.353  2.6964  0.0822 -1.4772
 7501SOL     OW34138   4.436   2.573  14.967 -0.4489  0.1232  0.6964
 7501SOL    HW134139   4.409   2.482  14.976  0.0628  0.4059  5.1002
 7501SOL    HW234140   4.505   2.562  14.902 -0.5897  0.1157  0.5481
 7502SOL     OW34141   2.131   1.731   7.796 -0.1466 -0.3892 -0.8219
 7502SOL    HW134142   2.114   1.657   7.855 -1.6758  1.7843  1.5009
 7502SOL    HW234143   2.073   1.719   7.721 -0.4151 -0.6417 -0.5758
 7503SOL     OW34144   3.476   0.665   3.402  0.7373 -0.0681 -0.5714
 7503SOL    HW134145   3.528   0.738   3.370  0.5586  0.2800 -0.0677
 7503SOL    HW234146   3.390   0.700   3.382  0.9696  0.6522 -0.2907
 7504SOL     OW34147   3.026   0.165   8.369 -0.0724 -0.0534 -0.0153
 7504SOL    HW134148   2.987   0.150   8.455  0.1317 -1.6090 -0.1908
 7504SOL    HW234149   3.071   0.248   8.383  1.6549 -0.8131 -1.1093
 7505SOL     OW34150   2.367   3.715  15.705 -0.3738 -0.0006  0.1871
 7505SOL    HW134151   2.294   3.706  15.767 -0.3029  0.5093  0.3432
 7505SOL    HW234152   2.336   3.673  15.625 -1.3569  0.5917  0.2652
 7506SOL     OW34153   2.637   4.401   8.014  0.6808  0.0781  0.2971
 7506SOL    HW134154   2.570   4.463   8.041  1.6315  0.8504  0.8522
 7506SOL    HW234155   2.658   4.370   8.102  1.1076  1.3137  0.6209
 7507SOL     OW34156   0.729   3.606   8.113  0.5859  0.2917  0.3959
 7507SOL    HW134157   0.669   3.537   8.084  1.2141  0.2698 -0.8694
 7507SOL    HW234158   0.760   3.645   8.031  0.6005 -1.6345 -0.5182
 7508SOL     OW34159   4.512   4.302  11.739  0.3347 -0.3558  0.6849
 7508SOL    HW134160   4.600   4.329  11.711 -0.0509  1.2442  1.0251
 7508SOL    HW234161   4.483   4.381  11.784 -0.3354  0.6617 -1.5447
 7509SOL     OW34162   3.656   3.553   3.264  0.1858 -0.9167 -0.2937
 7509SOL    HW134163   3.664   3.546   3.168  1.1690  1.4540 -0.3865
 7509SOL    HW234164   3.564   3.570   3.281  0.7382  2.4347 -0.7661
 7510SOL     OW34165   3.327   3.847   5.072  0.0013  0.1563 -0.2269
 7510SOL    HW134166   3.343   3.780   5.006 -0.5328  1.6950 -1.9038
 7510SOL    HW234167   3.319   3.923   5.016  2.6140 -0.4904 -1.5003
 7511SOL     OW34168   0.600   0.786   3.179  0.1127  0.3259  0.5094
 7511SOL    HW134169   0.605   0.698   3.143  2.1039  0.9024 -0.6189
 7511SOL    HW234170   0.636   0.782   3.267  0.3404  0.5475  0.4270
 7512SOL     OW34171   4.586   0.223   6.072 -0.1281  0.8095 -0.6472
 7512SOL    HW134172   4.679   0.242   6.061  0.1924 -0.5298 -0.3122
 7512SOL    HW234173   4.551   0.224   5.983 -2.1657 -3.0442  0.0959
 7513SOL     OW34174   3.740   2.789   3.593 -0.0277 -0.0725  0.2794
 7513SOL    HW134175   3.731   2.759   3.684 -0.3046 -0.0815  0.2500
 7513SOL    HW234176   3.686   2.868   3.591  2.3608  1.4781 -2.9894
 7514SOL     OW34177   3.356   1.987  17.029  0.5766  0.5250  0.2481
 7514SOL    HW134178   3.271   1.944  17.027 -0.8327  3.0829  3.8644
 7514SOL    HW234179   3.369   2.025  16.942 -2.2286 -0.1087 -0.4418
 7515SOL     OW34180   1.777   0.197   1.830  0.2031 -0.2320 -0.0028
 7515SOL    HW134181   1.795   0.279   1.877  0.7399 -1.6769  2.2905
 7515SOL    HW234182   1.817   0.218   1.745 -1.4227 -1.9266 -1.1798
 7516SOL     OW34183   0.943   2.890   7.842  0.3321  0.2072  0.1908
 7516SOL    HW134184   0.882   2.850   7.780 -0.1079  0.1352  0.6692
 7516SOL    HW234185   0.882   2.952   7.882 -0.6093 -0.1666 -0.6666
 7517SOL     OW34186   1.101   4.201   7.413  0.7867  0.1092  0.4265
 7517SOL    HW134187   1.150   4.206   7.331 -0.5420 -1.9811 -0.5009
 7517SOL    HW234188   1.016   4.181   7.374  0.4897  1.1289  0.5487
 7518SOL     OW34189   0.142   2.764   7.749  0.2830  0.0948 -0.1471
 7518SOL    HW134190   0.096   2.794   7.672  1.9786 -1.2030 -1.6733
 7518SOL    HW234191   0.073   2.777   7.814  0.5034 -2.4233  0.6039
 7519SOL     OW34192   3.293   3.122   5.702 -0.0316 -0.2373  0.1241
 7519SOL    HW134193   3.333   3.035   5.698  0.8200  0.2608 -2.2129
 7519SOL    HW234194   3.360   3.165   5.649 -1.3586  1.7176  0.0142
 7520SOL     OW34195   2.536   2.087  14.724  0.2025  0.3712 -0.3629
 7520SOL    HW134196   2.473   2.119  14.661  1.3953  2.8113 -0.3182
 7520SOL    HW234197   2.598   2.036  14.671  1.5512  1.6563 -0.0429
 7521SOL     OW34198   1.346   4.576   5.656 -0.2252  0.4397 -0.3261
 7521SOL    HW134199   1.423   4.538   5.697 -0.5319 -1.5725 -1.6235
 7521SOL    HW234200   1.302   4.494   5.635 -3.1505  2.5050 -2.4044
 7522SOL     OW34201   4.174   0.195  14.190  0.0945  0.5716 -0.2485
 7522SOL    HW134202   4.109   0.178  14.121  0.1019  2.1487 -0.6563
 7522SOL    HW234203   4.130   0.171  14.271  1.2950 -2.3949 -0.4875
 7523SOL     OW34204   3.540   3.085   2.007 -0.2654 -0.2118 -0.3923
 7523SOL    HW134205   3.546   3.142   2.084 -1.0748  0.3005 -0.7067
 7523SOL    HW234206   3.445   3.085   2.011 -0.2533  2.1835 -0.0113
 7524SOL     OW34207   2.280   0.832   0.253 -0.3475  0.5320  0.1898
 7524SOL    HW134208   2.224   0.822   0.329  0.2892 -0.8898  0.4537
 7524SOL    HW234209   2.246   0.768   0.191  2.7008 -0.0486 -0.9046
 7525SOL     OW34210   4.541   3.055   6.260 -0.4097 -0.4184  0.5358
 7525SOL    HW134211   4.636   3.059   6.252 -0.3734 -1.2341  0.5826
 7525SOL    HW234212   4.537   3.035   6.354 -0.5893 -1.4032  0.3150
 7526SOL     OW34213   0.345   3.964  15.058  0.1214  0.1419  0.3060
 7526SOL    HW134214   0.311   3.931  14.975  1.3382 -2.4580  0.8404
 7526SOL    HW234215   0.379   4.041  15.013 -1.8399 -0.5299 -2.3150
 7527SOL     OW34216   2.926   2.492  12.460  0.0394 -0.7053 -0.0149
 7527SOL    HW134217   2.909   2.444  12.542 -1.5625  0.4452  0.3262
 7527SOL    HW234218   2.966   2.424  12.407 -1.5886 -1.3479 -0.4221
 7528SOL     OW34219   4.723   3.919  17.313 -0.3986  0.6518 -0.4143
 7528SOL    HW134220   0.075   3.953  17.332 -0.1668  0.8452 -1.8182
 7528SOL    HW234221   4.725   3.828  17.342  3.7869  1.0381  0.5714
 7529SOL     OW34222   3.394   1.248   6.760 -0.0959  0.1878 -0.8175
 7529SOL    HW134223   3.478   1.204   6.770  0.7187  1.5871 -1.6333
 7529SOL    HW234224   3.377   1.281   6.849  0.1206 -2.4583  0.2085
 7530SOL     OW34225   0.137   0.984   5.943  0.5585 -0.4257  0.0566
 7530SOL    HW134226   0.042   0.990   5.951  0.6583 -2.5081  2.6008
 7530SOL    HW234227   0.167   1.025   6.024  2.6535 -0.7869 -0.5267
 7531SOL     OW34228   4.093   0.196   3.089  0.2791  0.1165  0.3745
 7531SOL    HW134229   4.095   0.101   3.075  1.0944 -0.0664  1.8094
 7531SOL    HW234230   4.158   0.224   3.153 -0.1463 -0.3860  1.0272
 7532SOL     OW34231   1.219   2.311  15.306  0.4574  0.0784 -0.5749
 7532SOL    HW134232   1.206   2.315  15.401  0.2431 -1.3087 -0.5461
 7532SOL    HW234233   1.133   2.282  15.274  1.5488 -3.9492  0.1706
 7533SOL     OW34234   3.699   1.753   1.690  0.3713  0.9376 -0.1170
 7533SOL    HW134235   3.610   1.719   1.702  0.2518  1.3541  0.1784
 7533SOL    HW234236   3.692   1.796   1.605  0.2781 -3.4841 -2.3769
 7534SOL     OW34237   4.004   1.966   5.376  0.1483  0.9214 -0.4912
 7534SOL    HW134238   4.096   1.949   5.353 -0.0980 -1.0662  0.0326
 7534SOL    HW234239   4.016   2.059   5.393 -0.3292  0.9210 -0.1553
 7535SOL     OW34240   1.228   1.402   6.602 -0.2694  0.5107  0.2953
 7535SOL    HW134241   1.145   1.401   6.554  0.3369  2.0247 -0.8102
 7535SOL    HW234242   1.211   1.346   6.678  0.7224 -1.4420 -0.9331
 7536SOL     OW34243   0.135   2.314  14.406  0.2114  0.1130  0.2756
 7536SOL    HW134244   0.124   2.218  14.404 -2.4815  0.4688 -1.2181
 7536SOL    HW234245   0.230   2.314  14.418  0.3642  0.2412 -0.9452
 7537SOL     OW34246   3.873   1.733   2.417  0.3975 -0.0116  0.1276
 7537SOL    HW134247   3.821   1.805   2.453 -0.5986 -0.0197 -1.2946
 7537SOL    HW234248   3.929   1.706   2.490  1.9949  0.1785 -1.0291
 7538SOL     OW34249   3.077   3.131   8.109 -0.0941  0.3974 -0.0149
 7538SOL    HW134250   3.044   3.094   8.191  1.9626 -0.7577  0.3206
 7538SOL    HW234251   3.132   3.058   8.079 -1.5555 -0.4775 -0.5572
 7539SOL     OW34252   2.297   0.585  12.245 -0.1128 -0.4593  0.1128
 7539SOL    HW134253   2.277   0.525  12.317 -1.4723 -0.9486 -0.6657
 7539SOL    HW234254   2.378   0.548  12.210 -0.2709 -1.2715  0.5856
 7540SOL     OW34255   4.276   3.756   9.774  0.2476  0.3700  0.3520
 7540SOL    HW134256   4.318   3.671   9.783 -1.6272 -0.7013 -1.0218
 7540SOL    HW234257   4.201   3.723   9.725  1.5072 -2.7223  0.5036
 7541SOL     OW34258   1.587   0.574   2.657 -0.0223 -0.5793  0.4101
 7541SOL    HW134259   1.634   0.629   2.719 -1.4172  0.4016  0.5982
 7541SOL    HW234260   1.550   0.513   2.721 -2.4015 -1.3185 -1.6496
 7542SOL     OW34261   3.694   0.225  16.818  0.0345  0.0082 -0.3266
 7542SOL    HW134262   3.675   0.131  16.830 -2.0421  0.2452 -1.7386
 7542SOL    HW234263   3.671   0.237  16.726 -3.1029  0.6448  0.5501
 7543SOL     OW34264   1.353   4.480   6.809 -0.1411  0.2328  0.2987
 7543SOL    HW134265   1.437   4.477   6.763  1.8406  2.9973  3.7608
 7543SOL    HW234266   1.299   4.486   6.730 -0.7743  0.7645  0.7738
 7544SOL     OW34267   0.580   3.545   4.039 -0.1186  0.0052 -0.0406
 7544SOL    HW134268   0.534   3.589   4.111 -1.0874 -0.1209 -0.5921
 7544SOL    HW234269   0.556   3.598   3.964 -0.3870 -0.8899 -0.5785
 7545SOL     OW34270   0.095   3.685   7.399 -0.4929  0.0732  0.3299
 7545SOL    HW134271   0.190   3.684   7.398 -0.4766  1.4708 -0.1370
 7545SOL    HW234272   0.105   3.770   7.443  1.2312  0.8542 -1.5994
 7546SOL     OW34273   4.245   3.857   8.171 -0.2665 -0.0208  0.1680
 7546SOL    HW134274   4.323   3.904   8.141 -0.0075 -0.2426  0.4965
 7546SOL    HW234275   4.278   3.792   8.234 -0.3246  1.2664  1.5378
 7547SOL     OW34276   4.655   3.301   7.970 -1.3865 -0.6333  0.4654
 7547SOL    HW134277   4.719   3.318   8.039 -1.9477 -1.0178  1.0816
 7547SOL    HW234278   4.570   3.317   8.011 -1.3638  0.0382  0.2526
 7548SOL     OW34279   2.330   3.245  17.289 -0.4441 -0.0823 -0.8362
 7548SOL    HW134280   2.249   3.260  17.339  0.4945  1.5609  0.1643
 7548SOL    HW234281   2.397   3.245  17.357 -0.6979 -1.0174 -0.5824
 7549SOL     OW34282   1.101   1.752   8.727 -0.1890  0.2989 -0.9356
 7549SOL    HW134283   1.178   1.752   8.671  0.5219  0.1921  0.0495
 7549SOL    HW234284   1.094   1.846   8.740  3.2586  0.2718  0.9427
 7550SOL     OW34285   3.075   0.191   3.350 -0.2523 -0.3504 -0.1315
 7550SOL    HW134286   2.987   0.156   3.336  0.1541 -1.6700  0.6114
 7550SOL    HW234287   3.055   0.249   3.423  2.5121 -0.1465  0.4641
 7551SOL     OW34288   1.519   2.123   3.571  0.7488 -0.3913  0.0892
 7551SOL    HW134289   1.546   2.207   3.609  0.3873  0.4821 -1.5813
 7551SOL    HW234290   1.601   2.084   3.541  1.8819  2.0930 -0.0813
 7552SOL     OW34291   4.407   0.119   4.761 -0.0840 -0.4303  0.2762
 7552SOL    HW134292   4.398   0.025   4.751  3.0645 -0.5400 -1.3895
 7552SOL    HW234293   4.498   0.125   4.733  0.3214 -1.3720  1.4073
 7553SOL     OW34294   1.249   3.694   2.136  0.0493 -0.1655  0.0648
 7553SOL    HW134295   1.271   3.646   2.216 -0.0756  0.9671  0.7663
 7553SOL    HW234296   1.178   3.640   2.101  1.6768 -0.6573 -2.4340
 7554SOL     OW34297   3.739   4.679  16.904 -0.1376 -0.0740  0.3543
 7554SOL    HW134298   3.812   4.685  16.843 -0.6831 -0.6097 -0.3518
 7554SOL    HW234299   3.690   4.619  16.847 -0.8480 -0.3906  1.2854
 7555SOL     OW34300   0.262   4.088   0.273 -0.6729  0.0710  0.0375
 7555SOL    HW134301   0.192   4.079   0.207 -0.1382  0.7585 -0.6137
 7555SOL    HW234302   0.241   4.031   0.347 -1.9513 -1.3188 -1.3549
 7556SOL     OW34303   0.003   2.080  14.662  0.4018 -0.3628 -0.7200
 7556SOL    HW134304   0.013   2.030  14.581 -0.0992  1.0375 -1.6421
 7556SOL    HW234305   0.087   2.055  14.701  0.4078  0.3991 -0.2545
 7557SOL     OW34306   2.232   3.962   7.894 -0.1338  0.6298  0.0314
 7557SOL    HW134307   2.302   3.963   7.958 -0.0121  2.8755 -0.1425
 7557SOL    HW234308   2.192   3.880   7.923  2.6724 -0.5250  0.6355
 7558SOL     OW34309   3.769   3.036   8.077  0.0949  0.3764 -0.3838
 7558SOL    HW134310   3.692   3.092   8.077 -0.8701 -0.9518  0.6427
 7558SOL    HW234311   3.795   3.028   7.985 -2.4862  0.3383 -1.1038
 7559SOL     OW34312   3.503   3.706   1.827 -0.0263  0.2071  0.4920
 7559SOL    HW134313   3.538   3.791   1.852  1.2337  0.0201 -0.5807
 7559SOL    HW234314   3.415   3.711   1.864  0.2382 -0.0814  1.1608
 7560SOL     OW34315   2.122   3.507   9.636 -0.0842 -0.5656 -0.1363
 7560SOL    HW134316   2.211   3.521   9.603  0.0130 -0.2970  0.2375
 7560SOL    HW234317   2.120   3.563   9.714  0.2163  1.4472 -1.5848
 7561SOL     OW34318   4.262   1.819  16.997 -0.3370  0.0923  0.1449
 7561SOL    HW134319   4.352   1.811  17.027  0.4612  0.4457 -2.1850
 7561SOL    HW234320   4.216   1.840  17.078  1.5113 -1.7309  1.6650
 7562SOL     OW34321   1.754   3.134  13.194  0.5405  0.2915  0.3534
 7562SOL    HW134322   1.748   3.070  13.123  0.0137 -0.6252  1.2029
 7562SOL    HW234323   1.718   3.093  13.274 -0.2690  0.6023  0.1484
 7563SOL     OW34324   3.694   1.470  15.083 -0.0175 -0.3759  0.4774
 7563SOL    HW134325   3.662   1.483  15.172 -0.2687  0.8293  0.2030
 7563SOL    HW234326   3.755   1.399  15.102 -0.2208 -0.1825  1.8505
 7564SOL     OW34327   2.822   4.252   6.182 -0.0741  0.0619  0.0866
 7564SOL    HW134328   2.757   4.266   6.113  1.7094 -0.2388 -1.6545
 7564SOL    HW234329   2.803   4.326   6.238  1.2626 -0.6697  1.4877
 7565SOL     OW34330   2.996   4.314   7.381  0.1224 -0.1030 -0.0786
 7565SOL    HW134331   3.086   4.344   7.395  0.2368 -1.1496  1.4824
 7565SOL    HW234332   2.975   4.348   7.294  2.6150 -0.6358 -0.8803
 7566SOL     OW34333   3.093   4.606   7.063 -0.0603 -0.0617  0.0607
 7566SOL    HW134334   3.146   4.527   7.079 -0.8150 -0.4069  0.8790
 7566SOL    HW234335   3.015   4.557   7.091 -0.5223  0.5776 -0.1236
 7567SOL     OW34336   2.076   2.093   5.582 -0.7102  0.1216  0.1209
 7567SOL    HW134337   1.986   2.065   5.601 -0.4562 -0.4874  0.4473
 7567SOL    HW234338   2.059   2.178   5.541 -3.2737 -0.1774  0.5542
 7568SOL     OW34339   0.705   0.373   5.086  0.5764 -0.1010  0.0813
 7568SOL    HW134340   0.760   0.450   5.074 -3.4167  3.0783  2.3815
 7568SOL    HW234341   0.696   0.359   5.180 -1.2575 -1.3208 -0.2616
 7569SOL     OW34342   4.538   3.195  15.120  0.4386  0.1317  0.0247
 7569SOL    HW134343   4.600   3.198  15.047  1.6755 -1.0244  1.0378
 7569SOL    HW234344   4.486   3.117  15.102  0.6599  0.0018 -0.0465
 7570SOL     OW34345   2.367   1.120   7.088 -0.3152  0.1312  0.0707
 7570SOL    HW134346   2.378   1.128   6.994 -1.7235 -0.8387 -0.1730
 7570SOL    HW234347   2.312   1.042   7.095 -0.2448 -0.1894 -3.0152
 7571SOL     OW34348   3.758   3.764   5.955  0.7694 -0.5750  0.3140
 7571SOL    HW134349   3.836   3.802   5.915  1.2342 -0.8766  0.9306
 7571SOL    HW234350   3.767   3.677   5.916 -0.4358 -1.1483  1.2887
 7572SOL     OW34351   2.423   2.475   0.952  0.0373 -0.4192 -0.0139
 7572SOL    HW134352   2.467   2.483   0.867 -0.5438  1.6346 -0.1182
 7572SOL    HW234353   2.489   2.431   1.005  0.0489 -1.6249 -1.0205
 7573SOL     OW34354   2.989   0.562   3.393 -0.2795 -0.1537  0.2801
 7573SOL    HW134355   2.908   0.552   3.343  0.4863  0.4600 -1.0786
 7573SOL    HW234356   2.981   0.491   3.456 -2.3411  0.0177  0.2103
 7574SOL     OW34357   0.711   3.531   4.832 -0.6107 -0.1134 -0.0395
 7574SOL    HW134358   0.746   3.618   4.850 -1.6680  0.3637 -0.2692
 7574SOL    HW234359   0.783   3.475   4.858 -1.4672 -1.9898 -1.6751
 7575SOL     OW34360   0.786   3.017   9.318 -1.0745  0.1504 -0.7073
 7575SOL    HW134361   0.868   2.969   9.304 -2.0706 -2.7196  3.1002
 7575SOL    HW234362   0.813   3.105   9.293 -1.7528 -0.1474 -2.4842
 7576SOL     OW34363   2.432   3.826   4.084  0.2130  0.3710  0.1818
 7576SOL    HW134364   2.346   3.786   4.077  0.5290 -0.5624  1.6668
 7576SOL    HW234365   2.417   3.883   4.160  0.1968 -0.2881  0.6701
 7577SOL     OW34366   4.122   3.999  13.137 -0.1362  0.0982  0.5541
 7577SOL    HW134367   4.101   4.035  13.051 -0.6463  1.2286  1.1578
 7577SOL    HW234368   4.197   4.055  13.156  0.0038  0.1119 -0.0400
 7578SOL     OW34369   2.518   0.745   3.818  0.2653 -0.4731 -0.2398
 7578SOL    HW134370   2.440   0.739   3.762 -0.7390  2.0097  0.8661
 7578SOL    HW234371   2.483   0.707   3.899  0.8609  1.7382  1.0594
 7579SOL     OW34372   0.040   0.370   1.290  0.4850 -0.1251 -0.3504
 7579SOL    HW134373   0.079   0.284   1.275 -2.1360 -1.1224 -1.6224
 7579SOL    HW234374   0.085   0.407   1.366  1.8548 -0.4042 -1.0331
 7580SOL     OW34375   3.770   3.363  14.850  0.0452 -0.3992  0.5430
 7580SOL    HW134376   3.808   3.440  14.892 -1.1066  1.8771 -2.5621
 7580SOL    HW234377   3.846   3.315  14.817  0.3078  0.5593 -0.2473
 7581SOL     OW34378   4.405   2.832   1.663  0.1730  0.0916  0.0609
 7581SOL    HW134379   4.368   2.838   1.575 -1.6463 -3.0227  0.6126
 7581SOL    HW234380   4.433   2.922   1.677 -0.5900  0.7482 -2.7572
 7582SOL     OW34381   0.998   1.680   2.624 -0.0049 -0.3720  0.5312
 7582SOL    HW134382   0.926   1.740   2.605  0.6680  0.9155  2.0439
 7582SOL    HW234383   1.071   1.740   2.637 -0.4348  0.5707 -1.3323
 7583SOL     OW34384   1.137   1.304   9.514  0.0618 -0.0538 -0.2589
 7583SOL    HW134385   1.066   1.270   9.459 -0.9170 -0.0609  1.0125
 7583SOL    HW234386   1.194   1.355   9.456 -1.2817 -1.0103 -2.4044
 7584SOL     OW34387   0.353   3.384   4.677  0.5689  0.0635  0.2975
 7584SOL    HW134388   0.346   3.443   4.752  1.5861  0.5301  0.0253
 7584SOL    HW234389   0.304   3.311   4.716 -0.5657 -0.3009 -1.8568
 7585SOL     OW34390   0.482   3.161   7.119  0.4557 -0.0787 -0.2036
 7585SOL    HW134391   0.388   3.169   7.107  0.4618 -0.3099 -0.3981
 7585SOL    HW234392   0.505   3.161   7.026 -2.5643 -1.6523 -0.9515
 7586SOL     OW34393   4.537   3.489  10.135 -0.3979  0.5218  0.2954
 7586SOL    HW134394   4.489   3.406  10.140 -2.2169  1.5625 -0.0880
 7586SOL    HW234395   4.572   3.488  10.224 -1.7950 -0.2498  0.8418
 7587SOL     OW34396   2.423   2.693   6.136 -0.2162  0.1620 -0.0199
 7587SOL    HW134397   2.389   2.657   6.218  0.7542 -0.3785  0.1445
 7587SOL    HW234398   2.345   2.733   6.099  0.0877  1.0191  0.2705
 7588SOL     OW34399   4.554   3.543  14.850  0.5455 -0.3027  0.0388
 7588SOL    HW134400   4.471   3.520  14.891  0.1412 -3.0682 -2.3521
 7588SOL    HW234401   4.560   3.474  14.784 -1.5324  0.9686 -1.4960
 7589SOL     OW34402   3.920   2.646   4.752  0.0869 -0.1034  0.0233
 7589SOL    HW134403   3.835   2.638   4.793 -0.7378  0.1646 -1.6155
 7589SOL    HW234404   3.965   2.568   4.784  0.9046  0.3780  0.0641
 7590SOL     OW34405   0.340   0.763   2.981  0.2913  0.3994  0.3485
 7590SOL    HW134406   0.371   0.848   2.950 -0.7070 -0.5140 -3.1152
 7590SOL    HW234407   0.302   0.795   3.064 -1.6383  1.1025 -0.7981
 7591SOL     OW34408   3.411   1.314  12.566  0.0381  0.3447 -0.2992
 7591SOL    HW134409   3.468   1.364  12.506  1.1238 -0.9557 -0.3425
 7591SOL    HW234410   3.365   1.262  12.501 -0.0276  3.1640 -2.5547
 7592SOL     OW34411   3.676   2.622   8.987 -0.2331 -0.0103  0.0321
 7592SOL    HW134412   3.754   2.653   8.940 -0.2162 -1.0736 -0.6302
 7592SOL    HW234413   3.691   2.527   8.984 -2.5506 -0.3783  0.4658
 7593SOL     OW34414   3.542   3.523  16.484 -0.0337 -0.0739 -0.0991
 7593SOL    HW134415   3.534   3.472  16.403 -1.9491  0.8899 -0.5312
 7593SOL    HW234416   3.496   3.470  16.548 -2.2758  1.0152 -0.8167
 7594SOL     OW34417   1.720   1.246   5.604 -0.3898 -0.1218  0.2969
 7594SOL    HW134418   1.754   1.214   5.688  1.3399 -0.8601 -0.6779
 7594SOL    HW234419   1.665   1.171   5.582 -0.8331  0.6203 -1.0526
 7595SOL     OW34420   2.842   2.339   9.802  0.1604 -1.3642  0.5687
 7595SOL    HW134421   2.818   2.431   9.814 -0.9994 -1.5017 -0.6915
 7595SOL    HW234422   2.764   2.297   9.765 -0.0355 -0.1813 -0.3354
 7596SOL     OW34423   0.593   2.028  17.227 -0.0240  0.0730  0.0263
 7596SOL    HW134424   0.651   2.104  17.223 -0.9361  0.8142  0.8811
 7596SOL    HW234425   0.595   1.993  17.138 -1.8502  1.8632 -0.7258
 7597SOL     OW34426   0.682   1.912  13.096 -0.8524 -0.2763  0.0847
 7597SOL    HW134427   0.624   1.846  13.132  1.0602 -1.4648  0.9753
 7597SOL    HW234428   0.727   1.930  13.178  0.0179 -2.5691  0.1226
 7598SOL     OW34429   2.860   4.713  15.359 -0.1922 -0.2951 -0.0649
 7598SOL    HW134430   2.888   4.670  15.278  1.1135  1.6106 -0.6481
 7598SOL    HW234431   2.775   4.673  15.373  0.7775 -1.8108  1.5057
 7599SOL     OW34432   0.397   1.564   6.378 -1.0145  0.3365 -0.2818
 7599SOL    HW134433   0.441   1.587   6.460 -0.6040 -0.5599 -0.2486
 7599SOL    HW234434   0.432   1.477   6.359  0.9250  0.9715  0.4344
 7600SOL     OW34435   0.965   3.180   7.418  0.4439 -0.8087  0.2029
 7600SOL    HW134436   0.871   3.174   7.402  0.1345  2.0088  0.9212
 7600SOL    HW234437   0.971   3.176   7.514 -0.0929 -0.4385  0.2564
 7601SOL     OW34438   2.505   0.979   0.113 -0.7815 -0.1839  0.3779
 7601SOL    HW134439   2.452   1.017   0.184 -0.5674  1.2764 -0.2404
 7601SOL    HW234440   2.519   1.051   0.051  1.0110 -1.1329 -0.3200
 7602SOL     OW34441   2.809   0.662  17.283 -0.3401 -0.3780  0.7907
 7602SOL    HW134442   2.866   0.725  17.328  0.9644  0.6593 -2.2965
 7602SOL    HW234443   2.731   0.710  17.255  0.6837  1.5326  1.2125
 7603SOL     OW34444   4.230   4.609   2.051  0.1641 -0.4172 -0.0287
 7603SOL    HW134445   4.143   4.572   2.064  0.2556 -1.0383 -1.2127
 7603SOL    HW234446   4.290   4.536   2.064 -1.7260 -1.9406  0.1077
 7604SOL     OW34447   2.294   3.630   1.547 -0.4450  0.0085  0.2004
 7604SOL    HW134448   2.324   3.720   1.550  1.5913 -0.6507 -0.4437
 7604SOL    HW234449   2.378   3.596   1.579 -1.7339 -0.8712  2.6359
 7605SOL     OW34450   0.784   2.637   3.689 -0.5660  0.1020 -0.0068
 7605SOL    HW134451   0.879   2.651   3.683 -0.7116  1.5588  1.2003
 7605SOL    HW234452   0.749   2.649   3.601 -0.7387 -1.4139 -0.1431
 7606SOL     OW34453   3.579   0.708   7.783 -0.1652 -0.5394 -0.0236
 7606SOL    HW134454   3.539   0.718   7.869 -0.3895  0.6886 -0.2806
 7606SOL    HW234455   3.631   0.788   7.776 -2.1002  0.6638 -0.4680
 7607SOL     OW34456   4.498   3.986  13.278  0.0608 -0.5484  0.8249
 7607SOL    HW134457   4.540   4.067  13.250  1.9929 -2.7890 -2.7175
 7607SOL    HW234458   4.431   4.011  13.342  1.4617  1.1038  1.6687
 7608SOL     OW34459   2.224   2.061   8.437 -0.3617  0.1997  0.3772
 7608SOL    HW134460   2.218   2.147   8.395  0.4821  0.6286  1.1319
 7608SOL    HW234461   2.137   2.027   8.459 -1.0135  1.6795  0.0906
 7609SOL     OW34462   4.585   3.941   1.002  0.3668 -0.1134 -0.4788
 7609SOL    HW134463   4.510   3.998   1.023 -1.0278 -2.3741  0.7668
 7609SOL    HW234464   4.543   3.897   0.928  0.1563  1.4418 -1.2999
 7610SOL     OW34465   2.037   1.150   6.187 -0.7360  0.8765  0.7516
 7610SOL    HW134466   2.010   1.237   6.217  0.6662  0.8132  2.2096
 7610SOL    HW234467   1.978   1.091   6.233  0.3558  0.1487  1.2173
 7611SOL     OW34468   2.786   0.886   1.800  0.2099 -0.2814 -0.0461
 7611SOL    HW134469   2.850   0.814   1.795 -0.5288 -1.0681  1.6811
 7611SOL    HW234470   2.817   0.926   1.881 -1.4299 -0.1842  0.5436
 7612SOL     OW34471   3.321   2.574   7.709 -0.7522  1.1320 -0.0304
 7612SOL    HW134472   3.281   2.511   7.770  0.6545  0.3917  0.1260
 7612SOL    HW234473   3.412   2.546   7.704 -0.3633  2.5956 -1.1154
 7613SOL     OW34474   2.934   2.973  12.476  0.5002 -0.0376 -0.6664
 7613SOL    HW134475   2.937   3.013  12.563  0.7424  1.0892 -1.1840
 7613SOL    HW234476   3.022   2.984  12.440  0.4699 -1.4625 -1.1829
 7614SOL     OW34477   3.202   2.176  17.632  0.1158 -0.4750  0.0432
 7614SOL    HW134478   3.296   2.173  17.648 -0.0478 -0.7058  0.9580
 7614SOL    HW234479   3.167   2.120  17.701  1.2669  0.6012  1.5037
 7615SOL     OW34480   4.358   0.671   0.728  0.2159 -0.2751  0.4723
 7615SOL    HW134481   4.388   0.581   0.715 -1.4282 -0.7103 -0.3026
 7615SOL    HW234482   4.414   0.684   0.805  0.9183  0.2400 -0.1187
 7616SOL     OW34483   2.231   3.044   2.483  0.1303  0.6061 -0.2626
 7616SOL    HW134484   2.276   2.962   2.505 -1.6515 -0.6305 -1.1837
 7616SOL    HW234485   2.202   3.015   2.396  2.5499  1.3439 -1.3242
 7617SOL     OW34486   0.279   4.727   8.867  0.1702 -0.3655  0.5320
 7617SOL    HW134487   0.337   0.017   8.796 -2.2199 -4.1892 -2.8629
 7617SOL    HW234488   0.328   4.655   8.905  0.0741  0.4684  2.2309
 7618SOL     OW34489   2.607   1.758   2.106 -0.3684  0.3517  0.1442
 7618SOL    HW134490   2.645   1.804   2.031 -0.1530  0.0162  0.0479
 7618SOL    HW234491   2.660   1.679   2.118 -1.2331 -0.5806 -2.0485
 7619SOL     OW34492   1.545   1.559   2.464  0.2092  0.0538 -0.1732
 7619SOL    HW134493   1.607   1.558   2.391 -0.2580 -0.7545 -0.5716
 7619SOL    HW234494   1.549   1.652   2.483  0.7454 -0.2063  0.9347
 7620SOL     OW34495   2.020   2.334  17.385  0.8667  0.1596 -0.5992
 7620SOL    HW134496   2.060   2.296  17.307 -0.5324  0.9456 -1.7058
 7620SOL    HW234497   2.053   2.281  17.457  0.1783  0.4357 -0.0770
 7621SOL     OW34498   3.455   0.331  15.442  0.0401 -0.3920 -0.3779
 7621SOL    HW134499   3.409   0.366  15.366  1.1045  1.4449 -0.1744
 7621SOL    HW234500   3.393   0.260  15.458  2.1321 -1.8644  1.3179
 7622SOL     OW34501   3.352   2.153   5.749 -0.2283 -0.2024 -0.0780
 7622SOL    HW134502   3.365   2.163   5.843  0.7267 -1.6984 -0.0629
 7622SOL    HW234503   3.442   2.160   5.718  0.0820 -1.5514  0.5191
 7623SOL     OW34504   1.186   1.507   4.726 -0.9901  0.0268  0.6551
 7623SOL    HW134505   1.222   1.451   4.795  0.5239  0.1214 -0.0516
 7623SOL    HW234506   1.184   1.437   4.661 -2.1291 -0.1148  0.8439
 7624SOL     OW34507   3.442   2.537   3.684 -0.0675 -0.0528 -0.3012
 7624SOL    HW134508   3.470   2.565   3.771  1.6675 -0.8400 -0.6201
 7624SOL    HW234509   3.397   2.453   3.693  1.0295 -0.7899 -1.7774
 7625SOL     OW34510   1.653   2.958  16.896 -0.0214 -0.2004  0.6496
 7625SOL    HW134511   1.633   2.905  16.972 -1.3812  1.8976  1.7685
 7625SOL    HW234512   1.608   2.903  16.832  2.6502  1.3162 -2.6054
 7626SOL     OW34513   3.268   2.471  17.509 -0.6031 -0.0569  0.1894
 7626SOL    HW134514   3.241   2.380  17.519 -0.8036 -0.0704 -0.4312
 7626SOL    HW234515   3.229   2.490  17.424 -1.2044 -0.0207  0.4795
 7627SOL     OW34516   1.338   0.602   3.480 -0.5642  0.0848 -0.6896
 7627SOL    HW134517   1.357   0.508   3.480 -2.5687 -0.3189 -0.8532
 7627SOL    HW234518   1.257   0.604   3.531  0.1842  1.7727  0.4246
 7628SOL     OW34519   3.506   1.308   4.007 -0.1197 -0.8313 -0.1529
 7628SOL    HW134520   3.523   1.338   4.096 -1.2398 -0.2383 -0.1387
 7628SOL    HW234521   3.563   1.363   3.954 -1.5348  0.3049 -0.5105
 7629SOL     OW34522   3.860   1.394  15.944 -0.4121 -0.1457 -0.1553
 7629SOL    HW134523   3.873   1.371  15.852  3.0769 -1.5103  0.6759
 7629SOL    HW234524   3.822   1.311  15.974 -0.3559 -0.4536 -0.9568
 7630SOL     OW34525   4.323   2.993   3.888 -0.3609  0.4124 -0.1579
 7630SOL    HW134526   4.279   3.004   3.804  0.9207 -1.7630 -1.1156
 7630SOL    HW234527   4.339   3.083   3.914 -0.3806  0.1191  0.8786
 7631SOL     OW34528   2.163   2.271  17.644 -0.2039 -0.5634 -0.2941
 7631SOL    HW134529   2.133   2.237  17.728 -0.2135 -0.7337 -0.3677
 7631SOL    HW234530   2.100   2.342  17.629 -0.3740 -0.7947 -0.6945
 7632SOL     OW34531   3.003   3.677   5.662 -0.4131 -0.3311 -0.7537
 7632SOL    HW134532   3.044   3.717   5.739 -0.7948 -0.8696 -0.2703
 7632SOL    HW234533   2.973   3.594   5.700 -1.1080  1.8180  3.4286
 7633SOL     OW34534   3.517   3.469  16.167 -0.2000 -0.1429  0.1176
 7633SOL    HW134535   3.482   3.554  16.192  1.8597  0.1302  2.0046
 7633SOL    HW234536   3.435   3.419  16.168  0.4569 -1.1818  1.0886
 7634SOL     OW34537   2.455   3.249   6.947  0.3362 -0.0320 -0.2865
 7634SOL    HW134538   2.463   3.270   7.040  2.5882  3.2834 -1.2179
 7634SOL    HW234539   2.364   3.219   6.953  0.2971  0.4273  1.4540
 7635SOL     OW34540   3.249   0.672   3.663  0.2623 -0.8702  0.3987
 7635SOL    HW134541   3.324   0.718   3.701  1.1099  0.5978 -3.0896
 7635SOL    HW234542   3.181   0.738   3.678  0.3060 -1.0511  1.4215
 7636SOL     OW34543   0.427   2.499   8.994  0.2955 -0.1453 -0.1719
 7636SOL    HW134544   0.386   2.557   9.058  0.2828 -0.7308  0.3493
 7636SOL    HW234545   0.387   2.513   8.908  0.2090  4.5778  0.6294
 7637SOL     OW34546   0.756   3.457   0.535 -0.9048 -0.6352 -0.8703
 7637SOL    HW134547   0.733   3.389   0.598  0.2379  0.6045  0.9063
 7637SOL    HW234548   0.717   3.536   0.573 -1.9394 -0.6408 -1.9209
 7638SOL     OW34549   0.012   3.062  16.085 -0.3199  0.8309 -0.0995
 7638SOL    HW134550   4.687   3.120  16.131  0.8892  1.5334  0.6351
 7638SOL    HW234551   0.036   2.995  16.149 -0.3630  0.2562 -0.6927
 7639SOL     OW34552   2.125   2.595   4.878 -1.0031  0.5701  0.3276
 7639SOL    HW134553   2.071   2.619   4.954 -0.0113 -0.9420  1.5149
 7639SOL    HW234554   2.097   2.504   4.867  0.0678  0.1224  1.2660
 7640SOL     OW34555   3.072   2.069   0.800 -0.1453 -0.5486  0.8900
 7640SOL    HW134556   3.037   2.130   0.865  1.1248  0.0832  0.9775
 7640SOL    HW234557   3.120   2.124   0.738  0.1629 -0.5744  1.1071
 7641SOL     OW34558   4.675   3.641   2.111 -0.4325  0.0592 -0.1334
 7641SOL    HW134559   4.674   3.549   2.083  0.0236 -0.0939  0.3477
 7641SOL    HW234560   4.583   3.663   2.106 -0.0453  1.2871 -1.9908
 7642SOL     OW34561   0.857   3.858  13.462 -0.0986  0.4596 -0.1825
 7642SOL    HW134562   0.832   3.819  13.546  0.9397  0.1191 -0.0322
 7642SOL    HW234563   0.864   3.788  13.396  0.9279  0.1534  0.2585
 7643SOL     OW34564   1.721   0.111   2.261  0.5610  0.0835 -0.4240
 7643SOL    HW134565   1.644   0.055   2.249  0.6961 -0.4327  1.0179
 7643SOL    HW234566   1.684   0.199   2.255  0.4257 -0.0221 -1.0699
 7644SOL     OW34567   1.714   0.323   9.574 -0.0547  0.7302 -0.0864
 7644SOL    HW134568   1.626   0.360   9.570  0.2465  1.6665  1.8911
 7644SOL    HW234569   1.723   0.305   9.480  3.3985  0.9724  0.2106
 7645SOL     OW34570   0.781   0.377   1.596 -0.3644 -0.5995  0.6463
 7645SOL    HW134571   0.787   0.373   1.691  0.5927 -0.9756  0.5702
 7645SOL    HW234572   0.867   0.416   1.581 -0.1263 -1.5231 -0.3927
 7646SOL     OW34573   3.067   1.400   8.684 -0.3204 -0.3063 -0.5924
 7646SOL    HW134574   3.001   1.408   8.753  1.0595 -3.2587  1.1020
 7646SOL    HW234575   3.002   1.377   8.618  0.8797 -0.0284 -1.8594
 7647SOL     OW34576   0.378   2.141   5.580  0.7034  0.1111 -0.1716
 7647SOL    HW134577   0.344   2.098   5.501 -0.1625  0.4821 -0.0032
 7647SOL    HW234578   0.400   2.063   5.631  1.0514  1.2925  1.4845
 7648SOL     OW34579   1.849   1.451   2.302 -0.8009 -0.3787  0.0349
 7648SOL    HW134580   1.918   1.516   2.291  0.5133 -1.9642 -0.9218
 7648SOL    HW234581   1.884   1.367   2.274  0.1123 -0.0106  0.0876
 7649SOL     OW34582   2.263   3.353   9.930  0.5643 -0.1906 -0.7600
 7649SOL    HW134583   2.241   3.443   9.953 -1.0850 -0.2091 -2.2793
 7649SOL    HW234584   2.192   3.315   9.982 -0.8216  0.3563 -2.2818
 7650SOL     OW34585   3.058   4.037   2.408 -0.2950 -0.4194 -0.4230
 7650SOL    HW134586   3.094   3.960   2.450 -0.1178 -1.1936 -1.9796
 7650SOL    HW234587   3.076   4.012   2.317 -0.2228  0.1165 -0.5555
 7651SOL     OW34588   4.540   3.144  12.562  0.1342 -0.1427 -0.0793
 7651SOL    HW134589   4.530   3.215  12.498  1.2595  0.3271  0.2727
 7651SOL    HW234590   4.635   3.150  12.569  0.2640 -0.6712 -1.3547
 7652SOL     OW34591   0.561   0.575   0.060 -0.0846 -0.1634  0.2416
 7652SOL    HW134592   0.527   0.500   0.110 -0.6766 -0.7533 -1.0451
 7652SOL    HW234593   0.649   0.541   0.042 -0.0458  0.0691  0.0013
 7653SOL     OW34594   4.579   0.610   4.379 -0.2630 -0.8746 -0.2974
 7653SOL    HW134595   4.659   0.627   4.327 -0.1418 -0.2374  0.0943
 7653SOL    HW234596   4.558   0.692   4.423  0.3463 -0.6854 -0.3582
 7654SOL     OW34597   0.906   2.831  16.658 -0.6879  0.3548  0.3728
 7654SOL    HW134598   0.967   2.880  16.601 -0.0035  0.6885  1.3928
 7654SOL    HW234599   0.860   2.901  16.704  0.4236  0.4177  1.3881
 7655SOL     OW34600   1.635   2.491   6.204  0.2587 -0.5882  0.2105
 7655SOL    HW134601   1.628   2.399   6.226  0.1752 -0.6939 -0.2677
 7655SOL    HW234602   1.670   2.520   6.288 -0.8263 -1.9348  1.1051
 7656SOL     OW34603   0.583   2.188   6.187 -0.0277 -0.3048 -0.0939
 7656SOL    HW134604   0.583   2.130   6.263  1.9936  0.0670  0.1750
 7656SOL    HW234605   0.491   2.210   6.169 -0.1072 -1.5904 -1.3424
 7657SOL     OW34606   0.595   3.028   9.777 -0.3685  0.5660 -0.1164
 7657SOL    HW134607   0.607   2.943   9.819 -1.2524  1.4882  2.0107
 7657SOL    HW234608   0.526   3.069   9.829 -1.6595  1.5118 -2.5905
 7658SOL     OW34609   2.066   3.364  11.035 -0.1608 -0.2901 -0.0478
 7658SOL    HW134610   1.978   3.338  11.061 -0.9614  0.1827 -2.2865
 7658SOL    HW234611   2.063   3.452  11.072  0.2697 -1.1184  1.9744
 7659SOL     OW34612   3.057   3.935   3.377 -0.2095  0.4740  0.3463
 7659SOL    HW134613   2.998   3.919   3.451  0.5680  0.6519  1.0059
 7659SOL    HW234614   3.134   3.886   3.404 -0.2923 -0.1291 -0.5258
 7660SOL     OW34615   3.897   1.540   6.756 -0.1440 -0.3912  0.0328
 7660SOL    HW134616   3.987   1.562   6.733  0.2490 -1.2415  0.7498
 7660SOL    HW234617   3.906   1.455   6.799  1.3783 -0.1773  0.1542
 7661SOL     OW34618   2.741   0.630   6.872  0.8591 -0.1622  0.2313
 7661SOL    HW134619   2.746   0.687   6.796  1.0472  0.3166  0.5997
 7661SOL    HW234620   2.682   0.677   6.932  0.8066 -0.4946  0.4417
 7662SOL     OW34621   4.607   1.276   3.591  0.0872  0.3983 -0.0850
 7662SOL    HW134622   4.687   1.233   3.560  0.3741  0.9106 -0.0580
 7662SOL    HW234623   4.545   1.209   3.564  1.3779 -1.0332  0.5074
 7663SOL     OW34624   1.964   3.426   1.771  0.3813  0.3312 -0.3259
 7663SOL    HW134625   1.916   3.458   1.695 -2.9052 -0.2984  1.5053
 7663SOL    HW234626   1.896   3.374   1.813  1.0411  0.1161  0.4713
 7664SOL     OW34627   4.503   3.043  11.718  0.3828 -0.2888  0.6269
 7664SOL    HW134628   4.487   3.089  11.636 -0.3972 -1.9330 -0.1386
 7664SOL    HW234629   4.468   3.098  11.788 -1.1346  0.9218 -1.1077
 7665SOL     OW34630   0.902   4.026   6.788  0.6742  0.4599  0.2626
 7665SOL    HW134631   0.926   3.967   6.859 -0.0167 -1.4753 -1.1140
 7665SOL    HW234632   0.817   4.057   6.820  1.7286  2.2567  1.3224
 7666SOL     OW34633   4.553   0.966   6.350 -0.2076  0.1029  0.2148
 7666SOL    HW134634   4.591   0.878   6.341 -0.8622 -0.2046  0.4606
 7666SOL    HW234635   4.620   1.011   6.401 -0.9699  0.9769  0.4452
 7667SOL     OW34636   3.016   3.849   1.287  0.5327  0.1685  0.0369
 7667SOL    HW134637   3.044   3.787   1.220 -0.0759  0.6899 -0.6983
 7667SOL    HW234638   3.053   3.926   1.244 -3.1714  0.9509 -1.7167
 7668SOL     OW34639   0.909   1.588   7.154 -0.5315 -0.3132  0.0203
 7668SOL    HW134640   0.887   1.621   7.067  1.1292  2.8027  0.7914
 7668SOL    HW234641   0.829   1.608   7.203 -1.3206  1.0191 -1.8189
 7669SOL     OW34642   0.376   1.958   4.277 -0.3022  0.2284  0.0128
 7669SOL    HW134643   0.436   2.007   4.333  1.8624  0.6113 -2.6490
 7669SOL    HW234644   0.426   1.882   4.249 -0.6007 -0.3078  0.9458
 7670SOL     OW34645   2.732   1.908   4.902  0.0504 -0.6300 -0.3121
 7670SOL    HW134646   2.655   1.959   4.925 -0.2819 -1.6593  0.8300
 7670SOL    HW234647   2.716   1.884   4.810 -1.4453  3.2018 -1.0399
 7671SOL     OW34648   3.462   3.157   6.328  0.4544 -0.2019 -0.6216
 7671SOL    HW134649   3.546   3.195   6.353  1.1159 -0.2617 -2.7649
 7671SOL    HW234650   3.476   3.067   6.359  1.4375 -0.3086 -1.3536
 7672SOL     OW34651   2.281   0.228   6.734 -0.3380 -0.7017 -0.4377
 7672SOL    HW134652   2.282   0.206   6.641 -1.0109 -1.7238 -0.2024
 7672SOL    HW234653   2.371   0.249   6.761 -0.2731 -1.3648 -0.1367
 7673SOL     OW34654   2.785   1.045   6.410  0.2646 -0.7973  0.0678
 7673SOL    HW134655   2.871   1.064   6.447 -0.4798 -1.6309  2.2152
 7673SOL    HW234656   2.788   1.104   6.335  1.9739 -0.0121  0.7627
 7674SOL     OW34657   1.779   1.655   3.332  0.3623 -0.6317  0.3937
 7674SOL    HW134658   1.809   1.617   3.415  0.0405 -1.6977  0.0286
 7674SOL    HW234659   1.685   1.671   3.342  0.5231  0.7922 -0.3070
 7675SOL     OW34660   0.483   3.681   2.237 -0.8917 -0.0204  0.6117
 7675SOL    HW134661   0.578   3.689   2.228 -1.1921  2.5316 -0.2692
 7675SOL    HW234662   0.479   3.722   2.323  1.9585  1.6930 -0.0500
 7676SOL     OW34663   0.442   2.694   5.798  0.0358  0.2902 -0.6302
 7676SOL    HW134664   0.493   2.616   5.822 -2.2919 -0.5588  1.5536
 7676SOL    HW234665   0.419   2.737   5.881 -4.3472  0.1215 -1.7654
 7677SOL     OW34666   1.500   1.684   9.863 -0.2515  0.4298  0.1329
 7677SOL    HW134667   1.523   1.595   9.892 -2.8081 -0.0481  0.6432
 7677SOL    HW234668   1.407   1.696   9.880 -0.2111  1.7477 -0.6194
 7678SOL     OW34669   0.465   2.111   7.855  0.0403 -0.8280  0.2939
 7678SOL    HW134670   0.418   2.148   7.930  2.4494 -1.2249  2.0005
 7678SOL    HW234671   0.421   2.158   7.784  0.7216  1.0413  1.1038
 7679SOL     OW34672   4.369   2.802  14.807  0.1370  0.0129 -0.3532
 7679SOL    HW134673   4.391   2.756  14.726 -1.0400 -0.2644 -0.5105
 7679SOL    HW234674   4.386   2.731  14.869 -3.9692  0.0483  0.7708
 7680SOL     OW34675   0.886   2.018   2.270  0.4422 -0.5887 -0.1345
 7680SOL    HW134676   0.814   2.000   2.331  0.9535  2.0757  1.2184
 7680SOL    HW234677   0.844   1.995   2.187 -0.3054  0.5135 -0.0541
 7681SOL     OW34678   0.224   3.402   9.661 -0.3218  0.3043 -0.1634
 7681SOL    HW134679   0.234   3.356   9.744  1.4177  2.4372  0.8142
 7681SOL    HW234680   0.296   3.465   9.666  1.2945 -1.5002 -0.3441
 7682SOL     OW34681   1.868   2.745  13.081  0.4414 -0.5246  0.0928
 7682SOL    HW134682   1.847   2.835  13.057 -0.0614 -1.1805 -1.9325
 7682SOL    HW234683   1.939   2.731  13.018  1.2742 -0.0559  0.9321
 7683SOL     OW34684   2.538   4.491   4.736 -0.2120 -0.2960 -0.1517
 7683SOL    HW134685   2.568   4.424   4.674 -0.2489  0.3602 -0.8773
 7683SOL    HW234686   2.551   4.444   4.818  0.4052 -1.5816 -0.9687
 7684SOL     OW34687   1.112   3.194   7.953 -0.4081  0.0363  0.5738
 7684SOL    HW134688   1.059   3.253   8.008 -1.3884 -0.7494  0.4693
 7684SOL    HW234689   1.097   3.112   7.999 -1.4823  0.6641  1.3524
 7685SOL     OW34690   4.434   3.886   4.643  0.0901 -0.4331  0.0256
 7685SOL    HW134691   4.492   3.819   4.605  0.6226  0.2028 -0.2804
 7685SOL    HW234692   4.369   3.824   4.677 -1.4211  0.0899 -1.9068
 7686SOL     OW34693   2.280   1.043   9.069  0.0076 -0.5128  0.8983
 7686SOL    HW134694   2.276   0.960   9.022  1.2890  0.7151 -1.3515
 7686SOL    HW234695   2.245   1.021   9.155 -2.3752  0.4387  0.1716
 7687SOL     OW34696   3.015   2.822   6.087  0.3267 -0.1169  0.5265
 7687SOL    HW134697   2.946   2.848   6.027 -0.4094 -1.5352  0.7690
 7687SOL    HW234698   2.983   2.736   6.115 -1.3796 -0.5204 -2.7080
 7688SOL     OW34699   0.053   3.678   8.320 -0.6521 -0.2722  0.2181
 7688SOL    HW134700   0.144   3.699   8.343 -0.8091  0.1747  0.4290
 7688SOL    HW234701   0.014   3.651   8.403  2.2380 -0.7574  1.4407
 7689SOL     OW34702   3.836   3.558   4.112  0.5357  0.0895  0.6972
 7689SOL    HW134703   3.835   3.627   4.046 -1.6685 -1.2240 -0.6318
 7689SOL    HW234704   3.918   3.564   4.161  0.8777 -0.4449  0.1926
 7690SOL     OW34705   1.270   0.949   1.889 -0.3481  0.0170 -0.5276
 7690SOL    HW134706   1.175   0.941   1.901 -0.3216 -1.0963 -1.0812
 7690SOL    HW234707   1.270   1.000   1.808 -1.2469 -0.9640 -1.1447
 7691SOL     OW34708   2.639   4.295   5.979  0.1565  0.3748  0.2079
 7691SOL    HW134709   2.611   4.387   5.973  0.0823  0.3149 -0.4135
 7691SOL    HW234710   2.583   4.256   6.045 -0.1539 -0.2131 -0.4046
 7692SOL     OW34711   2.578   0.131   9.740  0.3274 -0.0972  0.2400
 7692SOL    HW134712   2.527   0.161   9.815  2.2368  0.8011  1.1609
 7692SOL    HW234713   2.510   0.155   9.677 -0.6652  1.2566  1.8320
 7693SOL     OW34714   0.988   0.723   2.055  0.1385  0.4438 -0.3460
 7693SOL    HW134715   0.966   0.750   1.965 -2.2972  1.4504  0.5525
 7693SOL    HW234716   1.061   0.780   2.076  1.2159 -0.6482 -1.1463
 7694SOL     OW34717   2.709   0.971   1.551 -0.3371 -0.4694  0.2352
 7694SOL    HW134718   2.779   0.926   1.504 -0.5394 -1.0244  0.4704
 7694SOL    HW234719   2.733   0.951   1.641  0.1047  1.4510  0.5461
 7695SOL     OW34720   0.702   3.658  11.073  0.0958 -0.2960 -0.1535
 7695SOL    HW134721   0.616   3.628  11.046 -0.7554 -1.3989  3.9198
 7695SOL    HW234722   0.679   3.675  11.164 -0.1777 -0.7762 -0.1375
 7696SOL     OW34723   3.457   3.299  11.869  0.6252 -0.1193  0.0390
 7696SOL    HW134724   3.463   3.250  11.951 -0.6542 -0.6505 -0.1734
 7696SOL    HW234725   3.465   3.229  11.803 -1.0047  0.4353 -0.7501
 7697SOL     OW34726   2.047   1.640  12.368  0.2575 -0.1929 -0.1467
 7697SOL    HW134727   2.101   1.591  12.306  1.2669 -0.2607  0.8009
 7697SOL    HW234728   1.991   1.574  12.408  1.2462 -0.2989  1.0585
 7698SOL     OW34729   0.446   4.146  16.103 -0.0737  0.1274  0.2647
 7698SOL    HW134730   0.458   4.232  16.143 -0.2813 -0.5585  1.7989
 7698SOL    HW234731   0.534   4.119  16.076 -0.9561 -3.1227  0.6451
 7699SOL     OW34732   2.143   1.758  13.866  0.2812  0.3842  0.5461
 7699SOL    HW134733   2.223   1.709  13.887  1.3867  2.6242  1.7093
 7699SOL    HW234734   2.141   1.749  13.771 -1.8422  0.1029  0.6388
 7700SOL     OW34735   4.040   4.250   1.782 -0.2071  0.3587  0.1569
 7700SOL    HW134736   4.022   4.236   1.689  0.5347  1.9836 -0.2286
 7700SOL    HW234737   4.076   4.338   1.780  0.9360 -0.1020  0.4670
 7701SOL     OW34738   1.091   3.862  16.872  0.1078  0.6758  0.5726
 7701SOL    HW134739   1.047   3.946  16.880 -0.5972  0.3838 -0.1657
 7701SOL    HW234740   1.031   3.816  16.813  1.0244  0.1041  0.0755
 7702SOL     OW34741   2.804   1.974   5.547  0.0463 -0.0923 -0.5981
 7702SOL    HW134742   2.711   1.995   5.557  0.3288  0.9060 -0.0697
 7702SOL    HW234743   2.820   1.981   5.641  0.5561 -0.5187 -0.6520
 7703SOL     OW34744   3.818   3.667  16.694 -0.3523  0.1140  0.4787
 7703SOL    HW134745   3.798   3.634  16.782  0.1006 -3.2602 -0.6590
 7703SOL    HW234746   3.807   3.580  16.655  0.0803  1.4992 -2.6787
 7704SOL     OW34747   4.119   1.849  15.360 -0.2715 -0.0699  0.5358
 7704SOL    HW134748   4.172   1.891  15.427 -1.2203 -0.1334  1.3245
 7704SOL    HW234749   4.091   1.768  15.402 -0.7058 -0.5483 -0.6814
 7705SOL     OW34750   2.676   0.146   4.408 -0.0487 -0.3805 -0.0756
 7705SOL    HW134751   2.765   0.171   4.384  0.1262  0.1617  1.1141
 7705SOL    HW234752   2.629   0.184   4.335 -1.7526 -0.0866  1.1752
 7706SOL     OW34753   3.294   1.823   5.312  0.1721 -0.0264  0.1872
 7706SOL    HW134754   3.332   1.898   5.265  0.9827  0.6833  1.9891
 7706SOL    HW234755   3.273   1.862   5.397  2.5796  0.6768  0.4656
 7707SOL     OW34756   3.698   0.440   7.835  0.1684 -0.0558 -0.3225
 7707SOL    HW134757   3.689   0.381   7.761 -1.8706  0.3978 -0.4185
 7707SOL    HW234758   3.695   0.529   7.799 -3.1138 -0.9207 -2.1271
 7708SOL     OW34759   4.577   1.654   3.996 -0.1842  0.6225  0.3782
 7708SOL    HW134760   4.537   1.573   3.966  0.8328  0.7159 -1.2832
 7708SOL    HW234761   4.667   1.639   3.967 -1.1251 -0.0501 -2.1839
 7709SOL     OW34762   4.187   2.244   4.679 -0.0904 -0.7192 -0.2321
 7709SOL    HW134763   4.151   2.286   4.601  0.5214 -3.1148 -1.8123
 7709SOL    HW234764   4.123   2.267   4.747 -0.8451  0.8719 -1.4849
 7710SOL     OW34765   0.099   0.293  14.989  0.4575  0.4606  0.3893
 7710SOL    HW134766   0.060   0.263  14.907 -1.1362  4.0771 -0.1770
 7710SOL    HW234767   0.036   0.260  15.053  0.0860 -0.4204 -0.4284
 7711SOL     OW34768   3.130   2.624   5.690  0.2321 -0.1451  0.4138
 7711SOL    HW134769   3.039   2.598   5.709  0.9191 -0.8147  2.7462
 7711SOL    HW234770   3.123   2.720   5.687  1.2284 -0.0320  1.8200
 7712SOL     OW34771   2.919   0.621   7.916 -0.0150 -0.0305  1.0685
 7712SOL    HW134772   2.928   0.707   7.875  2.1532 -0.2180  1.1477
 7712SOL    HW234773   2.825   0.620   7.936  0.1222  1.7226  1.7675
 7713SOL     OW34774   1.060   0.716   8.465 -0.3392 -1.3192  0.1644
 7713SOL    HW134775   1.111   0.721   8.546 -1.3328 -0.3228  0.7222
 7713SOL    HW234776   0.978   0.750   8.500 -0.8185  0.8980 -3.0338
 7714SOL     OW34777   1.643   0.654   8.297  0.3273 -0.1069 -0.2332
 7714SOL    HW134778   1.552   0.628   8.282 -0.0466  0.4524  1.0401
 7714SOL    HW234779   1.662   0.588   8.363 -0.5362 -0.0725  0.0466
 7715SOL     OW34780   0.802   4.705   5.375 -0.8047  0.2930 -0.3448
 7715SOL    HW134781   0.811   4.653   5.296  0.6688  0.7500 -0.4840
 7715SOL    HW234782   0.870   0.030   5.348 -0.4861 -0.1334 -0.5111
 7716SOL     OW34783   1.874   2.792   3.985 -1.2209  0.3233 -0.2804
 7716SOL    HW134784   1.907   2.745   3.909  1.4593  3.4733 -1.0748
 7716SOL    HW234785   1.848   2.723   4.046 -3.1844  0.4307 -0.9672
 7717SOL     OW34786   1.192   2.439   7.788 -0.5438  0.5072  0.3367
 7717SOL    HW134787   1.113   2.494   7.788  0.0107  1.3142 -1.0379
 7717SOL    HW234788   1.166   2.372   7.852 -1.8275  2.4742  1.8916
 7718SOL     OW34789   3.071   2.894   9.682  0.3760  0.7125  0.2177
 7718SOL    HW134790   3.149   2.935   9.643 -0.4868  0.6671 -1.5733
 7718SOL    HW234791   3.111   2.831   9.741 -0.1895 -0.2990 -0.4850
 7719SOL     OW34792   0.360   3.889   9.695 -0.1881 -0.2819 -0.0170
 7719SOL    HW134793   0.442   3.939   9.705  0.5418 -1.6401  0.8565
 7719SOL    HW234794   0.365   3.875   9.601  1.4417  0.0996 -0.0006
 7720SOL     OW34795   3.238   3.672  16.052 -1.0879 -0.5817 -0.3162
 7720SOL    HW134796   3.227   3.686  15.958 -1.2298 -0.5152 -0.2898
 7720SOL    HW234797   3.178   3.600  16.068 -1.8651  0.0052 -0.5647
 7721SOL     OW34798   1.283   2.748  11.196 -0.5169 -0.2105  0.4609
 7721SOL    HW134799   1.205   2.762  11.143 -0.1464 -2.7641 -0.7592
 7721SOL    HW234800   1.237   2.709  11.270 -2.6374  1.6652  0.1263
 7722SOL     OW34801   1.252   4.337   3.329 -0.0542  0.1503  0.2808
 7722SOL    HW134802   1.265   4.359   3.237 -1.5675  0.1653  0.0660
 7722SOL    HW234803   1.160   4.361   3.341 -0.4810 -1.0049 -0.6132
 7723SOL     OW34804   0.087   3.438  14.285  0.2255  0.5433 -0.5165
 7723SOL    HW134805   0.009   3.454  14.231 -0.5964 -3.3981 -0.4812
 7723SOL    HW234806   0.159   3.479  14.236  0.3575  0.5484 -0.3143
 7724SOL     OW34807   0.564   0.185   4.378  0.1973 -0.0992  0.7693
 7724SOL    HW134808   0.484   0.152   4.337 -0.7936  3.3053  0.0152
 7724SOL    HW234809   0.539   0.235   4.456  0.5589  0.0102  0.8122
 7725SOL     OW34810   0.920   1.939  10.998 -0.2450  0.3408  0.9800
 7725SOL    HW134811   0.953   1.877  11.063  1.3743 -0.1728 -0.3338
 7725SOL    HW234812   0.980   2.013  11.005 -2.3374  2.4925 -3.7933
 7726SOL     OW34813   3.796   1.529   6.496  0.4823  0.6373  0.1988
 7726SOL    HW134814   3.877   1.544   6.447 -0.0618  1.1388 -0.5442
 7726SOL    HW234815   3.831   1.541   6.584  1.5573  1.1287 -0.2984
 7727SOL     OW34816   3.228   2.331   4.179  0.0336 -0.2337 -0.1944
 7727SOL    HW134817   3.137   2.307   4.165 -0.2526 -0.4461  2.1900
 7727SOL    HW234818   3.214   2.426   4.181  0.6137 -0.1343 -0.5622
 7728SOL     OW34819   3.964   4.440   8.109  0.4306 -0.4437 -0.1460
 7728SOL    HW134820   3.999   4.495   8.039 -1.4468  0.4109 -0.4152
 7728SOL    HW234821   4.042   4.442   8.164  0.0069  1.1342  0.3982
 7729SOL     OW34822   1.956   0.691  14.513  0.9159 -0.3069 -0.4496
 7729SOL    HW134823   1.959   0.608  14.466 -1.3824 -0.8907  0.4475
 7729SOL    HW234824   1.934   0.752  14.443 -2.0368 -0.4547  0.3485
 7730SOL     OW34825   1.288   3.764   2.611 -0.3608 -0.3321 -0.0295
 7730SOL    HW134826   1.316   3.728   2.527  1.7688  2.2904 -0.4549
 7730SOL    HW234827   1.192   3.760   2.612 -0.5094  2.9406 -0.5233
 7731SOL     OW34828   1.690   1.994   6.430  0.1276 -0.3987 -0.2203
 7731SOL    HW134829   1.646   2.008   6.514  0.9933  2.4970 -0.2709
 7731SOL    HW234830   1.613   1.962   6.383 -0.2793  1.2526 -0.6733
 7732SOL     OW34831   2.099   2.503   3.221 -0.1910  0.0210 -0.1645
 7732SOL    HW134832   2.181   2.535   3.259  0.1283  0.9738 -1.6585
 7732SOL    HW234833   2.106   2.408   3.237  0.1970  0.2343  0.9646
 7733SOL     OW34834   3.949   0.677   2.369  0.5948  0.4074  0.0649
 7733SOL    HW134835   4.018   0.726   2.414  0.3592  1.6499 -0.9130
 7733SOL    HW234836   3.919   0.742   2.305 -0.9059 -0.2661  0.0993
 7734SOL     OW34837   2.980   3.311  16.102 -0.3955 -0.0611  0.1327
 7734SOL    HW134838   2.997   3.402  16.126  2.8245 -0.4229 -0.7711
 7734SOL    HW234839   2.885   3.303  16.107 -0.5407  1.4456 -0.0303
 7735SOL     OW34840   2.541   3.939  12.192  0.1405 -0.3983  0.1992
 7735SOL    HW134841   2.539   3.861  12.136 -0.2887  0.8447 -1.5018
 7735SOL    HW234842   2.634   3.962  12.186  0.2609 -1.3364 -1.3814
 7736SOL     OW34843   3.872   3.708  14.213  0.0390 -0.3881 -0.0072
 7736SOL    HW134844   3.871   3.642  14.283 -2.5834  1.5771  1.8075
 7736SOL    HW234845   3.843   3.657  14.138 -3.8485  2.3852 -0.3578
 7737SOL     OW34846   0.883   0.038   3.949  0.0944 -0.1892  0.4922
 7737SOL    HW134847   0.878   0.052   4.044 -1.0282  1.2908  0.2215
 7737SOL    HW234848   0.869   0.129   3.921 -2.4830 -1.3118 -1.8768
 7738SOL     OW34849   2.596   4.039   0.630  0.3253  0.0233  0.4115
 7738SOL    HW134850   2.524   3.991   0.591  0.8760  0.0341 -0.6412
 7738SOL    HW234851   2.546   4.105   0.679  0.4861  0.5212 -0.0918
 7739SOL     OW34852   3.554   1.269   4.934  0.5413 -1.0165 -0.4155
 7739SOL    HW134853   3.559   1.193   4.991 -0.3865 -1.3091 -0.7186
 7739SOL    HW234854   3.527   1.327   5.005  2.5948 -0.6898  0.1015
 7740SOL     OW34855   4.411   1.246   1.910  0.1741  0.0739  0.3116
 7740SOL    HW134856   4.479   1.272   1.972  1.8524 -0.5236 -1.2427
 7740SOL    HW234857   4.465   1.253   1.830  0.3202 -0.9768  0.3171
 7741SOL     OW34858   3.127   2.471   3.881 -0.7713  0.7017 -0.7238
 7741SOL    HW134859   3.175   2.517   3.950 -1.6240  1.1429 -0.4320
 7741SOL    HW234860   3.205   2.437   3.836 -1.8272 -0.8543 -1.3762
 7742SOL     OW34861   2.606   4.366  10.334 -0.0176  0.3935 -0.1457
 7742SOL    HW134862   2.671   4.431  10.359  0.7139 -1.1968  2.0330
 7742SOL    HW234863   2.668   4.301  10.302  0.3915  0.6046  0.2142
 7743SOL     OW34864   3.170   0.007   7.468 -0.6804 -0.4323  0.1989
 7743SOL    HW134865   3.168   0.060   7.548  3.1025 -0.1263  0.0689
 7743SOL    HW234866   3.121   4.662   7.481 -1.1302 -0.5438 -2.0972
 7744SOL     OW34867   3.060   1.245   7.749 -0.2938 -0.4209 -0.6992
 7744SOL    HW134868   3.004   1.188   7.802 -2.5125  0.3137 -2.2214
 7744SOL    HW234869   3.060   1.222   7.656  0.7537 -3.3965  0.0435
 7745SOL     OW34870   0.519   4.587   3.257  0.3397 -0.9879  0.0913
 7745SOL    HW134871   0.554   4.629   3.178 -0.9310  1.5361  0.8770
 7745SOL    HW234872   0.574   4.618   3.329  3.4191 -0.7725 -2.3531
 7746SOL     OW34873   4.734   4.471   4.158  0.1183 -0.2785  0.7352
 7746SOL    HW134874   0.079   4.492   4.204  0.4489 -1.2536  0.6012
 7746SOL    HW234875   4.674   4.480   4.232  0.2734  1.4075  0.6571
 7747SOL     OW34876   2.310   1.046   5.436 -0.4596 -0.2216 -0.4760
 7747SOL    HW134877   2.336   0.986   5.366  0.1271  2.0016 -2.1694
 7747SOL    HW234878   2.276   0.987   5.503  1.1021 -0.3272  0.2123
 7748SOL     OW34879   2.413   0.165   7.005 -0.0521  0.2103 -0.6224
 7748SOL    HW134880   2.424   0.075   7.037 -0.1482  0.3037 -0.3255
 7748SOL    HW234881   2.460   0.167   6.922 -1.7934  0.2344 -1.6066
 7749SOL     OW34882   4.367   3.268   6.752  0.2598  0.2456  0.1960
 7749SOL    HW134883   4.348   3.246   6.661 -0.1383 -1.2070  0.6346
 7749SOL    HW234884   4.279   3.266   6.789 -0.0600  1.6375 -0.4932
 7750SOL     OW34885   1.051   1.137  17.088  0.2864 -0.1921  0.5105
 7750SOL    HW134886   0.983   1.070  17.082 -0.7518  1.1221 -2.6073
 7750SOL    HW234887   1.018   1.188  17.162 -0.6340  2.3926 -1.6809
 7751SOL     OW34888   1.367   1.933   4.779 -0.4916  0.2224 -0.5600
 7751SOL    HW134889   1.303   1.869   4.809 -1.1071 -0.1777 -2.7370
 7751SOL    HW234890   1.398   1.882   4.704 -0.0069 -1.6626  0.9132
 7752SOL     OW34891   3.960   3.077   8.274 -0.5856  0.5931 -0.0869
 7752SOL    HW134892   3.891   3.051   8.213  0.1960 -0.9267 -0.3294
 7752SOL    HW234893   3.899   3.123   8.331 -1.2800 -2.3572  1.5197
 7753SOL     OW34894   3.333   0.475   8.501 -0.0027 -0.2531  0.0022
 7753SOL    HW134895   3.343   0.447   8.410 -0.3942 -1.1188  0.2258
 7753SOL    HW234896   3.237   0.481   8.502 -0.2167 -3.8735 -1.6251
 7754SOL     OW34897   3.896   1.597  11.902 -0.0045  0.1228  0.3263
 7754SOL    HW134898   3.905   1.550  11.984 -0.5802  0.9890  0.8842
 7754SOL    HW234899   3.944   1.535  11.847 -0.8082 -2.2299  2.2859
 7755SOL     OW34900   1.051   2.462   4.519 -0.5031  0.3300  0.2980
 7755SOL    HW134901   1.120   2.524   4.499 -1.7962  1.1746 -1.5089
 7755SOL    HW234902   1.006   2.473   4.435 -1.0916  1.7055  0.7899
 7756SOL     OW34903   2.725   2.182   2.590  0.5546 -0.4129 -0.4331
 7756SOL    HW134904   2.682   2.258   2.551 -0.1756 -2.3349 -3.4544
 7756SOL    HW234905   2.750   2.128   2.515  0.3390 -0.1350 -0.7069
 7757SOL     OW34906   1.656   2.868  15.554 -0.2860 -0.1925  0.1424
 7757SOL    HW134907   1.652   2.953  15.511  0.2258 -0.7698 -1.0512
 7757SOL    HW234908   1.660   2.808  15.479 -0.5617 -1.6995  1.3411
 7758SOL     OW34909   2.254   4.688   2.823  0.3074 -0.0466 -0.0247
 7758SOL    HW134910   2.260   0.042   2.854  1.2235 -0.3875  0.8054
 7758SOL    HW234911   2.240   4.637   2.902  1.0316  0.4226  0.4065
 7759SOL     OW34912   2.631   4.523   3.886 -0.2575 -0.4822  0.5836
 7759SOL    HW134913   2.714   4.478   3.870 -0.9906 -2.0095  1.0123
 7759SOL    HW234914   2.634   4.522   3.982 -2.7451 -1.3423  0.6627
 7760SOL     OW34915   1.080   4.144   2.244  0.1405  0.2066  0.3859
 7760SOL    HW134916   0.988   4.125   2.263  0.4044 -0.0827  1.3728
 7760SOL    HW234917   1.111   4.058   2.214  1.9130  2.3776 -4.0707
 7761SOL     OW34918   3.851   1.096   4.411 -0.3389 -0.1146  0.4552
 7761SOL    HW134919   3.929   1.043   4.394  0.8186  1.6111  0.4465
 7761SOL    HW234920   3.776   1.051   4.372 -0.9015  2.0999 -1.0391
 7762SOL     OW34921   3.057   1.803   6.443 -0.2484  0.4988 -0.3958
 7762SOL    HW134922   3.122   1.837   6.504  0.3124 -1.0469 -0.1383
 7762SOL    HW234923   3.070   1.854   6.363  0.9241  0.0872 -0.4683
 7763SOL     OW34924   3.479   2.740  12.509 -0.2091 -0.1951 -0.4032
 7763SOL    HW134925   3.482   2.712  12.417  1.4465 -1.7372  0.1322
 7763SOL    HW234926   3.518   2.670  12.561 -0.0206  0.9348  0.9807
 7764SOL     OW34927   0.696   2.356   2.152 -0.3619  0.3669 -0.3178
 7764SOL    HW134928   0.766   2.392   2.097 -0.7711  0.9303 -0.4786
 7764SOL    HW234929   0.677   2.285   2.090  2.0554 -1.3162  0.8934
 7765SOL     OW34930   2.427   2.080   1.954  0.0448  0.3293  0.1415
 7765SOL    HW134931   2.481   2.048   1.882 -2.7602 -1.8043 -0.9872
 7765SOL    HW234932   2.431   2.175   1.940  0.6045  0.1739 -0.7337
 7766SOL     OW34933   4.340   0.478   4.918  0.0800 -0.1653 -0.0074
 7766SOL    HW134934   4.424   0.499   4.877  0.5449 -1.2398  0.3776
 7766SOL    HW234935   4.335   0.532   4.997  2.2777  0.3228 -0.2136
 7767SOL     OW34936   2.102   2.515   5.327  0.5030  0.5696 -0.0202
 7767SOL    HW134937   2.140   2.445   5.274  1.3623  1.0962 -0.1004
 7767SOL    HW234938   2.084   2.581   5.261  0.2683 -1.7801 -2.2808
 7768SOL     OW34939   4.252   2.593  13.790 -0.1954  0.9465  0.3724
 7768SOL    HW134940   4.185   2.577  13.856 -2.5434  0.7771 -2.0876
 7768SOL    HW234941   4.208   2.606  13.707  0.9951 -1.6686 -0.6683
 7769SOL     OW34942   2.497   3.018   1.960 -0.6032  0.2904 -0.5137
 7769SOL    HW134943   2.508   2.928   1.991  0.0393  0.8474  0.9211
 7769SOL    HW234944   2.456   3.011   1.874  0.4791  0.2529 -1.0214
 7770SOL     OW34945   3.406   4.542   3.593 -0.3337 -0.3251  0.1871
 7770SOL    HW134946   3.464   4.618   3.585 -0.8293 -0.0850 -1.1326
 7770SOL    HW234947   3.340   4.571   3.531  0.2192 -0.8197 -0.6426
 7771SOL     OW34948   2.797   2.975   8.614  0.2852  0.0582  0.2074
 7771SOL    HW134949   2.785   3.063   8.651 -0.3861 -0.9014  2.3005
 7771SOL    HW234950   2.892   2.963   8.623  0.1432 -0.1771  1.4242
 7772SOL     OW34951   3.292   3.061   9.558  0.7092  0.1353 -0.5650
 7772SOL    HW134952   3.364   3.119   9.584  3.0168 -2.8031 -0.4759
 7772SOL    HW234953   3.301   3.045   9.465  1.9505  1.4324 -0.6732
 7773SOL     OW34954   1.109   2.869  10.979  0.1986  0.4115 -0.0620
 7773SOL    HW134955   1.127   2.863  10.885 -2.3471 -2.0834 -0.3773
 7773SOL    HW234956   1.106   2.964  10.988 -0.1908  0.2930  1.1112
 7774SOL     OW34957   4.424   4.278   9.791  0.2213  0.0751  0.5502
 7774SOL    HW134958   4.519   4.291   9.790  0.2905 -0.4390  2.2707
 7774SOL    HW234959   4.407   4.185   9.780 -0.0579  0.2352 -0.4542
 7775SOL     OW34960   3.298   4.595   9.169  0.0282 -0.0693 -0.1768
 7775SOL    HW134961   3.333   4.660   9.109  0.1902 -0.3278 -0.3644
 7775SOL    HW234962   3.228   4.570   9.109  1.0870 -0.2418 -1.3491
 7776SOL     OW34963   0.168   3.153  10.712 -1.0283  0.5412  0.8274
 7776SOL    HW134964   0.239   3.099  10.746 -1.0420  0.5223  0.8263
 7776SOL    HW234965   0.203   3.215  10.648 -0.3737 -0.3903  0.2888
 7777SOL     OW34966   0.934   0.436   2.964  0.7148  0.2174  0.1356
 7777SOL    HW134967   0.909   0.401   2.878  0.1279 -0.4740  0.5798
 7777SOL    HW234968   0.945   0.531   2.966 -1.4073  0.4884 -0.8678
 7778SOL     OW34969   0.457   1.694   5.547  0.1069 -0.0933  0.0551
 7778SOL    HW134970   0.426   1.660   5.463  1.4476  2.4703 -1.4692
 7778SOL    HW234971   0.523   1.759   5.523 -0.0788  0.1286  0.1520
 7779SOL     OW34972   3.858   3.843   5.340  0.3083  0.4810 -0.3146
 7779SOL    HW134973   3.913   3.807   5.409  0.9091  1.9682 -0.0212
 7779SOL    HW234974   3.869   3.938   5.346 -0.4513  0.6649 -1.7185
 7780SOL     OW34975   3.435   1.153  17.054  0.1902  0.1599  0.3990
 7780SOL    HW134976   3.476   1.239  17.047  0.8138 -0.0176  1.7831
 7780SOL    HW234977   3.487   1.117  16.982 -1.8090 -1.9481  0.0367
 7781SOL     OW34978   2.553   4.150   3.953 -0.4243  0.2048  0.3481
 7781SOL    HW134979   2.628   4.177   4.006  0.5348 -4.0898  1.2220
 7781SOL    HW234980   2.576   4.068   3.909 -3.5423 -0.9352  0.8239
 7782SOL     OW34981   3.841   0.467   2.224  0.5476  0.2895  0.4078
 7782SOL    HW134982   3.885   0.384   2.207  0.0168  0.2670 -0.8685
 7782SOL    HW234983   3.901   0.505   2.289 -0.4606  0.1854  1.3886
 7783SOL     OW34984   2.086   3.423   9.089 -0.4878  0.8184 -0.5476
 7783SOL    HW134985   2.166   3.470   9.067  0.4554 -1.1458 -1.3110
 7783SOL    HW234986   2.079   3.425   9.185 -1.6290  0.8375 -0.6298
 7784SOL     OW34987   4.325   3.646   3.158 -0.1902  0.3704  0.4059
 7784SOL    HW134988   4.244   3.691   3.181 -1.4927 -1.6105 -0.3336
 7784SOL    HW234989   4.340   3.611   3.246  1.1041  0.8555  0.3800
 7785SOL     OW34990   2.040   2.958  14.650  0.8855  0.2144 -0.2414
 7785SOL    HW134991   1.983   2.974  14.574  0.4212 -1.1100 -0.1859
 7785SOL    HW234992   2.064   3.046  14.677  1.1202  0.8856 -2.6530
 7786SOL     OW34993   4.509   4.471   8.372  0.3488  0.3193  0.5412
 7786SOL    HW134994   4.561   4.393   8.351  0.8685  1.0968 -1.0952
 7786SOL    HW234995   4.529   4.472   8.466  2.1303  0.8600  0.1490
 7787SOL     OW34996   0.594   3.352   8.011 -0.0885 -0.2228 -0.0698
 7787SOL    HW134997   0.567   3.278   8.065  2.4712 -0.3375  1.0042
 7787SOL    HW234998   0.543   3.337   7.930  0.3250 -0.2836 -0.3174
 7788SOL     OW34999   3.547   1.382  12.297  0.2999  0.5639 -0.0420
 7788SOL    HW135000   3.457   1.353  12.279 -0.2210  2.3799 -0.4244
 7788SOL    HW235001   3.581   1.297  12.323 -1.6760 -0.6935 -1.5855
 7789SOL     OW35002   3.807   0.279  11.866 -0.2013 -0.6740  0.5595
 7789SOL    HW135003   3.876   0.215  11.884 -0.4513 -1.1216 -0.0801
 7789SOL    HW235004   3.858   0.356  11.894 -0.6775 -0.0226 -0.3623
 7790SOL     OW35005   0.276   1.401   4.597  0.0460  0.0965  0.0113
 7790SOL    HW135006   0.264   1.461   4.523  1.4395 -0.5484 -0.7297
 7790SOL    HW235007   0.261   1.455   4.674 -0.0227 -1.0083  0.7818
 7791SOL     OW35008   3.702   3.638   4.463 -0.3815 -0.3008 -0.0944
 7791SOL    HW135009   3.694   3.571   4.531  0.3669  1.1039  1.3823
 7791SOL    HW235010   3.616   3.677   4.477  0.5981  1.8058  0.0180
 7792SOL     OW35011   0.880   2.592  11.262  0.3950  0.2575 -0.8445
 7792SOL    HW135012   0.953   2.640  11.301  0.8709 -1.5298  0.4740
 7792SOL    HW235013   0.870   2.648  11.185 -1.2701 -0.1881 -0.9361
 7793SOL     OW35014   2.560   1.419   3.073 -0.3406  0.2835 -0.1328
 7793SOL    HW135015   2.617   1.442   3.000  0.6376  0.3339  0.6511
 7793SOL    HW235016   2.600   1.335   3.096 -2.5402 -0.8018 -0.2514
 7794SOL     OW35017   1.234   0.444   6.067 -0.2518 -0.5293 -0.1843
 7794SOL    HW135018   1.257   0.456   5.975  1.1538  1.1982  0.3955
 7794SOL    HW235019   1.263   0.523   6.112  0.6292 -1.8713  1.5864
 7795SOL     OW35020   3.406   0.313   4.452  0.7683  0.1683 -0.0852
 7795SOL    HW135021   3.332   0.374   4.458  2.4928  2.0697  1.8072
 7795SOL    HW235022   3.463   0.366   4.397  0.2116  0.5135 -0.3277
 7796SOL     OW35023   4.728   1.981   2.699  0.2024  0.2534 -0.4070
 7796SOL    HW135024   0.076   1.952   2.734 -0.0428 -0.7510 -0.6501
 7796SOL    HW235025   0.022   2.059   2.651 -0.9800  1.6354  1.0756
 7797SOL     OW35026   2.696   3.422   9.698 -0.0858 -0.1836  0.4048
 7797SOL    HW135027   2.723   3.330   9.702  1.3079  0.1546 -1.4136
 7797SOL    HW235028   2.601   3.409   9.703  0.5065 -4.0041  2.5065
 7798SOL     OW35029   2.305   0.980  10.692  0.3725  0.1131  0.8519
 7798SOL    HW135030   2.261   0.933  10.621  0.0324  1.3220  0.2656
 7798SOL    HW235031   2.396   0.977  10.664 -0.3761 -1.3034 -1.4894
 7799SOL     OW35032   4.510   4.595  16.491  0.0292  0.2969 -0.0871
 7799SOL    HW135033   4.574   4.602  16.562  0.9995  0.2017 -0.9539
 7799SOL    HW235034   4.541   4.515  16.450  0.7749 -0.1318  1.3432
 7800SOL     OW35035   2.170   3.520  13.100 -0.2492 -0.1183  0.1821
 7800SOL    HW135036   2.225   3.441  13.100  0.2517  0.2174 -1.8467
 7800SOL    HW235037   2.080   3.487  13.100 -1.2590  2.6283 -2.7896
 7801SOL     OW35038   3.496   4.355   6.560 -0.1406 -0.0791  0.2194
 7801SOL    HW135039   3.497   4.422   6.491 -0.7543 -2.4298 -2.0658
 7801SOL    HW235040   3.432   4.394   6.619 -1.3402 -3.0455  0.8488
 7802SOL     OW35041   0.369   0.205   6.283 -0.4230 -0.5234 -0.2284
 7802SOL    HW135042   0.384   0.154   6.362 -0.3224  0.5600  0.4470
 7802SOL    HW235043   0.453   0.199   6.237  0.7467  2.0831  1.6255
 7803SOL     OW35044   1.270   1.921   6.656 -0.3837 -0.2160 -0.0938
 7803SOL    HW135045   1.264   1.980   6.581 -2.6896 -0.6054 -0.2138
 7803SOL    HW235046   1.328   1.861   6.610 -1.4508 -0.8743 -0.5811
 7804SOL     OW35047   0.911   4.511  14.694 -0.6920  0.7076 -0.4180
 7804SOL    HW135048   0.984   4.455  14.666 -2.2440 -1.6848  0.3013
 7804SOL    HW235049   0.850   4.510  14.620 -0.5695 -0.1371 -0.5081
 7805SOL     OW35050   2.482   4.162   1.546 -0.8390  0.0272  0.4694
 7805SOL    HW135051   2.496   4.199   1.634  1.8471 -3.3139  1.4566
 7805SOL    HW235052   2.473   4.068   1.559  1.6457 -0.7502 -3.5694
 7806SOL     OW35053   0.266   0.437   6.421 -0.6050 -0.1656 -0.5882
 7806SOL    HW135054   0.275   0.344   6.399 -2.6363 -0.8350  1.4716
 7806SOL    HW235055   0.329   0.443   6.493 -1.3881 -1.9751  0.2442
 7807SOL     OW35056   1.945   1.469   6.239  0.4429  0.5177  0.3666
 7807SOL    HW135057   1.964   1.563   6.241  0.9931  0.3998  1.0076
 7807SOL    HW235058   1.852   1.470   6.258  0.1504  0.4816 -1.0785
 7808SOL     OW35059   1.815   1.507   9.402  0.2486  0.4970 -0.1050
 7808SOL    HW135060   1.905   1.539   9.410 -0.2011  1.2536  1.9520
 7808SOL    HW235061   1.825   1.429   9.348  0.2631  0.8703 -0.6532
 7809SOL     OW35062   3.449   0.249  10.255 -0.1622 -0.1689 -0.3994
 7809SOL    HW135063   3.448   0.161  10.293 -2.3239  0.7504  1.6026
 7809SOL    HW235064   3.359   0.277  10.266  0.7283  2.3399  0.6162
 7810SOL     OW35065   0.149   3.299   7.391 -0.5832 -0.4949 -0.4104
 7810SOL    HW135066   0.124   3.370   7.449 -1.1638  0.1076 -1.4005
 7810SOL    HW235067   0.244   3.309   7.380 -0.4633  0.8609  2.1114
 7811SOL     OW35068   0.833   0.221   2.197  0.0261 -0.0899 -0.2595
 7811SOL    HW135069   0.867   0.176   2.119 -0.3446  0.5122 -0.7585
 7811SOL    HW235070   0.897   0.292   2.210  1.0134 -1.0693  0.2781
 7812SOL     OW35071   2.845   1.583   6.953  0.1504 -0.5044 -0.7213
 7812SOL    HW135072   2.893   1.501   6.968 -1.0966 -0.8657  1.2452
 7812SOL    HW235073   2.769   1.556   6.902  1.3214 -0.5155 -2.4373
 7813SOL     OW35074   1.822   3.088   3.000  0.2183  0.0054 -0.4792
 7813SOL    HW135075   1.773   3.014   2.966 -0.2758 -0.5914  1.5227
 7813SOL    HW235076   1.841   3.140   2.922 -0.7483 -1.3733 -1.6262
 7814SOL     OW35077   1.640   2.067   5.841 -0.2101 -0.2406  0.6522
 7814SOL    HW135078   1.640   2.052   5.746 -0.3735 -0.5168  0.6967
 7814SOL    HW235079   1.633   2.163   5.836  2.4057 -0.1500 -1.6714
 7815SOL     OW35080   3.167   4.265   1.412  0.1787  0.0335  0.2689
 7815SOL    HW135081   3.151   4.356   1.440 -1.4741 -0.0380 -0.4466
 7815SOL    HW235082   3.209   4.229   1.490  2.3149  2.2294  0.1488
 7816SOL     OW35083   2.895   2.525   4.256  0.1743 -0.1300 -0.1192
 7816SOL    HW135084   2.961   2.502   4.321  0.6513  0.7760 -0.2922
 7816SOL    HW235085   2.929   2.477   4.180  1.8848  2.7212 -1.1122
 7817SOL     OW35086   4.731   0.634  17.098  0.3056 -0.3614 -0.0978
 7817SOL    HW135087   4.671   0.655  17.170 -0.2294  0.1373 -0.6861
 7817SOL    HW235088   4.668   0.637  17.026  0.5856 -2.1682 -0.4133
 7818SOL     OW35089   2.952   4.594   7.579  0.4774  0.1600  0.3500
 7818SOL    HW135090   2.919   4.665   7.634  0.4020  0.7952 -0.5212
 7818SOL    HW235091   2.973   4.532   7.649  1.5838 -1.4998 -1.4245
 7819SOL     OW35092   1.618   1.708   6.600  0.1118 -0.0142 -0.5964
 7819SOL    HW135093   1.590   1.700   6.691  0.1704 -0.1057 -0.5864
 7819SOL    HW235094   1.536   1.688   6.556 -0.6589 -0.2873  0.9848
 7820SOL     OW35095   1.783   0.149   9.774 -0.3111 -0.1968  0.4436
 7820SOL    HW135096   1.857   0.196   9.810 -1.4873  1.7630  0.2979
 7820SOL    HW235097   1.765   0.200   9.695  1.8988 -2.1521 -1.3271
 7821SOL     OW35098   4.306   3.991   4.164 -0.3621  0.2487  0.6988
 7821SOL    HW135099   4.392   4.009   4.126 -0.7020  0.3744 -0.0003
 7821SOL    HW235100   4.272   3.926   4.103  0.1416 -0.4110  1.1178
 7822SOL     OW35101   4.190   2.060   3.170  0.9489 -0.7821  0.4839
 7822SOL    HW135102   4.177   2.122   3.241 -0.5375  1.5987 -1.8858
 7822SOL    HW235103   4.102   2.057   3.134  0.6179 -1.2989  1.3166
 7823SOL     OW35104   2.693   1.703   5.076  0.5042 -0.2457 -0.4114
 7823SOL    HW135105   2.750   1.642   5.028 -1.1660 -1.5169 -0.7853
 7823SOL    HW235106   2.695   1.780   5.020  0.9451 -1.1966 -1.7143
 7824SOL     OW35107   3.190   2.172   3.495 -0.5821  0.3133 -0.7962
 7824SOL    HW135108   3.107   2.174   3.449 -1.9052  0.9668  1.5975
 7824SOL    HW235109   3.237   2.113   3.437 -0.3568  0.6711 -0.9796
 7825SOL     OW35110   0.382   1.768   3.408 -0.0969 -0.2460 -0.2512
 7825SOL    HW135111   0.369   1.811   3.323  1.4720 -0.6415 -0.6768
 7825SOL    HW235112   0.339   1.835   3.462 -0.9086 -0.2248 -0.9115
 7826SOL     OW35113   1.250   1.143   7.348 -0.0238  0.1797 -0.2063
 7826SOL    HW135114   1.305   1.127   7.424 -1.8882 -0.3965  1.0219
 7826SOL    HW235115   1.183   1.192   7.395  1.0556 -0.3734  1.9297
 7827SOL     OW35116   4.650   0.855  12.691  0.3765  0.9426  0.6449
 7827SOL    HW135117   4.603   0.827  12.769 -3.1768 -2.1209 -2.6124
 7827SOL    HW235118   4.580   0.878  12.629  0.0432 -0.5723  0.4653
 7828SOL     OW35119   1.847   2.676   6.111 -0.2012 -0.3899  0.0932
 7828SOL    HW135120   1.794   2.632   6.178 -1.9788  0.2780 -0.8779
 7828SOL    HW235121   1.901   2.604   6.078  0.1206  1.3257 -3.1731
 7829SOL     OW35122   0.873   4.339   4.311  0.2877 -0.0800 -0.5526
 7829SOL    HW135123   0.872   4.329   4.216  0.9462 -2.7735 -0.2994
 7829SOL    HW235124   0.965   4.318   4.329 -1.7331 -3.2951  5.8215
 7830SOL     OW35125   0.114   0.958   4.746  0.0419 -0.0608 -0.6445
 7830SOL    HW135126   0.136   1.008   4.824 -0.3100  0.6161 -0.9800
 7830SOL    HW235127   0.171   1.000   4.682 -0.7315  0.8806 -0.7159
 7831SOL     OW35128   1.476   3.716  13.795  0.8317 -0.0525 -0.1126
 7831SOL    HW135129   1.538   3.705  13.868 -1.3786  3.6564  2.2929
 7831SOL    HW235130   1.425   3.783  13.841  0.1026  0.4318 -1.6557
 7832SOL     OW35131   2.944   0.844  15.587 -0.3976  0.4149  0.2076
 7832SOL    HW135132   2.856   0.813  15.605 -0.7855  0.4622 -1.6310
 7832SOL    HW235133   2.984   0.829  15.673  0.2402 -1.6657 -0.4625
 7833SOL     OW35134   1.961   2.597  17.465  0.2013 -0.0508 -0.1337
 7833SOL    HW135135   1.892   2.552  17.513 -1.2342  1.8221 -0.4553
 7833SOL    HW235136   1.999   2.529  17.409  2.3040  0.7319  0.3148
 7834SOL     OW35137   4.461   2.876  13.400 -0.4304  0.3217 -0.0753
 7834SOL    HW135138   4.424   2.788  13.410  0.9720 -0.5603 -2.9613
 7834SOL    HW235139   4.552   2.852  13.385 -0.5046 -0.8706  1.3242
 7835SOL     OW35140   2.487   1.175  17.656  0.5476  0.3300  0.2796
 7835SOL    HW135141   2.532   1.259  17.667 -0.5784  0.7502  1.6924
 7835SOL    HW235142   2.556   1.126  17.611  0.2387  3.3087 -3.4407
 7836SOL     OW35143   0.622   1.805   2.374  0.0910 -0.4766  0.2192
 7836SOL    HW135144   0.562   1.833   2.444 -0.2706  2.4310 -1.2469
 7836SOL    HW235145   0.609   1.879   2.314  2.3699 -0.0758  0.2320
 7837SOL     OW35146   0.609   3.279   6.068  0.8841  0.0617  0.3972
 7837SOL    HW135147   0.631   3.364   6.107 -0.9575  0.8993 -0.4349
 7837SOL    HW235148   0.543   3.262   6.136  1.2702 -0.3342  0.6777
 7838SOL     OW35149   0.796   3.582   9.404  0.0583  0.0528  0.5798
 7838SOL    HW135150   0.793   3.523   9.328 -0.2593 -0.4282  0.9757
 7838SOL    HW235151   0.889   3.570   9.425 -0.0864 -0.6969  0.7830
 7839SOL     OW35152   1.192   1.881   2.648  0.4112  0.5803  0.2199
 7839SOL    HW135153   1.260   1.942   2.678 -0.5837  1.4542  0.7146
 7839SOL    HW235154   1.218   1.888   2.556  0.7470 -0.8021  0.2182
 7840SOL     OW35155   4.697   4.654   8.272 -0.5990  0.0433  0.0247
 7840SOL    HW135156   4.711   0.005   8.309 -0.6621 -0.6861  1.7786
 7840SOL    HW235157   4.607   4.635   8.297 -0.1779 -0.7750  0.9494
 7841SOL     OW35158   3.538   3.200   6.062  0.5252  0.8631 -0.7386
 7841SOL    HW135159   3.488   3.123   6.036  1.0684  0.6488 -1.1308
 7841SOL    HW235160   3.515   3.201   6.155  0.1198 -0.3888 -0.8269
 7842SOL     OW35161   0.150   0.527   4.318 -0.1361  0.5596  0.1024
 7842SOL    HW135162   0.189   0.609   4.346 -1.5218  1.2994 -0.1117
 7842SOL    HW235163   0.190   0.463   4.376 -0.7021 -0.0359 -0.1588
 7843SOL     OW35164   2.486   1.258   2.489 -0.1825  0.2454 -0.4798
 7843SOL    HW135165   2.469   1.163   2.489  0.0288  0.2220  2.0609
 7843SOL    HW235166   2.420   1.282   2.554 -0.9002  0.2733 -1.2016
 7844SOL     OW35167   4.227   2.077   2.113 -0.0163 -0.0985 -0.5820
 7844SOL    HW135168   4.224   2.173   2.115  0.3282 -0.1590  2.6177
 7844SOL    HW235169   4.292   2.055   2.179  0.0858  0.3839 -0.5275
 7845SOL     OW35170   4.625   4.357  16.330  0.3486 -0.3865 -0.1524
 7845SOL    HW135171   4.598   4.345  16.239  0.6970  0.7698 -0.4039
 7845SOL    HW235172   4.706   4.306  16.338 -1.4132 -3.2077 -0.4150
 7846SOL     OW35173   0.509   0.978   0.103  0.3156  0.3335  0.2895
 7846SOL    HW135174   0.434   0.934   0.062  1.4285 -1.7982  0.5860
 7846SOL    HW235175   0.467   1.055   0.142 -0.7308 -0.2694  0.3687
 7847SOL     OW35176   4.146   0.548  10.726  0.0380  0.3044  0.5038
 7847SOL    HW135177   4.105   0.584  10.805 -3.3428  0.8841 -1.5101
 7847SOL    HW235178   4.071   0.508  10.683  0.6924 -0.1450 -0.2336
 7848SOL     OW35179   0.223   3.713   3.090 -0.0320  0.1461 -0.3492
 7848SOL    HW135180   0.234   3.772   3.015  0.5144  0.3127 -0.1378
 7848SOL    HW235181   0.168   3.642   3.058 -2.0262  0.1566  2.9766
 7849SOL     OW35182   3.287   3.784   1.611 -0.0145  0.3864 -0.3230
 7849SOL    HW135183   3.262   3.738   1.530  0.9107  0.9109 -0.9100
 7849SOL    HW235184   3.235   3.730   1.670 -0.0524  0.7026 -0.0663
 7850SOL     OW35185   2.355   3.902  13.678  0.6902  0.0806  0.5481
 7850SOL    HW135186   2.272   3.854  13.685 -0.5356  2.2738  1.2372
 7850SOL    HW235187   2.371   3.878  13.587  0.1541  0.4587  0.3467
 7851SOL     OW35188   3.486   3.276   4.854 -0.5554  0.2966 -0.2014
 7851SOL    HW135189   3.418   3.235   4.800 -1.2864  0.7350  0.3787
 7851SOL    HW235190   3.514   3.352   4.803 -0.8399  0.2522 -0.4261
 7852SOL     OW35191   4.721   2.954  14.537 -0.8289  0.2505 -0.2040
 7852SOL    HW135192   4.670   3.012  14.594 -0.0588 -0.6875  1.4334
 7852SOL    HW235193   4.726   2.882  14.599  1.8038  0.4363 -0.2364
 7853SOL     OW35194   2.862   4.198   1.346  0.8175  0.2014  0.0428
 7853SOL    HW135195   2.945   4.227   1.384 -1.6841  3.9680  2.5868
 7853SOL    HW235196   2.811   4.278   1.341  1.8581  0.8197 -0.5543
 7854SOL     OW35197   1.133   2.090   3.380  0.0785 -0.4230 -0.1644
 7854SOL    HW135198   1.156   2.074   3.471 -0.1367 -2.6416 -0.4967
 7854SOL    HW235199   1.050   2.043   3.372  1.0513 -2.1588 -0.0870
 7855SOL     OW35200   2.061   1.251   5.053  0.0640  0.1560  0.1578
 7855SOL    HW135201   2.113   1.223   5.128  0.8769 -1.0071 -0.8443
 7855SOL    HW235202   2.019   1.329   5.089  2.2947  1.0685  0.7744
 7856SOL     OW35203   2.640   3.558  16.755 -0.2752  0.3133 -0.0029
 7856SOL    HW135204   2.567   3.518  16.708 -1.2947  1.7456  0.3843
 7856SOL    HW235205   2.713   3.547  16.694 -0.4308 -0.1594 -0.0995
 7857SOL     OW35206   3.377   2.957  11.957  0.1389 -0.2616  0.3879
 7857SOL    HW135207   3.417   3.019  12.018  0.9311 -1.8155  1.4448
 7857SOL    HW235208   3.425   2.880  11.988 -0.3524 -1.4348 -1.7740
 7858SOL     OW35209   0.695   3.057   4.240  0.4479 -0.0549  0.2786
 7858SOL    HW135210   0.708   3.152   4.231  0.0336  0.2259  2.6335
 7858SOL    HW235211   0.785   3.038   4.212  0.8447  1.8654  0.2558
 7859SOL     OW35212   2.012   1.935   0.303  0.1602 -0.7395  0.4962
 7859SOL    HW135213   2.004   1.840   0.307  3.5116 -1.0807 -0.8725
 7859SOL    HW235214   2.087   1.939   0.243 -0.3041 -0.1607 -0.0397
 7860SOL     OW35215   1.552   3.783  12.876  0.3344 -0.1723 -0.4623
 7860SOL    HW135216   1.648   3.777  12.871  0.6525  1.7235  2.5839
 7860SOL    HW235217   1.546   3.857  12.938  3.4331  1.0200 -1.5478
 7861SOL     OW35218   2.002   2.464  15.200  0.4402  0.0084  0.0438
 7861SOL    HW135219   2.067   2.396  15.216  0.4360  0.4595  1.9286
 7861SOL    HW235220   1.934   2.462  15.268  0.5100 -0.4958  0.0974
 7862SOL     OW35221   0.464   1.010   2.889  0.3920  0.4302 -0.0928
 7862SOL    HW135222   0.531   1.039   2.951  0.6917  1.8095 -1.0607
 7862SOL    HW235223   0.473   1.078   2.823 -0.5870  0.7846  0.1400
 7863SOL     OW35224   2.615   2.951  15.740 -0.1307 -0.1293 -0.1289
 7863SOL    HW135225   2.601   2.983  15.651 -1.6324  0.8013  0.4432
 7863SOL    HW235226   2.642   3.031  15.785  0.2171 -0.2884 -0.0488
 7864SOL     OW35227   3.637   3.046   8.540 -0.1597  0.1719 -0.6119
 7864SOL    HW135228   3.585   3.020   8.463  0.3110  0.2745 -0.9628
 7864SOL    HW235229   3.596   3.016   8.621  0.8932 -0.1311 -0.1919
 7865SOL     OW35230   0.771   2.680   6.184  0.3407  0.0564 -0.2489
 7865SOL    HW135231   0.806   2.620   6.118  1.2851  1.2251 -0.8020
 7865SOL    HW235232   0.847   2.711   6.232 -0.5628 -0.7472  1.7028
 7866SOL     OW35233   2.506   4.704  15.295 -0.0287 -0.0223  0.1112
 7866SOL    HW135234   2.428   4.688  15.348  1.8797 -0.8278  2.6871
 7866SOL    HW235235   2.549   4.627  15.332 -0.4303 -1.6934 -2.9749
 7867SOL     OW35236   3.486   1.289  15.804  0.3943 -0.2640 -0.4423
 7867SOL    HW135237   3.407   1.330  15.838 -0.1290 -1.4916 -0.1582
 7867SOL    HW235238   3.487   1.213  15.863  0.0106  0.0793  0.0079
 7868SOL     OW35239   0.653   4.611   2.088  0.0203 -0.3075  0.4447
 7868SOL    HW135240   0.702   4.682   2.046 -0.4773  0.1924  0.7135
 7868SOL    HW235241   0.705   4.534   2.063 -1.8197 -0.8355 -1.7381
 7869SOL     OW35242   1.862   2.436   9.136  0.2812 -0.3034  0.3983
 7869SOL    HW135243   1.942   2.459   9.089 -1.5058 -0.3086 -2.6289
 7869SOL    HW235244   1.881   2.487   9.215 -1.8320 -1.5379  1.7210
 7870SOL     OW35245   2.321   3.850   5.634 -0.5776  0.4187  0.1944
 7870SOL    HW135246   2.393   3.802   5.673 -0.0547 -1.4616 -3.0422
 7870SOL    HW235247   2.359   3.881   5.551 -2.9209 -1.3008 -1.5270
 7871SOL     OW35248   2.107   3.428   9.364  0.2270 -0.3328 -0.1776
 7871SOL    HW135249   2.065   3.473   9.437 -1.6044  0.5355 -1.7788
 7871SOL    HW235250   2.196   3.461   9.379  0.8760 -2.3278  0.5175
 7872SOL     OW35251   1.805   0.571   6.489 -0.1373  0.4682  0.0664
 7872SOL    HW135252   1.750   0.498   6.516  0.7167 -0.1449  0.1406
 7872SOL    HW235253   1.864   0.571   6.565  0.3326  0.1214 -0.2998
 7873SOL     OW35254   3.585   0.757   1.940  0.8019  0.1188 -0.0982
 7873SOL    HW135255   3.574   0.743   1.846  1.8808  0.5836 -0.2963
 7873SOL    HW235256   3.656   0.699   1.967  0.8755  0.2181 -0.0790
 7874SOL     OW35257   2.882   2.000  10.238  0.4305  0.5014 -0.1518
 7874SOL    HW135258   2.855   2.085  10.272 -0.9607 -1.1846  3.0031
 7874SOL    HW235259   2.804   1.949  10.259  1.4744 -1.9125 -2.1993
 7875SOL     OW35260   0.403   1.812   6.853  0.3758  0.1282 -0.3848
 7875SOL    HW135261   0.447   1.897   6.851  1.4480 -0.4313 -0.9129
 7875SOL    HW235262   0.405   1.793   6.947  0.7087 -3.9340 -1.1999
 7876SOL     OW35263   0.351   2.928   5.326  0.0024  0.5263  0.1935
 7876SOL    HW135264   0.433   2.940   5.278  0.2632 -2.0189 -0.0029
 7876SOL    HW235265   0.380   2.972   5.406 -1.9557  0.3402  0.9876
 7877SOL     OW35266   3.257   2.344   0.115  0.6139 -0.7755 -0.1263
 7877SOL    HW135267   3.177   2.296   0.092 -0.2606  0.2131  0.8293
 7877SOL    HW235268   3.321   2.300   0.059  2.3485 -0.6502  1.7620
 7878SOL     OW35269   3.912   4.725   8.192  0.2878  0.4766  0.6493
 7878SOL    HW135270   3.860   0.049   8.138 -2.6413 -2.3774  0.2596
 7878SOL    HW235271   3.937   4.652   8.134 -1.1804 -0.4604  1.1902
 7879SOL     OW35272   2.399   0.458   1.995  0.2156  0.0457 -0.2590
 7879SOL    HW135273   2.313   0.420   1.980  0.7768 -0.9526 -0.9818
 7879SOL    HW235274   2.380   0.528   2.057 -0.6701  0.6661 -1.2447
 7880SOL     OW35275   2.090   3.426   7.238  0.1920 -0.1950 -0.0446
 7880SOL    HW135276   1.998   3.445   7.256  1.0982  1.1532  3.1482
 7880SOL    HW235277   2.106   3.336   7.266  0.8877 -0.4545 -1.2793
 7881SOL     OW35278   0.951   0.440   5.554 -0.5806 -0.0247 -0.1822
 7881SOL    HW135279   0.972   0.347   5.549  2.1445  0.5534  0.6575
 7881SOL    HW235280   0.979   0.474   5.469  0.5051  0.1491  0.2456
 7882SOL     OW35281   3.411   4.402  10.330  0.3752  0.7184 -0.3078
 7882SOL    HW135282   3.349   4.431  10.264 -1.0821 -2.6236 -0.3920
 7882SOL    HW235283   3.458   4.340  10.275  0.6338  0.3066  0.3697
 7883SOL     OW35284   0.713   2.281   2.993 -0.1660 -0.5513  0.0642
 7883SOL    HW135285   0.805   2.308   2.994 -0.2945 -0.1276  0.3804
 7883SOL    HW235286   0.738   2.188   3.001 -0.1069 -0.3283  2.4709
 7884SOL     OW35287   1.407   3.376   3.317 -0.8137  0.3884 -0.2334
 7884SOL    HW135288   1.483   3.407   3.268 -0.3560 -0.2751  0.0636
 7884SOL    HW235289   1.429   3.296   3.365 -0.2373  0.7740  0.1392
 7885SOL     OW35290   0.502   1.515   6.648 -0.1462 -0.0983  0.7150
 7885SOL    HW135291   0.458   1.434   6.677 -0.5276 -0.1479 -0.0156
 7885SOL    HW235292   0.442   1.587   6.668 -1.4330 -0.7379 -0.8821
 7886SOL     OW35293   1.824   3.367  16.457 -0.1774 -0.6564 -0.6221
 7886SOL    HW135294   1.852   3.295  16.514 -0.0405 -0.4732 -0.4588
 7886SOL    HW235295   1.778   3.423  16.520  0.0328  0.1339 -1.1614
 7887SOL     OW35296   2.890   2.651   0.517  0.0133  0.1968  0.5497
 7887SOL    HW135297   2.943   2.579   0.552 -0.3275  0.4845  1.6632
 7887SOL    HW235298   2.944   2.730   0.527  2.4531 -1.3723 -0.1182
 7888SOL     OW35299   3.205   0.685   7.969  0.0607 -0.1554  0.2242
 7888SOL    HW135300   3.158   0.767   7.951 -1.1589 -0.3011  2.7650
 7888SOL    HW235301   3.138   0.618   7.959  1.1014 -1.0803 -0.5330
 7889SOL     OW35302   1.040   4.424  12.327  0.2085  0.8015 -0.3472
 7889SOL    HW135303   1.110   4.446  12.388  1.3567  0.0135 -1.3833
 7889SOL    HW235304   1.040   4.329  12.340  0.2055  0.9874  1.0022
 7890SOL     OW35305   4.452   3.407   2.251 -0.2013 -0.5749 -0.2870
 7890SOL    HW135306   4.462   3.386   2.158 -0.3863  2.4306 -0.9933
 7890SOL    HW235307   4.360   3.435   2.259 -0.6972 -2.3836  0.3577
 7891SOL     OW35308   4.427   3.479   6.422  0.3630 -0.1103  0.0696
 7891SOL    HW135309   4.478   3.557   6.398 -1.4683  1.0212 -0.2539
 7891SOL    HW235310   4.374   3.512   6.495 -0.4223  1.5399 -1.2252
 7892SOL     OW35311   2.905   2.372   2.425 -0.1754 -0.0032 -0.9910
 7892SOL    HW135312   2.936   2.413   2.345 -0.5306  0.8453 -0.6910
 7892SOL    HW235313   2.854   2.439   2.471  0.4195 -1.1531  1.3592
 7893SOL     OW35314   0.747   2.979  14.970 -0.1367  0.2697 -0.1480
 7893SOL    HW135315   0.744   2.888  15.001 -3.0361  0.4896  0.2481
 7893SOL    HW235316   0.758   2.968  14.876 -1.4863  2.2882 -0.5466
 7894SOL     OW35317   3.150   0.887   8.388  0.1631 -0.1157 -0.2197
 7894SOL    HW135318   3.134   0.981   8.375  0.6989 -0.0872 -0.6486
 7894SOL    HW235319   3.150   0.886   8.484  1.3189  0.7802 -0.2106
 7895SOL     OW35320   4.156   0.633   8.272  0.0662  0.3556 -0.3478
 7895SOL    HW135321   4.089   0.682   8.224 -1.0582 -0.1477  0.7153
 7895SOL    HW235322   4.228   0.635   8.209 -0.2083 -1.7546 -0.7398
 7896SOL     OW35323   3.297   3.788   6.930 -0.0422  0.2007 -0.0791
 7896SOL    HW135324   3.383   3.822   6.908 -0.1805  1.5504  1.4769
 7896SOL    HW235325   3.326   3.725   6.996 -1.4598 -0.2633  0.1137
 7897SOL     OW35326   2.310   3.843   6.928 -0.1043 -0.0241  0.0035
 7897SOL    HW135327   2.292   3.891   6.847 -3.2261 -2.4560 -0.7573
 7897SOL    HW235328   2.350   3.764   6.890  0.8240  1.3157 -1.7995
 7898SOL     OW35329   2.905   0.337   0.425  0.4158 -0.0508  0.1297
 7898SOL    HW135330   2.938   0.276   0.359  2.1289  1.3766 -0.3295
 7898SOL    HW235331   2.983   0.345   0.479  0.5709 -1.1634  0.0559
 7899SOL     OW35332   2.596   3.049   7.780  0.1049  0.6997 -0.0010
 7899SOL    HW135333   2.570   3.082   7.694  1.3016 -0.0362 -0.6421
 7899SOL    HW235334   2.666   3.105   7.812  4.4190 -5.0482  0.6964
 7900SOL     OW35335   2.593   0.308   6.041  0.1648 -0.8030 -0.0628
 7900SOL    HW135336   2.661   0.241   6.045  0.7339 -0.1518  1.0104
 7900SOL    HW235337   2.520   0.246   6.043 -0.1694 -0.3960  0.5096
 7901SOL     OW35338   0.071   0.912   2.840 -0.4857 -0.6404 -0.4423
 7901SOL    HW135339   0.109   0.968   2.908  0.0801 -0.1851 -1.1360
 7901SOL    HW235340   4.726   0.879   2.879 -1.2287 -0.8719 -2.1998
 7902SOL     OW35341   2.330   4.537   5.139 -0.0563  0.1464 -0.2793
 7902SOL    HW135342   2.282   4.454   5.133 -1.4285  0.8560  0.9951
 7902SOL    HW235343   2.379   4.544   5.057 -2.6579 -2.3581 -2.0359
 7903SOL     OW35344   3.420   1.247   5.332 -0.6791 -0.1313 -0.6857
 7903SOL    HW135345   3.324   1.241   5.333 -0.7634  0.6680 -2.9482
 7903SOL    HW235346   3.444   1.159   5.304  5.5789  0.9454  1.4320
 7904SOL     OW35347   2.337   3.527   9.033  0.4814  0.2011 -0.2435
 7904SOL    HW135348   2.321   3.618   9.059 -0.8140 -0.3005  0.6543
 7904SOL    HW235349   2.423   3.509   9.071 -0.9078 -0.5393  2.5202
 7905SOL     OW35350   0.608   0.906   6.560 -0.7927 -0.0971 -0.4694
 7905SOL    HW135351   0.671   0.894   6.631 -0.7541 -2.2867 -0.8742
 7905SOL    HW235352   0.629   0.992   6.524 -0.2453 -0.5769 -1.3183
 7906SOL     OW35353   3.698   0.644   2.570  0.0767 -0.3123  0.2707
 7906SOL    HW135354   3.776   0.598   2.602 -0.1699 -1.7771 -1.2092
 7906SOL    HW235355   3.639   0.610   2.637 -0.0588 -1.6342 -0.4950
 7907SOL     OW35356   3.130   1.637   8.477  0.0673 -0.1944 -0.0626
 7907SOL    HW135357   3.090   1.662   8.560 -0.2296 -0.9807  0.0363
 7907SOL    HW235358   3.054   1.608   8.426  0.2483 -0.7980  0.0009
 7908SOL     OW35359   2.806   3.749  15.661 -0.5228 -0.2187 -0.1755
 7908SOL    HW135360   2.900   3.730  15.660 -0.9275 -2.1388 -0.9361
 7908SOL    HW235361   2.799   3.818  15.595  0.1402  0.7471  0.7574
 7909SOL     OW35362   1.684   1.609   4.061 -0.2650  0.5145  0.2694
 7909SOL    HW135363   1.686   1.594   3.967  0.6898  1.9880  0.0654
 7909SOL    HW235364   1.776   1.633   4.070  0.1719 -1.8839  2.3303
 7910SOL     OW35365   3.659   1.214   5.988  0.0248 -0.1270 -0.1656
 7910SOL    HW135366   3.674   1.223   5.894 -1.5705 -2.5335 -0.6482
 7910SOL    HW235367   3.572   1.173   5.994  0.1161 -0.4103 -0.7772
 7911SOL     OW35368   2.117   0.348   4.037  0.4870 -0.2712 -0.0072
 7911SOL    HW135369   2.038   0.306   4.003 -0.4905  1.0056  0.6763
 7911SOL    HW235370   2.172   0.374   3.964  0.1662 -1.8585 -0.8133
 7912SOL     OW35371   3.482   2.862   7.799 -0.2993 -0.4388  0.0353
 7912SOL    HW135372   3.532   2.813   7.864  1.5504  0.5383 -0.6413
 7912SOL    HW235373   3.417   2.869   7.869  0.8138  0.2800  1.0006
 7913SOL     OW35374   0.039   3.543  13.499  0.2133  1.0056 -0.0083
 7913SOL    HW135375   4.719   3.600  13.446 -2.1495 -1.5728 -0.3108
 7913SOL    HW235376   0.035   3.573  13.589 -0.7792 -1.1113  0.6555
 7914SOL     OW35377   0.064   2.298   0.351  1.0060  0.7521  0.0700
 7914SOL    HW135378   0.037   2.309   0.443 -1.0176 -3.9649  0.0213
 7914SOL    HW235379   0.058   2.203   0.343  1.6213  0.7112  0.0815
 7915SOL     OW35380   3.077   3.709   5.105  0.0671 -0.8221 -0.3180
 7915SOL    HW135381   3.075   3.695   5.200 -3.4747  0.1206 -0.2534
 7915SOL    HW235382   3.154   3.766   5.103 -2.4980  2.7189  2.1726
 7916SOL     OW35383   1.447   2.809  15.974  0.1478 -0.0110 -0.1120
 7916SOL    HW135384   1.383   2.862  15.926  1.5813  0.8210 -1.1381
 7916SOL    HW235385   1.497   2.867  16.031 -2.1464  0.1365  1.7425
 7917SOL     OW35386   1.009   3.436   5.151  0.2625  0.4195  0.2010
 7917SOL    HW135387   1.093   3.444   5.106  0.9068 -2.8910  0.8038
 7917SOL    HW235388   0.953   3.510   5.129  0.7040  0.1406 -1.8197
 7918SOL     OW35389   1.123   2.054  14.739 -0.3416 -0.0471  0.3707
 7918SOL    HW135390   1.172   1.984  14.782 -1.9474 -0.3852  1.6095
 7918SOL    HW235391   1.160   2.042  14.651 -2.0727  2.7140 -0.7522
 7919SOL     OW35392   0.877   3.281  11.014  0.1732 -0.2999  0.1740
 7919SOL    HW135393   0.808   3.234  10.966  1.9101 -1.8326 -0.8240
 7919SOL    HW235394   0.957   3.233  10.995 -0.5681 -0.9533 -1.3123
 7920SOL     OW35395   0.968   1.939   8.365 -0.2990  0.5156 -0.2482
 7920SOL    HW135396   0.919   1.883   8.425 -0.9695  1.1727 -0.1843
 7920SOL    HW235397   0.998   2.005   8.427  0.0800 -0.2160  0.3380
 7921SOL     OW35398   2.626   0.251  12.754 -0.3806 -0.3378 -0.2104
 7921SOL    HW135399   2.553   0.277  12.698 -1.2359 -0.3143  0.9139
 7921SOL    HW235400   2.704   0.253  12.698 -1.5881  0.9300 -1.8447
 7922SOL     OW35401   4.642   4.182  14.421 -0.1539 -0.4812 -0.2317
 7922SOL    HW135402   4.547   4.169  14.423 -0.0689 -1.2433 -0.8453
 7922SOL    HW235403   4.653   4.276  14.415  1.6019 -0.6310  0.8902
 7923SOL     OW35404   0.923   2.729   3.243  0.3909  0.6326 -0.4599
 7923SOL    HW135405   0.972   2.811   3.245  3.8293 -1.4221  0.0049
 7923SOL    HW235406   0.989   2.660   3.253  0.0812  0.3388 -0.4156
 7924SOL     OW35407   1.979   1.714   6.406  0.0204  0.4614 -0.0013
 7924SOL    HW135408   1.923   1.729   6.482 -2.0088  1.5157 -1.7345
 7924SOL    HW235409   1.983   1.803   6.373  0.6800  1.3198  2.4005
 7925SOL     OW35410   0.226   3.404   3.592 -0.4472  0.0075  0.2465
 7925SOL    HW135411   0.285   3.364   3.657 -2.6004 -1.3412  1.3449
 7925SOL    HW235412   0.296   3.451   3.546 -0.0796 -0.6519  0.1360
 7926SOL     OW35413   3.799   1.744   5.112  0.2166  0.2056 -0.4807
 7926SOL    HW135414   3.747   1.668   5.085  1.0625 -0.0957 -1.2390
 7926SOL    HW235415   3.853   1.766   5.036 -1.7602 -0.9372 -2.2162
 7927SOL     OW35416   2.007   3.921  10.892 -0.0178  0.2892  0.5640
 7927SOL    HW135417   2.048   3.930  10.806 -0.4333  1.6689  0.5167
 7927SOL    HW235418   1.974   3.831  10.892 -0.0057  0.2825  1.6828
 7928SOL     OW35419   2.295   3.258   5.616  0.3457 -0.0543  0.4349
 7928SOL    HW135420   2.252   3.337   5.582 -1.6441 -2.1895 -1.9514
 7928SOL    HW235421   2.248   3.190   5.568 -1.6785  0.7901  1.2261
 7929SOL     OW35422   0.402   2.612   4.616 -0.0305  0.6878 -0.5423
 7929SOL    HW135423   0.391   2.689   4.560  2.2446 -0.1221 -2.0963
 7929SOL    HW235424   0.432   2.545   4.554  1.1041  1.8159 -1.1996
 7930SOL     OW35425   0.154   4.051  13.499 -0.2447  0.1018  0.2470
 7930SOL    HW135426   0.217   4.057  13.571 -0.0622  0.5865  0.0511
 7930SOL    HW235427   0.098   4.122  13.531  1.5893  1.4708  0.4405
 7931SOL     OW35428   4.497   1.453   9.446  0.7646 -0.2819  0.6655
 7931SOL    HW135429   4.419   1.508   9.455 -0.3058 -1.5893 -0.3566
 7931SOL    HW235430   4.457   1.382   9.395  0.8139  0.9446 -1.0817
 7932SOL     OW35431   0.967   0.773   4.031  0.3001 -0.6390  0.1674
 7932SOL    HW135432   0.947   0.698   4.087  1.1472 -0.7660  0.3064
 7932SOL    HW235433   1.062   0.758   4.025 -0.2464 -3.6593 -1.1094
 7933SOL     OW35434   3.969   4.577   4.419  0.0752 -0.3267 -0.0399
 7933SOL    HW135435   3.918   4.546   4.494  1.5412 -1.3208  0.5488
 7933SOL    HW235436   4.005   4.656   4.456 -2.9451  0.1555  1.8724
 7934SOL     OW35437   0.009   3.985  12.611  0.2146  0.2209  0.3652
 7934SOL    HW135438   4.689   3.925  12.563 -0.8052 -0.3775  2.3125
 7934SOL    HW235439   0.000   3.955  12.702 -2.2320 -0.2473 -0.0288
 7935SOL     OW35440   2.277   0.600   3.052 -0.7612  0.3210 -0.6484
 7935SOL    HW135441   2.302   0.536   2.986  0.8044 -0.8771  1.0859
 7935SOL    HW235442   2.308   0.680   3.012  1.2231  0.2834  0.8249
 7936SOL     OW35443   4.557   1.171   9.694  0.1781  0.5002  0.0757
 7936SOL    HW135444   4.532   1.093   9.743  0.2732  0.6962  0.4386
 7936SOL    HW235445   4.643   1.198   9.727  0.5647 -1.2463  0.4672
 7937SOL     OW35446   1.493   4.028  13.005 -0.5630 -0.8415  0.4027
 7937SOL    HW135447   1.410   4.035  13.052 -1.4718 -1.6970 -1.0374
 7937SOL    HW235448   1.506   4.117  12.974  0.9624 -0.9325  0.7960
 7938SOL     OW35449   1.981   4.351  12.843  0.0498 -0.2846 -0.3129
 7938SOL    HW135450   1.981   4.415  12.914 -1.4392  0.7841 -1.2732
 7938SOL    HW235451   2.038   4.382  12.772  0.8065  0.0276  0.4288
 7939SOL     OW35452   2.160   0.725  14.125 -0.4940 -0.4425 -0.2665
 7939SOL    HW135453   2.108   0.778  14.185  0.2690 -1.2291  1.0760
 7939SOL    HW235454   2.204   0.662  14.182 -1.2309 -0.9329 -0.2350
 7940SOL     OW35455   4.131   2.654   2.575 -0.1032  0.1126  0.0785
 7940SOL    HW135456   4.059   2.717   2.562 -0.9802 -0.5932  1.5730
 7940SOL    HW235457   4.085   2.583   2.619  0.7461  0.9650  2.3520
 7941SOL     OW35458   2.815   4.734   9.303  0.1243  0.3173  0.2209
 7941SOL    HW135459   2.757   0.036   9.238 -1.2627  0.6744  1.6552
 7941SOL    HW235460   2.885   0.062   9.305  0.3566  0.0585  0.5640
 7942SOL     OW35461   3.109   1.294   7.211  0.0922  0.4655 -0.1170
 7942SOL    HW135462   3.035   1.322   7.158  0.3639 -1.1157 -1.3116
 7942SOL    HW235463   3.077   1.216   7.256  0.6651  1.8788  2.7649
 7943SOL     OW35464   4.663   2.669   9.633 -0.0372  0.0856  0.2893
 7943SOL    HW135465   4.639   2.760   9.612 -0.6760 -0.1565 -0.0336
 7943SOL    HW235466   4.601   2.627   9.573 -0.8346 -1.1501  1.9831
 7944SOL     OW35467   3.738   1.508   5.842  0.1681  0.1544 -0.0715
 7944SOL    HW135468   3.729   1.437   5.779  1.9691 -1.4794  1.5173
 7944SOL    HW235469   3.800   1.571   5.804 -3.3616  1.7667 -3.1098
 7945SOL     OW35470   3.088   3.555   9.966 -0.1582  0.5266  0.1221
 7945SOL    HW135471   3.112   3.644   9.993 -2.5798  1.1496  0.2322
 7945SOL    HW235472   3.011   3.553  10.024 -1.6159  1.0495 -1.7987
 7946SOL     OW35473   2.155   4.503   1.358  0.4815  0.4651 -0.1775
 7946SOL    HW135474   2.223   4.567   1.381  1.9912 -0.9603 -0.6176
 7946SOL    HW235475   2.210   4.442   1.308 -1.0801 -0.9273 -0.1837
 7947SOL     OW35476   0.920   0.301   4.394 -0.1564  0.0768  0.1032
 7947SOL    HW135477   1.004   0.305   4.350 -0.8225  2.0402 -0.9813
 7947SOL    HW235478   0.941   0.258   4.477 -2.0152  1.5977  1.3824
 7948SOL     OW35479   3.108   4.090   5.684 -0.2399  0.3290  0.8036
 7948SOL    HW135480   3.171   4.019   5.684 -1.5322 -0.8257  0.2791
 7948SOL    HW235481   3.081   4.072   5.774  0.3568 -1.3121  0.6504
 7949SOL     OW35482   0.182   1.443   4.894  0.4984  0.3423 -0.2292
 7949SOL    HW135483   0.152   1.520   4.845 -1.8917 -1.2548 -1.2526
 7949SOL    HW235484   0.137   1.449   4.978  1.8117 -1.1001  0.5712
 7950SOL     OW35485   3.121   3.761   4.742 -0.0897 -0.5901  0.3546
 7950SOL    HW135486   3.125   3.848   4.783  0.5996 -0.2005 -0.5284
 7950SOL    HW235487   3.034   3.755   4.704 -0.9995  1.6634  2.0448
 7951SOL     OW35488   2.132   4.518   4.441 -0.6624  0.0308 -0.8250
 7951SOL    HW135489   2.150   4.457   4.369  2.6660 -0.7415  0.6972
 7951SOL    HW235490   2.184   4.594   4.417 -1.2430  0.4037 -0.9231
 7952SOL     OW35491   1.072   0.991   8.920 -0.4340  0.2071  0.1541
 7952SOL    HW135492   1.084   1.084   8.903 -0.3713  0.3179  0.8207
 7952SOL    HW235493   1.060   0.987   9.015 -2.2503  1.0942 -0.0254
 7953SOL     OW35494   3.721   3.209   1.347  0.2328 -0.8834  0.0472
 7953SOL    HW135495   3.652   3.261   1.388 -0.2092 -0.5036 -1.1942
 7953SOL    HW235496   3.788   3.277   1.350 -0.1378 -0.4721 -1.2850
 7954SOL     OW35497   1.058   1.179   3.101 -0.3393  0.0732  0.8033
 7954SOL    HW135498   1.007   1.206   3.025 -0.5744  1.9608  1.6369
 7954SOL    HW235499   1.142   1.218   3.081 -0.3391 -0.9156 -1.1475
 7955SOL     OW35500   1.655   1.655   3.793 -0.1289  0.1535  0.2529
 7955SOL    HW135501   1.576   1.704   3.769 -1.0775 -1.4940 -0.0144
 7955SOL    HW235502   1.648   1.576   3.739  0.0445  0.3534 -0.0668
 7956SOL     OW35503   4.497   4.654  10.480  0.0869  0.4137 -0.5325
 7956SOL    HW135504   4.588   4.681  10.490  0.4294 -2.2523  3.6495
 7956SOL    HW235505   4.504   4.587  10.549 -1.2619  0.3959 -0.4044
 7957SOL     OW35506   2.060   3.810   0.694  0.1554  0.2483 -0.1018
 7957SOL    HW135507   1.994   3.742   0.684  1.2823 -0.8279 -0.2361
 7957SOL    HW235508   2.075   3.799   0.788 -1.9443 -2.3737 -0.0742
 7958SOL     OW35509   0.242   3.978   7.410 -0.2582  0.1418  0.4509
 7958SOL    HW135510   0.253   4.073   7.410 -2.1816  0.3597 -0.8880
 7958SOL    HW235511   0.291   3.951   7.488  0.9258 -0.7201 -0.5967
 7959SOL     OW35512   0.503   2.524   9.435  0.0922  0.6558  0.2657
 7959SOL    HW135513   0.420   2.570   9.445 -0.0288  0.7284 -0.9553
 7959SOL    HW235514   0.571   2.580   9.472 -0.5413  1.0173  0.8774
 7960SOL     OW35515   1.595   1.522   2.180 -0.0318 -0.6969  0.3846
 7960SOL    HW135516   1.577   1.514   2.087  1.9101 -2.0203  0.1417
 7960SOL    HW235517   1.666   1.458   2.184  1.1802  0.6576  0.4663
 7961SOL     OW35518   2.596   0.952   3.333 -0.0471  0.1344 -0.0261
 7961SOL    HW135519   2.568   0.861   3.345 -1.9888  0.8004  0.5896
 7961SOL    HW235520   2.603   0.975   3.425  1.7437 -0.9547  0.1121
 7962SOL     OW35521   3.436   0.806   3.782  0.0888 -0.0244  0.5411
 7962SOL    HW135522   3.505   0.767   3.837 -0.2218 -2.3352 -0.7402
 7962SOL    HW235523   3.495   0.864   3.734 -0.6306  0.7521  0.6010
 7963SOL     OW35524   1.053   3.806   1.742  0.7877 -0.5246  0.1886
 7963SOL    HW135525   1.082   3.734   1.797 -0.4366 -3.1375 -2.5436
 7963SOL    HW235526   1.104   3.875   1.785  1.0339 -0.7824  0.3073
 7964SOL     OW35527   0.407   4.405   0.837  0.0776  0.4732  0.5879
 7964SOL    HW135528   0.476   4.421   0.774 -1.5505  0.2854 -1.2340
 7964SOL    HW235529   0.338   4.466   0.810  1.0889  1.4675  0.2740
 7965SOL     OW35530   2.421   4.320   7.870 -0.5403  0.4313  0.0065
 7965SOL    HW135531   2.505   4.341   7.912 -1.2676  0.6876  1.3252
 7965SOL    HW235532   2.444   4.318   7.777  1.0134 -0.1728  0.3984
 7966SOL     OW35533   1.263   2.200   9.745 -1.2792  0.0167 -0.5269
 7966SOL    HW135534   1.321   2.161   9.809  2.1120  1.8595 -2.4935
 7966SOL    HW235535   1.323   2.201   9.671 -1.3847 -1.2054 -0.6270
 7967SOL     OW35536   3.130   3.037   6.760 -0.3826  0.2699  0.3644
 7967SOL    HW135537   3.119   2.942   6.755  0.5259  0.2119 -0.6182
 7967SOL    HW235538   3.048   3.068   6.722 -1.6627 -2.6792  0.7389
 7968SOL     OW35539   0.949   0.792   9.408  0.1691  0.2917 -0.0628
 7968SOL    HW135540   1.043   0.807   9.402 -0.0524  0.6534 -2.5650
 7968SOL    HW235541   0.944   0.698   9.393 -0.2509 -0.1303  2.6530
 7969SOL     OW35542   1.709   0.018  16.531 -0.1496  0.2655  0.0246
 7969SOL    HW135543   1.786   0.057  16.573  0.9999 -0.3038 -1.5799
 7969SOL    HW235544   1.705   4.666  16.567  0.5711  1.4812  3.1626
 7970SOL     OW35545   0.920   0.047   3.606  0.1273 -0.1091  0.0776
 7970SOL    HW135546   0.873   0.100   3.670  0.2807 -0.5408  0.5506
 7970SOL    HW235547   0.976   0.114   3.567 -0.7952  0.6626  0.0704
 7971SOL     OW35548   2.513   4.280   7.611 -0.2088  0.4414  0.3906
 7971SOL    HW135549   2.461   4.266   7.532  1.5138 -0.5190 -0.5603
 7971SOL    HW235550   2.596   4.319   7.583 -0.4227  0.5789 -0.0544
 7972SOL     OW35551   3.374   0.355   3.280  0.0798 -0.1930 -0.2847
 7972SOL    HW135552   3.444   0.418   3.264  0.2714 -0.4775 -0.5637
 7972SOL    HW235553   3.335   0.389   3.360 -0.7205  0.0655 -0.7808
 7973SOL     OW35554   0.083   4.382  10.820 -0.0834 -0.1552 -0.6347
 7973SOL    HW135555   0.045   4.460  10.860 -1.7786 -1.4134  0.1956
 7973SOL    HW235556   0.147   4.369  10.889 -0.5605 -2.1796 -0.5907
 7974SOL     OW35557   1.361   4.309   8.242  0.3227 -0.0075  0.0506
 7974SOL    HW135558   1.277   4.319   8.286  1.3180  0.1186  1.9195
 7974SOL    HW235559   1.385   4.400   8.223  0.5319 -0.0928 -0.0943
 7975SOL     OW35560   2.287   2.108   2.176 -0.0273 -0.2908 -0.8215
 7975SOL    HW135561   2.205   2.156   2.162  1.0016  0.9558 -2.5363
 7975SOL    HW235562   2.325   2.095   2.089  0.0036  0.8620 -0.9727
 7976SOL     OW35563   3.470   3.643   8.497 -0.5082  0.2958 -0.0204
 7976SOL    HW135564   3.467   3.555   8.532  0.9358 -0.6684 -2.2884
 7976SOL    HW235565   3.527   3.623   8.423 -1.0139  1.2365 -0.6650
 7977SOL     OW35566   0.550   2.132   7.171 -0.3023  0.4499 -0.2625
 7977SOL    HW135567   0.572   2.189   7.098  1.1416  2.2982  1.6046
 7977SOL    HW235568   0.466   2.096   7.144 -0.1530 -0.4526  0.4951
 7978SOL     OW35569   2.709   4.589   5.621 -0.2796  1.6438 -0.4768
 7978SOL    HW135570   2.793   4.562   5.584 -1.1055 -0.6440 -0.7044
 7978SOL    HW235571   2.688   4.522   5.686  0.0370  2.0885  0.0800
 7979SOL     OW35572   1.935   2.238   7.842 -0.3771 -0.2001  0.5553
 7979SOL    HW135573   2.007   2.181   7.816  0.9078  1.2271  0.9713
 7979SOL    HW235574   1.870   2.186   7.795  1.3375  0.3957 -2.4633
 7980SOL     OW35575   0.639   1.496  13.243  0.3723  0.1128  0.5904
 7980SOL    HW135576   0.575   1.459  13.305 -0.7009 -0.4435 -0.8470
 7980SOL    HW235577   0.706   1.431  13.264 -1.4751 -1.3842  1.9717
 7981SOL     OW35578   1.364   4.300   1.725  0.5304  0.2085  0.8805
 7981SOL    HW135579   1.297   4.347   1.676  2.3416 -0.1588 -1.9458
 7981SOL    HW235580   1.338   4.209   1.708  4.1165 -0.6555  0.0844
 7982SOL     OW35581   2.231   2.537  13.037  0.0281 -0.3091 -0.3495
 7982SOL    HW135582   2.239   2.518  13.130 -2.8137  0.4007  0.0414
 7982SOL    HW235583   2.228   2.452  12.995  0.2064 -0.0566 -0.8780
 7983SOL     OW35584   4.271   4.339   4.793  0.2696 -0.2392  0.6599
 7983SOL    HW135585   4.190   4.332   4.742 -0.1117  1.4735  1.0280
 7983SOL    HW235586   4.290   4.246   4.796 -1.4900 -0.6398 -0.4242
 7984SOL     OW35587   0.409   2.965   3.792  0.1476  0.3882 -0.2343
 7984SOL    HW135588   0.432   3.056   3.771 -0.9629  0.2048 -2.1976
 7984SOL    HW235589   0.331   2.980   3.844 -0.3118 -1.1947 -0.4857
 7985SOL     OW35590   2.368   4.247  12.716 -0.2548 -0.5352 -0.4221
 7985SOL    HW135591   2.443   4.291  12.757 -0.5023  1.3983 -2.0206
 7985SOL    HW235592   2.323   4.230  12.799  2.4977  0.5632  1.2957
 7986SOL     OW35593   1.641   1.172  15.287  0.1117  0.8943  0.3642
 7986SOL    HW135594   1.698   1.122  15.345  0.0264 -0.1575 -0.4531
 7986SOL    HW235595   1.564   1.114  15.288 -0.2105  1.3383  1.2109
 7987SOL     OW35596   3.191   0.690   4.356  0.2510 -0.4594  0.7564
 7987SOL    HW135597   3.175   0.714   4.447 -0.6833 -2.3876  1.0977
 7987SOL    HW235598   3.163   0.599   4.345  0.3907 -0.4558  0.3860
 7988SOL     OW35599   4.354   2.008   6.860 -0.1695  0.1206  0.3962
 7988SOL    HW135600   4.282   1.949   6.882 -1.3992  0.7757 -1.7881
 7988SOL    HW235601   4.351   1.998   6.765 -2.4187 -1.6207  0.6599
 7989SOL     OW35602   3.093   3.433  16.489 -0.0080  0.5345 -0.2045
 7989SOL    HW135603   3.164   3.456  16.548  0.7057 -2.2432 -0.0006
 7989SOL    HW235604   3.058   3.360  16.540  3.1110  0.2335  1.4906
 7990SOL     OW35605   2.596   2.477   7.410  0.2414 -0.2287 -0.6092
 7990SOL    HW135606   2.559   2.434   7.488 -0.3074  1.2052 -0.0691
 7990SOL    HW235607   2.575   2.570   7.422  1.1246  0.0745 -1.4764
 7991SOL     OW35608   4.179   3.411   2.215 -0.1392  0.2359 -0.4344
 7991SOL    HW135609   4.155   3.390   2.125  1.0604 -0.9396 -0.4785
 7991SOL    HW235610   4.155   3.503   2.218 -1.1420 -0.1369  3.1773
 7992SOL     OW35611   1.165   2.949  14.805 -0.4102  0.2406  0.2790
 7992SOL    HW135612   1.118   2.938  14.887  0.7791 -1.4010  0.7559
 7992SOL    HW235613   1.252   2.972  14.837 -1.1984  1.3088  1.6271
 7993SOL     OW35614   3.049   1.808  15.212 -0.3041  0.0333  1.0886
 7993SOL    HW135615   3.053   1.862  15.133 -2.5578  0.0783  1.0014
 7993SOL    HW235616   3.049   1.719  15.178 -0.1614  0.5519 -0.2393
 7994SOL     OW35617   2.647   0.810   8.140 -0.0567  0.1061  0.0648
 7994SOL    HW135618   2.571   0.853   8.180  1.2561  1.5032  1.0966
 7994SOL    HW235619   2.665   0.741   8.204  1.9633 -0.5842 -1.2352
 7995SOL     OW35620   4.437   0.291   0.950  0.5784 -0.3458 -0.0712
 7995SOL    HW135621   4.530   0.310   0.964  0.2679  0.7688  0.4194
 7995SOL    HW235622   4.421   0.352   0.878  3.2716 -0.6503 -0.9324
 7996SOL     OW35623   3.589   2.371   7.925  0.1636  0.3152  0.0860
 7996SOL    HW135624   3.496   2.375   7.902  0.4947 -0.9812 -1.4560
 7996SOL    HW235625   3.578   2.367   8.020 -0.6225  1.9599  0.0646
 7997SOL     OW35626   4.641   3.921   9.754 -0.2496  0.1391 -0.2828
 7997SOL    HW135627   4.575   3.920   9.685  0.9500  0.2164 -1.4292
 7997SOL    HW235628   4.594   3.949   9.833 -1.9419 -0.2114 -1.1715
 7998SOL     OW35629   3.420   2.878   5.658  0.2028 -0.1244  0.7445
 7998SOL    HW135630   3.411   2.783   5.670  1.2940 -0.3485 -0.1876
 7998SOL    HW235631   3.507   2.887   5.619 -0.7242  2.3458 -0.7223
 7999SOL     OW35632   1.867   3.429   6.376 -0.3758 -0.0386  0.1415
 7999SOL    HW135633   1.840   3.446   6.286 -2.9024  0.4974  0.9952
 7999SOL    HW235634   1.838   3.338   6.383 -1.8712  0.4713  0.4510
 8000SOL     OW35635   2.944   2.690  13.952 -0.3928 -0.1441 -0.3905
 8000SOL    HW135636   2.859   2.661  13.920 -0.3824 -0.6382  0.0348
 8000SOL    HW235637   2.925   2.744  14.029  0.6341 -0.6068  0.1941
 8001SOL     OW35638   0.240   4.704   3.059 -0.2005  0.1916 -0.1660
 8001SOL    HW135639   0.258   4.671   2.971  0.1311 -2.1958  0.7851
 8001SOL    HW235640   0.240   4.620   3.105 -0.9630  1.3841  2.0296
 8002SOL     OW35641   1.220   1.117   5.139 -0.1055 -0.1475  0.7762
 8002SOL    HW135642   1.134   1.099   5.178  0.6862 -1.9751  1.6913
 8002SOL    HW235643   1.271   1.043   5.172 -0.0831 -0.8371 -0.8435
 8003SOL     OW35644   0.332   1.338   9.204 -0.0884 -0.0548 -0.0716
 8003SOL    HW135645   0.291   1.401   9.264  2.0938  1.1039  0.1873
 8003SOL    HW235646   0.258   1.325   9.144 -0.5027  0.4863  0.3160
 8004SOL     OW35647   3.028   1.164   6.491  0.1892 -0.2156  0.0530
 8004SOL    HW135648   3.014   1.113   6.571  0.2141  0.9928  0.8241
 8004SOL    HW235649   3.061   1.246   6.528  0.4933 -0.4415  0.2785
 8005SOL     OW35650   2.988   3.874   6.901 -0.3392 -0.1612  0.7558
 8005SOL    HW135651   3.052   3.816   6.859 -0.2876 -0.0367  0.6636
 8005SOL    HW235652   2.907   3.829   6.879 -0.7549  0.5249  0.9000
 8006SOL     OW35653   0.451   0.395   6.655 -0.0057  0.2798  0.1365
 8006SOL    HW135654   0.514   0.465   6.635  1.3257 -1.2164 -0.8961
 8006SOL    HW235655   0.495   0.342   6.721  0.8259 -1.6703 -1.9792
 8007SOL     OW35656   2.947   1.203   5.800  0.2781 -0.2664  0.1718
 8007SOL    HW135657   2.925   1.211   5.707 -2.2565 -1.3959  0.6529
 8007SOL    HW235658   2.859   1.203   5.840 -0.5206 -2.1989 -1.5724
 8008SOL     OW35659   1.217   0.506  13.370 -0.0400  0.5873 -0.0247
 8008SOL    HW135660   1.171   0.588  13.386  0.2173  1.3243 -3.1554
 8008SOL    HW235661   1.271   0.513  13.449  0.5677  2.5355 -0.6111
 8009SOL     OW35662   4.269   1.007  14.865  0.2897  0.7189 -0.5228
 8009SOL    HW135663   4.314   1.091  14.856  1.2493  0.0204 -2.1092
 8009SOL    HW235664   4.338   0.942  14.854  0.7466  0.8912  1.3275
 8010SOL     OW35665   3.469   2.804   9.003  0.2301 -0.3143 -0.2461
 8010SOL    HW135666   3.419   2.804   9.085  1.5952  1.3575  0.6056
 8010SOL    HW235667   3.535   2.736   9.013 -1.3883 -1.7473  0.7584
 8011SOL     OW35668   0.295   3.926   0.535 -0.0075  0.0509 -0.4797
 8011SOL    HW135669   0.239   3.940   0.612  0.2624  0.1138 -0.2943
 8011SOL    HW235670   0.370   3.981   0.557  0.5607 -0.7458 -0.3875
 8012SOL     OW35671   2.762   0.334  14.344  0.4020 -0.0537  0.7967
 8012SOL    HW135672   2.680   0.286  14.354  0.8293 -0.7374  1.0619
 8012SOL    HW235673   2.829   0.270  14.319  1.3755  0.6234  1.6403
 8013SOL     OW35674   3.798   1.270   2.357 -0.1736 -0.0858  0.2013
 8013SOL    HW135675   3.826   1.290   2.268  1.0909 -0.5916  0.4914
 8013SOL    HW235676   3.749   1.349   2.381  3.4311  2.1694  0.2636
 8014SOL     OW35677   2.100   2.659   9.214 -0.3608 -0.2772  0.0943
 8014SOL    HW135678   2.192   2.656   9.241  0.0439 -0.2455 -1.2926
 8014SOL    HW235679   2.100   2.588   9.151 -0.6538 -0.0148 -0.2031
 8015SOL     OW35680   3.638   0.703   1.666  0.4880  0.1667  0.1577
 8015SOL    HW135681   3.713   0.763   1.675  0.2292  0.3291  1.3131
 8015SOL    HW235682   3.607   0.723   1.578  1.4411  1.5034  0.1160
 8016SOL     OW35683   1.276   3.042   3.777 -0.1112 -0.7461 -0.1134
 8016SOL    HW135684   1.188   3.075   3.755  0.1087 -0.5478 -0.6993
 8016SOL    HW235685   1.310   3.012   3.693 -0.5803  0.3379 -0.6917
 8017SOL     OW35686   4.325   3.514   9.910  0.1740  0.1044  0.3305
 8017SOL    HW135687   4.247   3.550   9.952  0.5973 -0.1750  1.3453
 8017SOL    HW235688   4.395   3.540   9.971 -1.9276 -1.4078  3.3842
 8018SOL     OW35689   2.250   1.173   5.974  0.7079  0.6742  0.4559
 8018SOL    HW135690   2.208   1.133   6.050  1.0803  1.4829  1.0807
 8018SOL    HW235691   2.169   1.178   5.923  0.4917  0.0674  0.7361
 8019SOL     OW35692   3.954   2.848   2.687 -0.1909 -0.4365 -0.2421
 8019SOL    HW135693   3.941   2.788   2.760  2.1421  0.1573  0.6785
 8019SOL    HW235694   3.866   2.884   2.677 -1.0815 -2.2660  1.0811
 8020SOL     OW35695   2.576   3.159  11.942 -0.6120 -0.2285  0.7722
 8020SOL    HW135696   2.657   3.110  11.926  0.3239  1.3980  0.4992
 8020SOL    HW235697   2.515   3.085  11.937 -1.2036  0.2979  0.1776
 8021SOL     OW35698   2.519   2.065   6.790  0.1515 -0.1664  0.0513
 8021SOL    HW135699   2.521   2.104   6.877  2.4655 -0.2936  0.0531
 8021SOL    HW235700   2.463   1.988   6.802 -0.2333 -0.0422 -0.9591
 8022SOL     OW35701   0.391   2.506   8.727 -1.0047  0.3934 -0.0322
 8022SOL    HW135702   0.417   2.549   8.646  1.5448  0.2421  0.7183
 8022SOL    HW235703   0.407   2.415   8.703 -3.2028  0.4923 -1.8750
 8023SOL     OW35704   0.132   3.618  13.203  0.6281 -0.5608 -0.1312
 8023SOL    HW135705   0.185   3.690  13.237 -0.8694  0.2408  0.4868
 8023SOL    HW235706   0.072   3.613  13.277 -0.1908  0.5502 -0.7298
 8024SOL     OW35707   4.109   2.154   7.868  0.7841  0.1626 -0.1770
 8024SOL    HW135708   4.022   2.194   7.861  0.1147 -1.5321 -1.5811
 8024SOL    HW235709   4.158   2.235   7.860 -2.4041  2.2057  0.7874
 8025SOL     OW35710   0.341   0.141   9.350  0.0132  0.0993 -0.4039
 8025SOL    HW135711   0.297   0.218   9.387 -1.2285  0.0354 -1.7406
 8025SOL    HW235712   0.332   0.145   9.255 -1.3376  2.9481 -0.1591
 8026SOL     OW35713   2.639   1.680   6.633 -0.1526 -0.3018  0.0129
 8026SOL    HW135714   2.548   1.691   6.604  0.1884  1.7327 -0.2433
 8026SOL    HW235715   2.690   1.695   6.554 -1.3006  0.0895 -0.6624
 8027SOL     OW35716   4.334   1.655   3.417  0.3446  0.5251 -0.4110
 8027SOL    HW135717   4.354   1.747   3.399  2.0018  0.2099 -0.2339
 8027SOL    HW235718   4.368   1.646   3.506  0.4723 -1.2053 -0.6266
 8028SOL     OW35719   2.630   1.022  11.636  0.6353  0.5465 -0.3526
 8028SOL    HW135720   2.699   0.957  11.647 -0.2427 -0.2270  0.6608
 8028SOL    HW235721   2.565   0.983  11.577  0.0757  1.6194 -0.4552
 8029SOL     OW35722   4.353   1.287   9.254  0.3082 -0.4861 -0.1388
 8029SOL    HW135723   4.423   1.224   9.238  0.9551  0.8244 -2.5049
 8029SOL    HW235724   4.295   1.259   9.183 -0.3370 -0.1012  0.2414
 8030SOL     OW35725   2.922   0.183   8.877  0.5789  0.3171  0.2732
 8030SOL    HW135726   2.843   0.221   8.916 -0.1819 -0.8616 -0.1138
 8030SOL    HW235727   2.992   0.232   8.921 -0.6459  2.0879  0.2572
 8031SOL     OW35728   3.782   0.605   9.412 -0.8135  1.1792 -0.5433
 8031SOL    HW135729   3.733   0.590   9.493  3.6846 -4.2878  1.1526
 8031SOL    HW235730   3.827   0.520   9.411 -1.8225  0.6888 -2.6836
 8032SOL     OW35731   1.225   0.768   8.996  0.6554 -0.7605 -0.6356
 8032SOL    HW135732   1.191   0.850   8.960 -0.2706 -0.5202  0.7928
 8032SOL    HW235733   1.297   0.802   9.049 -0.6789 -0.4095  0.9514
 8033SOL     OW35734   0.345   4.719   5.229 -0.1905  0.0080 -0.6312
 8033SOL    HW135735   0.422   4.695   5.281 -0.1638  0.9642 -0.2255
 8033SOL    HW235736   0.383   0.056   5.180 -1.8571  0.9596 -0.4906
 8034SOL     OW35737   4.039   1.113  15.369  0.2269 -0.0644 -0.2164
 8034SOL    HW135738   4.057   1.106  15.275  0.2076 -0.2702 -0.2047
 8034SOL    HW235739   4.004   1.024  15.375  1.5968 -0.4823  1.4362
 8035SOL     OW35740   2.769   0.425   7.238 -0.1829 -0.1529 -0.5413
 8035SOL    HW135741   2.675   0.411   7.226 -0.1298 -1.4089  0.5447
 8035SOL    HW235742   2.790   0.430   7.144 -2.0055  0.8020 -0.8973
 8036SOL     OW35743   2.933   2.186   3.378 -0.0039 -0.7155 -0.4615
 8036SOL    HW135744   2.948   2.099   3.340  0.8099 -1.1196  0.7683
 8036SOL    HW235745   2.846   2.172   3.414 -0.0101  1.1844  0.2340
 8037SOL     OW35746   4.400   0.358   7.175  0.2422  0.3634  0.5696
 8037SOL    HW135747   4.409   0.276   7.224 -0.0320 -0.2764 -0.4486
 8037SOL    HW235748   4.352   0.416   7.233 -0.0394  0.2991  0.4001
 8038SOL     OW35749   4.196   3.248  13.687 -0.4443 -0.6742 -0.0272
 8038SOL    HW135750   4.190   3.303  13.609 -0.2005 -0.1573  0.3165
 8038SOL    HW235751   4.113   3.200  13.685 -0.3123 -0.9713  1.5551
 8039SOL     OW35752   4.702   3.050   7.372 -0.8929  0.3771  0.2224
 8039SOL    HW135753   4.709   3.116   7.302 -0.1497 -0.9762 -0.9944
 8039SOL    HW235754   0.014   3.095   7.441  0.5697 -0.0813 -0.4849
 8040SOL     OW35755   3.458   0.325   5.196 -0.4449  0.2715 -0.3518
 8040SOL    HW135756   3.459   0.343   5.290  2.4481 -0.7427 -0.1779
 8040SOL    HW235757   3.368   0.355   5.182 -1.1329 -1.6554 -0.0800
 8041SOL     OW35758   1.058   3.697   7.717 -0.2198 -0.2668 -0.1098
 8041SOL    HW135759   0.991   3.751   7.760 -1.5845 -1.5875 -0.5965
 8041SOL    HW235760   1.110   3.768   7.679 -1.1041  1.0787  1.1798
 8042SOL     OW35761   4.372   4.206   7.750 -0.1384 -0.3714 -0.3542
 8042SOL    HW135762   4.374   4.298   7.725  0.8821 -0.5185 -0.8387
 8042SOL    HW235763   4.464   4.188   7.772  0.1484  1.5336 -0.0353
 8043SOL     OW35764   1.667   0.868   4.522  0.4032 -0.4186  1.0045
 8043SOL    HW135765   1.589   0.923   4.511  0.0432 -0.6501  2.4767
 8043SOL    HW235766   1.676   0.847   4.614  1.8226 -2.5621  0.3642
 8044SOL     OW35767   4.513   3.385   8.370 -0.1888 -0.0487 -0.0462
 8044SOL    HW135768   4.495   3.350   8.283  3.7964  0.8193 -1.2420
 8044SOL    HW235769   4.471   3.324   8.431 -1.3900 -1.0560 -1.8841
 8045SOL     OW35770   0.531   3.802  17.135 -0.7121 -0.0563 -0.3494
 8045SOL    HW135771   0.446   3.774  17.169  0.9557 -2.7959  1.5568
 8045SOL    HW235772   0.576   3.724  17.169  0.3781  2.0925  3.1741
 8046SOL     OW35773   2.104   2.551  15.771 -0.5099 -0.9406 -0.0004
 8046SOL    HW135774   2.051   2.601  15.833 -1.6014 -1.6229 -0.3739
 8046SOL    HW235775   2.064   2.591  15.694  1.2114  1.7291  0.4999
 8047SOL     OW35776   1.254   0.129  16.649 -0.2767  0.4005  0.3774
 8047SOL    HW135777   1.314   0.184  16.701 -0.1441  0.6713 -0.0601
 8047SOL    HW235778   1.311   0.094  16.580  0.2080  2.6274 -0.3711
 8048SOL     OW35779   4.018   0.901   7.651  0.1400  0.5388 -0.1316
 8048SOL    HW135780   3.965   0.919   7.573 -0.0667 -2.2259 -0.6264
 8048SOL    HW235781   4.080   0.836   7.619  0.9132  1.2282 -0.0514
 8049SOL     OW35782   2.409   1.118   4.610 -0.1326  0.3509  0.6657
 8049SOL    HW135783   2.338   1.060   4.583  2.4229 -1.7491 -1.5488
 8049SOL    HW235784   2.391   1.109   4.703  0.1247 -2.1071  0.4594
 8050SOL     OW35785   0.026   3.915   7.026  0.6225  0.2827 -0.2436
 8050SOL    HW135786   0.099   3.875   7.073 -0.2240 -0.0928  0.7456
 8050SOL    HW235787   4.705   3.838   7.018  1.3584 -0.0914 -1.8670
 8051SOL     OW35788   4.376   4.092   4.486 -0.4909 -0.6184  0.2330
 8051SOL    HW135789   4.417   4.030   4.545 -1.2240 -1.6423 -0.3245
 8051SOL    HW235790   4.306   4.042   4.443  0.4818  0.1673 -2.3012
 8052SOL     OW35791   1.828   4.651   8.033  0.1804 -0.0864  0.4740
 8052SOL    HW135792   1.736   4.656   8.004  0.4221  2.8517  0.2087
 8052SOL    HW235793   1.835   4.556   8.041  0.7867 -0.0880 -0.0710
 8053SOL     OW35794   3.571   2.483  17.003  0.4993  0.0908  0.0162
 8053SOL    HW135795   3.594   2.500  17.095  0.8268 -0.3471  0.0104
 8053SOL    HW235796   3.658   2.488  16.964 -0.5328 -0.1918 -2.3151
 8054SOL     OW35797   3.817   1.442   6.106  0.1121 -0.5831  0.0847
 8054SOL    HW135798   3.765   1.362   6.105  0.3407 -0.7415  0.7536
 8054SOL    HW235799   3.845   1.445   6.014  0.4606 -1.2209  0.1652
 8055SOL     OW35800   1.492   3.463   7.388 -0.5941 -0.2631 -0.1387
 8055SOL    HW135801   1.574   3.472   7.341 -0.3822  0.5549  0.3784
 8055SOL    HW235802   1.442   3.538   7.353  0.2980  0.4668  0.1572
 8056SOL     OW35803   4.023   2.886   4.746  0.5051  0.4663 -0.4717
 8056SOL    HW135804   3.951   2.947   4.761  0.3683 -0.0122  0.7764
 8056SOL    HW235805   3.981   2.807   4.713 -0.6032 -0.0939  2.3016
 8057SOL     OW35806   2.266   4.317   6.734 -0.4280 -0.0298  0.3100
 8057SOL    HW135807   2.340   4.366   6.768 -0.7109  1.3006 -0.9692
 8057SOL    HW235808   2.241   4.266   6.811 -1.7409  2.6250  1.6142
 8058SOL     OW35809   0.374   4.090   5.314  0.3559  0.0289  0.1197
 8058SOL    HW135810   0.327   4.055   5.391 -0.4680 -1.1106 -0.8974
 8058SOL    HW235811   0.368   4.184   5.331 -0.8622  0.1650 -1.1105
 8059SOL     OW35812   1.369   2.294   3.377  0.3142  0.0095 -0.5783
 8059SOL    HW135813   1.302   2.227   3.363  1.4582 -1.8686  2.8424
 8059SOL    HW235814   1.436   2.226   3.382 -0.9395 -1.2143 -0.2425
 8060SOL     OW35815   4.111   3.219  14.167  0.1550 -0.0970  0.2403
 8060SOL    HW135816   4.034   3.276  14.167  1.0018  1.0326 -3.2376
 8060SOL    HW235817   4.086   3.159  14.098 -0.2801 -1.2385  1.3918
 8061SOL     OW35818   1.186   0.687   8.692 -0.2361  0.0864 -0.5710
 8061SOL    HW135819   1.270   0.681   8.737 -0.2719 -1.2526 -0.6888
 8061SOL    HW235820   1.129   0.622   8.734 -0.3251 -0.1518 -1.0635
 8062SOL     OW35821   3.628   2.830   2.545  0.0567  0.8263  0.0924
 8062SOL    HW135822   3.540   2.867   2.555 -1.3969 -2.6549  0.0154
 8062SOL    HW235823   3.673   2.895   2.599 -0.0962  0.0245  1.1811
 8063SOL     OW35824   0.672   3.272   3.273  0.2863  0.4238  0.3533
 8063SOL    HW135825   0.700   3.183   3.251 -1.3071 -0.1449  0.5928
 8063SOL    HW235826   0.749   3.323   3.248  0.0881 -0.0394 -1.2248
 8064SOL     OW35827   3.475   0.858   8.790  0.1449 -0.1180  0.2364
 8064SOL    HW135828   3.542   0.828   8.728 -0.7267 -0.5580 -0.4827
 8064SOL    HW235829   3.435   0.776   8.820  0.3797 -0.2883  0.0854
 8065SOL     OW35830   2.695   2.145  15.360  0.3118  0.0640  0.2075
 8065SOL    HW135831   2.625   2.205  15.337 -1.4720 -2.3487 -0.5702
 8065SOL    HW235832   2.700   2.144  15.456 -1.0256  0.6266  0.2716
 8066SOL     OW35833   2.270   4.252  10.466  0.4257  0.5624 -0.5215
 8066SOL    HW135834   2.301   4.342  10.457  0.6469  0.2911 -2.5763
 8066SOL    HW235835   2.210   4.245  10.392 -0.9579 -0.5305  0.7095
 8067SOL     OW35836   2.355   0.306   8.500 -0.2415 -0.0298 -0.3858
 8067SOL    HW135837   2.284   0.242   8.504 -2.0250  2.0081  0.8845
 8067SOL    HW235838   2.351   0.346   8.587  0.4758 -1.1255  0.1490
 8068SOL     OW35839   1.964   3.730   4.844 -0.2906  0.2384 -0.2507
 8068SOL    HW135840   1.941   3.823   4.843 -0.0210  0.3400  2.7772
 8068SOL    HW235841   1.917   3.699   4.766  2.7789 -2.8351 -0.8591
 8069SOL     OW35842   1.338   0.430   6.887  0.1684 -0.3313  0.2139
 8069SOL    HW135843   1.330   0.507   6.943  0.8227 -0.6993  0.8069
 8069SOL    HW235844   1.408   0.390   6.936  0.4763 -1.4684 -1.1462
 8070SOL     OW35845   0.782   4.679   6.541  0.2703 -0.3203  0.0195
 8070SOL    HW135846   0.842   0.014   6.518 -0.8742 -0.0469 -2.2536
 8070SOL    HW235847   0.791   4.620   6.466 -2.6777 -1.2466  0.3743
 8071SOL     OW35848   1.967   2.832   7.938  0.0446 -0.0030 -0.4225
 8071SOL    HW135849   1.872   2.826   7.945  0.1076  0.0447  0.5067
 8071SOL    HW235850   1.979   2.926   7.943 -3.2234  0.3730  0.1589
 8072SOL     OW35851   4.162   2.084   8.134  0.3822  0.1099 -0.1996
 8072SOL    HW135852   4.095   2.033   8.179  1.1295 -0.1576  0.6155
 8072SOL    HW235853   4.125   2.113   8.051  0.2105  1.8571  0.4921
 8073SOL     OW35854   3.369   3.693   6.477  0.0327 -0.0548 -0.1167
 8073SOL    HW135855   3.369   3.677   6.383 -0.7866  0.0995 -0.1448
 8073SOL    HW235856   3.366   3.789   6.470  1.4903 -0.0024 -0.1287
 8074SOL     OW35857   3.688   0.119   3.161  1.2134  0.3051 -0.3302
 8074SOL    HW135858   3.607   0.120   3.110 -0.0340  0.7915  1.6681
 8074SOL    HW235859   3.746   0.121   3.086 -0.3752  1.2284 -1.5436
 8075SOL     OW35860   3.938   3.705  16.982  0.1003  0.3279 -0.2517
 8075SOL    HW135861   3.970   3.642  17.047 -0.1416 -0.1321 -0.5781
 8075SOL    HW235862   4.011   3.761  16.952  0.2385 -0.1908 -0.8715
 8076SOL     OW35863   1.376   1.437   2.603 -0.0736  0.1605 -0.0693
 8076SOL    HW135864   1.369   1.376   2.530  1.7716  1.8391 -1.6311
 8076SOL    HW235865   1.436   1.498   2.561 -0.2270  0.6550  0.4167
 8077SOL     OW35866   2.174   2.926   7.459 -0.2071 -0.0678 -0.3872
 8077SOL    HW135867   2.081   2.907   7.468 -0.6122  1.5821 -0.9812
 8077SOL    HW235868   2.202   2.915   7.550 -0.7501 -1.9659 -0.4688
 8078SOL     OW35869   4.277   0.985   7.697 -0.3119  0.0636  0.2572
 8078SOL    HW135870   4.182   0.997   7.695 -0.3263 -0.1985 -0.7923
 8078SOL    HW235871   4.297   1.022   7.783  0.4043 -0.4236  0.2939
 8079SOL     OW35872   3.147   1.047  15.509 -0.0392  0.0895  0.5288
 8079SOL    HW135873   3.204   1.042  15.586  1.0536 -1.3385 -0.3735
 8079SOL    HW235874   3.083   0.979  15.529  0.2003  0.1504  1.4629
 8080SOL     OW35875   0.103   1.558   3.913  0.7022 -0.4180  0.1098
 8080SOL    HW135876   0.137   1.470   3.930 -0.1627 -0.5314  1.2528
 8080SOL    HW235877   0.140   1.582   3.828 -1.0313  1.1521 -0.1993
 8081SOL     OW35878   3.180   2.379  10.815  0.1137  0.0073 -0.2798
 8081SOL    HW135879   3.267   2.402  10.782 -0.4989  0.6826 -1.4248
 8081SOL    HW235880   3.145   2.366  10.726  0.4050 -0.5918 -0.3131
 8082SOL     OW35881   0.097   0.337   3.115 -0.2258 -0.8588  0.2853
 8082SOL    HW135882   0.093   0.283   3.036  0.3691  0.2591 -0.5173
 8082SOL    HW235883   0.117   0.419   3.068  0.0664 -0.6136  0.8357
 8083SOL     OW35884   0.290   0.923   9.881  0.3470 -0.4160 -0.6145
 8083SOL    HW135885   0.380   0.934   9.852  0.0538 -2.1546 -2.1761
 8083SOL    HW235886   0.297   0.838   9.925  0.6227 -1.0697 -1.9369
 8084SOL     OW35887   2.284   4.664  16.610 -0.3304  0.0717  0.2018
 8084SOL    HW135888   2.318   0.002  16.560  2.2421 -0.4122  1.2055
 8084SOL    HW235889   2.270   4.609  16.534 -0.3982  0.1416  0.1638
 8085SOL     OW35890   0.618   1.990   8.276  0.1381  0.1659 -0.4432
 8085SOL    HW135891   0.666   2.044   8.213 -1.0943 -0.2659 -1.7644
 8085SOL    HW235892   0.603   1.911   8.223 -1.5037  1.1128 -1.3759
 8086SOL     OW35893   1.548   1.276   4.927 -0.2004  0.4375  0.2938
 8086SOL    HW135894   1.454   1.291   4.931 -0.2539  0.5571 -1.2143
 8086SOL    HW235895   1.587   1.349   4.974 -1.6836  0.3216  1.6834
 8087SOL     OW35896   3.418   1.948   2.014  0.5867  0.2335 -0.0533
 8087SOL    HW135897   3.358   1.949   2.089 -0.7689 -2.4259 -1.1124
 8087SOL    HW235898   3.472   2.026   2.025  0.2160  0.2479  1.7100
 8088SOL     OW35899   3.167   0.143   1.313  0.8659 -0.1012 -0.0420
 8088SOL    HW135900   3.125   0.088   1.379  0.1522  0.7327  0.1913
 8088SOL    HW235901   3.221   0.198   1.369  0.1822  1.0251 -0.5089
 8089SOL     OW35902   1.863   0.812   8.263 -0.5173  0.3827  0.1028
 8089SOL    HW135903   1.825   0.899   8.272  2.9908  1.9940 -0.9263
 8089SOL    HW235904   1.794   0.746   8.271  0.9077 -1.0844  0.1891
 8090SOL     OW35905   3.126   3.264   5.530 -0.3637  0.0291  0.4636
 8090SOL    HW135906   3.172   3.341   5.496 -1.9253  1.1174  0.8259
 8090SOL    HW235907   3.195   3.204   5.560  0.1605  1.4181  2.0333
 8091SOL     OW35908   0.252   4.288  13.137 -0.2210  0.5826 -0.0302
 8091SOL    HW135909   0.244   4.194  13.152  0.2461  0.9879  2.8204
 8091SOL    HW235910   0.309   4.304  13.062 -0.0575 -0.8042 -0.1976
 8092SOL     OW35911   2.467   0.983   2.478  0.3996  0.0789 -0.1467
 8092SOL    HW135912   2.523   0.918   2.520  0.2710  0.0005 -0.0989
 8092SOL    HW235913   2.405   0.928   2.430 -0.8002  0.3871  1.0534
 8093SOL     OW35914   2.975   2.321   4.061  0.2460  0.1283  0.0412
 8093SOL    HW135915   2.893   2.282   4.031  0.0575  0.3446  0.2749
 8093SOL    HW235916   3.012   2.368   3.986  0.2720 -2.3316 -1.4996
 8094SOL     OW35917   3.478   2.446   5.348  0.1968  0.5113 -0.2214
 8094SOL    HW135918   3.482   2.416   5.439 -1.8733 -1.0823 -0.6503
 8094SOL    HW235919   3.556   2.416   5.301 -0.7857  0.1990 -1.6609
 8095SOL     OW35920   0.077   3.169  12.562  0.1812 -0.2630 -0.3781
 8095SOL    HW135921   0.102   3.091  12.511  0.6246 -0.1876 -0.2728
 8095SOL    HW235922   0.101   3.239  12.502  0.9045 -0.6319 -0.5242
 8096SOL     OW35923   0.010   3.322   2.041  0.1058 -0.0967 -0.2558
 8096SOL    HW135924   0.053   3.299   1.959 -2.2487  0.0801 -1.5222
 8096SOL    HW235925   4.660   3.348   2.010 -0.0422 -2.1042 -1.5102
 8097SOL     OW35926   2.873   3.346   4.151 -0.2221 -0.0316  0.5267
 8097SOL    HW135927   2.816   3.380   4.221  0.6425  0.9330  0.7572
 8097SOL    HW235928   2.851   3.253   4.160 -0.9122  0.0165 -0.7211
 8098SOL     OW35929   2.906   4.010   6.249 -0.2878 -0.5063 -0.0624
 8098SOL    HW135930   2.890   4.101   6.221  0.7251 -0.1505  0.5062
 8098SOL    HW235931   2.919   4.026   6.343 -0.4161 -0.8494  0.0133
 8099SOL     OW35932   1.033   1.678   6.439 -0.1750  0.3142  0.0791
 8099SOL    HW135933   1.028   1.700   6.532  1.6883 -1.3852  0.5813
 8099SOL    HW235934   0.951   1.717   6.408 -0.3333  1.0879  1.4715
 8100SOL     OW35935   2.436   1.695  16.144  0.4961  0.1685 -1.0230
 8100SOL    HW135936   2.343   1.674  16.156  1.3174 -1.9432  1.6115
 8100SOL    HW235937   2.427   1.714  16.050 -2.6204 -1.2046 -1.0007
 8101SOL     OW35938   0.236   0.836   4.070  0.1415  0.2134 -0.1027
 8101SOL    HW135939   0.261   0.854   4.160 -3.9947  0.9508  0.8950
 8101SOL    HW235940   0.198   0.749   4.084  0.3398  0.2704  0.7929
 8102SOL     OW35941   2.968   3.607   7.989  0.4636  0.1316  0.0547
 8102SOL    HW135942   3.003   3.540   8.048 -1.9227 -0.6367  0.6256
 8102SOL    HW235943   3.018   3.607   7.908 -1.9355 -1.1322 -1.4315
 8103SOL     OW35944   1.434   3.983   9.609  0.4537  0.0553  0.1937
 8103SOL    HW135945   1.520   3.946   9.589  0.3997  0.0294  0.0114
 8103SOL    HW235946   1.423   3.947   9.696 -1.4175  2.0872  0.7976
 8104SOL     OW35947   4.665   0.172   8.370  0.0082  0.4212 -0.0244
 8104SOL    HW135948   4.586   0.132   8.406  0.5514 -0.9939 -0.4072
 8104SOL    HW235949   4.671   0.251   8.422 -2.0241  0.1262  0.6625
 8105SOL     OW35950   1.080   0.827   4.701 -0.2843 -0.5169  0.1332
 8105SOL    HW135951   1.071   0.919   4.727  0.3979 -0.6249  0.7711
 8105SOL    HW235952   0.999   0.813   4.653  0.0079 -1.5538 -0.0552
 8106SOL     OW35953   1.244   2.208   8.184  0.3648  0.2290  0.0908
 8106SOL    HW135954   1.249   2.300   8.158 -0.2294  0.0726 -0.5518
 8106SOL    HW235955   1.152   2.204   8.210  0.5919  2.0421  1.1795
 8107SOL     OW35956   1.683   3.070   7.526  0.4311  0.1720  0.0052
 8107SOL    HW135957   1.756   3.126   7.498  0.3759  0.2024 -0.0774
 8107SOL    HW235958   1.635   3.139   7.571  0.4435 -0.3272  0.7910
 8108SOL     OW35959   2.517   4.663  11.360  0.5460 -0.0320 -0.1222
 8108SOL    HW135960   2.540   0.012  11.397  4.3654  0.2375 -3.0638
 8108SOL    HW235961   2.474   4.616  11.431  1.0615 -0.7069 -0.2594
 8109SOL     OW35962   3.376   3.606  14.947 -0.0534 -0.1534  0.4410
 8109SOL    HW135963   3.301   3.657  14.918  0.7027  1.2478  0.9634
 8109SOL    HW235964   3.336   3.552  15.015 -1.3442 -1.0507 -1.0086
 8110SOL     OW35965   4.293   4.326   2.077 -0.4870  0.5454  0.4302
 8110SOL    HW135966   4.290   4.285   2.164 -1.2797  0.3882  0.3290
 8110SOL    HW235967   4.271   4.252   2.020  2.9060 -0.3158  0.2378
 8111SOL     OW35968   1.090   4.103   6.416  0.4247 -0.2114 -0.0554
 8111SOL    HW135969   1.182   4.085   6.399  0.3176 -2.1877  1.4708
 8111SOL    HW235970   1.075   4.189   6.377  0.4560 -0.6534 -1.0489
 8112SOL     OW35971   1.946   3.465   5.194 -0.2905 -0.0817 -0.1317
 8112SOL    HW135972   2.031   3.503   5.215 -0.8195  0.9381  0.1290
 8112SOL    HW235973   1.892   3.508   5.260  0.1576 -1.9234  1.4510
 8113SOL     OW35974   2.793   0.468   8.513 -0.2504 -0.5557  0.1042
 8113SOL    HW135975   2.737   0.396   8.483  1.6312 -2.0835  0.2491
 8113SOL    HW235976   2.762   0.495   8.599 -0.0509  0.8553 -0.2642
 8114SOL     OW35977   2.560   3.483   8.308 -0.1424 -0.1451  0.0889
 8114SOL    HW135978   2.576   3.559   8.253 -1.8128  2.0055  2.5814
 8114SOL    HW235979   2.510   3.520   8.381 -1.6051 -1.6321 -0.1473
 8115SOL     OW35980   2.831   3.567   1.932 -0.1477 -0.2339 -0.4877
 8115SOL    HW135981   2.848   3.559   1.838 -0.9466 -0.2083 -0.6370
 8115SOL    HW235982   2.755   3.626   1.934  1.1244  1.3284  1.2401
 8116SOL     OW35983   3.175   4.167   3.749 -0.5956  0.2399  0.0744
 8116SOL    HW135984   3.225   4.204   3.821  1.2924 -1.4157 -0.3826
 8116SOL    HW235985   3.244   4.164   3.682  1.1034 -1.4924  1.9230
 8117SOL     OW35986   4.382   4.732   6.093  0.6862 -0.0075  0.3138
 8117SOL    HW135987   4.424   0.081   6.098 -1.9602  1.4176 -1.9332
 8117SOL    HW235988   4.392   4.710   6.001  1.2920 -2.5647  0.9741
 8118SOL     OW35989   4.217   2.503  13.283 -0.5076  0.6354 -0.2640
 8118SOL    HW135990   4.284   2.520  13.349 -0.0380 -1.0903 -0.2840
 8118SOL    HW235991   4.241   2.415  13.253  0.0589  0.8466 -0.4397
 8119SOL     OW35992   1.794   2.482  13.478 -0.2163  0.5329  0.1861
 8119SOL    HW135993   1.807   2.574  13.504 -0.3289  0.7891 -0.6606
 8119SOL    HW235994   1.836   2.483  13.392 -0.7212  0.2414 -0.0682
 8120SOL     OW35995   3.443   3.289  11.555  0.3888 -0.2622  0.3494
 8120SOL    HW135996   3.467   3.197  11.543  1.9386 -0.1313  2.4200
 8120SOL    HW235997   3.513   3.339  11.514  1.1674 -1.1272  0.6341
 8121SOL     OW35998   0.835   4.404  17.680  0.0054  0.6876 -0.3245
 8121SOL    HW135999   0.896   4.363  17.741 -0.1821  0.1913 -0.4755
 8121SOL    HW236000   0.832   4.354  17.599  1.2574 -3.3277  2.1191
 8122SOL     OW36001   0.423   3.232   6.823 -0.1970 -0.1494  0.4152
 8122SOL    HW136002   0.436   3.146   6.782  3.1922  0.7624 -0.4186
 8122SOL    HW236003   0.333   3.226   6.854  0.0057  0.7839  1.1694
 8123SOL     OW36004   1.583   3.230   4.162  0.4193 -0.1917  0.5599
 8123SOL    HW136005   1.591   3.212   4.068  0.1624 -0.4004  0.5754
 8123SOL    HW236006   1.676   3.231   4.185  0.8239 -1.4835 -1.0036
 8124SOL     OW36007   0.442   0.630   3.616 -0.0087  0.1642 -0.1319
 8124SOL    HW136008   0.498   0.584   3.555  1.1693  1.8959 -0.3661
 8124SOL    HW236009   0.394   0.554   3.649 -0.0807  1.0800  1.9005
 8125SOL     OW36010   0.929   0.698   3.612 -0.6198 -0.0885 -0.2448
 8125SOL    HW136011   0.985   0.760   3.565 -1.4327 -0.6154 -1.9358
 8125SOL    HW236012   0.931   0.723   3.704 -1.1657 -0.6125 -0.0897
 8126SOL     OW36013   4.275   0.198  11.003 -0.3453 -0.5673  0.2629
 8126SOL    HW136014   4.291   0.227  10.913  1.8666 -1.7671  0.2559
 8126SOL    HW236015   4.250   0.278  11.049 -0.4620 -0.4655  0.0220
 8127SOL     OW36016   0.236   1.377   8.191 -0.3357 -0.6958  0.4675
 8127SOL    HW136017   0.302   1.334   8.136 -1.2053  0.7676 -1.7442
 8127SOL    HW236018   0.202   1.442   8.129 -1.8917 -1.2114  0.7889
 8128SOL     OW36019   4.022   0.983   7.299  0.0432  0.3274  0.0942
 8128SOL    HW136020   4.068   1.012   7.220 -1.5873 -1.3896 -1.4682
 8128SOL    HW236021   3.978   1.062   7.330  2.4541  1.5216  0.4816
 8129SOL     OW36022   1.637   2.471   0.549 -0.9144 -0.4823 -0.0269
 8129SOL    HW136023   1.661   2.561   0.529 -1.5530 -0.2562  0.2213
 8129SOL    HW236024   1.631   2.425   0.466  2.8065  1.4091 -1.3241
 8130SOL     OW36025   3.916   1.266   8.166  0.0197  0.0002 -0.8484
 8130SOL    HW136026   3.981   1.297   8.230  0.0709 -1.0333 -0.4155
 8130SOL    HW236027   3.837   1.247   8.215  1.7087 -1.9439  1.1318
 8131SOL     OW36028   2.184   3.678   2.080  0.7840 -0.3718  0.4254
 8131SOL    HW136029   2.172   3.654   2.172 -0.3876  0.1351  0.4051
 8131SOL    HW236030   2.257   3.621   2.055  1.7181  0.5272  1.1031
 8132SOL     OW36031   4.603   2.028   1.928  0.3196  0.5565 -0.2387
 8132SOL    HW136032   4.662   2.092   1.888 -0.4175  1.2559 -0.2050
 8132SOL    HW236033   4.546   2.091   1.972  0.5428  0.0716  0.7568
 8133SOL     OW36034   2.111   1.726   3.535 -0.0462 -0.0540  0.0865
 8133SOL    HW136035   2.105   1.756   3.444  1.2362 -1.3084 -0.3972
 8133SOL    HW236036   2.163   1.647   3.527 -1.1337 -0.7675  0.0517
 8134SOL     OW36037   0.294   0.128  11.957  0.0918  0.1815  0.4987
 8134SOL    HW136038   0.374   0.145  11.906 -0.7667  0.4505 -0.7688
 8134SOL    HW236039   0.336   0.076  12.025  2.2341  0.5772 -0.5291
 8135SOL     OW36040   0.428   4.570   7.830 -0.2243  0.2471 -0.1556
 8135SOL    HW136041   0.481   4.638   7.872  0.0557  0.9181 -1.6031
 8135SOL    HW236042   0.367   4.630   7.786  3.3051  1.7956 -2.9789
 8136SOL     OW36043   1.158   4.639   4.809 -0.3131  0.0418 -0.6942
 8136SOL    HW136044   1.163   4.721   4.760 -0.6193 -1.8624 -3.9670
 8136SOL    HW236045   1.080   4.608   4.762 -1.1200  0.9247  0.0833
 8137SOL     OW36046   2.572   2.869   0.699  0.3008  0.3074 -0.2017
 8137SOL    HW136047   2.599   2.914   0.619 -2.7516 -0.6532 -1.7514
 8137SOL    HW236048   2.586   2.780   0.666  0.8680  0.0375  0.7459
 8138SOL     OW36049   1.733   0.045  16.238 -0.2207 -0.2681 -0.4956
 8138SOL    HW136050   1.814   4.731  16.226 -0.3000 -0.2259 -1.1508
 8138SOL    HW236051   1.750   0.077  16.327 -0.8978  2.2728 -1.2896
 8139SOL     OW36052   2.841   2.614   7.788 -0.4146  0.1116 -0.2794
 8139SOL    HW136053   2.920   2.642   7.835 -0.4772  0.5647 -0.4459
 8139SOL    HW236054   2.864   2.635   7.698 -0.7082  0.2507 -0.3185
 8140SOL     OW36055   0.058   1.028  10.268  0.2059 -0.0367  0.0398
 8140SOL    HW136056   0.104   0.957  10.313 -4.3531 -2.6096  0.6633
 8140SOL    HW236057   0.042   1.083  10.346 -2.3269  1.3202 -1.4213
 8141SOL     OW36058   3.275   2.696   7.983  0.4319 -0.0841  0.3761
 8141SOL    HW136059   3.297   2.633   8.052  1.1025 -1.0409 -0.7119
 8141SOL    HW236060   3.285   2.639   7.907  2.4245 -0.5542  0.9926
 8142SOL     OW36061   2.977   1.309  16.613  0.6923  0.2151 -0.6751
 8142SOL    HW136062   3.061   1.330  16.656 -0.0860 -0.7705  1.3328
 8142SOL    HW236063   2.914   1.370  16.651  1.2807  0.9940 -0.9497
 8143SOL     OW36064   3.612   2.212   5.686  0.3188 -0.2082 -0.1569
 8143SOL    HW136065   3.675   2.173   5.746  0.2400 -2.1544 -1.3396
 8143SOL    HW236066   3.641   2.302   5.670  1.7368 -0.7173 -0.3768
 8144SOL     OW36067   1.779   0.028   3.692  0.2354  0.1707 -0.3196
 8144SOL    HW136068   1.753   4.713   3.768  0.9485  0.6316  0.2380
 8144SOL    HW236069   1.867   4.726   3.697  0.3211  0.1129 -2.3596
 8145SOL     OW36070   4.281   1.875   2.725 -0.1039  0.4168 -0.0995
 8145SOL    HW136071   4.230   1.928   2.664  0.0633  0.3455 -0.3001
 8145SOL    HW236072   4.273   1.787   2.690 -0.0149  0.3542  0.0347
 8146SOL     OW36073   2.611   2.729   4.788  0.1339  0.2552  0.0671
 8146SOL    HW136074   2.529   2.724   4.739  0.0224  2.2912  0.0257
 8146SOL    HW236075   2.611   2.645   4.834 -0.0206  1.1353  1.6791
 8147SOL     OW36076   0.884   1.980   3.389  0.3949  0.3884  0.2934
 8147SOL    HW136077   0.818   2.021   3.334  1.2918  0.9374 -0.3770
 8147SOL    HW236078   0.830   1.959   3.465 -0.9089 -1.5822 -1.1958
 8148SOL     OW36079   0.980   3.916  14.228  0.7507 -0.0704  0.0870
 8148SOL    HW136080   1.064   3.870  14.220  0.0476 -1.3195 -0.1937
 8148SOL    HW236081   1.012   4.006  14.230  0.8173 -0.0992  0.3316
 8149SOL     OW36082   4.383   1.970   2.982  0.0228 -0.3033  0.2404
 8149SOL    HW136083   4.312   1.958   3.046 -0.5880 -2.3868 -0.8114
 8149SOL    HW236084   4.345   1.938   2.900 -0.0565 -2.3616  1.0633
 8150SOL     OW36085   3.895   3.915   2.595 -0.1266 -0.5051 -0.2111
 8150SOL    HW136086   3.951   3.928   2.518 -1.2474  2.3466 -0.5536
 8150SOL    HW236087   3.868   3.824   2.580  0.1426 -0.2668 -2.1774
 8151SOL     OW36088   4.182   0.919   4.514  0.0461  0.6575 -0.1960
 8151SOL    HW136089   4.239   0.960   4.449 -0.1721 -0.7968 -1.3024
 8151SOL    HW236090   4.163   0.996   4.568 -1.9735  2.0634 -2.9009
 8152SOL     OW36091   3.641   2.565  12.675  0.5276 -0.1023 -0.0632
 8152SOL    HW136092   3.683   2.523  12.751  0.2021 -0.6680 -0.1970
 8152SOL    HW236093   3.674   2.508  12.605 -1.6678 -2.2007  0.6208
 8153SOL     OW36094   0.144   2.037  14.387 -0.0193  0.4332 -0.0724
 8153SOL    HW136095   0.107   2.020  14.300  1.6750  0.3833 -0.7687
 8153SOL    HW236096   0.235   2.011  14.375 -0.3969 -0.9618  0.1784
 8154SOL     OW36097   0.384   1.664   3.076  0.1853  0.2907  0.6520
 8154SOL    HW136098   0.413   1.713   2.999  2.4315 -0.7173  0.8580
 8154SOL    HW236099   0.469   1.635   3.107  0.1474 -1.0088 -0.4286
 8155SOL     OW36100   2.537   3.797   1.456 -0.0095 -0.1047  0.6417
 8155SOL    HW136101   2.484   3.808   1.377 -0.5340  2.1019  1.2989
 8155SOL    HW236102   2.470   3.823   1.519  3.1582 -1.7202  4.6151
 8156SOL     OW36103   3.359   4.114   1.049  0.2594 -0.9272 -0.3145
 8156SOL    HW136104   3.403   4.172   0.988  1.4285 -0.3870  1.0369
 8156SOL    HW236105   3.399   4.032   1.020 -1.2410 -0.9955 -2.1917
 8157SOL     OW36106   0.886   2.819   0.374  0.2732  0.2712 -0.6325
 8157SOL    HW136107   0.831   2.834   0.451  0.2938 -0.4246 -0.4843
 8157SOL    HW236108   0.956   2.883   0.384 -1.4219  1.7356  1.9956
 8158SOL     OW36109   2.016   3.747   2.505 -0.5144  0.4127  0.2352
 8158SOL    HW136110   1.976   3.834   2.515 -0.8169  0.2297  0.5952
 8158SOL    HW236111   1.964   3.721   2.429 -0.1203  0.7444 -0.1502
 8159SOL     OW36112   2.659   3.286  14.580 -0.4694  0.2851 -0.0863
 8159SOL    HW136113   2.610   3.279  14.662  1.6117 -0.7716  1.0458
 8159SOL    HW236114   2.642   3.196  14.555 -0.2805  0.3795 -0.5485
 8160SOL     OW36115   1.928   0.505  17.490 -0.2147  0.0264 -0.3324
 8160SOL    HW136116   1.990   0.437  17.464  0.9695  1.4849 -1.2858
 8160SOL    HW236117   1.850   0.449  17.487  0.6779 -1.2754  0.7713
 8161SOL     OW36118   1.867   3.766   7.078 -0.3202  0.3116  0.7628
 8161SOL    HW136119   1.782   3.810   7.088 -1.0331 -0.7618 -0.6088
 8161SOL    HW236120   1.929   3.835   7.101 -1.4846  1.6036  0.0374
 8162SOL     OW36121   1.695   4.607  13.486 -0.5360  0.1064 -0.3612
 8162SOL    HW136122   1.746   4.549  13.430 -0.2305 -2.6506  2.8182
 8162SOL    HW236123   1.689   4.677  13.421 -3.1300  0.3322  0.1071
 8163SOL     OW36124   1.573   2.092   3.203  0.1195 -0.1318  0.0036
 8163SOL    HW136125   1.634   2.053   3.266 -2.5397 -2.3393  1.2478
 8163SOL    HW236126   1.629   2.124   3.133 -3.0879  1.4325 -1.8682
 8164SOL     OW36127   3.550   3.385   2.558  0.3016 -0.0591  0.1931
 8164SOL    HW136128   3.608   3.447   2.514 -0.3754  0.3981 -0.0545
 8164SOL    HW236129   3.591   3.376   2.644 -0.0824  1.3246  0.5242
 8165SOL     OW36130   1.968   4.508   2.117 -0.1045  0.1325 -0.2094
 8165SOL    HW136131   1.980   4.599   2.147  1.7480  0.0755 -0.7622
 8165SOL    HW236132   1.909   4.477   2.186 -0.5474 -1.9802 -1.5592
 8166SOL     OW36133   3.517   0.949  16.477 -0.4337  0.0735 -0.1113
 8166SOL    HW136134   3.492   0.861  16.505  0.3813 -0.3890 -0.8024
 8166SOL    HW236135   3.612   0.946  16.487 -0.6556 -2.8253  1.1950
 8167SOL     OW36136   1.347   0.759   4.668  0.1641 -0.6242 -0.1666
 8167SOL    HW136137   1.332   0.834   4.725 -0.2271 -1.0809  0.3318
 8167SOL    HW236138   1.257   0.759   4.635 -0.0810 -0.2409  0.5037
 8168SOL     OW36139   0.324   4.016   2.044 -0.2761 -0.3409 -0.4477
 8168SOL    HW136140   0.296   3.925   2.056  2.7933 -0.8948  2.5546
 8168SOL    HW236141   0.244   4.064   2.024  0.4757  1.6530  1.3429
 8169SOL     OW36142   2.125   1.802   4.614 -0.4511  0.0826 -0.6986
 8169SOL    HW136143   2.048   1.816   4.558 -0.2094  0.2539 -0.9876
 8169SOL    HW236144   2.142   1.713   4.583  0.4981  0.2158 -0.5398
 8170SOL     OW36145   4.063   0.687   4.564  0.8658 -0.4124  0.3243
 8170SOL    HW136146   4.144   0.658   4.524  1.2954  2.6001 -0.9583
 8170SOL    HW236147   4.112   0.767   4.584  1.4272 -0.8080  0.5404
 8171SOL     OW36148   0.710   1.310   5.019  0.2307 -0.4441 -0.0391
 8171SOL    HW136149   0.656   1.231   5.024 -1.0850  0.6289  2.6739
 8171SOL    HW236150   0.638   1.366   4.989 -2.0215 -2.8796  0.8861
 8172SOL     OW36151   3.514   3.449   6.856 -0.4124 -0.2574 -0.2712
 8172SOL    HW136152   3.450   3.389   6.895  1.3177 -0.4957  2.1797
 8172SOL    HW236153   3.480   3.446   6.766  0.0982  2.1285 -0.5505
 8173SOL     OW36154   2.671   0.301   3.801  0.4485 -0.5691 -0.9380
 8173SOL    HW136155   2.609   0.338   3.738  1.0091  0.1011 -1.0884
 8173SOL    HW236156   2.675   0.207   3.781 -1.7478 -0.5786 -1.3786
 8174SOL     OW36157   2.875   2.377   6.793  0.3286  0.4524  0.2940
 8174SOL    HW136158   2.875   2.394   6.699 -0.5797 -1.2971 -0.0129
 8174SOL    HW236159   2.799   2.323   6.815  1.7647 -1.1570  1.2966
 8175SOL     OW36160   2.911   2.342   5.198  0.5226 -0.2750 -0.4229
 8175SOL    HW136161   2.916   2.264   5.254 -1.2377 -1.3186 -1.7323
 8175SOL    HW236162   2.823   2.325   5.165  1.4876 -1.3380 -2.4500
 8176SOL     OW36163   2.134   1.154   2.461  0.0974  0.1628 -0.3770
 8176SOL    HW136164   2.038   1.152   2.461  0.0542  1.9677  0.9581
 8176SOL    HW236165   2.148   1.195   2.547 -1.8445  0.9756 -0.4391
 8177SOL     OW36166   4.239   1.275   7.470  0.4200  0.0322 -0.3193
 8177SOL    HW136167   4.281   1.354   7.503 -1.0744  0.7498 -0.1019
 8177SOL    HW236168   4.289   1.208   7.515  0.5417  0.9203  0.8584
 8178SOL     OW36169   3.963   3.192   8.891  0.2988 -0.0049  0.3928
 8178SOL    HW136170   3.915   3.111   8.909 -0.1450 -0.1327 -1.3919
 8178SOL    HW236171   3.988   3.165   8.803  1.2739  0.5673  0.4970
 8179SOL     OW36172   4.576   4.592   8.640  0.7886 -0.0099  0.6454
 8179SOL    HW136173   4.642   4.623   8.703  2.3676 -0.6739 -0.6939
 8179SOL    HW236174   4.564   4.662   8.577 -0.1719 -0.2031  0.6148
 8180SOL     OW36175   0.553   1.539   7.939  1.1391  0.0356 -0.3962
 8180SOL    HW136176   0.489   1.470   7.919  1.9886 -0.4676 -1.3771
 8180SOL    HW236177   0.617   1.504   7.877 -1.4520 -0.9278 -2.5491
 8181SOL     OW36178   0.500   0.752   7.537  0.1615  1.2368  0.3986
 8181SOL    HW136179   0.523   0.724   7.626 -2.9317  0.4116  0.9126
 8181SOL    HW236180   0.412   0.717   7.523  0.0430  1.1586  1.3427
 8182SOL     OW36181   0.276   0.551   2.432  1.1183  0.1656 -0.0921
 8182SOL    HW136182   0.344   0.594   2.381  0.8074 -0.7488 -1.2848
 8182SOL    HW236183   0.245   0.622   2.488  0.7194 -1.3942  1.6612
 8183SOL     OW36184   0.248   4.580   6.714 -0.3971 -0.3903 -0.0687
 8183SOL    HW136185   0.277   4.635   6.787 -2.6030  0.2859  0.2924
 8183SOL    HW236186   0.330   4.534   6.696 -1.0106 -1.2747 -0.6286
 8184SOL     OW36187   0.333   1.606  10.088  0.0861 -0.0026  0.3480
 8184SOL    HW136188   0.342   1.671  10.018  1.9138  1.0537  1.5808
 8184SOL    HW236189   0.303   1.529  10.040  0.6827 -2.4531  3.8836
 8185SOL     OW36190   0.431   0.276   1.576  0.5977  0.0784 -0.1306
 8185SOL    HW136191   0.479   0.223   1.513 -0.3040 -1.4580  0.4838
 8185SOL    HW236192   0.400   0.217   1.645 -2.5852 -0.2451 -1.8327
 8186SOL     OW36193   0.924   1.337   4.463 -0.7722 -0.2488  0.1518
 8186SOL    HW136194   0.848   1.279   4.456  1.5780 -3.4044  1.1807
 8186SOL    HW236195   0.895   1.393   4.535 -1.2800 -0.2490 -0.0496
 8187SOL     OW36196   3.128   1.368   6.615  0.1798  0.2145 -0.0098
 8187SOL    HW136197   3.193   1.326   6.672 -0.0045 -0.5451 -0.3589
 8187SOL    HW236198   3.123   1.452   6.659 -0.0287 -0.0671  0.5056
 8188SOL     OW36199   4.352   4.288   3.146 -0.8955  0.1302  0.3487
 8188SOL    HW136200   4.309   4.344   3.211 -3.4317 -0.7773 -0.5665
 8188SOL    HW236201   4.354   4.338   3.065  1.1262  0.5417  0.6541
 8189SOL     OW36202   3.205   3.287   5.904 -0.3150 -0.0236 -0.0264
 8189SOL    HW136203   3.115   3.255   5.912 -0.2155 -0.8082 -1.9727
 8189SOL    HW236204   3.243   3.224   5.843 -0.2153 -0.0483  0.0613
 8190SOL     OW36205   2.771   2.204   2.865  0.3953 -0.1059  0.4461
 8190SOL    HW136206   2.752   2.203   2.771 -1.7638 -1.2705  0.8756
 8190SOL    HW236207   2.770   2.109   2.876 -2.1031  0.0106  1.2021
 8191SOL     OW36208   3.730   1.546   8.778 -0.3925  0.2422 -0.2667
 8191SOL    HW136209   3.783   1.472   8.749 -0.4459  0.0266  0.1894
 8191SOL    HW236210   3.665   1.550   8.708 -0.0387  0.6220 -0.5755
 8192SOL     OW36211   1.004   4.164  12.394  0.4548  0.4028 -1.2435
 8192SOL    HW136212   1.049   4.174  12.478  0.3404  0.8684 -1.2380
 8192SOL    HW236213   1.069   4.118  12.340  0.0354 -1.6265 -0.0052
 8193SOL     OW36214   3.942   2.219  15.733 -0.0447  0.0832 -0.2637
 8193SOL    HW136215   3.935   2.283  15.662 -1.4488  0.2651  0.0363
 8193SOL    HW236216   3.886   2.149  15.699  0.7513 -0.8963  0.4205
 8194SOL     OW36217   3.404   0.802   6.772  0.0172  0.3637  0.2769
 8194SOL    HW136218   3.402   0.868   6.703  1.6783 -1.2385 -1.3152
 8194SOL    HW236219   3.497   0.781   6.779 -0.2451 -1.0512 -0.4596
 8195SOL     OW36220   1.965   2.998  15.591  0.6789  0.2433 -0.1397
 8195SOL    HW136221   1.892   2.935  15.595 -0.2907  1.3348 -0.5306
 8195SOL    HW236222   1.981   3.001  15.685  0.1254  0.9554 -0.0715
 8196SOL     OW36223   4.456   2.598   8.335 -0.0123 -0.1369  0.1042
 8196SOL    HW136224   4.444   2.612   8.242  1.1066 -0.1251 -0.0382
 8196SOL    HW236225   4.549   2.583   8.348  0.3197  1.0753 -0.9891
 8197SOL     OW36226   0.372   0.253   7.598 -0.0224  0.2724  0.0275
 8197SOL    HW136227   0.397   0.177   7.545  2.2399  0.9432  0.1659
 8197SOL    HW236228   0.419   0.333   7.577  0.4871  0.3171  1.3409
 8198SOL     OW36229   0.302   4.014   2.642 -0.9073  0.2500 -0.0962
 8198SOL    HW136230   0.390   4.046   2.663 -1.1485  0.4562  0.5779
 8198SOL    HW236231   0.258   4.091   2.608 -1.5121  0.2476  0.7104
 8199SOL     OW36232   2.072   0.430   2.820  0.1651 -0.1787 -0.0897
 8199SOL    HW136233   2.013   0.453   2.748 -0.3750  0.5730  0.5912
 8199SOL    HW236234   2.035   0.478   2.895  1.9669  1.2603 -0.1328
 8200SOL     OW36235   0.295   2.024   7.122 -0.0864 -0.7637 -0.7178
 8200SOL    HW136236   0.238   2.053   7.193 -0.1101 -1.0872 -0.6037
 8200SOL    HW236237   0.227   2.014   7.055 -1.4928  2.2171  0.2637
 8201SOL     OW36238   1.707   4.364   7.363  0.1504  0.1240  0.2696
 8201SOL    HW136239   1.706   4.455   7.333 -1.7512  0.1185  0.3023
 8201SOL    HW236240   1.747   4.386   7.447 -1.0512  1.3386  0.5139
 8202SOL     OW36241   4.208   1.770   4.785  0.6724 -0.5282 -0.3732
 8202SOL    HW136242   4.239   1.857   4.761 -1.6697  0.5118  0.3585
 8202SOL    HW236243   4.182   1.744   4.697 -0.5054  2.0173 -0.7654
 8203SOL     OW36244   1.959   2.336   8.208  0.1287  0.4280  0.5515
 8203SOL    HW136245   1.990   2.423   8.185 -1.3558  1.1186  1.1597
 8203SOL    HW236246   1.989   2.321   8.297  0.1249 -0.2135  0.4485
 8204SOL     OW36247   0.545   1.566   4.486 -0.1370  0.1110 -0.1615
 8204SOL    HW136248   0.546   1.492   4.426  0.4135  0.1530 -0.2048
 8204SOL    HW236249   0.455   1.600   4.481  0.0746  0.4408 -1.8828
 8205SOL     OW36250   1.605   3.387   5.015  0.0628  0.3529 -0.1412
 8205SOL    HW136251   1.681   3.443   4.999 -0.2451  1.2274  1.3906
 8205SOL    HW236252   1.554   3.447   5.071  1.2909  1.5224 -0.2734
 8206SOL     OW36253   1.426   3.339  17.034 -0.5790 -0.1364 -0.7532
 8206SOL    HW136254   1.424   3.263  17.093  0.1942  0.9060  0.6085
 8206SOL    HW236255   1.418   3.411  17.096  1.2366 -0.2243 -0.4197
 8207SOL     OW36256   4.450   1.814   9.950  0.3446  0.9140 -0.5399
 8207SOL    HW136257   4.377   1.756   9.973  0.4919  0.6090 -0.8538
 8207SOL    HW236258   4.431   1.809   9.857 -0.0707  0.5989 -0.4390
 8208SOL     OW36259   2.760   2.648   7.062 -0.4534 -0.4223 -0.3041
 8208SOL    HW136260   2.787   2.704   6.989 -1.1168 -0.2120 -0.3928
 8208SOL    HW236261   2.665   2.637   7.053 -0.5359  0.4299 -0.3928
 8209SOL     OW36262   1.004   4.045   4.387  0.1410  0.4203 -0.2296
 8209SOL    HW136263   1.080   4.038   4.445  1.7914 -0.8977 -2.5619
 8209SOL    HW236264   1.031   3.999   4.308  1.4898  3.0956 -1.3460
 8210SOL     OW36265   0.079   4.520   7.998  0.4911  0.7063  0.0132
 8210SOL    HW136266   0.124   4.601   8.021  2.5957 -0.4069 -0.2200
 8210SOL    HW236267   0.017   4.511   8.070  0.8004 -1.7563 -0.0437
 8211SOL     OW36268   1.611   2.788   1.253  0.3954  0.1343 -0.3900
 8211SOL    HW136269   1.695   2.833   1.265 -0.0268  0.0591  3.0435
 8211SOL    HW236270   1.594   2.834   1.171 -1.7451  0.9779  0.5143
 8212SOL     OW36271   2.367   0.771   2.844 -0.2049  0.4282  0.1344
 8212SOL    HW136272   2.421   0.840   2.882 -0.6860  1.4738 -1.0812
 8212SOL    HW236273   2.419   0.767   2.764 -0.8529 -2.0935 -0.1778
 8213SOL     OW36274   1.897   1.752   5.538  0.6991  0.5505  0.7763
 8213SOL    HW136275   1.958   1.797   5.596  1.2638 -0.7733  1.2101
 8213SOL    HW236276   1.895   1.813   5.464 -1.7981  0.0681  0.4634
 8214SOL     OW36277   0.730   4.163   8.872  0.4177  0.5465  0.4715
 8214SOL    HW136278   0.720   4.258   8.867 -0.8776  0.3533 -0.6371
 8214SOL    HW236279   0.680   4.150   8.953  0.1524  0.5869  0.3142
 8215SOL     OW36280   2.851   4.147   4.906  0.3912 -0.6304  0.5898
 8215SOL    HW136281   2.945   4.140   4.922  0.9273  2.4131 -1.3678
 8215SOL    HW236282   2.832   4.237   4.931 -0.5559 -0.3734 -1.0709
 8216SOL     OW36283   1.721   3.794   8.573 -0.0101 -0.6877 -0.2109
 8216SOL    HW136284   1.648   3.822   8.628  1.3418  0.9581  0.7281
 8216SOL    HW236285   1.703   3.846   8.495  1.7167 -0.7529 -0.6619
 8217SOL     OW36286   1.707   0.354  17.492 -0.4847 -0.0638 -0.1925
 8217SOL    HW136287   1.641   0.288  17.513 -1.5624  0.5717 -1.5310
 8217SOL    HW236288   1.662   0.407  17.426 -0.0420  0.8794  0.2536
 8218SOL     OW36289   4.474   4.114   0.748 -0.0213 -0.2843  0.4279
 8218SOL    HW136290   4.457   4.150   0.661  2.9672  0.6741  0.2388
 8218SOL    HW236291   4.525   4.185   0.786 -0.0205 -1.0557  1.8844
 8219SOL     OW36292   0.173   4.273   9.534  0.2626 -0.2234  0.0932
 8219SOL    HW136293   0.158   4.196   9.588  2.7740 -0.3699  0.5790
 8219SOL    HW236294   0.083   4.274   9.501  1.3027 -1.2552 -2.7676
 8220SOL     OW36295   1.301   1.594  16.717 -0.2458 -0.2061  0.1103
 8220SOL    HW136296   1.288   1.522  16.655  0.5068 -1.6527  1.6331
 8220SOL    HW236297   1.357   1.557  16.785 -1.3189  1.3088  1.7809
 8221SOL     OW36298   3.186   1.266   2.278  0.8535 -0.3065  0.3313
 8221SOL    HW136299   3.220   1.265   2.368 -0.5123  0.7371  0.8760
 8221SOL    HW236300   3.227   1.348   2.249 -0.4709  0.2176 -0.0414
 8222SOL     OW36301   4.300   2.985  16.786  0.6281 -0.1816 -0.7369
 8222SOL    HW136302   4.355   3.027  16.852  0.5794  0.0550 -0.8453
 8222SOL    HW236303   4.303   3.045  16.711 -0.8841 -1.9696 -2.2052
 8223SOL     OW36304   1.541   4.558   3.713  0.1578  0.8763 -0.4367
 8223SOL    HW136305   1.524   4.634   3.769  0.9597  0.8007 -0.1010
 8223SOL    HW236306   1.617   4.591   3.666  2.6522 -2.5144  1.2547
 8224SOL     OW36307   2.124   4.072  13.823 -0.0467  0.1033  0.8300
 8224SOL    HW136308   2.162   3.985  13.810  1.0123  0.9044 -1.4130
 8224SOL    HW236309   2.134   4.090  13.917  1.8993  2.4468  0.1883
 8225SOL     OW36310   0.507   0.663   4.122 -0.0300  0.2727 -0.5481
 8225SOL    HW136311   0.570   0.619   4.065 -0.0335 -2.3866  1.4980
 8225SOL    HW236312   0.424   0.645   4.077 -1.3244 -2.7381  3.0354
 8226SOL     OW36313   4.623   1.407   2.032  0.2856  0.0667 -0.1707
 8226SOL    HW136314   4.709   1.395   1.992  0.9621  0.4649  1.1361
 8226SOL    HW236315   4.611   1.502   2.035  0.9975  0.2141 -2.0067
 8227SOL     OW36316   3.760   3.341   2.757 -0.4358  0.0839  0.6084
 8227SOL    HW136317   3.803   3.333   2.672  0.4556  1.1575  0.9640
 8227SOL    HW236318   3.821   3.287   2.808  1.1687  1.3869  0.0768
 8228SOL     OW36319   1.436   2.096  12.456 -0.3852  0.1370  0.0760
 8228SOL    HW136320   1.382   2.018  12.442  0.5483 -1.0530  3.1124
 8228SOL    HW236321   1.402   2.119  12.542 -2.5155 -0.1536 -0.6873
 8229SOL     OW36322   4.664   2.285   5.613 -0.2052  0.0619  0.0165
 8229SOL    HW136323   4.679   2.275   5.519 -0.4714  1.4545 -0.1608
 8229SOL    HW236324   4.728   2.354   5.628 -0.8787  0.4251  1.2249
 8230SOL     OW36325   2.240   1.634   8.691  0.6134 -0.5157  1.0762
 8230SOL    HW136326   2.273   1.549   8.663 -1.3260 -1.0451  0.3676
 8230SOL    HW236327   2.180   1.639   8.617  2.4989  1.6714 -0.2782
 8231SOL     OW36328   2.622   4.596   0.042  0.0809 -0.2730  0.1296
 8231SOL    HW136329   2.618   4.633   0.130  1.7356 -0.7740  0.4076
 8231SOL    HW236330   2.708   4.554   0.046 -0.0517 -0.3295  2.2986
 8232SOL     OW36331   1.403   0.500   0.000  0.1785  0.7010  0.2071
 8232SOL    HW136332   1.348   0.511  17.667  1.1530  1.1720 -0.4275
 8232SOL    HW236333   1.451   0.583  17.739 -0.0629  0.9063  1.3110
 8233SOL     OW36334   3.481   4.019  16.219 -0.4485 -0.2875  0.0747
 8233SOL    HW136335   3.470   4.059  16.132  0.8491  1.6728  0.7973
 8233SOL    HW236336   3.544   4.074  16.267 -0.3474  0.6379 -1.1042
 8234SOL     OW36337   0.445   0.141  11.663  0.0418  0.1340  0.2183
 8234SOL    HW136338   0.535   0.124  11.636 -0.3725 -0.8654 -0.5563
 8234SOL    HW236339   0.395   0.078  11.612  2.6355 -0.1789 -1.8977
 8235SOL     OW36340   3.811   1.908   6.285  0.1485  0.4242 -0.1672
 8235SOL    HW136341   3.842   1.921   6.195  0.8258 -0.2961 -0.0418
 8235SOL    HW236342   3.767   1.824   6.282  1.3788 -0.2721  1.2116
 8236SOL     OW36343   4.732   0.158   4.407  0.0575 -0.1368 -0.3327
 8236SOL    HW136344   4.668   0.098   4.368  0.5309 -2.6740  2.7562
 8236SOL    HW236345   0.067   0.096   4.396 -0.2794 -0.7814  1.0478
 8237SOL     OW36346   3.391   4.657   1.414  0.6041  0.1107  0.5430
 8237SOL    HW136347   3.430   4.570   1.411  2.2474  0.8788 -0.1206
 8237SOL    HW236348   3.303   4.625   1.435 -0.0752  0.7760 -1.3004
 8238SOL     OW36349   1.240   3.638   8.068 -0.3616 -0.0967  0.2488
 8238SOL    HW136350   1.291   3.684   8.002 -0.5342 -1.4979 -0.8328
 8238SOL    HW236351   1.255   3.546   8.048  1.2924 -0.4290  2.9747
 8239SOL     OW36352   3.296   0.148  13.126  0.3001  0.0007  0.5213
 8239SOL    HW136353   3.333   0.150  13.214  1.3473  1.2952  0.0410
 8239SOL    HW236354   3.241   0.226  13.132 -1.4381 -1.2792  1.3873
 8240SOL     OW36355   3.632   3.853   8.611  0.1348 -0.1161 -0.2149
 8240SOL    HW136356   3.563   3.787   8.604  0.6543 -0.7978  1.0630
 8240SOL    HW236357   3.681   3.810   8.681  2.3443 -0.1666 -1.8166
 8241SOL     OW36358   3.582   2.133   8.381 -0.1386  0.1930 -0.0397
 8241SOL    HW136359   3.528   2.139   8.303 -1.9114  1.4419  1.2966
 8241SOL    HW236360   3.610   2.224   8.388 -3.4097  1.1301  0.7137
 8242SOL     OW36361   4.260   3.578   1.789 -0.3262  0.4658 -0.0910
 8242SOL    HW136362   4.286   3.629   1.712 -0.1746 -0.0648 -0.3930
 8242SOL    HW236363   4.312   3.624   1.855 -0.3044 -1.1396  0.9996
 8243SOL     OW36364   2.707   0.476   9.676  0.1752 -0.1146 -0.3146
 8243SOL    HW136365   2.731   0.415   9.746 -1.7546 -1.2157 -0.5939
 8243SOL    HW236366   2.786   0.491   9.625  0.1778 -0.2868 -0.3601
 8244SOL     OW36367   4.306   4.300   3.503  0.3156 -0.3880  0.2363
 8244SOL    HW136368   4.399   4.297   3.525  0.5771  1.9215 -0.5905
 8244SOL    HW236369   4.282   4.208   3.515 -1.3713 -0.1538 -1.3673
 8245SOL     OW36370   0.627   1.592   3.204 -0.2679 -0.1787 -0.2193
 8245SOL    HW136371   0.617   1.521   3.267  0.5115 -1.0304 -1.0449
 8245SOL    HW236372   0.654   1.663   3.262  0.8174 -0.1346 -0.7626
 8246SOL     OW36373   1.059   1.671   5.171  0.2169  0.3553  0.5687
 8246SOL    HW136374   1.086   1.735   5.237  0.6398  2.2078 -1.3980
 8246SOL    HW236375   1.139   1.642   5.127 -0.6745 -0.5850 -0.4400
 8247SOL     OW36376   1.166   2.397  12.551  0.5153 -0.2983  0.4032
 8247SOL    HW136377   1.080   2.438  12.542  0.8538  0.8729  2.5497
 8247SOL    HW236378   1.157   2.329  12.617 -1.3406  1.1711  1.6573
 8248SOL     OW36379   2.248   0.005   9.764 -0.1503  0.2097  0.6199
 8248SOL    HW136380   2.272   0.079   9.821 -2.2501  0.6859  0.8985
 8248SOL    HW236381   2.182   0.048   9.709  1.7790 -0.0379 -1.8917
 8249SOL     OW36382   1.103   0.606   4.860  0.3637  0.3281  0.1743
 8249SOL    HW136383   1.146   0.627   4.943 -1.7179  1.4944  0.9601
 8249SOL    HW236384   1.088   0.692   4.821  0.8170 -0.8753 -2.6817
 8250SOL     OW36385   4.284   1.584   2.282 -0.0725  0.1543  0.0666
 8250SOL    HW136386   4.302   1.490   2.286 -0.6153  0.0827  0.8054
 8250SOL    HW236387   4.200   1.590   2.237  0.7167  0.2343 -1.4211
 8251SOL     OW36388   0.011   0.194  15.384  0.1333  0.4406 -0.5042
 8251SOL    HW136389   4.686   0.257  15.346  0.3353  0.9893  0.0765
 8251SOL    HW236390   4.711   0.171  15.470  0.8578 -0.6068 -0.4824
 8252SOL     OW36391   1.631   2.914   6.039 -0.4756  0.6328 -0.0575
 8252SOL    HW136392   1.636   2.979   5.969 -1.4371  0.1885 -0.5401
 8252SOL    HW236393   1.727   2.912   6.037 -0.5290 -1.4226 -0.6298
 8253SOL     OW36394   2.961   3.578   5.988 -0.2954 -0.2854  0.1320
 8253SOL    HW136395   2.902   3.545   6.055 -2.7079 -0.3784 -2.0502
 8253SOL    HW236396   2.944   3.519   5.914 -1.3026  0.2374 -0.0480
 8254SOL     OW36397   2.605   0.743   1.419  0.2512 -0.2455 -0.3595
 8254SOL    HW136398   2.629   0.775   1.332  3.1390 -2.8847 -0.5464
 8254SOL    HW236399   2.627   0.812   1.482  2.2164 -1.1437 -0.0538
 8255SOL     OW36400   0.116   1.189   2.652 -0.5006 -0.4791  0.0580
 8255SOL    HW136401   0.111   1.165   2.744 -4.8580  0.9019  0.1714
 8255SOL    HW236402   0.170   1.268   2.661  1.1247 -1.6457  0.4840
 8256SOL     OW36403   0.366   1.261   5.232 -0.8264 -0.4703  0.2027
 8256SOL    HW136404   0.379   1.262   5.327 -1.1089  1.0251  0.2212
 8256SOL    HW236405   0.270   1.269   5.234 -1.1264 -4.1247 -0.6088
 8257SOL     OW36406   2.144   1.877   6.048  0.4272 -0.2144  0.2607
 8257SOL    HW136407   2.195   1.941   6.097 -0.0181 -1.7226  2.6882
 8257SOL    HW236408   2.063   1.924   6.028  1.5663  2.9810  3.2464
 8258SOL     OW36409   1.288   1.508  11.803  0.2970  0.4733 -0.1217
 8258SOL    HW136410   1.362   1.478  11.856 -0.5882 -1.1616  0.1903
 8258SOL    HW236411   1.233   1.429  11.809 -0.3994  0.8759 -1.2064
 8259SOL     OW36412   3.258   3.237   6.904 -0.8768  0.4640 -0.3477
 8259SOL    HW136413   3.183   3.291   6.927  0.1810  1.9567 -0.3912
 8259SOL    HW236414   3.222   3.159   6.861 -0.5799  0.8799 -1.3546
 8260SOL     OW36415   1.482   3.005   4.307 -0.4787  0.3461 -0.7955
 8260SOL    HW136416   1.530   3.087   4.293 -0.1197  0.1883 -0.4868
 8260SOL    HW236417   1.430   3.006   4.226  0.0192 -0.0006 -1.1180
 8261SOL     OW36418   2.654   3.758  14.927 -0.1053 -0.0608 -0.1256
 8261SOL    HW136419   2.647   3.686  14.865 -0.7194  0.3792 -0.5697
 8261SOL    HW236420   2.742   3.746  14.962 -0.3374  1.6047  1.0145
 8262SOL     OW36421   1.394   0.987   8.431  0.1433 -0.3423  0.5600
 8262SOL    HW136422   1.358   1.063   8.385 -0.6387 -0.3208  1.2174
 8262SOL    HW236423   1.413   1.025   8.517 -0.8409 -2.5222  1.7440
 8263SOL     OW36424   3.295   1.915  13.812 -0.4928  0.4209 -0.3666
 8263SOL    HW136425   3.384   1.903  13.779 -0.2018 -0.7383  0.8387
 8263SOL    HW236426   3.283   2.007  13.837  3.0701  0.7738  0.0337
 8264SOL     OW36427   1.764   2.874   4.380  0.1728 -0.5310  0.4298
 8264SOL    HW136428   1.684   2.903   4.336 -0.2830 -2.5180 -0.0242
 8264SOL    HW236429   1.784   2.948   4.438  2.3273 -0.8098  0.0242
 8265SOL     OW36430   2.234   1.952   9.415 -0.4317 -0.0199  0.0305
 8265SOL    HW136431   2.159   1.903   9.382 -1.5412  2.1637 -0.7495
 8265SOL    HW236432   2.195   2.037   9.436 -0.9161  0.0546 -1.1879
 8266SOL     OW36433   0.175   0.341  11.485  0.1087  0.1479  0.6633
 8266SOL    HW136434   0.130   0.424  11.498  0.0556  0.2876 -0.5028
 8266SOL    HW236435   0.238   0.346  11.557  0.1982 -0.2701  0.6163
 8267SOL     OW36436   1.339   1.747  12.314  0.1763  0.5906 -0.3058
 8267SOL    HW136437   1.383   1.722  12.233  1.3671 -0.0600  0.5369
 8267SOL    HW236438   1.283   1.813  12.273 -1.1940 -0.3230  0.1154
 8268SOL     OW36439   4.198   4.568   1.212 -0.1650  0.0577 -0.3803
 8268SOL    HW136440   4.277   4.597   1.257 -0.9117 -0.7325  1.4454
 8268SOL    HW236441   4.126   4.613   1.258 -1.2550 -1.4122 -0.6224
 8269SOL     OW36442   3.045   2.472  13.741  0.0336 -0.2711  0.6565
 8269SOL    HW136443   3.106   2.481  13.814  1.6092 -4.6069 -0.0957
 8269SOL    HW236444   3.012   2.562  13.746 -0.9439 -0.4962 -1.8398
 8270SOL     OW36445   1.976   4.173   5.873  0.5469  0.4605  0.3292
 8270SOL    HW136446   1.972   4.215   5.787 -3.0062 -1.4700 -0.4399
 8270SOL    HW236447   1.887   4.198   5.896  0.3601 -0.5575  0.7134
 8271SOL     OW36448   3.922   2.596  11.104  0.4549 -0.5330 -0.3574
 8271SOL    HW136449   3.864   2.672  11.099  0.5234 -0.3534  1.3969
 8271SOL    HW236450   4.000   2.626  11.057  1.0366  0.9628  1.5594
 8272SOL     OW36451   0.481   4.618   4.713 -0.3693  0.1761  0.3821
 8272SOL    HW136452   0.446   4.676   4.780 -2.4040 -1.6925  0.9563
 8272SOL    HW236453   0.533   4.561   4.770 -0.1709 -1.5864 -1.5381
 8273SOL     OW36454   2.627   2.504  12.816  0.8410  0.5365  0.5706
 8273SOL    HW136455   2.722   2.490  12.813  0.6496 -0.1747 -2.0211
 8273SOL    HW236456   2.616   2.484  12.909  0.1516 -1.1813  0.1166
 8274SOL     OW36457   2.281   1.117  12.927 -0.3017 -0.1905 -0.4194
 8274SOL    HW136458   2.373   1.107  12.953  0.3664  1.9383 -1.9562
 8274SOL    HW236459   2.287   1.180  12.856 -1.4766 -0.8493 -1.1164
 8275SOL     OW36460   1.488   2.729   0.728 -0.0154  0.3684  0.0986
 8275SOL    HW136461   1.555   2.701   0.791 -0.8018 -2.1830 -0.1859
 8275SOL    HW236462   1.525   2.711   0.641 -1.8018 -0.7093 -0.4343
 8276SOL     OW36463   3.022   4.393  16.173  0.9694 -0.1715 -0.0258
 8276SOL    HW136464   3.037   4.364  16.263 -1.7364  0.3673  0.6152
 8276SOL    HW236465   3.014   4.488  16.181 -2.2769 -0.5044  0.5466
 8277SOL     OW36466   2.936   0.888   0.754 -0.0775  0.3287  0.2993
 8277SOL    HW136467   3.013   0.849   0.794 -0.8968  0.8669  2.3804
 8277SOL    HW236468   2.948   0.981   0.772 -1.6212  0.3079  1.4788
 8278SOL     OW36469   2.956   3.428   5.776  0.1080  0.0199  0.4609
 8278SOL    HW136470   3.044   3.392   5.782 -0.0431 -0.1445  1.7660
 8278SOL    HW236471   2.904   3.348   5.769  0.2270  0.0047 -0.2547
 8279SOL     OW36472   2.783   3.528   2.923  0.0333 -0.6436 -0.0059
 8279SOL    HW136473   2.768   3.620   2.944  1.5326 -0.2184 -0.8023
 8279SOL    HW236474   2.842   3.497   2.992 -0.9322  0.3056  1.2255
 8280SOL     OW36475   3.425   3.150   2.799  0.2670 -0.2873 -0.1051
 8280SOL    HW136476   3.410   3.135   2.893  0.1724  0.5310  0.0133
 8280SOL    HW236477   3.372   3.228   2.782 -0.5384 -0.6493  0.7247
 8281SOL     OW36478   4.259   2.283   6.244 -0.7016  0.2625  0.0693
 8281SOL    HW136479   4.352   2.306   6.238 -0.3834 -1.0844 -0.1404
 8281SOL    HW236480   4.251   2.205   6.189 -2.1980  0.4157  0.0788
 8282SOL     OW36481   0.452   1.935  10.236 -0.3763  0.2367 -0.0635
 8282SOL    HW136482   0.401   1.944  10.155  0.4015  0.7065 -0.4994
 8282SOL    HW236483   0.397   1.879  10.290 -1.5738  2.6183  1.2129
 8283SOL     OW36484   4.314   0.285   7.487  0.4056  0.3842  0.6724
 8283SOL    HW136485   4.327   0.211   7.427  0.5821  2.2415 -1.5707
 8283SOL    HW236486   4.394   0.290   7.540  0.3636 -0.3273  0.8131
 8284SOL     OW36487   3.492   3.311   2.184  0.5361  0.2227 -0.5433
 8284SOL    HW136488   3.463   3.372   2.117 -3.3633 -1.1233 -0.1083
 8284SOL    HW236489   3.581   3.337   2.208 -0.0244 -0.3144  2.1754
 8285SOL     OW36490   1.637   2.822  15.195  0.2528 -0.4376  0.4379
 8285SOL    HW136491   1.686   2.772  15.130 -0.2494 -0.6490  0.2162
 8285SOL    HW236492   1.645   2.756  15.264  1.3853  0.6714  1.3374
 8286SOL     OW36493   4.524   3.408   1.952  0.1009 -0.3398 -0.0454
 8286SOL    HW136494   4.499   3.346   1.884 -0.5620 -2.6872  2.3164
 8286SOL    HW236495   4.482   3.485   1.915 -0.8463 -1.3128 -1.0211
 8287SOL     OW36496   2.551   2.320   3.972  0.1274 -0.2231  0.7144
 8287SOL    HW136497   2.559   2.395   4.031 -0.1021  0.3280  0.0403
 8287SOL    HW236498   2.622   2.263   4.000  3.2654  2.7557 -1.1430
 8288SOL     OW36499   1.501   4.237   8.717 -0.1177  0.0090 -0.5024
 8288SOL    HW136500   1.414   4.262   8.687  0.3448  0.8664 -1.1466
 8288SOL    HW236501   1.519   4.292   8.793  1.2354  1.0134 -1.5298
 8289SOL     OW36502   1.907   4.396   9.164  0.2168 -0.0752 -0.0575
 8289SOL    HW136503   1.945   4.309   9.181  2.3994  0.4572 -2.2255
 8289SOL    HW236504   1.982   4.449   9.137 -0.8319  1.2228 -0.4009
 8290SOL     OW36505   0.120   3.467  10.574  0.4315  0.2993  0.0689
 8290SOL    HW136506   0.203   3.499  10.538 -0.0741  1.1573 -0.3456
 8290SOL    HW236507   0.120   3.491  10.667 -0.1917 -1.3148  0.4786
 8291SOL     OW36508   1.998   2.206   7.064  0.5296  0.0581 -0.2824
 8291SOL    HW136509   1.961   2.194   6.976 -1.4417  0.6556  0.4626
 8291SOL    HW236510   1.994   2.118   7.100 -2.2978 -0.0778 -0.8667
 8292SOL     OW36511   0.726   1.218  12.645  0.0725 -0.4749 -0.0009
 8292SOL    HW136512   0.760   1.131  12.667  0.3414 -0.3906 -0.0815
 8292SOL    HW236513   0.807   1.261  12.618  0.4195 -1.2069 -0.1461
 8293SOL     OW36514   2.913   3.907   3.610 -0.2011 -0.4148 -0.2367
 8293SOL    HW136515   2.840   3.965   3.631 -0.3322 -0.5873 -0.2078
 8293SOL    HW236516   2.954   3.875   3.690 -1.5156 -0.6849  0.3407
 8294SOL     OW36517   3.124   2.849   2.861  0.3204  0.2635  0.2663
 8294SOL    HW136518   3.075   2.799   2.927 -1.4570  1.5604 -0.0899
 8294SOL    HW236519   3.146   2.780   2.799  1.1798 -0.3634  1.2687
 8295SOL     OW36520   4.662   3.065   1.314 -0.0651 -0.2529  0.2276
 8295SOL    HW136521   4.636   3.132   1.378 -1.4947  2.2922 -3.0139
 8295SOL    HW236522   4.662   2.990   1.374  2.3219  1.5773  2.5321
 8296SOL     OW36523   1.703   0.203  14.804 -0.4729 -0.0661  0.1094
 8296SOL    HW136524   1.783   0.255  14.800  0.4060 -1.3673  0.7033
 8296SOL    HW236525   1.714   0.165  14.892 -2.0103  0.3596  0.4868
 8297SOL     OW36526   1.272   4.588   6.575  0.3333 -0.0166 -0.5280
 8297SOL    HW136527   1.333   4.655   6.605  0.5361  0.5060 -2.1047
 8297SOL    HW236528   1.234   4.630   6.499 -0.8564 -1.6057 -0.8260
 8298SOL     OW36529   4.560   0.575  15.057 -0.5665  0.4546  0.0997
 8298SOL    HW136530   4.655   0.572  15.058 -0.5741  1.2825  2.9856
 8298SOL    HW236531   4.555   0.662  15.097  0.4113  0.2149  0.7275
 8299SOL     OW36532   3.157   1.119   4.403  0.3892 -0.0346  0.1863
 8299SOL    HW136533   3.069   1.084   4.417  1.2330 -1.8696  0.8896
 8299SOL    HW236534   3.130   1.209   4.421  1.1593  0.3365 -0.5218
 8300SOL     OW36535   0.747   3.524  15.756  0.0929 -0.2239  0.0350
 8300SOL    HW136536   0.683   3.574  15.705  1.2634 -1.7110 -2.8463
 8300SOL    HW236537   0.692   3.446  15.764 -0.2880  0.0349 -0.0527
 8301SOL     OW36538   0.898   3.002  14.032  0.4218 -0.2494 -0.4390
 8301SOL    HW136539   0.871   3.093  14.026  1.1377 -0.0241 -0.3209
 8301SOL    HW236540   0.966   3.003  14.100 -0.0425 -1.8207  0.0532
 8302SOL     OW36541   0.961   1.268   2.470 -0.5489 -0.4580  0.1820
 8302SOL    HW136542   0.947   1.231   2.383  3.0399 -0.5197 -0.3641
 8302SOL    HW236543   1.006   1.348   2.443  0.7817 -1.8440 -1.7586
 8303SOL     OW36544   1.830   0.707   3.212  0.3741  0.2323  0.1155
 8303SOL    HW136545   1.878   0.790   3.209 -0.5728  0.7660  0.0903
 8303SOL    HW236546   1.859   0.693   3.303  2.0153 -0.7846 -0.5595
 8304SOL     OW36547   1.430   2.922   3.273  0.0551  0.3561  0.1601
 8304SOL    HW136548   1.467   2.869   3.202  0.6277 -0.5411  1.1212
 8304SOL    HW236549   1.361   2.972   3.231 -1.1449  0.2479  2.0023
 8305SOL     OW36550   2.707   1.851   9.393 -0.2948 -0.0370  0.5979
 8305SOL    HW136551   2.775   1.832   9.328 -1.0801  0.2556 -0.3214
 8305SOL    HW236552   2.639   1.784   9.380  0.6858 -0.6809 -1.2105
 8306SOL     OW36553   4.632   2.026   4.718  0.3709 -0.3925 -0.2476
 8306SOL    HW136554   4.537   2.011   4.720  0.1772  0.8780 -0.0562
 8306SOL    HW236555   4.645   2.081   4.640  0.0250  0.0176 -0.0134
 8307SOL     OW36556   1.247   0.238   9.628  0.2841  0.4994  0.3216
 8307SOL    HW136557   1.188   0.171   9.593 -0.7636  1.9427 -0.6823
 8307SOL    HW236558   1.182   0.289   9.676  0.2702 -0.6247  1.4867
 8308SOL     OW36559   4.644   4.291   5.342 -0.1536  0.1763 -0.7399
 8308SOL    HW136560   4.705   4.339   5.398  0.1488 -0.6828 -0.3356
 8308SOL    HW236561   4.567   4.272   5.395 -0.2722  0.6108 -0.7567
 8309SOL     OW36562   1.068   1.650   1.665 -0.1500 -0.1686 -0.8349
 8309SOL    HW136563   1.003   1.579   1.663 -0.8185  0.4292 -0.0477
 8309SOL    HW236564   1.120   1.625   1.588  1.2615 -2.4247  0.8667
 8310SOL     OW36565   3.265   1.665   5.093  0.1282 -0.3313  0.4430
 8310SOL    HW136566   3.277   1.699   5.182 -2.4731  0.4982  0.4673
 8310SOL    HW236567   3.347   1.615   5.094  0.4237  0.1744  2.2685
 8311SOL     OW36568   2.954   4.360   9.670 -0.2032  0.0030 -0.1415
 8311SOL    HW136569   3.000   4.347   9.587 -0.2616  1.3448 -0.3761
 8311SOL    HW236570   3.027   4.350   9.731 -0.5819 -2.0571 -0.0211
 8312SOL     OW36571   0.777   3.695   7.014 -0.1234  0.2162  0.0111
 8312SOL    HW136572   0.824   3.756   7.070  0.4239 -0.4080  0.2238
 8312SOL    HW236573   0.834   3.687   6.937 -1.5285  0.5885 -1.0789
 8313SOL     OW36574   3.439   1.538   6.672  0.0034  0.3122 -0.2039
 8313SOL    HW136575   3.353   1.513   6.708 -0.0184 -0.0887 -0.5463
 8313SOL    HW236576   3.490   1.579   6.742 -0.2130  0.9909 -0.4364
 8314SOL     OW36577   3.677   2.016  15.059  0.0199 -0.2126  0.0266
 8314SOL    HW136578   3.596   1.977  15.025 -0.5229  0.2040  0.8298
 8314SOL    HW236579   3.639   2.066  15.131  1.4925 -2.7466  2.5960
 8315SOL     OW36580   3.847   2.813   2.080 -0.7508  0.0450 -0.2561
 8315SOL    HW136581   3.858   2.780   1.991 -0.4634 -0.3919 -0.0600
 8315SOL    HW236582   3.752   2.801   2.090 -0.6509 -0.4630  0.1024
 8316SOL     OW36583   3.328   1.813   8.331  0.2618  0.4433 -0.0011
 8316SOL    HW136584   3.286   1.829   8.247  1.4492 -0.5995 -0.7858
 8316SOL    HW236585   3.264   1.765   8.383  0.1582 -0.9288 -1.3980
 8317SOL     OW36586   0.154   2.575  16.736 -0.0509  0.2492  0.0177
 8317SOL    HW136587   0.058   2.577  16.733 -0.0471  0.5654  0.1351
 8317SOL    HW236588   0.164   2.667  16.762  0.0054  0.3233 -0.2601
 8318SOL     OW36589   0.715   3.391   8.355 -0.3601 -0.5013  0.5138
 8318SOL    HW136590   0.710   3.433   8.269 -0.5334 -3.9174 -1.1592
 8318SOL    HW236591   0.805   3.415   8.379 -1.5678  0.1151  4.3953
 8319SOL     OW36592   2.988   4.369   6.470 -0.4914 -0.2852  0.3038
 8319SOL    HW136593   3.020   4.322   6.548  2.8135  0.0638 -0.8325
 8319SOL    HW236594   3.069   4.370   6.419 -1.0723  1.1914 -0.5571
 8320SOL     OW36595   1.396   4.057   2.772 -0.0355 -0.2257  0.4618
 8320SOL    HW136596   1.430   3.975   2.807 -3.0581 -0.4763  2.7929
 8320SOL    HW236597   1.378   4.038   2.680  0.0647 -2.3831  0.8958
 8321SOL     OW36598   0.434   1.661  16.432 -0.8878 -0.1359  0.6669
 8321SOL    HW136599   0.521   1.627  16.411 -1.1196 -0.3712  0.1051
 8321SOL    HW236600   0.401   1.609  16.506 -0.9739  0.3215  0.9524
 8322SOL     OW36601   0.105   2.119  15.714 -0.0865  0.4694 -0.2141
 8322SOL    HW136602   0.165   2.132  15.640 -2.3135  1.9954 -1.7659
 8322SOL    HW236603   0.168   2.118  15.786  1.7962  0.6923 -1.8484
 8323SOL     OW36604   3.707   0.413  12.826  0.0147 -0.3141 -0.1182
 8323SOL    HW136605   3.698   0.329  12.781  1.7117 -0.7846  0.4311
 8323SOL    HW236606   3.802   0.421  12.821 -0.0440  0.4888 -0.0102
 8324SOL     OW36607   1.716   1.144   1.145  0.5865  0.0812  0.1105
 8324SOL    HW136608   1.752   1.198   1.215  1.9956 -1.5842  0.7002
 8324SOL    HW236609   1.793   1.119   1.093 -0.6245 -1.0008 -1.1606
 8325SOL     OW36610   3.915   4.471  10.445  0.1936  0.0942 -0.1468
 8325SOL    HW136611   3.825   4.476  10.415  0.3444 -0.0548 -0.6190
 8325SOL    HW236612   3.906   4.480  10.540 -0.0050  2.1476 -0.3662
 8326SOL     OW36613   2.228   3.849   5.043  0.7770  0.4398  0.3323
 8326SOL    HW136614   2.308   3.862   4.992  0.4206 -2.6301 -0.9941
 8326SOL    HW236615   2.179   3.788   4.987  1.2738  1.8382 -1.6381
 8327SOL     OW36616   0.030   3.112  14.812  0.1565 -0.1184 -0.3136
 8327SOL    HW136617   4.694   3.085  14.868 -0.0483 -1.4634 -1.2388
 8327SOL    HW236618   0.089   3.039  14.833  1.2977  0.5343 -1.1970
 8328SOL     OW36619   4.413   1.312   2.909  0.2060 -0.9075  0.2372
 8328SOL    HW136620   4.472   1.343   2.977 -2.2075  0.7714  1.5795
 8328SOL    HW236621   4.331   1.314   2.958  0.1351  0.7800  0.0336
 8329SOL     OW36622   1.504   3.931  17.655  0.1388 -0.0659 -0.3111
 8329SOL    HW136623   1.565   3.885  17.596 -0.0879  1.4039 -1.7076
 8329SOL    HW236624   1.553   3.934  17.737 -0.4830 -0.7054  0.0773
 8330SOL     OW36625   0.034   4.197   7.327 -0.1410 -0.1787 -0.0608
 8330SOL    HW136626   4.691   4.226   7.281 -0.5270  0.5505  1.0392
 8330SOL    HW236627   0.002   4.132   7.390 -0.4073  0.1201  0.1180
 8331SOL     OW36628   0.058   3.117   2.886  0.4176 -0.0613 -0.0675
 8331SOL    HW136629   0.140   3.072   2.864  0.4614 -0.0513  0.0737
 8331SOL    HW236630   0.076   3.153   2.973 -0.3764  0.6376 -0.1861
 8332SOL     OW36631   3.854   3.879   1.852  0.0029 -0.4681  0.4343
 8332SOL    HW136632   3.851   3.891   1.757 -1.0760  0.4479  0.5849
 8332SOL    HW236633   3.780   3.934   1.876 -0.7457 -1.4565  0.4109
 8333SOL     OW36634   0.507   3.935   7.082 -0.7159  0.3765  0.4486
 8333SOL    HW136635   0.565   3.893   7.018 -0.9610  0.1236  0.3955
 8333SOL    HW236636   0.573   3.979   7.136  1.2137  1.7164 -3.0158
 8334SOL     OW36637   0.654   3.511   0.176 -0.1477 -0.4568  0.5584
 8334SOL    HW136638   0.664   3.590   0.230 -1.9249  2.3869 -3.2020
 8334SOL    HW236639   0.560   3.496   0.182  0.0470 -1.4796  0.9716
 8335SOL     OW36640   4.086   1.773   4.101 -0.2639  0.2046  0.0899
 8335SOL    HW136641   4.070   1.842   4.165  0.3952 -0.2712  0.7740
 8335SOL    HW236642   4.181   1.778   4.092 -0.2298  1.3146  1.0605
 8336SOL     OW36643   1.088   2.887   9.965  0.0742 -0.0035  0.6856
 8336SOL    HW136644   1.120   2.852   9.882  2.3208 -3.1230  2.8566
 8336SOL    HW236645   1.124   2.828  10.031  0.6942  1.8748  2.0469
 8337SOL     OW36646   0.107   1.517  16.832 -0.6410 -0.6815  0.8423
 8337SOL    HW136647   0.125   1.610  16.849  0.2184 -0.6785 -0.0941
 8337SOL    HW236648   0.014   1.517  16.810 -0.6499  0.7821  0.8243
 8338SOL     OW36649   3.937   4.403   6.601 -0.2626 -0.4307 -0.4386
 8338SOL    HW136650   3.848   4.379   6.629  0.9398 -1.9400  2.1479
 8338SOL    HW236651   3.984   4.327   6.635  1.2356  0.2734 -0.9675
 8339SOL     OW36652   4.469   0.079  16.328 -0.5696  0.0390  0.3786
 8339SOL    HW136653   4.457   0.022  16.252  0.3607  0.7719 -0.3269
 8339SOL    HW236654   4.484   0.019  16.400  1.8604 -1.3930 -1.3227
 8340SOL     OW36655   3.029   2.378   8.227 -0.2451  0.4831 -0.0867
 8340SOL    HW136656   2.956   2.337   8.181  0.3257  0.4747 -0.9828
 8340SOL    HW236657   3.018   2.374   8.322  1.5095 -1.2237  0.0540
 8341SOL     OW36658   0.317   1.423   3.236  0.1842  0.2668 -0.2197
 8341SOL    HW136659   0.222   1.411   3.237 -0.0929  2.4085 -0.0545
 8341SOL    HW236660   0.320   1.519   3.236 -1.3263  0.3023 -0.7146
 8342SOL     OW36661   0.126   1.029   8.725 -0.2589  0.2003  0.1980
 8342SOL    HW136662   0.091   0.969   8.791  0.5021  1.3329  1.6603
 8342SOL    HW236663   0.173   1.090   8.783  1.1456 -0.7004  0.0150
 8343SOL     OW36664   1.475   4.284   7.462 -0.7937  0.0096 -0.3887
 8343SOL    HW136665   1.488   4.190   7.470 -0.6720 -0.1095 -2.1126
 8343SOL    HW236666   1.543   4.312   7.400  0.5056 -2.5229 -0.1035
 8344SOL     OW36667   4.661   4.021   7.516 -0.1548 -0.6998  0.4717
 8344SOL    HW136668   4.617   3.937   7.498  0.3405 -0.6438 -0.9736
 8344SOL    HW236669   0.006   3.982   7.547 -0.2207 -0.8091  0.5094
 8345SOL     OW36670   3.335   0.189   2.307 -0.1656 -0.4308 -0.3103
 8345SOL    HW136671   3.311   0.228   2.391 -1.3081 -0.8892 -0.4207
 8345SOL    HW236672   3.354   0.098   2.332  0.0910 -0.3580 -0.2367
 8346SOL     OW36673   0.504   0.493  15.494 -0.5739  0.1109  0.4940
 8346SOL    HW136674   0.470   0.469  15.581  1.6580 -1.3806  0.9642
 8346SOL    HW236675   0.550   0.576  15.504  0.6321 -0.3256 -1.4826
 8347SOL     OW36676   0.944   3.533   3.381 -0.6329 -0.6783 -0.2036
 8347SOL    HW136677   1.033   3.529   3.344 -0.2468  2.0416  0.4465
 8347SOL    HW236678   0.891   3.534   3.302 -0.2117 -1.0277 -0.4938
 8348SOL     OW36679   0.337   0.471  13.233 -0.0559  0.0699 -0.5050
 8348SOL    HW136680   0.333   0.513  13.319 -0.1887 -0.2300 -0.3652
 8348SOL    HW236681   0.414   0.416  13.246  0.2630  1.0393  1.6840
 8349SOL     OW36682   3.884   0.439  10.627 -0.6836 -0.3916  0.0606
 8349SOL    HW136683   3.846   0.527  10.634 -0.9120 -0.5664  0.9999
 8349SOL    HW236684   3.891   0.417  10.534  0.8494 -1.8157  0.5131
 8350SOL     OW36685   1.505   0.731   7.475 -0.1980  0.1510  0.9623
 8350SOL    HW136686   1.482   0.821   7.498 -0.0158  0.5018 -0.1982
 8350SOL    HW236687   1.503   0.735   7.379  1.7846  0.8378  0.9456
 8351SOL     OW36688   1.450   3.009  15.226 -0.3743 -0.1055 -0.6952
 8351SOL    HW136689   1.527   2.952  15.225 -1.7155 -1.9174 -1.1230
 8351SOL    HW236690   1.390   2.936  15.210 -3.1712  1.6242  1.6798
 8352SOL     OW36691   2.781   2.291   5.903  0.1900  0.0444  0.2307
 8352SOL    HW136692   2.734   2.211   5.881 -1.3271  1.0828 -0.3020
 8352SOL    HW236693   2.797   2.273   5.995 -0.5468 -0.3881  0.2714
 8353SOL     OW36694   4.235   4.480   3.330 -0.2432  0.3228 -0.0107
 8353SOL    HW136695   4.244   4.403   3.386 -0.6689  1.7992  2.0992
 8353SOL    HW236696   4.289   4.542   3.379 -0.5695  1.3212 -0.9196
 8354SOL     OW36697   2.973   4.236   2.737  0.0736  0.4270  0.1175
 8354SOL    HW136698   2.973   4.144   2.711 -0.3559 -0.1900  2.2983
 8354SOL    HW236699   2.879   4.252   2.736 -0.0222 -0.3943 -2.7984
 8355SOL     OW36700   4.083   3.793   3.206  0.5257 -0.3293  0.2275
 8355SOL    HW136701   4.030   3.756   3.135  0.8066  0.4438 -0.3820
 8355SOL    HW236702   4.027   3.803   3.283 -0.1377  1.9776 -0.5374
 8356SOL     OW36703   0.473   2.344   2.929  0.0299 -0.2090 -0.3242
 8356SOL    HW136704   0.438   2.325   2.842  0.5337  1.5278 -0.8827
 8356SOL    HW236705   0.566   2.322   2.931 -0.3676 -1.8655  0.3429
 8357SOL     OW36706   4.058   2.282   3.758 -0.0585 -0.2305  0.2560
 8357SOL    HW136707   4.085   2.325   3.677  2.8280  1.7860  2.3079
 8357SOL    HW236708   3.964   2.297   3.747 -0.0866 -2.4451 -2.7627
 8358SOL     OW36709   1.046   1.160   6.185 -0.3855 -0.7038 -0.3087
 8358SOL    HW136710   0.961   1.118   6.173 -0.8996  0.7799 -1.7900
 8358SOL    HW236711   1.097   1.081   6.167  1.2343  0.0109  1.1044
 8359SOL     OW36712   1.857   1.170  14.190  0.2923  0.2921 -0.1421
 8359SOL    HW136713   1.859   1.266  14.192 -0.3185  0.3284 -1.0147
 8359SOL    HW236714   1.849   1.147  14.098 -2.9937 -1.6293  0.6511
 8360SOL     OW36715   2.333   3.343   8.576  0.1475  0.0862  0.2162
 8360SOL    HW136716   2.341   3.438   8.568 -0.1898  0.0433 -0.5879
 8360SOL    HW236717   2.253   3.343   8.524  0.2252  0.4287  0.0958
 8361SOL     OW36718   2.737   4.100   4.238 -0.4151  0.7517 -0.1169
 8361SOL    HW136719   2.786   4.044   4.299 -0.4567  1.5313  0.6216
 8361SOL    HW236720   2.775   4.074   4.154 -1.5208  1.0313 -0.6984
 8362SOL     OW36721   0.313   0.790   4.988  0.7777  0.5481  0.2418
 8362SOL    HW136722   0.272   0.875   5.002  1.4337  0.6843  1.2689
 8362SOL    HW236723   0.403   0.820   4.994  1.3049 -1.0922  0.5724
 8363SOL     OW36724   3.567   1.725   2.071  0.3734  0.0877 -0.1739
 8363SOL    HW136725   3.530   1.646   2.030  0.3266 -1.0895  2.1677
 8363SOL    HW236726   3.523   1.791   2.017 -1.8072 -0.9378  0.3165
 8364SOL     OW36727   3.164   4.650   3.420 -0.6700 -0.3478  0.7401
 8364SOL    HW136728   3.176   0.007   3.403  0.2642 -0.7957 -1.1102
 8364SOL    HW236729   3.147   4.621   3.330  0.7576 -2.2048  1.0791
 8365SOL     OW36730   0.731   1.251   6.483  0.0229  0.1010 -0.6061
 8365SOL    HW136731   0.746   1.248   6.577 -1.3812 -4.1236 -0.4939
 8365SOL    HW236732   0.817   1.275   6.448 -0.1308 -0.9043 -1.6987
 8366SOL     OW36733   0.227   4.197  11.785 -0.0447 -0.1252  0.2881
 8366SOL    HW136734   0.285   4.269  11.807  2.2309 -2.4844  2.0894
 8366SOL    HW236735   0.214   4.152  11.869  3.0785  0.0354  0.8294
 8367SOL     OW36736   0.467   2.985   9.013  0.6372  0.1160 -0.2748
 8367SOL    HW136737   0.406   2.922   8.975  0.9665 -1.1126  1.2181
 8367SOL    HW236738   0.461   2.943   9.099  0.9639 -0.8908 -0.7499
 8368SOL     OW36739   2.224   4.508  16.852 -0.6185 -0.6390  0.1666
 8368SOL    HW136740   2.256   4.588  16.809 -1.3869 -1.7417 -2.4655
 8368SOL    HW236741   2.261   4.445  16.791  1.2130  2.1236 -1.5666
 8369SOL     OW36742   3.291   3.896  14.539  0.2955  0.3806  0.3937
 8369SOL    HW136743   3.369   3.894  14.595  1.1087 -1.5612 -0.8238
 8369SOL    HW236744   3.225   3.938  14.594 -0.2644  3.2747 -2.4779
 8370SOL     OW36745   1.646   4.298  11.732 -0.2432  0.1328  0.2205
 8370SOL    HW136746   1.648   4.209  11.697  0.1072  0.0611  0.4249
 8370SOL    HW236747   1.654   4.351  11.652 -1.6473 -0.2017 -0.1422
 8371SOL     OW36748   4.508   2.248   2.076 -0.1644 -0.1429 -0.3536
 8371SOL    HW136749   4.428   2.301   2.077 -0.0848  0.0214 -2.2058
 8371SOL    HW236750   4.496   2.193   2.153 -1.1237  1.0878  0.3783
 8372SOL     OW36751   3.868   0.080   5.227 -0.9980 -0.2230  0.3963
 8372SOL    HW136752   3.809   0.148   5.194  0.7914  1.7210  1.2302
 8372SOL    HW236753   3.914   0.047   5.150 -1.1855  2.5775 -0.9514
 8373SOL     OW36754   4.714   0.131   9.654 -0.5950  0.3193  0.6329
 8373SOL    HW136755   0.029   0.160   9.730 -0.9675  2.5473  0.0218
 8373SOL    HW236756   4.706   0.209   9.599  0.9121 -0.0252 -0.0904
 8374SOL     OW36757   4.356   2.094   4.006 -0.3343  0.3908  0.3414
 8374SOL    HW136758   4.368   2.063   4.096 -2.0819 -0.1082  0.3862
 8374SOL    HW236759   4.262   2.090   3.993 -0.4495 -0.7646  1.4753
 8375SOL     OW36760   3.851   4.473  10.713 -0.0681 -0.7370  0.7054
 8375SOL    HW136761   3.880   4.485  10.804  0.5496  1.1636  0.2556
 8375SOL    HW236762   3.779   4.413  10.730 -0.6480  0.0428  1.0145
 8376SOL     OW36763   4.724   1.660   3.523  0.4136 -0.0451 -0.1707
 8376SOL    HW136764   4.709   1.731   3.461  0.2086 -1.7274 -2.0778
 8376SOL    HW236765   4.635   1.637   3.547 -0.1153  1.3392 -0.8485
 8377SOL     OW36766   2.311   0.986   7.847  0.9163  0.1947  0.1479
 8377SOL    HW136767   2.300   0.891   7.843 -4.2192  0.8760 -0.9628
 8377SOL    HW236768   2.304   1.004   7.753  1.7028 -0.2184  0.0035
 8378SOL     OW36769   3.409   4.178  11.007 -0.1898  0.0683  0.0555
 8378SOL    HW136770   3.326   4.180  11.055 -1.3294 -0.5400 -1.9304
 8378SOL    HW236771   3.458   4.124  11.069  0.1903  0.4823  0.1188
 8379SOL     OW36772   2.539   2.066   6.102 -0.2615 -0.1201  0.1334
 8379SOL    HW136773   2.488   2.042   6.025 -0.8528 -0.6241  0.6836
 8379SOL    HW236774   2.477   2.104   6.164 -1.2877 -1.2968 -0.1583
 8380SOL     OW36775   4.716   0.464   6.283  0.4476  0.1104 -0.1952
 8380SOL    HW136776   0.065   0.482   6.323 -0.1984 -0.3939  1.4175
 8380SOL    HW236777   0.017   0.395   6.228 -1.5972 -0.7904 -0.4450
 8381SOL     OW36778   4.736   0.982   4.379  0.2758  0.1390  0.5207
 8381SOL    HW136779   4.655   0.986   4.430  0.4180 -0.3061  0.7752
 8381SOL    HW236780   4.691   0.946   4.302  0.8294 -0.4655  0.4847
 8382SOL     OW36781   4.562   2.975  14.909  0.2765 -0.1878 -0.4027
 8382SOL    HW136782   4.523   2.891  14.883  0.7788 -0.4827 -0.2116
 8382SOL    HW236783   4.484   3.025  14.933  0.0520 -1.6277  1.9501
 8383SOL     OW36784   1.402   4.722   2.524  0.1734  0.6415  0.1255
 8383SOL    HW136785   1.313   4.692   2.544  0.3589 -0.0797 -0.1091
 8383SOL    HW236786   1.414   0.080   2.527  0.4598  0.6225 -0.3223
 8384SOL     OW36787   0.716   4.188   3.840  0.2299  0.5793 -0.7379
 8384SOL    HW136788   0.658   4.191   3.764  0.6424  1.3107 -1.0292
 8384SOL    HW236789   0.646   4.189   3.905  0.4301 -1.1821 -0.4927
 8385SOL     OW36790   3.597   0.009  13.314  0.6871 -0.0686  0.9927
 8385SOL    HW136791   3.590   4.657  13.278  0.4166 -0.6629  2.4932
 8385SOL    HW236792   3.594   0.000  13.409 -2.2330  0.3268  0.9333
 8386SOL     OW36793   4.077   0.063   5.038  0.7113  0.6329  0.7357
 8386SOL    HW136794   4.112   0.130   4.980  1.0348  0.7861  1.1054
 8386SOL    HW236795   4.142   4.729   5.028 -0.0665 -0.2129  1.5162
 8387SOL     OW36796   3.632   2.548  17.271  0.2072  0.0824  0.8401
 8387SOL    HW136797   3.641   2.497  17.352 -1.8710  1.3354  1.8281
 8387SOL    HW236798   3.722   2.557  17.241  0.0082 -1.7621 -0.3166
 8388SOL     OW36799   4.545   0.238   5.325 -0.3051 -0.2511 -0.1228
 8388SOL    HW136800   4.477   0.298   5.354 -2.9107 -2.5118 -1.5417
 8388SOL    HW236801   4.609   0.246   5.395 -1.2034  1.3572  0.5065
 8389SOL     OW36802   1.624   1.881  12.038 -0.1926 -0.4560  0.2034
 8389SOL    HW136803   1.584   1.912  12.119 -0.7868 -0.3155 -0.1397
 8389SOL    HW236804   1.592   1.791  12.044 -0.8232 -0.0874  2.3570
 8390SOL     OW36805   2.539   2.954   4.938 -0.3680 -0.4769 -0.2600
 8390SOL    HW136806   2.599   2.935   5.011 -0.9921 -1.1808  0.0675
 8390SOL    HW236807   2.574   2.887   4.879 -0.1536  0.8207 -1.5936
 8391SOL     OW36808   0.799   4.450  14.426 -0.0013 -0.3647 -0.3462
 8391SOL    HW136809   0.709   4.420  14.417 -0.7250  0.9641  2.2849
 8391SOL    HW236810   0.835   4.410  14.347 -1.6190  0.7347 -1.6237
 8392SOL     OW36811   0.243   0.228  10.418  0.7350 -0.2465 -0.2085
 8392SOL    HW136812   0.279   0.174  10.488 -0.7775  0.4392  1.0892
 8392SOL    HW236813   0.219   0.309  10.463 -0.3461 -1.0017  0.5464
 8393SOL     OW36814   0.746   3.202   0.681 -0.7571 -0.1396  0.2925
 8393SOL    HW136815   0.840   3.215   0.692 -0.1079 -2.0655 -3.0600
 8393SOL    HW236816   0.740   3.107   0.683 -0.5543 -0.1554  0.0394
 8394SOL     OW36817   4.011   1.898  11.287  0.0961  0.4640 -0.1530
 8394SOL    HW136818   4.056   1.814  11.287 -0.0033  0.4056 -1.1010
 8394SOL    HW236819   4.071   1.954  11.336  0.9379 -1.6067  1.1429
 8395SOL     OW36820   1.499   2.172   0.776  0.0620 -0.0355  0.3466
 8395SOL    HW136821   1.488   2.150   0.869  0.9670 -2.5490 -0.1389
 8395SOL    HW236822   1.447   2.251   0.770 -1.7156 -1.4200 -2.3347
 8396SOL     OW36823   1.552   2.232  11.516  0.3726 -0.1166 -0.6443
 8396SOL    HW136824   1.528   2.269  11.431 -0.1691  1.4219  0.1843
 8396SOL    HW236825   1.549   2.144  11.477 -0.4894 -0.7489  0.8294
 8397SOL     OW36826   4.317   3.036   2.628  0.1980 -0.0393  0.0570
 8397SOL    HW136827   4.349   2.946   2.627 -0.7802 -0.3578 -1.2490
 8397SOL    HW236828   4.246   3.040   2.564 -0.4680  0.7891  0.8405
 8398SOL     OW36829   1.366   0.315  13.942 -0.4414  0.1318  0.6461
 8398SOL    HW136830   1.453   0.338  13.975  0.2875 -3.0535  0.8766
 8398SOL    HW236831   1.355   0.237  13.996 -0.4238  0.0934  0.5939
 8399SOL     OW36832   2.642   3.835   3.888  0.1453 -0.1196 -0.4113
 8399SOL    HW136833   2.555   3.829   3.926 -0.1469  0.8660 -0.9291
 8399SOL    HW236834   2.648   3.759   3.831 -1.2633 -0.4979 -0.0379
 8400SOL     OW36835   2.935   1.967  17.652  0.0831  0.5926 -0.5245
 8400SOL    HW136836   2.963   2.006  17.569  1.6221 -0.1186 -0.3490
 8400SOL    HW236837   2.858   1.919  17.622  0.3660 -0.2897  0.1758
 8401SOL     OW36838   3.892   1.061   3.193  0.2677  0.0642 -0.0452
 8401SOL    HW136839   3.963   1.000   3.210 -1.3031 -1.0169  2.5926
 8401SOL    HW236840   3.937   1.146   3.193  1.8060 -0.7508 -1.4540
 8402SOL     OW36841   1.677   3.175  13.709  0.0997  0.3537 -0.5934
 8402SOL    HW136842   1.675   3.205  13.618  0.7887  3.3474  0.3850
 8402SOL    HW236843   1.742   3.107  13.694  0.0569  0.8204 -2.8924
 8403SOL     OW36844   3.945   4.686   3.388  0.7384  0.0153  0.2849
 8403SOL    HW136845   4.001   4.669   3.464 -0.1055  1.1553  1.1621
 8403SOL    HW236846   3.931   0.044   3.382  0.9096 -0.0216 -0.6358
 8404SOL     OW36847   2.086   0.447   7.146  0.2136 -0.5554  0.3399
 8404SOL    HW136848   2.016   0.421   7.085 -0.8719 -1.3795  1.9304
 8404SOL    HW236849   2.111   0.529   7.104 -2.9533 -0.3329 -1.1358
 8405SOL     OW36850   1.039   1.262   0.152 -0.8958  0.2370 -0.3553
 8405SOL    HW136851   0.986   1.202   0.099  0.1604 -0.1860 -0.9197
 8405SOL    HW236852   1.021   1.241   0.244  1.1483 -0.6327 -0.1520
 8406SOL     OW36853   4.597   3.145   1.557  0.3946 -0.5832 -0.1557
 8406SOL    HW136854   4.652   3.100   1.621  1.1474  0.5718  0.0029
 8406SOL    HW236855   4.562   3.217   1.610  2.0478  0.3551 -0.3301
 8407SOL     OW36856   1.628   4.049  11.562 -0.4289  0.7393 -0.7960
 8407SOL    HW136857   1.533   4.042  11.559 -0.5068  0.5117  2.6415
 8407SOL    HW236858   1.659   4.019  11.476 -0.0901 -0.2506 -0.3222
 8408SOL     OW36859   1.236   2.907   7.917 -0.1061  0.1983  0.0156
 8408SOL    HW136860   1.181   2.926   7.993 -1.0534 -1.1307 -0.3410
 8408SOL    HW236861   1.163   2.909   7.855 -0.2059 -0.4332  0.1099
 8409SOL     OW36862   1.453   2.802   5.245 -0.4269 -0.8413 -0.4517
 8409SOL    HW136863   1.414   2.772   5.163  0.6702 -3.0786 -0.1895
 8409SOL    HW236864   1.377   2.846   5.283  0.8673 -1.3613  2.8045
 8410SOL     OW36865   4.416   3.638   7.744 -0.3160  0.4484 -0.6085
 8410SOL    HW136866   4.413   3.731   7.767  1.3370  0.8468 -2.0640
 8410SOL    HW236867   4.386   3.597   7.826 -1.6572 -0.2605 -1.4477
 8411SOL     OW36868   3.659   3.194   3.802  0.4351 -0.4838 -0.1030
 8411SOL    HW136869   3.732   3.254   3.791  1.1716 -1.3571 -0.0332
 8411SOL    HW236870   3.609   3.230   3.875 -0.4490 -1.2310 -0.3446
 8412SOL     OW36871   2.405   2.279   3.751  0.1692 -0.2479 -0.4807
 8412SOL    HW136872   2.461   2.296   3.827  1.2343 -0.8669 -1.1197
 8412SOL    HW236873   2.322   2.303   3.793  0.4743  0.8050 -0.4772
 8413SOL     OW36874   3.727   1.170   0.594 -0.4120 -0.1375  0.6258
 8413SOL    HW136875   3.636   1.169   0.565  0.1526 -1.4048 -1.1132
 8413SOL    HW236876   3.759   1.154   0.505  0.8135  3.1861  0.4871
 8414SOL     OW36877   1.741   4.100   3.075 -0.4870  0.0161  0.9212
 8414SOL    HW136878   1.813   4.155   3.107  0.3498 -0.4750 -0.1080
 8414SOL    HW236879   1.685   4.080   3.150  0.4554  1.6754  2.0574
 8415SOL     OW36880   2.304   4.701  11.180 -0.2110  0.2445  0.2577
 8415SOL    HW136881   2.386   4.716  11.227  0.5958 -2.0880 -0.3712
 8415SOL    HW236882   2.264   4.635  11.236 -0.3991  0.6989  0.6555
 8416SOL     OW36883   1.987   2.781   1.209  0.4272 -0.4503 -0.1797
 8416SOL    HW136884   2.071   2.825   1.194 -0.7996  2.8440  2.6567
 8416SOL    HW236885   1.952   2.826   1.286 -1.4341 -2.2068  0.0024
 8417SOL     OW36886   0.021   1.578   7.504  0.5560 -0.0522 -0.3134
 8417SOL    HW136887   0.070   1.533   7.573 -0.2618 -1.6856 -0.7964
 8417SOL    HW236888   4.695   1.633   7.550  2.3027  1.2355  0.4905
 8418SOL     OW36889   1.594   2.847   7.050  0.3428  0.0416  0.0541
 8418SOL    HW136890   1.634   2.812   6.970 -1.6220 -1.2077 -0.3969
 8418SOL    HW236891   1.500   2.833   7.037  0.0335  0.4929  1.8628
 8419SOL     OW36892   4.045   1.131   4.626 -0.2605 -0.2810  0.2516
 8419SOL    HW136893   3.962   1.112   4.582 -1.6465  1.8830  1.8708
 8419SOL    HW236894   4.011   1.135   4.716  1.7449  0.0947  0.9828
 8420SOL     OW36895   0.705   3.608  16.013 -0.3041 -0.5954 -0.3867
 8420SOL    HW136896   0.756   3.688  16.000 -0.8311 -0.0421  0.9379
 8420SOL    HW236897   0.710   3.569  15.926 -1.4632  1.1612 -1.2421
 8421SOL     OW36898   1.848   4.438   6.417 -0.2868  0.3344 -0.5363
 8421SOL    HW136899   1.803   4.366   6.372 -1.5693  1.4785 -1.0621
 8421SOL    HW236900   1.796   4.516   6.397 -2.1386 -0.5461  0.8498
 8422SOL     OW36901   2.866   3.026   3.255  0.4282  0.1912 -0.2645
 8422SOL    HW136902   2.962   3.021   3.254  0.3966 -0.2175 -1.2211
 8422SOL    HW236903   2.845   3.048   3.165  0.5713  2.2361  0.1904
 8423SOL     OW36904   4.259   4.572  10.308  0.4419  0.4550  0.5289
 8423SOL    HW136905   4.312   4.618  10.373  1.1757 -1.8638  1.5807
 8423SOL    HW236906   4.266   4.634  10.236  1.2330 -1.4721 -1.0607
 8424SOL     OW36907   4.715   0.752   6.558  0.4151 -0.0481 -0.1127
 8424SOL    HW136908   4.723   0.713   6.470  1.3120 -0.2501  0.0632
 8424SOL    HW236909   4.622   0.729   6.566  1.5191 -3.4449  3.0927
 8425SOL     OW36910   4.472   1.070   3.487 -0.2773  0.2025  0.5105
 8425SOL    HW136911   4.492   0.978   3.506  0.9152  0.4264  0.3064
 8425SOL    HW236912   4.376   1.070   3.491 -0.3011 -1.8469  0.1991
 8426SOL     OW36913   1.724   3.581   7.260  0.1058  0.9582 -0.0463
 8426SOL    HW136914   1.798   3.595   7.319 -0.4636  0.1414  0.8734
 8426SOL    HW236915   1.755   3.526   7.189 -0.7071  3.1024 -2.0482
 8427SOL     OW36916   4.407   1.719   2.071 -0.0159 -0.2285  0.0188
 8427SOL    HW136917   4.357   1.694   2.149  0.0594  1.8795  0.7421
 8427SOL    HW236918   4.494   1.722   2.111 -0.0761  0.0238  0.1335
 8428SOL     OW36919   1.691   1.252  13.077  0.3031 -0.2371 -0.2119
 8428SOL    HW136920   1.738   1.169  13.083 -0.1500 -0.7398 -3.9020
 8428SOL    HW236921   1.755   1.322  13.064  0.8170 -0.7766 -0.5205
 8429SOL     OW36922   1.399   0.375   7.618  0.1786  0.4255 -0.0381
 8429SOL    HW136923   1.376   0.340   7.704  0.6661  0.3097  0.0455
 8429SOL    HW236924   1.493   0.394   7.613  0.0389  1.2444  0.3466
 8430SOL     OW36925   1.014   2.595  16.507 -0.5113 -0.1874 -0.3367
 8430SOL    HW136926   0.967   2.659  16.561 -0.8485 -1.5036  0.9118
 8430SOL    HW236927   1.012   2.650  16.429  1.6024 -0.8441 -0.8520
 8431SOL     OW36928   2.528   1.983  11.361 -0.5966  0.1700 -0.3017
 8431SOL    HW136929   2.557   1.905  11.314 -0.6920  0.8723 -1.5187
 8431SOL    HW236930   2.508   1.953  11.449 -1.4241 -1.0672 -0.9167
 8432SOL     OW36931   4.014   4.527   3.912 -0.8260 -0.2905  0.2874
 8432SOL    HW136932   4.050   4.440   3.928  0.3082 -0.4487 -3.0693
 8432SOL    HW236933   3.980   4.556   3.997 -0.5119  1.6879 -0.2406
 8433SOL     OW36934   0.297   3.344   2.703 -0.1799  0.2555 -0.1179
 8433SOL    HW136935   0.324   3.436   2.710 -0.6593  0.3622  0.3414
 8433SOL    HW236936   0.266   3.330   2.792 -0.0895  1.2716  0.0718
 8434SOL     OW36937   2.851   4.253   7.946 -0.1943 -0.0493  0.1870
 8434SOL    HW136938   2.768   4.298   7.962 -0.1796 -0.2041  0.7316
 8434SOL    HW236939   2.826   4.202   7.869  1.9584  2.8775 -2.3956
 8435SOL     OW36940   3.572   3.819   3.059  0.6487 -0.1450 -0.1942
 8435SOL    HW136941   3.613   3.822   2.973 -0.6648  0.3272 -0.7922
 8435SOL    HW236942   3.490   3.777   3.032 -1.2648  2.9676  0.8394
 8436SOL     OW36943   4.163   3.925  11.832  0.4118  0.2707 -0.3102
 8436SOL    HW136944   4.253   3.893  11.839  0.6671  1.0976  0.1936
 8436SOL    HW236945   4.168   4.020  11.843 -0.0443  0.2777 -0.1580
 8437SOL     OW36946   2.779   0.504   4.189  0.0531  0.1029 -1.3951
 8437SOL    HW136947   2.848   0.496   4.124  1.8291  0.3481  0.4637
 8437SOL    HW236948   2.740   0.417   4.195  0.4696  0.1422  2.0973
 8438SOL     OW36949   3.650   2.643   4.860  0.2848 -0.2715  0.7448
 8438SOL    HW136950   3.585   2.583   4.825  2.2467 -1.3796 -0.9855
 8438SOL    HW236951   3.601   2.662   4.940 -1.3261 -0.7518 -0.1462
 8439SOL     OW36952   0.594   0.950   2.194  0.5009  0.5301  0.5310
 8439SOL    HW136953   0.631   1.033   2.223  3.3763 -0.3509 -0.6444
 8439SOL    HW236954   0.522   0.987   2.143 -0.6602  0.2814  1.9744
 8440SOL     OW36955   4.240   0.640   9.347  0.1617  0.2379  0.3436
 8440SOL    HW136956   4.262   0.663   9.437 -0.3608  2.0754 -0.0006
 8440SOL    HW236957   4.207   0.552   9.363  0.0121  0.1051 -0.7029
 8441SOL     OW36958   2.002   2.335   9.719  0.1961 -0.1759  0.1768
 8441SOL    HW136959   2.021   2.373   9.804 -1.0627  2.3614 -0.6917
 8441SOL    HW236960   1.915   2.297   9.734 -0.6873  1.0435 -1.9299
 8442SOL     OW36961   3.540   0.082  15.199 -0.1746 -0.1192 -0.0008
 8442SOL    HW136962   3.605   0.103  15.131  1.4277 -2.7294  0.7148
 8442SOL    HW236963   3.456   0.092  15.153  0.8024  1.8651 -1.3639
 8443SOL     OW36964   4.354   0.472   5.603 -0.5450 -0.3272 -0.1469
 8443SOL    HW136965   4.332   0.433   5.519 -0.0545 -1.5795  0.3024
 8443SOL    HW236966   4.292   0.544   5.604  3.4061  3.1016  0.3644
 8444SOL     OW36967   1.671   0.116  10.556  0.4680  0.2505  0.0802
 8444SOL    HW136968   1.739   0.075  10.501  0.2636  1.5521 -1.1365
 8444SOL    HW236969   1.620   0.159  10.487  0.7977 -2.3896 -1.8483
 8445SOL     OW36970   1.842   2.179   9.222  0.2393 -0.5047  0.6166
 8445SOL    HW136971   1.931   2.143   9.216  0.9241  1.3339 -0.4697
 8445SOL    HW236972   1.861   2.271   9.203 -0.6528 -0.3553  0.4592
 8446SOL     OW36973   1.542   3.567   6.155  0.5352 -0.0955  0.0488
 8446SOL    HW136974   1.486   3.620   6.098 -0.0453 -0.6029  0.1569
 8446SOL    HW236975   1.499   3.485   6.177  1.1806 -0.2049  0.9231
 8447SOL     OW36976   1.574   1.388   9.004  0.1001  0.2943 -0.9239
 8447SOL    HW136977   1.645   1.335   8.965  1.4572  1.7494 -0.4193
 8447SOL    HW236978   1.531   1.317   9.052  1.9104  0.1839  0.5082
 8448SOL     OW36979   1.513   0.417  10.978 -0.2264  0.2129 -0.2472
 8448SOL    HW136980   1.431   0.465  10.989  0.7325  2.0538 -1.1005
 8448SOL    HW236981   1.538   0.441  10.888 -1.8563 -3.5464 -1.6934
 8449SOL     OW36982   2.020   1.277   2.177  0.0339  0.4595  0.1260
 8449SOL    HW136983   2.010   1.221   2.100 -0.1487  1.0012 -0.2424
 8449SOL    HW236984   2.112   1.274   2.203 -0.1596 -1.7827  0.5433
 8450SOL     OW36985   2.100   4.178   4.423  0.4156 -0.7461 -0.3607
 8450SOL    HW136986   2.092   4.145   4.334 -1.8538  0.6736 -0.6681
 8450SOL    HW236987   2.183   4.225   4.418  0.6370 -1.1038 -0.0950
 8451SOL     OW36988   1.252   3.394   4.952 -0.5114  0.0905 -0.5778
 8451SOL    HW136989   1.336   3.353   4.972  0.6786  2.6082 -0.3313
 8451SOL    HW236990   1.233   3.345   4.872  2.8532 -1.6237 -0.3380
 8452SOL     OW36991   2.473   0.926   5.673 -0.7276  0.0481 -0.9661
 8452SOL    HW136992   2.383   0.901   5.654 -0.7514  0.0159 -0.8150
 8452SOL    HW236993   2.514   0.840   5.684  0.8160  0.7579 -1.1996
 8453SOL     OW36994   1.384   2.539   0.984 -0.4181 -0.4774 -0.3334
 8453SOL    HW136995   1.408   2.516   0.895  1.0975 -1.0242  0.2059
 8453SOL    HW236996   1.296   2.574   0.970 -1.3111 -2.3527  0.5800
 8454SOL     OW36997   2.988   0.426   8.151  0.4643 -0.0654 -0.1891
 8454SOL    HW136998   3.018   0.506   8.194 -0.6070 -0.4886  1.3758
 8454SOL    HW236999   3.061   0.364   8.157  0.1402 -0.3835  0.5194
 8455SOL     OW37000   1.372   2.123   3.863 -0.2312  0.2219  0.0254
 8455SOL    HW137001   1.356   2.036   3.828  0.7471 -0.3766  1.0702
 8455SOL    HW237002   1.386   2.103   3.956  3.8424  0.9894 -0.4278
 8456SOL     OW37003   1.474   0.309   9.182 -0.0560 -0.6560  0.4646
 8456SOL    HW137004   1.431   0.393   9.173  2.7892  1.0238  2.3133
 8456SOL    HW237005   1.399   0.257   9.153 -1.0487  0.3802  1.1610
 8457SOL     OW37006   1.639   0.240   1.514 -0.3149  0.3912  0.2819
 8457SOL    HW137007   1.659   0.166   1.457 -1.3168  0.3384 -0.0024
 8457SOL    HW237008   1.720   0.232   1.564 -0.3027  0.1785  0.2280
 8458SOL     OW37009   2.756   1.263   7.252 -0.3203 -0.2446  0.0255
 8458SOL    HW137010   2.728   1.292   7.165 -1.9370 -0.5677  0.4408
 8458SOL    HW237011   2.832   1.208   7.233  1.2321  0.6782  3.5160
 8459SOL     OW37012   1.369   1.726  10.764  0.2507 -0.0666 -0.6025
 8459SOL    HW137013   1.293   1.719  10.822  0.4507 -1.9938 -0.5720
 8459SOL    HW237014   1.385   1.634  10.742 -0.4412 -0.1024 -0.9455
 8460SOL     OW37015   1.671   1.411  17.282 -0.1090  0.2695  0.3013
 8460SOL    HW137016   1.609   1.480  17.302 -0.4472  0.2996 -0.8385
 8460SOL    HW237017   1.752   1.447  17.319 -0.3678  0.2297  0.9081
 8461SOL     OW37018   0.376   2.245  10.054  0.4266  0.1162 -0.1954
 8461SOL    HW137019   0.404   2.244  10.146  3.9726 -0.6217 -1.2886
 8461SOL    HW237020   0.347   2.156  10.035 -0.5697  0.3924  0.0462
 8462SOL     OW37021   1.048   2.963   9.247  0.0303 -0.2072  0.4704
 8462SOL    HW137022   1.116   3.013   9.201  0.0895 -0.1664  0.6028
 8462SOL    HW237023   1.099   2.883   9.252  2.4890  1.5687  3.4612
 8463SOL     OW37024   3.500   1.455   7.161 -0.4301  0.2771  0.0439
 8463SOL    HW137025   3.577   1.452   7.104  0.2117 -0.5129  0.9422
 8463SOL    HW237026   3.519   1.403   7.239  1.2108 -0.8671 -1.1314
 8464SOL     OW37027   0.731   2.078   7.793  0.1140  0.1596 -0.1633
 8464SOL    HW137028   0.709   1.988   7.771 -1.1259  0.5285 -0.3837
 8464SOL    HW237029   0.645   2.118   7.805  0.1567  0.4348 -0.8262
 8465SOL     OW37030   2.913   1.024   4.451  0.9833 -0.2039  0.4997
 8465SOL    HW137031   2.909   0.980   4.367 -1.0101 -0.5192  0.7704
 8465SOL    HW237032   2.824   1.050   4.475  0.5692 -1.5574  0.4497
 8466SOL     OW37033   1.546   2.561   8.490  0.3149  0.2113  0.0817
 8466SOL    HW137034   1.486   2.519   8.551 -1.2406  1.6628 -0.4703
 8466SOL    HW237035   1.490   2.599   8.423 -0.2270 -0.5444  0.1047
 8467SOL     OW37036   0.944   3.016   1.774 -0.5476 -0.0839  0.3830
 8467SOL    HW137037   0.988   2.939   1.737  0.3005  0.3735  0.4516
 8467SOL    HW237038   0.874   3.028   1.709  0.2157  0.1119 -0.4140
 8468SOL     OW37039   1.518   0.725   4.977 -0.0342  0.0176  0.4352
 8468SOL    HW137040   1.441   0.782   4.978  0.5232  0.7842 -1.2332
 8468SOL    HW237041   1.570   0.757   4.904 -0.3056 -0.1640  0.1613
 8469SOL     OW37042   0.741   2.220   4.279  0.2676  0.0454 -0.1652
 8469SOL    HW137043   0.675   2.265   4.228 -1.5925  1.1375  3.1784
 8469SOL    HW237044   0.817   2.247   4.229  2.0374 -2.3867  1.1546
 8470SOL     OW37045   2.109   3.285   0.336  0.1136 -0.3916  0.2197
 8470SOL    HW137046   2.041   3.296   0.403  0.9073 -0.3795  1.0250
 8470SOL    HW237047   2.167   3.349   0.378 -3.7667  3.4830 -0.3029
 8471SOL     OW37048   2.134   4.614   2.436  0.4114  0.5030  0.7344
 8471SOL    HW137049   2.063   4.650   2.384  1.4126  2.7043  0.8806
 8471SOL    HW237050   2.203   4.670   2.400  1.7764 -3.1473 -2.3234
 8472SOL     OW37051   0.634   4.480   5.727  0.2798  0.0017 -0.2754
 8472SOL    HW137052   0.575   4.404   5.722 -0.3425  0.4666  0.1006
 8472SOL    HW237053   0.716   4.434   5.707 -0.3910 -1.1785 -0.2987
 8473SOL     OW37054   3.483   4.205   0.802  0.0526 -0.4556 -0.1005
 8473SOL    HW137055   3.486   4.150   0.724 -1.5530  0.3612 -0.7623
 8473SOL    HW237056   3.554   4.268   0.787 -1.6663  1.7024  0.7996
 8474SOL     OW37057   2.399   3.830  14.995  0.4105  0.3639  0.2650
 8474SOL    HW137058   2.486   3.789  15.004  0.4233  0.2382 -0.4789
 8474SOL    HW237059   2.354   3.745  14.992  2.9613 -1.0383  1.1473
 8475SOL     OW37060   2.067   1.857   5.723  0.0889 -0.4281  0.2083
 8475SOL    HW137061   2.025   1.858   5.809  1.8819  0.7234  1.0755
 8475SOL    HW237062   2.099   1.946   5.713 -1.7655  0.1304 -0.7662
 8476SOL     OW37063   3.816   2.334  10.430  0.5581  0.2448  0.3637
 8476SOL    HW137064   3.721   2.334  10.445  0.2416  2.0094 -1.5111
 8476SOL    HW237065   3.848   2.302  10.514 -0.0866 -2.0097 -0.2585
 8477SOL     OW37066   2.541   2.700   9.474  0.2414  0.2026 -0.5230
 8477SOL    HW137067   2.619   2.753   9.489  0.6508 -0.6202  0.2895
 8477SOL    HW237068   2.487   2.730   9.547  1.5661  0.4730  0.3417
 8478SOL     OW37069   2.871   3.693  14.714 -0.2125  0.3257 -0.5764
 8478SOL    HW137070   2.950   3.656  14.674 -0.0947  0.6975 -0.6929
 8478SOL    HW237071   2.845   3.761  14.652  1.9937  0.2742 -1.5644
 8479SOL     OW37072   0.052   0.767  10.411 -0.8158 -0.3640  0.5183
 8479SOL    HW137073   0.055   0.838  10.475  0.2060 -0.5266  0.6560
 8479SOL    HW237074   4.697   0.740  10.421 -1.5560  2.5353  1.6030
 8480SOL     OW37075   4.439   0.322  14.917  0.2688  0.0452  0.3999
 8480SOL    HW137076   4.508   0.380  14.886 -1.4882  2.8051  1.6795
 8480SOL    HW237077   4.364   0.380  14.905 -0.2657 -0.2101  2.4018
 8481SOL     OW37078   0.010   4.363   6.180 -0.0221  0.1428 -0.7208
 8481SOL    HW137079   4.711   4.306   6.112  0.0343  1.1033 -1.5515
 8481SOL    HW237080   0.066   4.414   6.122  2.1954 -0.8888  0.5206
 8482SOL     OW37081   2.883   3.788   8.937 -0.5821  0.1350 -0.3895
 8482SOL    HW137082   2.974   3.764   8.956  0.6013  4.0189 -1.1454
 8482SOL    HW237083   2.839   3.787   9.023  1.3319  0.4274  0.5899
 8483SOL     OW37084   4.397   3.799   5.507 -1.1037  0.5524 -0.5103
 8483SOL    HW137085   4.491   3.782   5.496 -1.6885 -1.3512 -2.5495
 8483SOL    HW237086   4.369   3.790   5.416 -0.1503 -0.9826 -0.6378
 8484SOL     OW37087   2.836   2.115   4.349 -0.7619 -0.3068  0.0651
 8484SOL    HW137088   2.922   2.145   4.378 -0.6230 -0.3673 -0.2791
 8484SOL    HW237089   2.845   2.028   4.387  0.7433  0.0834  0.5895
 8485SOL     OW37090   1.472   2.067   5.076 -0.0073 -0.2746 -0.4458
 8485SOL    HW137091   1.413   1.993   5.063  0.1465 -0.3117 -0.9552
 8485SOL    HW237092   1.433   2.113   5.149 -0.6730 -0.7959 -0.4712
 8486SOL     OW37093   3.424   1.858   4.897 -0.7480 -0.2397  0.2694
 8486SOL    HW137094   3.359   1.790   4.916  1.3352 -1.7669  1.8644
 8486SOL    HW237095   3.424   1.908   4.979  0.3445  1.6338 -0.8903
 8487SOL     OW37096   3.057   1.227  15.323  0.2228 -0.1631 -0.6260
 8487SOL    HW137097   3.081   1.168  15.395  1.6475  0.6976 -0.3820
 8487SOL    HW237098   2.974   1.190  15.294 -0.0209 -0.5282  0.5274
 8488SOL     OW37099   0.414   1.897  10.665  0.0914 -0.4734 -0.0492
 8488SOL    HW137100   0.489   1.954  10.650  0.1675 -0.5468  0.0537
 8488SOL    HW237101   0.345   1.938  10.613  0.8166 -0.8493 -1.2936
 8489SOL     OW37102   0.399   3.435  15.901 -0.4667 -0.3092  0.2202
 8489SOL    HW137103   0.370   3.452  15.990  0.7797 -1.3322  0.8238
 8489SOL    HW237104   0.467   3.370  15.920 -1.5468 -2.0636 -1.9216
 8490SOL     OW37105   2.131   2.481   8.406  0.2318 -0.6836 -0.1763
 8490SOL    HW137106   2.068   2.554   8.403  1.0081  0.0254  1.2027
 8490SOL    HW237107   2.076   2.410   8.439 -3.4535  2.2649  0.1458
 8491SOL     OW37108   2.755   1.316   4.422 -0.0627 -0.6300  0.4849
 8491SOL    HW137109   2.673   1.365   4.430 -0.4253 -1.0474 -0.5873
 8491SOL    HW237110   2.738   1.231   4.463  0.0239 -0.8606  0.0479
 8492SOL     OW37111   0.713   1.995  10.270 -0.3388 -0.1429 -0.1061
 8492SOL    HW137112   0.618   1.984  10.273 -0.3183 -0.1658  0.4605
 8492SOL    HW237113   0.726   2.089  10.285  0.3861 -0.1064 -1.0019
 8493SOL     OW37114   1.206   4.467   1.931  0.1134 -0.7562 -0.4038
 8493SOL    HW137115   1.135   4.404   1.917 -1.0307  0.4303  0.0480
 8493SOL    HW237116   1.278   4.413   1.900  0.1147  0.4490 -2.5463
 8494SOL     OW37117   4.065   0.281   2.272 -0.3455  0.8775  0.1670
 8494SOL    HW137118   4.095   0.233   2.195  0.2207  0.1959  0.8097
 8494SOL    HW237119   4.145   0.283   2.324 -0.0231 -0.7295 -0.2848
 8495SOL     OW37120   0.431   2.863   4.881  0.2763  0.3762 -0.0717
 8495SOL    HW137121   0.358   2.895   4.935  1.2065  0.4971  1.1275
 8495SOL    HW237122   0.384   2.807   4.819 -1.0377  1.1563  0.2086
 8496SOL     OW37123   4.470   1.676   3.646  0.2019  0.4708 -0.4254
 8496SOL    HW137124   4.468   1.760   3.692 -0.5881  0.7903 -1.0337
 8496SOL    HW237125   4.482   1.611   3.715 -1.5058 -0.3278 -0.8891
 8497SOL     OW37126   1.398   4.594   8.213 -0.1412  0.4767  0.6867
 8497SOL    HW137127   1.408   4.653   8.288  1.4448 -3.0493  3.2679
 8497SOL    HW237128   1.325   4.626   8.161  0.1249 -1.7997 -1.0835
 8498SOL     OW37129   0.144   1.618   2.710  0.7613  0.4528 -0.5990
 8498SOL    HW137130   0.113   1.624   2.801 -0.0713  0.7837 -0.9089
 8498SOL    HW237131   0.206   1.545   2.716  1.9380  1.4705 -0.2623
 8499SOL     OW37132   4.323   2.725   3.863 -0.4227 -0.1159  0.3568
 8499SOL    HW137133   4.401   2.702   3.812  0.0342  1.5776  0.2701
 8499SOL    HW237134   4.333   2.820   3.861 -1.1851 -0.0237  0.7814
 8500SOL     OW37135   1.487   2.506   6.819  0.4738 -0.2800  0.2073
 8500SOL    HW137136   1.398   2.499   6.854 -0.1689  0.7713 -1.2329
 8500SOL    HW237137   1.527   2.505   6.906 -1.7333  0.8174  1.2217
 8501SOL     OW37138   2.258   2.299  15.224  0.3388 -0.1979  0.8185
 8501SOL    HW137139   2.231   2.255  15.143  1.8629 -0.0799  0.2520
 8501SOL    HW237140   2.354   2.292  15.230  0.4658  0.3997 -0.4462
 8502SOL     OW37141   2.774   0.162   1.980  0.1699  0.1817 -0.5600
 8502SOL    HW137142   2.721   0.093   1.941  1.3344 -0.0032 -1.8075
 8502SOL    HW237143   2.826   0.122   2.051  1.0399  1.8075 -0.2819
 8503SOL     OW37144   3.094   1.232   3.324  0.4167 -0.0750  0.2146
 8503SOL    HW137145   3.131   1.169   3.262 -1.5212 -1.5322  0.5275
 8503SOL    HW237146   3.151   1.214   3.399 -0.9294  0.4336  1.3547
 8504SOL     OW37147   3.984   1.394   7.940  0.1346  0.1770  0.2596
 8504SOL    HW137148   3.981   1.362   8.030 -2.1244 -0.1371  0.0810
 8504SOL    HW237149   3.924   1.468   7.950  2.0144  1.9938 -1.9304
 8505SOL     OW37150   0.625   3.911   4.975  0.1307 -0.0065  0.2009
 8505SOL    HW137151   0.697   3.975   4.979 -1.0311  1.3275 -0.1169
 8505SOL    HW237152   0.549   3.964   4.999 -0.3103 -1.0744  1.1308
 8506SOL     OW37153   3.003   0.855   7.814  0.8142  0.1073  0.0806
 8506SOL    HW137154   2.984   0.948   7.825  1.2130  0.0150  1.5915
 8506SOL    HW237155   3.052   0.853   7.732  0.1072 -1.4104 -0.3046
 8507SOL     OW37156   1.508   3.276   6.170 -0.2615  0.0830 -0.5657
 8507SOL    HW137157   1.575   3.278   6.238  1.2999 -1.6736 -2.0647
 8507SOL    HW237158   1.557   3.240   6.096 -1.2967 -0.3962 -1.0203
 8508SOL     OW37159   1.486   0.984   6.515  0.0019  0.4263  0.0306
 8508SOL    HW137160   1.550   0.944   6.572 -0.0057  0.3550 -0.0116
 8508SOL    HW237161   1.508   1.078   6.515  1.3651  0.1098 -0.6477
 8509SOL     OW37162   1.560   3.081   9.019  0.3287 -0.5065  1.0061
 8509SOL    HW137163   1.485   3.041   9.063 -0.3965  1.8210  1.8499
 8509SOL    HW237164   1.636   3.052   9.071  0.9771 -1.5127 -0.4714
 8510SOL     OW37165   1.822   2.871   1.036 -0.5136 -0.1712 -0.3070
 8510SOL    HW137166   1.868   2.823   1.105 -0.4509  0.0590 -0.1898
 8510SOL    HW237167   1.808   2.805   0.969 -0.7854 -0.5615  0.1355
 8511SOL     OW37168   4.191   1.169  14.168 -0.4595  0.3873 -0.8262
 8511SOL    HW137169   4.222   1.186  14.079  0.5100  2.1365 -0.1484
 8511SOL    HW237170   4.109   1.216  14.178  0.0147  0.6789  1.7961
 8512SOL     OW37171   2.694   3.937   7.927 -0.4188 -0.3430  0.5464
 8512SOL    HW137172   2.741   3.986   7.861 -0.1247  1.0623  1.7990
 8512SOL    HW237173   2.695   3.853   7.880  0.9858  0.3592 -0.6521
 8513SOL     OW37174   1.497   4.635   1.904 -0.2970 -0.3098  0.0442
 8513SOL    HW137175   1.402   4.638   1.921 -0.3751 -0.2661 -0.4196
 8513SOL    HW237176   1.515   4.726   1.926 -0.1345 -0.5978  1.1306
 8514SOL     OW37177   3.126   2.048   4.050 -0.1474  0.3611  0.2395
 8514SOL    HW137178   3.068   1.995   4.104  2.1925 -1.1989  1.2167
 8514SOL    HW237179   3.067   2.108   4.003 -0.6095 -1.0331 -0.9619
 8515SOL     OW37180   1.906   4.291   5.643 -0.6594 -0.0564 -0.1737
 8515SOL    HW137181   1.917   4.383   5.620  1.4827 -0.6199 -1.3953
 8515SOL    HW237182   1.854   4.262   5.569 -0.5183  1.6370 -0.9234
 8516SOL     OW37183   0.140   3.198   3.149  0.3686  0.4690  0.3537
 8516SOL    HW137184   0.096   3.169   3.228  2.3102 -2.7637  0.2733
 8516SOL    HW237185   0.233   3.179   3.166 -0.4257 -2.7693  1.1407
 8517SOL     OW37186   0.200   4.300   9.925  0.1834  0.4628 -0.5318
 8517SOL    HW137187   0.157   4.284  10.009 -1.6287 -1.1592 -1.7314
 8517SOL    HW237188   0.264   4.229   9.933 -0.6741 -0.2699 -0.1360
 8518SOL     OW37189   1.761   0.906   7.889 -0.0112  0.0656  0.4326
 8518SOL    HW137190   1.671   0.889   7.862  0.7067 -1.5192 -1.0186
 8518SOL    HW237191   1.757   0.963   7.965  0.2495 -0.4399  0.8250
 8519SOL     OW37192   1.134   3.244  12.065 -0.5970  0.4532  0.1406
 8519SOL    HW137193   1.178   3.328  12.050 -1.6798  0.7584 -1.3642
 8519SOL    HW237194   1.059   3.247  12.005  0.4579  1.5553 -1.1220
 8520SOL     OW37195   3.956   0.593   9.672  0.0406  0.2737  0.3061
 8520SOL    HW137196   4.040   0.569   9.710  0.2547  1.1288  0.3593
 8520SOL    HW237197   3.948   0.532   9.598  0.2607  1.1451 -0.4344
 8521SOL     OW37198   4.734   2.808  13.379  0.0093  0.7360 -0.6578
 8521SOL    HW137199   0.060   2.749  13.336  0.2067 -0.8793  1.7909
 8521SOL    HW237200   0.039   2.816  13.465 -0.8085  0.9828 -0.2871
 8522SOL     OW37201   4.319   4.046   5.630  0.3303 -0.6703 -0.0116
 8522SOL    HW137202   4.379   3.974   5.610 -1.6568 -2.0081 -1.0455
 8522SOL    HW237203   4.230   4.015   5.617  0.4349 -1.4010  0.9887
 8523SOL     OW37204   1.034   4.721  14.448  0.2443  0.7265 -0.3672
 8523SOL    HW137205   0.956   4.667  14.441  1.3045 -0.7055 -1.0961
 8523SOL    HW237206   1.094   4.653  14.419 -2.9081 -1.0432 -2.6454
 8524SOL     OW37207   0.696   2.907  10.960 -0.5338 -0.8105 -0.0056
 8524SOL    HW137208   0.761   2.838  10.947 -2.4652 -2.7479  0.6928
 8524SOL    HW237209   0.641   2.877  11.032  0.5333  0.8218  1.4801
 8525SOL     OW37210   4.062   3.800   2.819 -0.0432 -0.2066  0.5041
 8525SOL    HW137211   4.013   3.873   2.780  0.8341  0.3836  0.5328
 8525SOL    HW237212   4.102   3.855   2.886 -2.3162  0.0365  1.6676
 8526SOL     OW37213   2.745   4.405   4.954 -0.0580  0.0479 -0.1399
 8526SOL    HW137214   2.826   4.456   4.962  0.8549 -1.6312  1.3543
 8526SOL    HW237215   2.695   4.424   5.034  0.3758  2.0518 -0.3350
 8527SOL     OW37216   0.006   2.512   6.533  0.3188  0.2854 -0.3690
 8527SOL    HW137217   4.688   2.588   6.512 -1.4607 -0.4008  1.7576
 8527SOL    HW237218   4.722   2.503   6.626  1.2466 -1.9839 -0.4025
 8528SOL     OW37219   0.641   0.270   2.759  0.1666  0.0396 -0.9017
 8528SOL    HW137220   0.602   0.349   2.723 -0.5850 -0.7879 -1.9248
 8528SOL    HW237221   0.567   0.210   2.769  0.3147 -0.2512 -1.5793
 8529SOL     OW37222   0.475   3.566   2.667  0.4733 -0.1895  0.3977
 8529SOL    HW137223   0.464   3.637   2.603  1.9707 -2.0639 -1.9778
 8529SOL    HW237224   0.549   3.516   2.632  1.8586  1.8465  0.3688
 8530SOL     OW37225   3.196   4.046   1.676  0.1321  0.2539  0.2502
 8530SOL    HW137226   3.113   4.057   1.631 -0.4533  1.9226  1.7281
 8530SOL    HW237227   3.213   3.952   1.670 -1.6562 -0.1593  1.9318
 8531SOL     OW37228   1.303   3.395  17.588  0.2318  0.1321  0.0201
 8531SOL    HW137229   1.241   3.415  17.658 -1.1360  1.2723 -1.5034
 8531SOL    HW237230   1.371   3.346  17.634 -0.8980 -0.6255  0.8890
 8532SOL     OW37231   1.592   2.336   5.828 -0.4594 -0.0354 -0.4579
 8532SOL    HW137232   1.597   2.334   5.733  1.8922 -0.0955 -0.3131
 8532SOL    HW237233   1.625   2.423   5.852 -0.4915  0.2630 -1.5252
 8533SOL     OW37234   3.182   4.343  11.134 -0.0101 -0.6129  0.5099
 8533SOL    HW137235   3.233   4.422  11.156  2.4797 -1.9019 -0.6174
 8533SOL    HW237236   3.103   4.381  11.095 -0.5093 -1.2258  0.9407
 8534SOL     OW37237   4.010   2.691   6.192  0.8087 -0.3587 -1.2900
 8534SOL    HW137238   3.987   2.689   6.285  0.1085  0.2082 -1.4424
 8534SOL    HW237239   3.932   2.691   6.136  0.8172 -1.0721 -1.3053
 8535SOL     OW37240   0.522   4.594   5.468 -0.5208  0.6966  0.0706
 8535SOL    HW137241   0.470   4.671   5.493 -3.4222 -0.9878 -0.7513
 8535SOL    HW237242   0.550   4.555   5.550 -2.6929 -1.1714 -0.0549
 8536SOL     OW37243   1.568   1.815  12.798  0.1329 -0.3069 -0.0692
 8536SOL    HW137244   1.558   1.910  12.805  1.1060 -0.2205  0.0200
 8536SOL    HW237245   1.584   1.801  12.705  3.5689  1.7021  0.2429
 8537SOL     OW37246   2.165   0.677   0.782  0.3054  0.1057 -0.3165
 8537SOL    HW137247   2.239   0.660   0.841 -0.9073 -1.0384  0.8815
 8537SOL    HW237248   2.215   0.717   0.711 -0.6237 -2.6832 -2.5544
 8538SOL     OW37249   0.225   3.433   4.434 -0.3916 -0.1586  0.2170
 8538SOL    HW137250   0.204   3.525   4.420  0.1154 -0.1223 -0.3113
 8538SOL    HW237251   0.285   3.424   4.508 -1.1874 -0.2561  0.8543
 8539SOL     OW37252   2.005   0.247  12.762 -0.0782  0.3854 -0.3245
 8539SOL    HW137253   2.022   0.174  12.821  0.4989 -0.0285 -1.0002
 8539SOL    HW237254   2.031   0.208  12.678 -1.2780  2.1025 -1.5033
 8540SOL     OW37255   2.446   3.757  14.310  0.0580  0.3662 -0.0736
 8540SOL    HW137256   2.464   3.672  14.269 -2.0427  0.6380 -1.5216
 8540SOL    HW237257   2.384   3.737  14.380  0.1581  1.8569  0.4194
 8541SOL     OW37258   4.539   2.097   5.757 -0.2052 -0.3831 -0.3758
 8541SOL    HW137259   4.575   2.169   5.705 -0.7791  0.0953 -0.1180
 8541SOL    HW237260   4.606   2.082   5.824 -0.3733  0.9612  0.0943
 8542SOL     OW37261   3.859   3.519  13.998 -0.1171 -0.1902 -0.0255
 8542SOL    HW137262   3.906   3.478  13.925 -1.2353  1.7229 -1.8242
 8542SOL    HW237263   3.766   3.514  13.973  0.1851 -3.3711 -0.5203
 8543SOL     OW37264   1.031   4.689   2.058 -0.1491 -0.2551  0.0490
 8543SOL    HW137265   1.070   4.620   2.003 -0.0225  0.8618 -1.2637
 8543SOL    HW237266   1.116   4.717   2.092  0.9347 -1.7731 -1.4030
 8544SOL     OW37267   2.729   4.410   1.723 -0.0727 -0.5878  0.1351
 8544SOL    HW137268   2.669   4.336   1.729 -1.2935  0.3904  0.1180
 8544SOL    HW237269   2.797   4.392   1.788  0.4484 -0.3499 -0.3452
 8545SOL     OW37270   0.077   1.267   9.723  0.3219  0.1204  0.3647
 8545SOL    HW137271   0.039   1.307   9.644 -1.7954 -2.9536 -0.1538
 8545SOL    HW237272   0.127   1.200   9.677 -0.8501  0.5542 -1.5286
 8546SOL     OW37273   2.823   2.303   7.434 -0.0402  0.4667 -0.4117
 8546SOL    HW137274   2.743   2.356   7.427  0.1161  0.5234 -1.6802
 8546SOL    HW237275   2.855   2.307   7.344 -0.3172  1.4922 -0.4707
 8547SOL     OW37276   2.347   3.798   3.457  0.0817 -0.5754 -0.4115
 8547SOL    HW137277   2.333   3.887   3.489 -1.0360 -0.4919 -1.1446
 8547SOL    HW237278   2.267   3.755   3.486  0.2110  0.5013  1.4994
 8548SOL     OW37279   3.282   2.360   2.241  0.7340 -0.6659 -0.2958
 8548SOL    HW137280   3.352   2.296   2.234 -0.3756 -1.7907 -1.1644
 8548SOL    HW237281   3.205   2.318   2.280  1.8932 -0.6587  1.9538
 8549SOL     OW37282   0.866   4.732  10.212 -0.3988  0.2097 -0.7656
 8549SOL    HW137283   0.815   0.066  10.171  0.7866  1.2287 -0.4946
 8549SOL    HW237284   0.941   4.721  10.154 -0.0826  0.3158 -0.3699
 8550SOL     OW37285   1.532   1.733   3.430 -0.1674 -0.0853 -0.1458
 8550SOL    HW137286   1.522   1.655   3.485 -1.2369  1.1393  1.3874
 8550SOL    HW237287   1.499   1.798   3.492  0.0400  0.1376 -0.2724
 8551SOL     OW37288   2.885   0.855   0.179  0.2682  0.3014 -0.2864
 8551SOL    HW137289   2.904   0.775   0.228  0.4764  0.5189 -0.0074
 8551SOL    HW237290   2.810   0.826   0.128  0.4551 -0.9090  0.1303
 8552SOL     OW37291   1.707   2.785   9.785 -0.1832  0.4306  0.0552
 8552SOL    HW137292   1.728   2.877   9.799 -1.6778  0.5231  1.7740
 8552SOL    HW237293   1.711   2.750   9.874  0.7130 -1.8116 -0.8593
 8553SOL     OW37294   1.235   3.353   5.321  0.1112 -0.4796 -0.3518
 8553SOL    HW137295   1.311   3.301   5.297  0.9267  1.2572 -1.5463
 8553SOL    HW237296   1.164   3.304   5.278 -0.2984 -2.8289  3.0363
 8554SOL     OW37297   3.417   0.734  16.677  0.2815 -0.3666 -0.0001
 8554SOL    HW137298   3.350   0.683  16.723 -0.1445  0.0961 -0.1027
 8554SOL    HW237299   3.489   0.673  16.665 -1.4477 -2.8296  2.0142
 8555SOL     OW37300   2.028   0.692   9.564 -0.0236 -0.0405  0.2500
 8555SOL    HW137301   1.973   0.768   9.583  1.6289  1.0489  0.6350
 8555SOL    HW237302   2.019   0.645   9.647 -0.7572  1.7980  1.2144
 8556SOL     OW37303   0.006   2.929   9.508  0.1831  0.0635 -0.1315
 8556SOL    HW137304   0.060   2.876   9.450  1.0700 -0.2004  0.9397
 8556SOL    HW237305   0.069   2.970   9.567 -0.8288  0.5041  0.6326
 8557SOL     OW37306   3.175   0.325   0.581 -0.8383 -0.4551 -0.0168
 8557SOL    HW137307   3.190   0.405   0.531  0.6482 -0.4406  0.4658
 8557SOL    HW237308   3.218   0.361   0.658 -1.9337 -0.2608  0.5061
 8558SOL     OW37309   3.252   1.718   7.867 -0.1877 -1.1414 -0.3240
 8558SOL    HW137310   3.319   1.752   7.807 -0.6509  2.5043  1.2272
 8558SOL    HW237311   3.179   1.708   7.805 -0.5531 -0.8435  0.0588
 8559SOL     OW37312   2.665   0.759   4.112  0.1945 -0.7983 -0.2503
 8559SOL    HW137313   2.572   0.740   4.104 -0.6425  3.4704 -0.3295
 8559SOL    HW237314   2.693   0.672   4.141  0.5134 -0.5165  0.2890
 8560SOL     OW37315   1.600   0.691  11.535 -0.0117 -0.1834 -0.4982
 8560SOL    HW137316   1.505   0.694  11.535  0.0440  1.2849  1.0486
 8560SOL    HW237317   1.622   0.614  11.587  0.7213  0.1588 -0.2954
 8561SOL     OW37318   3.925   3.771  12.987  0.0089  0.3281  0.3058
 8561SOL    HW137319   3.885   3.825  12.919  0.7513 -0.3867 -0.7080
 8561SOL    HW237320   3.974   3.715  12.927  0.0777 -0.0266  0.6918
 8562SOL     OW37321   3.951   3.532   6.782 -0.5077 -0.1270 -0.0893
 8562SOL    HW137322   3.954   3.592   6.707 -0.7274  1.4854  1.1913
 8562SOL    HW237323   4.036   3.547   6.822 -1.0105  1.7894  0.2626
 8563SOL     OW37324   4.055   0.808   2.896 -0.2000  0.2010  0.0401
 8563SOL    HW137325   3.966   0.772   2.901  0.3681 -1.2117  0.0838
 8563SOL    HW237326   4.091   0.746   2.833 -2.7878 -2.0097  0.7198
 8564SOL     OW37327   2.462   3.098  12.542 -0.4227 -0.1274  0.6623
 8564SOL    HW137328   2.465   3.025  12.604 -3.2501 -0.6472  0.2081
 8564SOL    HW237329   2.511   3.169  12.583  0.2737  1.1198 -2.3273
 8565SOL     OW37330   0.995   1.529   8.851  0.3315 -0.0945  0.0158
 8565SOL    HW137331   0.901   1.523   8.832 -0.0273  4.6304  0.4258
 8565SOL    HW237332   1.023   1.597   8.790 -1.5747  0.3928 -0.3318
 8566SOL     OW37333   0.868   0.085   6.976  0.5827  0.1406  0.6003
 8566SOL    HW137334   0.932   0.029   6.933  0.3946 -1.5663  2.5572
 8566SOL    HW237335   0.791   0.046   6.936  0.7278  1.8515 -1.3647
 8567SOL     OW37336   0.317   0.330   4.408  0.1455 -0.2957  0.0617
 8567SOL    HW137337   0.314   0.294   4.496 -1.8364  1.2525  0.6168
 8567SOL    HW237338   0.308   0.248   4.359 -1.3174  0.4672 -0.9415
 8568SOL     OW37339   1.699   0.108   0.886 -0.0732 -0.4229  0.8222
 8568SOL    HW137340   1.624   0.167   0.885  0.4022  0.1591 -0.3045
 8568SOL    HW237341   1.720   0.119   0.793 -1.9916 -1.3543  0.2644
 8569SOL     OW37342   3.427   1.737   2.827 -0.2560  0.2180  0.0567
 8569SOL    HW137343   3.461   1.752   2.739  2.1479  0.3334  1.0061
 8569SOL    HW237344   3.372   1.661   2.813 -1.0812  0.9014 -0.4084
 8570SOL     OW37345   0.617   1.131   3.304  0.6778  0.1741 -0.8647
 8570SOL    HW137346   0.700   1.084   3.309 -0.0906 -1.4257 -2.9252
 8570SOL    HW237347   0.559   1.066   3.342 -0.3487  0.8070 -1.3235
 8571SOL     OW37348   1.260   1.725   6.274 -0.3346  0.1058 -0.1921
 8571SOL    HW137349   1.184   1.696   6.324 -1.0197  0.9796 -0.7302
 8571SOL    HW237350   1.211   1.787   6.221 -0.8264  0.4182  0.6356
 8572SOL     OW37351   2.171   3.957  15.085 -0.2848  0.4253  0.3561
 8572SOL    HW137352   2.184   3.930  15.176  1.5092 -0.1350 -0.0820
 8572SOL    HW237353   2.241   3.916  15.035  0.7046  3.1461 -0.4640
 8573SOL     OW37354   3.419   1.787   2.297  0.2191  0.0133  0.1923
 8573SOL    HW137355   3.350   1.853   2.287 -0.6999 -0.9923 -0.1612
 8573SOL    HW237356   3.470   1.797   2.217 -1.0940  0.7654 -0.5510
 8574SOL     OW37357   1.235   4.363   4.031 -0.1089 -0.2742  0.1345
 8574SOL    HW137358   1.207   4.271   4.033 -1.5160  0.1175 -1.7894
 8574SOL    HW237359   1.328   4.361   4.054  0.1943 -0.7280 -1.0859
 8575SOL     OW37360   1.912   3.322   0.516 -0.5403  0.2341  0.1577
 8575SOL    HW137361   1.827   3.362   0.496 -1.1605 -0.6285  1.1045
 8575SOL    HW237362   1.890   3.232   0.539  0.6676 -0.3169 -0.8547
 8576SOL     OW37363   0.867   1.376  12.903 -0.4148  0.6693  0.2229
 8576SOL    HW137364   0.941   1.370  12.963 -0.5811 -0.1462  0.3517
 8576SOL    HW237365   0.878   1.284  12.878 -0.0084  1.0243 -0.8911
 8577SOL     OW37366   4.393   3.870   3.760 -0.1775 -0.0003  0.0747
 8577SOL    HW137367   4.308   3.871   3.716  0.9135 -1.2535 -2.0813
 8577SOL    HW237368   4.394   3.949   3.814 -2.2526  1.2213 -1.7038
 8578SOL     OW37369   2.422   0.738   6.172 -0.3387 -0.3329 -0.2950
 8578SOL    HW137370   2.418   0.818   6.225 -2.3666  0.0019 -0.9602
 8578SOL    HW237371   2.383   0.772   6.091 -0.3127  0.9890  0.2475
 8579SOL     OW37372   2.585   1.506   9.326  0.0216 -0.1048 -0.4898
 8579SOL    HW137373   2.515   1.531   9.386  0.3162 -0.1795 -0.1156
 8579SOL    HW237374   2.584   1.412   9.341  2.0774  0.2112  1.7202
 8580SOL     OW37375   3.772   4.666   3.713  0.6009 -0.1605  0.2583
 8580SOL    HW137376   3.719   4.659   3.792  1.0643  2.7705  0.8414
 8580SOL    HW237377   3.756   4.577   3.683 -0.1307 -0.8962  2.8055
 8581SOL     OW37378   4.369   2.224   2.770 -0.9664 -0.8409  0.4208
 8581SOL    HW137379   4.290   2.212   2.823 -2.0761  1.2377 -0.7793
 8581SOL    HW237380   4.363   2.313   2.736  0.6988 -0.3343  1.4529
 8582SOL     OW37381   4.538   0.815  16.322  0.0332  0.0084 -0.2136
 8582SOL    HW137382   4.545   0.733  16.370  0.9975 -0.3385 -0.9460
 8582SOL    HW237383   4.551   0.882  16.390 -0.3023  0.5139 -0.6420
 8583SOL     OW37384   3.998   3.530   9.864 -0.1799  0.1874  0.4378
 8583SOL    HW137385   3.960   3.446   9.892 -0.5039 -0.8051 -3.0015
 8583SOL    HW237386   4.036   3.507   9.779 -0.3333 -1.6202  0.8505
 8584SOL     OW37387   2.556   0.982   2.170 -0.0135 -0.1470 -0.1926
 8584SOL    HW137388   2.565   0.909   2.231  0.7851 -0.0808 -0.2325
 8584SOL    HW237389   2.602   1.052   2.216 -2.5291  0.1877  1.7983
 8585SOL     OW37390   1.293   0.996   4.283 -0.1643  0.2147 -0.2083
 8585SOL    HW137391   1.360   1.039   4.335 -0.7977 -0.0839  0.8675
 8585SOL    HW237392   1.221   1.056   4.302 -2.8681 -3.1896  0.2541
 8586SOL     OW37393   2.182   4.027   5.263 -0.0939 -0.6992 -0.7371
 8586SOL    HW137394   2.096   3.987   5.274 -0.2495  0.4068  2.0199
 8586SOL    HW237395   2.209   3.993   5.177  0.6898 -0.4204 -0.5981
 8587SOL     OW37396   1.635   1.509   7.540 -0.2796  0.4915 -0.3529
 8587SOL    HW137397   1.577   1.434   7.554 -0.7870  0.8950 -0.2931
 8587SOL    HW237398   1.600   1.539   7.456  1.8431  1.7765 -0.7791
 8588SOL     OW37399   3.337   4.317   8.886  0.1612  0.4047 -0.3902
 8588SOL    HW137400   3.338   4.332   8.981  0.8419  0.5574 -0.4254
 8588SOL    HW237401   3.318   4.224   8.883  1.4064  0.1610 -0.3886
 8589SOL     OW37402   4.325   3.258   0.242 -0.2710 -0.1206  0.6698
 8589SOL    HW137403   4.342   3.164   0.238 -1.6233 -0.3435  0.4151
 8589SOL    HW237404   4.363   3.277   0.328 -0.2151  1.0011  0.3951
 8590SOL     OW37405   3.764   0.920   8.272  0.4952  0.1990 -0.3400
 8590SOL    HW137406   3.837   0.958   8.321 -1.2461 -0.2231  2.6115
 8590SOL    HW237407   3.693   0.933   8.335  0.2590  1.5655 -0.8988
 8591SOL     OW37408   1.947   1.414   2.774 -0.1784 -0.1912 -0.2033
 8591SOL    HW137409   1.859   1.412   2.738  0.4789  0.8755 -1.9147
 8591SOL    HW237410   1.999   1.467   2.712  1.8743 -1.8118  0.1153
 8592SOL     OW37411   3.173   1.738   1.423 -0.1565 -0.6505  0.3213
 8592SOL    HW137412   3.166   1.687   1.504 -2.6971  2.6853  2.1862
 8592SOL    HW237413   3.207   1.822   1.453 -1.4127 -0.2334  0.6008
 8593SOL     OW37414   3.574   0.284   6.648  0.6057 -0.1233 -0.6558
 8593SOL    HW137415   3.658   0.329   6.652  0.2342  0.5913 -0.7889
 8593SOL    HW237416   3.536   0.300   6.734  0.1011 -0.8048 -0.7518
 8594SOL     OW37417   3.670   1.149   2.775 -0.2187  0.0136  0.0112
 8594SOL    HW137418   3.601   1.211   2.751  0.4815  0.3797 -1.0615
 8594SOL    HW237419   3.733   1.160   2.703 -0.1621 -1.3741 -0.1529
 8595SOL     OW37420   0.430   2.275   5.848  0.2576 -0.0149  0.1097
 8595SOL    HW137421   0.347   2.290   5.894  0.6269 -0.2223  0.8424
 8595SOL    HW237422   0.397   2.254   5.760 -0.6279 -2.8621  1.1170
 8596SOL     OW37423   4.625   1.954  14.875  0.8162 -0.3110  0.1515
 8596SOL    HW137424   4.602   1.869  14.838  1.6202 -0.4568 -0.0119
 8596SOL    HW237425   4.654   2.012  14.805  0.1049  1.6213  1.4553
 8597SOL     OW37426   0.991   3.617   9.078 -0.9306  0.1063  0.2955
 8597SOL    HW137427   1.072   3.641   9.123 -0.5279 -0.4409 -0.1267
 8597SOL    HW237428   0.948   3.702   9.073  0.0691  0.6534  1.1014
 8598SOL     OW37429   3.671   3.675  16.944  0.1799  0.6200 -0.3606
 8598SOL    HW137430   3.634   3.761  16.968 -0.3576 -0.7687  3.8433
 8598SOL    HW237431   3.758   3.693  16.980  0.0016 -0.9229  0.8493
 8599SOL     OW37432   4.703   2.998   5.206 -0.1184  0.5319  0.0021
 8599SOL    HW137433   4.640   2.979   5.276  0.3801  3.4165  1.2497
 8599SOL    HW237434   0.021   2.920   5.220 -1.6800 -0.3359  1.1763
 8600SOL     OW37435   3.087   2.191   7.661  0.0514 -0.7532 -0.2956
 8600SOL    HW137436   3.106   2.242   7.583  1.1745  0.9134  1.0605
 8600SOL    HW237437   3.003   2.231   7.684  0.0417  0.6261 -2.7802
 8601SOL     OW37438   2.018   3.739   1.866 -0.3446  0.0824 -0.0760
 8601SOL    HW137439   2.001   3.654   1.826 -0.6756 -0.7457  1.8287
 8601SOL    HW237440   2.081   3.720   1.935  0.5855  1.9814 -0.3947
 8602SOL     OW37441   3.016   2.325   3.136  0.5052  0.0224 -0.2404
 8602SOL    HW137442   2.988   2.270   3.209  0.0520 -0.1882 -0.5692
 8602SOL    HW237443   3.035   2.403   3.189 -1.8997 -0.9055  2.0249
 8603SOL     OW37444   0.273   0.433  15.393  0.1422 -0.9291 -0.2498
 8603SOL    HW137445   0.364   0.452  15.414 -0.0853 -0.6256  0.4867
 8603SOL    HW237446   0.287   0.365  15.328  0.8387  0.2023 -1.2673
 8604SOL     OW37447   0.737   0.419   9.671 -0.4123 -0.1404 -0.1694
 8604SOL    HW137448   0.671   0.414   9.602  2.2524  0.0157 -2.7484
 8604SOL    HW237449   0.697   0.461   9.746  0.3671  1.6502 -0.7567
 8605SOL     OW37450   1.898   1.525  17.736  0.6517 -0.4296  0.0491
 8605SOL    HW137451   1.969   1.569   0.038 -0.5349  2.8434 -1.1988
 8605SOL    HW237452   1.908   1.438   0.030  1.2924 -1.4445 -2.4167
 8606SOL     OW37453   2.289   2.499   6.270 -0.2402  0.3659  0.4103
 8606SOL    HW137454   2.272   2.407   6.290 -3.2536  0.3489 -2.1641
 8606SOL    HW237455   2.246   2.541   6.345  0.1948 -0.7390  1.2822
 8607SOL     OW37456   3.839   4.680  16.276 -0.1770 -0.0247  0.6136
 8607SOL    HW137457   3.747   4.698  16.254  0.3161  2.5653  0.6847
 8607SOL    HW237458   3.877   4.705  16.192 -0.8849 -0.9621  0.0273
 8608SOL     OW37459   0.535   0.498  10.913 -0.4340  0.2769 -0.0711
 8608SOL    HW137460   0.476   0.425  10.892  0.4363 -1.0860  2.1261
 8608SOL    HW237461   0.524   0.512  11.007 -1.6368  1.2569 -0.3587
 8609SOL     OW37462   0.308   2.464  16.187 -0.3047  0.1900  0.4415
 8609SOL    HW137463   0.395   2.469  16.147 -0.1478  3.9303  1.2751
 8609SOL    HW237464   0.279   2.553  16.169 -0.0673 -0.0076 -0.9215
 8610SOL     OW37465   0.755   2.159   2.494 -0.6683  0.3094  0.2869
 8610SOL    HW137466   0.692   2.217   2.452 -1.9784 -1.0999  0.2983
 8610SOL    HW237467   0.835   2.192   2.454  0.8096 -0.5611  2.4799
 8611SOL     OW37468   2.784   2.796  12.704  0.2390 -0.1390 -0.0853
 8611SOL    HW137469   2.716   2.860  12.680  1.2574  0.6245 -0.9278
 8611SOL    HW237470   2.757   2.781  12.795  0.4682 -1.6267 -0.2571
 8612SOL     OW37471   2.189   3.034  15.346 -0.5620  0.8333 -0.2793
 8612SOL    HW137472   2.113   3.015  15.291 -0.7166  0.4843  0.0586
 8612SOL    HW237473   2.165   2.972  15.415  0.3261  0.2202 -0.5200
 8613SOL     OW37474   0.090   2.410   7.631  0.1028  0.3176  0.0173
 8613SOL    HW137475   0.126   2.462   7.559  1.1049  0.3280  0.5181
 8613SOL    HW237476   0.079   2.474   7.702 -1.1147  1.5676 -1.3048
 8614SOL     OW37477   2.164   1.599   9.151 -0.3160 -0.0925 -0.4660
 8614SOL    HW137478   2.148   1.667   9.086  2.8283  0.8855 -0.2036
 8614SOL    HW237479   2.254   1.573   9.132  0.4440  2.7922 -0.8688
 8615SOL     OW37480   4.341   1.535   8.390  0.4199 -0.0003 -0.1363
 8615SOL    HW137481   4.373   1.499   8.473 -1.4179 -0.7610  0.2479
 8615SOL    HW237482   4.418   1.564   8.341  0.2215 -0.7777 -0.9202
 8616SOL     OW37483   3.748   3.009   7.794 -0.1227 -1.0935  0.1418
 8616SOL    HW137484   3.783   2.994   7.707 -0.3457 -1.0133  0.0364
 8616SOL    HW237485   3.653   2.994   7.797 -0.1309 -1.3941 -1.7703
 8617SOL     OW37486   2.528   3.015  12.287 -0.1022  0.0495  0.1746
 8617SOL    HW137487   2.535   3.040  12.379 -1.4349 -1.5409  0.7071
 8617SOL    HW237488   2.600   3.070  12.257  0.6397  0.8913  3.4827
 8618SOL     OW37489   3.240   1.093   3.132 -0.0210 -0.3622  0.2961
 8618SOL    HW137490   3.291   1.014   3.114 -0.7762 -0.8371  0.2268
 8618SOL    HW237491   3.231   1.127   3.043  1.2765 -0.3974  0.1564
 8619SOL     OW37492   4.173   0.275   6.377 -0.0606  0.3673  0.0006
 8619SOL    HW137493   4.263   0.299   6.353  0.5333 -1.7303  0.1379
 8619SOL    HW237494   4.179   0.253   6.470  1.2281 -1.6230 -0.5649
 8620SOL     OW37495   1.348   0.489  16.539 -0.6694 -0.4997  0.2202
 8620SOL    HW137496   1.331   0.514  16.449  0.1136  0.4816  0.3516
 8620SOL    HW237497   1.438   0.457  16.534 -0.6918 -0.8891  2.1777
 8621SOL     OW37498   4.398   0.728   5.375 -0.1074 -0.3641  0.1071
 8621SOL    HW137499   4.432   0.708   5.462  0.5826 -0.1903 -0.1206
 8621SOL    HW237500   4.355   0.811   5.391  0.4399 -0.0111 -0.2405
 8622SOL     OW37501   2.761   4.427   2.417  0.0130 -0.7506 -0.0599
 8622SOL    HW137502   2.801   4.443   2.332 -0.4998  0.8543  0.0055
 8622SOL    HW237503   2.748   4.333   2.427 -2.8368 -0.5025 -1.3895
 8623SOL     OW37504   1.715   4.442   8.976  0.2956 -0.4981  0.2021
 8623SOL    HW137505   1.754   4.400   8.899 -1.5224 -0.2713 -0.8542
 8623SOL    HW237506   1.774   4.415   9.045  0.1280 -3.5878 -0.8736
 8624SOL     OW37507   4.685   4.106   3.412  0.0416  0.1285  0.2939
 8624SOL    HW137508   4.632   4.035   3.374  2.1421 -0.8939 -0.6981
 8624SOL    HW237509   0.024   4.109   3.353 -0.6339 -1.2758 -0.6712
 8625SOL     OW37510   3.339   3.130  10.055  0.0510  0.2382 -0.3595
 8625SOL    HW137511   3.351   3.184   9.977  0.6398  2.4893  1.2942
 8625SOL    HW237512   3.363   3.044  10.023 -2.5017 -0.8891  0.7233
 8626SOL     OW37513   2.748   4.262  16.878 -0.0752  0.2654 -0.5023
 8626SOL    HW137514   2.695   4.258  16.958  0.7921 -0.5210  0.0325
 8626SOL    HW237515   2.740   4.170  16.854 -0.9697  0.0631  0.5878
 8627SOL     OW37516   1.324   2.737  12.994 -0.1186 -0.1493  0.0950
 8627SOL    HW137517   1.289   2.668  13.050 -2.3718  0.4663 -0.5535
 8627SOL    HW237518   1.258   2.804  13.009  0.4602  0.3377  0.4410
 8628SOL     OW37519   2.347   1.483   4.960  0.2389 -0.5970  0.0785
 8628SOL    HW137520   2.361   1.529   5.043  0.8669  0.0450 -0.3922
 8628SOL    HW237521   2.381   1.550   4.902 -1.8056  0.9880  0.6872
 8629SOL     OW37522   1.100   1.957   3.019 -0.7687 -0.5339 -0.0853
 8629SOL    HW137523   1.135   1.881   2.973  0.2114 -0.7699  1.0319
 8629SOL    HW237524   1.165   1.942   3.088  0.6407  2.8421 -0.6441
 8630SOL     OW37525   0.787   1.271   6.754 -0.2114  0.3964  0.2589
 8630SOL    HW137526   0.788   1.366   6.765 -2.0469  0.5888 -1.2558
 8630SOL    HW237527   0.748   1.236   6.834  1.5641  2.5033  2.0344
 8631SOL     OW37528   0.666   1.471   2.760 -0.1142  0.8523 -0.0242
 8631SOL    HW137529   0.756   1.456   2.731  0.0798  0.2947  0.8410
 8631SOL    HW237530   0.657   1.414   2.837  0.7669 -0.2943 -0.7818
 8632SOL     OW37531   4.447   0.074   8.544  0.1469  1.0715 -0.7376
 8632SOL    HW137532   4.355   0.048   8.551  0.3911  0.6154  0.8516
 8632SOL    HW237533   4.448   0.120   8.628 -2.0898  0.1709 -0.2083
 8633SOL     OW37534   3.372   2.619   0.024 -0.3540 -0.0675 -0.3359
 8633SOL    HW137535   3.340   2.549   0.081  0.8990 -0.5918 -0.2846
 8633SOL    HW237536   3.331   2.611  17.682  2.0590 -0.6260 -1.4387
 8634SOL     OW37537   0.975   2.988  15.434 -0.3932 -0.2054 -0.6445
 8634SOL    HW137538   0.965   2.895  15.412 -0.1856 -0.0222 -1.5183
 8634SOL    HW237539   0.955   3.026  15.349  0.3267 -1.0389 -1.1879
 8635SOL     OW37540   2.265   1.214   2.062 -0.0221  0.3464 -0.4794
 8635SOL    HW137541   2.346   1.194   2.016  1.1963  0.5793  1.5398
 8635SOL    HW237542   2.205   1.248   1.996  0.2237  1.9962  0.1386
 8636SOL     OW37543   0.828   0.970  12.716  0.3817  0.1467  0.1527
 8636SOL    HW137544   0.763   0.985  12.785 -0.7336  1.2158 -1.1173
 8636SOL    HW237545   0.903   0.953  12.773  0.9432 -2.0124 -1.2345
 8637SOL     OW37546   0.576   0.906   4.253 -0.5451  0.7066  0.1089
 8637SOL    HW137547   0.537   0.860   4.327 -0.2373 -0.0768 -0.2152
 8637SOL    HW237548   0.549   0.856   4.176  1.5682 -1.6733  0.9348
 8638SOL     OW37549   1.566   4.138   4.490  0.7187 -0.1608 -0.4348
 8638SOL    HW137550   1.501   4.200   4.456  0.0445 -0.6864 -0.1025
 8638SOL    HW237551   1.638   4.150   4.428 -0.2084  1.0283 -1.2944
 8639SOL     OW37552   2.665   3.882   8.790 -0.4770  0.1824 -0.0461
 8639SOL    HW137553   2.736   3.852   8.846 -2.1398 -1.7801  1.0144
 8639SOL    HW237554   2.709   3.961   8.760  1.3104 -1.0064 -0.5799
 8640SOL     OW37555   2.059   2.332   2.694  0.5262 -0.1247  0.1453
 8640SOL    HW137556   2.008   2.393   2.641  0.1285 -0.1489  0.5010
 8640SOL    HW237557   2.048   2.359   2.785 -0.1801 -0.1945  0.0782
 8641SOL     OW37558   2.365   2.557   3.302  0.0254  0.4529  0.1559
 8641SOL    HW137559   2.413   2.632   3.338 -1.6463 -0.7062  4.6862
 8641SOL    HW237560   2.389   2.484   3.359  1.1202 -0.9676 -2.1205
 8642SOL     OW37561   1.886   4.700   8.295  0.0378  0.2460  0.3990
 8642SOL    HW137562   1.854   4.612   8.312  1.2026 -0.1878  0.3699
 8642SOL    HW237563   1.861   4.716   8.204 -0.8757  0.2100  0.6491
 8643SOL     OW37564   4.404   1.623  17.341 -0.6381  0.3863  0.0200
 8643SOL    HW137565   4.454   1.680  17.283  0.4724  0.2483  0.8468
 8643SOL    HW237566   4.336   1.688  17.356 -2.1350 -1.5822  1.6968
 8644SOL     OW37567   1.848   4.348   4.421 -0.3220 -0.0071  0.1671
 8644SOL    HW137568   1.831   4.442   4.420  0.5000  0.1640  2.9269
 8644SOL    HW237569   1.943   4.342   4.423 -0.2555  1.4732  1.4397
 8645SOL     OW37570   3.111   3.514   6.944 -0.1033 -0.5571  0.2268
 8645SOL    HW137571   3.075   3.579   7.004  1.1921  1.9813 -1.7887
 8645SOL    HW237572   3.205   3.518   6.959 -0.2032 -2.8860  1.5057
 8646SOL     OW37573   1.668   2.798   3.564 -0.3847 -0.1034 -0.6996
 8646SOL    HW137574   1.703   2.722   3.516  0.9993  0.2007 -0.1638
 8646SOL    HW237575   1.596   2.754   3.608 -0.7361 -0.1541 -1.3280
 8647SOL     OW37576   2.885   0.524   2.235  0.5387  0.3800  0.2544
 8647SOL    HW137577   2.960   0.525   2.176  0.7964  0.2434  0.5839
 8647SOL    HW237578   2.810   0.501   2.180 -0.4832  0.6557  1.5453
 8648SOL     OW37579   4.462   1.693   4.419  0.1316  0.5074  0.1056
 8648SOL    HW137580   4.552   1.673   4.393  0.8230 -1.9337  4.3752
 8648SOL    HW237581   4.438   1.633   4.489 -0.6137  0.1756 -0.4283
 8649SOL     OW37582   2.286   3.755  12.210 -0.1549 -0.6672 -0.1903
 8649SOL    HW137583   2.310   3.844  12.235  1.2730 -0.6826 -1.5076
 8649SOL    HW237584   2.370   3.734  12.169 -0.2510  1.0006 -1.2104
 8650SOL     OW37585   2.163   1.974  16.914  0.1282 -0.3050  0.2066
 8650SOL    HW137586   2.092   2.004  16.970 -0.1898  0.5591 -0.6508
 8650SOL    HW237587   2.162   2.056  16.864 -0.1286 -0.2660  0.2725
 8651SOL     OW37588   2.723   2.508   2.720 -0.4149 -0.3821 -0.3603
 8651SOL    HW137589   2.732   2.413   2.733  0.0650 -0.4776 -1.3301
 8651SOL    HW237590   2.645   2.509   2.665 -0.8587  0.9778  0.2949
 8652SOL     OW37591   2.053   4.510   5.878 -1.0551 -0.1089  0.1409
 8652SOL    HW137592   2.077   4.478   5.791 -2.4941 -1.5830  0.2859
 8652SOL    HW237593   1.995   4.575   5.838  0.0262  1.2734  0.8111
 8653SOL     OW37594   0.252   3.506   1.830 -0.1044 -0.5610 -0.3583
 8653SOL    HW137595   0.245   3.528   1.923 -1.4067  3.3428 -1.3841
 8653SOL    HW237596   0.206   3.422   1.838  0.4415 -0.9065 -0.8427
 8654SOL     OW37597   1.639   2.730  15.796  0.2669 -0.0490 -0.1230
 8654SOL    HW137598   1.626   2.782  15.717  0.3054 -1.0028 -0.7654
 8654SOL    HW237599   1.563   2.756  15.848 -0.3714 -1.1746 -0.4827
 8655SOL     OW37600   4.656   3.448   9.192 -0.2524 -0.1193 -0.7074
 8655SOL    HW137601   4.719   3.425   9.260  0.1239  1.5439 -0.4894
 8655SOL    HW237602   4.683   3.539   9.180 -2.8400  0.8139  0.4085
 8656SOL     OW37603   3.951   1.586   2.659 -0.6668  0.2428  0.4578
 8656SOL    HW137604   3.981   1.636   2.734  0.4764 -0.0215  0.1755
 8656SOL    HW237605   4.015   1.515   2.655  0.2020  0.9276  2.2974
 8657SOL     OW37606   1.687   0.594  16.584  0.8180  0.0255 -0.2052
 8657SOL    HW137607   1.710   0.522  16.643  0.0727 -0.2993 -0.3156
 8657SOL    HW237608   1.719   0.668  16.636  3.4542 -1.1079 -0.1983
 8658SOL     OW37609   1.334   3.507  14.789  0.3226 -0.0289 -0.3681
 8658SOL    HW137610   1.244   3.539  14.798 -0.3126 -1.7202 -0.7601
 8658SOL    HW237611   1.325   3.415  14.813 -2.7067 -0.3943 -2.8684
 8659SOL     OW37612   1.606   1.437   5.824  0.4670  0.0632 -0.0857
 8659SOL    HW137613   1.550   1.387   5.765  1.5973 -2.1614  0.7083
 8659SOL    HW237614   1.684   1.384   5.843  0.3573 -0.1167 -0.1372
 8660SOL     OW37615   0.587   3.546   6.499 -0.5574 -0.2328 -0.2187
 8660SOL    HW137616   0.566   3.522   6.589 -0.9750  1.8863  0.2362
 8660SOL    HW237617   0.681   3.528   6.499 -0.7018 -0.9655  3.1456
 8661SOL     OW37618   3.179   2.320   6.206  0.0881  0.4556 -0.2235
 8661SOL    HW137619   3.115   2.330   6.136  0.4034  0.0940 -0.5671
 8661SOL    HW237620   3.138   2.266   6.274 -0.6136  0.8690 -0.3195
 8662SOL     OW37621   0.615   1.615  12.446 -0.1416 -0.0684  0.4780
 8662SOL    HW137622   0.578   1.649  12.364  0.9371 -2.4673 -1.0032
 8662SOL    HW237623   0.569   1.651  12.521  1.8345  0.9123  1.2281
 8663SOL     OW37624   4.686   0.560   5.026 -0.0442 -0.2845  0.1561
 8663SOL    HW137625   0.002   0.591   4.951  0.8938 -2.0389  0.0851
 8663SOL    HW237626   4.694   0.466   5.014 -0.7793 -0.4963  1.3168
 8664SOL     OW37627   0.717   2.607   1.237  0.0240  0.3336 -0.5511
 8664SOL    HW137628   0.809   2.595   1.212 -0.4923  2.8002 -3.6365
 8664SOL    HW237629   0.683   2.621   1.149 -2.6238 -1.7901  0.1161
 8665SOL     OW37630   0.733   4.550   9.351 -0.5055 -0.1111 -0.1457
 8665SOL    HW137631   0.748   4.456   9.356  0.1331  0.0396  0.7515
 8665SOL    HW237632   0.781   4.569   9.431 -0.9401 -2.4227  0.6533
 8666SOL     OW37633   0.627   3.256   9.502  0.1026 -0.5883  0.0826
 8666SOL    HW137634   0.628   3.324   9.570  2.2740  0.7590 -1.2834
 8666SOL    HW237635   0.621   3.178   9.557 -0.6399 -0.2870  0.4356
 8667SOL     OW37636   1.551   0.583   9.208 -0.4569  0.3438 -0.0783
 8667SOL    HW137637   1.613   0.601   9.137  1.0976  0.8343  1.4057
 8667SOL    HW237638   1.622   0.567   9.270  0.0005  0.8991 -0.4619
 8668SOL     OW37639   3.761   4.432   3.578  0.3221 -0.5879  0.0597
 8668SOL    HW137640   3.739   4.478   3.497 -1.3590 -0.7838  0.3977
 8668SOL    HW237641   3.690   4.369   3.590  0.8029 -1.1850 -0.2490
 8669SOL     OW37642   2.100   1.751   3.819  0.4494  0.0614 -0.4114
 8669SOL    HW137643   2.093   1.726   3.727 -0.8084 -1.4341  0.0813
 8669SOL    HW237644   2.031   1.696   3.858 -1.3957  2.2293 -0.6020
 8670SOL     OW37645   1.081   1.869   6.124 -0.5491 -0.2109  0.3627
 8670SOL    HW137646   1.027   1.804   6.080  1.6649 -0.7541 -1.5531
 8670SOL    HW237647   1.022   1.944   6.111 -0.8289 -0.2128  1.5881
 8671SOL     OW37648   0.092   3.723  16.061  0.4391  0.4375  0.6608
 8671SOL    HW137649   0.035   3.683  16.126  0.5121 -1.1596 -0.2497
 8671SOL    HW237650   0.030   3.729  15.988 -1.9490  3.1077  2.9194
 8672SOL     OW37651   4.479   2.196   8.647 -0.2882  0.8468  0.7245
 8672SOL    HW137652   4.475   2.172   8.554  0.4606  2.3160  0.3084
 8672SOL    HW237653   4.517   2.283   8.639  1.5560  0.0203  0.4895
 8673SOL     OW37654   3.886   2.532   5.745 -0.4235  0.3222 -0.6472
 8673SOL    HW137655   3.940   2.455   5.764 -1.8084 -1.0182 -2.1031
 8673SOL    HW237656   3.847   2.549   5.831  1.6054 -1.9911  0.7103
 8674SOL     OW37657   3.722   1.429   0.667  0.3851  0.1145  0.1889
 8674SOL    HW137658   3.659   1.427   0.595  1.9631 -1.0798 -1.1645
 8674SOL    HW237659   3.762   1.345   0.645  0.7354 -0.1187  1.7394
 8675SOL     OW37660   3.683   0.706   6.760  0.2710  0.0012 -0.5274
 8675SOL    HW137661   3.710   0.726   6.671 -0.7145 -0.4038 -0.9221
 8675SOL    HW237662   3.757   0.654   6.792 -0.0267  1.0558  1.9291
 8676SOL     OW37663   0.649   1.925   6.918 -0.0441  0.0635  0.2654
 8676SOL    HW137664   0.723   1.985   6.916 -0.1705  0.1410 -2.7620
 8676SOL    HW237665   0.671   1.871   6.842 -1.4764  0.1706 -0.2334
 8677SOL     OW37666   2.317   4.263   4.935  0.2744  0.3394  0.4328
 8677SOL    HW137667   2.323   4.349   4.893  3.5699  0.2040  0.6186
 8677SOL    HW237668   2.381   4.210   4.888 -0.0003 -0.0237  0.4704
 8678SOL     OW37669   3.796   0.718   3.634 -0.7020 -0.2725  0.3184
 8678SOL    HW137670   3.860   0.647   3.635  1.2982  1.4776 -2.4359
 8678SOL    HW237671   3.715   0.668   3.630 -0.2602 -1.0124  0.5027
 8679SOL     OW37672   0.324   1.695  13.449  0.0342  0.4323  0.5682
 8679SOL    HW137673   0.265   1.621  13.436 -1.5969  1.7952  0.0586
 8679SOL    HW237674   0.392   1.668  13.510  0.7892 -1.7578 -1.2473
 8680SOL     OW37675   3.260   0.208   5.502  0.2290  0.1166  0.4431
 8680SOL    HW137676   3.312   0.182   5.426  1.2324  3.0342  0.1436
 8680SOL    HW237677   3.246   0.297   5.471 -0.8606 -0.2286 -0.0578
 8681SOL     OW37678   0.532   4.098   9.069  0.2369  0.0138  0.4833
 8681SOL    HW137679   0.557   4.006   9.062 -0.6103 -0.1964  0.2391
 8681SOL    HW237680   0.549   4.101   9.163 -0.6405  0.0450  0.6386
 8682SOL     OW37681   2.258   0.753   8.950 -0.2368 -0.2104  0.3095
 8682SOL    HW137682   2.194   0.718   9.013 -1.0176 -2.4881 -1.7712
 8682SOL    HW237683   2.325   0.686   8.959  0.4676  0.4114 -0.3865
 8683SOL     OW37684   3.239   2.170   5.351  0.0698 -0.0915  0.1442
 8683SOL    HW137685   3.220   2.262   5.369  1.2126 -0.2703  2.2159
 8683SOL    HW237686   3.157   2.124   5.336  1.1934 -1.1524 -2.9233
 8684SOL     OW37687   2.347   4.342   1.205 -0.4197  0.0256 -0.8394
 8684SOL    HW137688   2.437   4.344   1.237  0.6012 -1.6555 -3.5494
 8684SOL    HW237689   2.352   4.407   1.135 -0.6694  1.0475  0.0907
 8685SOL     OW37690   0.072   1.125   7.364  0.4692 -0.9302 -0.2173
 8685SOL    HW137691   0.127   1.125   7.441  0.9225  1.1494 -0.5260
 8685SOL    HW237692   0.060   1.031   7.352  0.1659 -0.9452  0.2058
 8686SOL     OW37693   1.316   2.926  17.161  0.7212 -0.4429  0.3244
 8686SOL    HW137694   1.231   2.936  17.118  0.8105 -0.8450  0.0589
 8686SOL    HW237695   1.353   3.014  17.169  2.6319 -1.3327  1.3259
 8687SOL     OW37696   1.274   3.406   7.929 -0.1913 -0.5880  0.0304
 8687SOL    HW137697   1.253   3.424   7.837  1.0577 -0.9431 -0.3238
 8687SOL    HW237698   1.226   3.324   7.941  1.1518 -1.4674 -0.6031
 8688SOL     OW37699   2.552   1.501   8.811  0.6979 -0.2362 -0.5929
 8688SOL    HW137700   2.499   1.450   8.749  2.3574  0.0198 -2.2034
 8688SOL    HW237701   2.588   1.425   8.857  1.3832 -0.6631 -1.8470
 8689SOL     OW37702   2.838   0.095   3.347 -0.2704 -0.3515  0.4798
 8689SOL    HW137703   2.758   0.078   3.297 -0.9172  0.1421  1.3307
 8689SOL    HW237704   2.830   0.039   3.424 -1.5756 -1.3888 -0.4139
 8690SOL     OW37705   1.539   3.402   7.850  0.0644  0.2374 -1.1699
 8690SOL    HW137706   1.449   3.392   7.879  0.9893  0.3403  1.8424
 8690SOL    HW237707   1.586   3.417   7.933 -1.3685 -0.9861 -0.1353
 8691SOL     OW37708   2.356   1.482   5.986  0.1787  0.1200  0.9924
 8691SOL    HW137709   2.318   1.545   5.924 -1.4826 -3.2923 -1.4826
 8691SOL    HW237710   2.298   1.486   6.062 -1.8661 -0.4677 -0.5362
 8692SOL     OW37711   1.411   2.793   9.359 -0.7293  0.6267  0.1100
 8692SOL    HW137712   1.355   2.781   9.436 -0.7624 -0.8916 -0.1516
 8692SOL    HW237713   1.346   2.775   9.291  1.4400 -0.5848 -1.6434
 8693SOL     OW37714   1.826   2.132   2.599  0.0354 -0.0583  0.2198
 8693SOL    HW137715   1.913   2.142   2.638 -0.3642  1.7267  0.6947
 8693SOL    HW237716   1.851   2.178   2.519  0.4663  2.1196  1.6051
 8694SOL     OW37717   0.081   1.329   7.191  0.9604  0.0247 -0.7520
 8694SOL    HW137718   0.015   1.390   7.224 -0.1691 -1.8314  0.4181
 8694SOL    HW237719   0.055   1.244   7.227  0.0432 -0.5014 -2.6314
 8695SOL     OW37720   3.484   0.210   7.129 -0.2716  0.7467  0.1710
 8695SOL    HW137721   3.454   0.153   7.200 -0.5237  0.7344  0.0548
 8695SOL    HW237722   3.552   0.151   7.096 -1.1632  1.3546 -2.6891
 8696SOL     OW37723   3.621   0.427   4.073 -0.0996  0.3983  0.1259
 8696SOL    HW137724   3.588   0.447   4.160  0.3500  0.6914  0.2321
 8696SOL    HW237725   3.717   0.425   4.076 -0.1352 -0.6898  0.3923
 8697SOL     OW37726   0.924   0.960   6.915 -0.2414  0.0607 -0.5985
 8697SOL    HW137727   0.847   1.009   6.943 -0.4261 -1.5655  1.6538
 8697SOL    HW237728   0.955   0.927   6.999 -1.3805  1.6473  0.4426
 8698SOL     OW37729   3.463   3.034  16.296  0.0975 -0.0314 -0.1705
 8698SOL    HW137730   3.463   3.017  16.202  0.3015 -3.5235  0.4765
 8698SOL    HW237731   3.520   2.962  16.321  2.8433  1.4330 -2.2522
 8699SOL     OW37732   2.161   3.029   4.282 -0.1062 -0.5747  0.0386
 8699SOL    HW137733   2.215   3.018   4.360  0.3630 -0.1430 -0.2261
 8699SOL    HW237734   2.130   2.940   4.265  1.0592 -0.9917  0.1085
 8700SOL     OW37735   3.610   0.942  10.349  0.0166  0.7296  0.8135
 8700SOL    HW137736   3.534   0.999  10.360 -1.4152 -1.3736  1.8496
 8700SOL    HW237737   3.640   0.962  10.261 -1.9769  2.7596  0.6098
 8701SOL     OW37738   4.287   0.210   2.438 -0.4563  0.1320 -0.2264
 8701SOL    HW137739   4.327   0.218   2.351 -0.4543 -0.4121 -0.2734
 8701SOL    HW237740   4.299   0.117   2.455  1.4215  0.6639  1.3908
 8702SOL     OW37741   3.887   4.372   5.461  0.2397 -0.0166 -0.2975
 8702SOL    HW137742   3.957   4.345   5.401  2.1045  1.2713  1.3296
 8702SOL    HW237743   3.901   4.466   5.468  0.2784 -0.1475  1.4514
 8703SOL     OW37744   0.972   0.928   7.404  0.1236  0.0261  0.0740
 8703SOL    HW137745   0.906   0.896   7.466 -0.3264  0.9081  0.0594
 8703SOL    HW237746   0.947   1.020   7.392  1.3798  0.3186 -0.2442
 8704SOL     OW37747   0.806   1.767   5.294 -0.4231  0.1591  0.0600
 8704SOL    HW137748   0.805   1.707   5.219 -0.2913 -0.2475  0.3889
 8704SOL    HW237749   0.869   1.838   5.276 -1.5367  1.4883  1.3907
 8705SOL     OW37750   0.803   3.464   8.797 -0.2334 -0.0424 -0.1061
 8705SOL    HW137751   0.741   3.489   8.729 -1.7358  0.4771  1.4366
 8705SOL    HW237752   0.743   3.472   8.871  1.9091 -0.3911  1.6583
 8706SOL     OW37753   2.856   3.190   9.623  0.0740  0.1752  0.4472
 8706SOL    HW137754   2.881   3.178   9.532 -0.7970 -0.3494  0.2867
 8706SOL    HW237755   2.855   3.098   9.650 -1.7652 -0.0401 -0.4385
 8707SOL     OW37756   3.145   4.078   1.206 -0.0508  0.1041  0.7102
 8707SOL    HW137757   3.229   4.095   1.163 -0.5014  1.5043  0.3894
 8707SOL    HW237758   3.166   4.141   1.275 -2.3531  1.5309  0.0933
 8708SOL     OW37759   0.539   1.381   3.372 -0.2417  0.1998  0.4069
 8708SOL    HW137760   0.456   1.390   3.324 -0.6933  1.1644  1.3761
 8708SOL    HW237761   0.563   1.292   3.347  1.4780  1.0382 -0.9468
 8709SOL     OW37762   0.448   2.469   5.227  0.3062 -0.6223  0.2746
 8709SOL    HW137763   0.503   2.541   5.196 -2.4142  1.1746 -0.4481
 8709SOL    HW237764   0.453   2.485   5.321 -0.2372 -2.5383  0.6233
 8710SOL     OW37765   4.429   0.266   8.111  0.1202  0.3035  0.1707
 8710SOL    HW137766   4.389   0.182   8.091  0.8954 -0.0497  0.0935
 8710SOL    HW237767   4.361   0.311   8.161  0.5734  1.9406 -0.6787
 8711SOL     OW37768   0.379   0.077  10.093  1.1114  0.2820  0.7859
 8711SOL    HW137769   0.363   0.026  10.014 -0.6996  1.1631  0.5920
 8711SOL    HW237770   0.453   0.136  10.075 -1.3249  2.7467 -1.1278
 8712SOL     OW37771   4.057   3.473   1.936 -0.3204 -0.2424 -0.7558
 8712SOL    HW137772   3.990   3.502   1.875 -0.2986 -1.2352 -1.2477
 8712SOL    HW237773   4.130   3.510   1.887  1.0779  1.1123  2.3291
 8713SOL     OW37774   0.908   3.620   6.101  0.0372  0.0146 -0.0650
 8713SOL    HW137775   1.002   3.610   6.083  0.8584  1.1982  3.5522
 8713SOL    HW237776   0.876   3.537   6.067  2.0765 -0.9483  0.3294
 8714SOL     OW37777   3.127   3.114   1.328 -0.0011  0.2544 -1.1567
 8714SOL    HW137778   3.189   3.184   1.346 -0.8034  0.1241  2.0671
 8714SOL    HW237779   3.151   3.090   1.238  0.3586  0.3297 -1.0813
 8715SOL     OW37780   2.400   2.492   1.654  1.0484 -0.3683  0.1805
 8715SOL    HW137781   2.472   2.536   1.609 -0.8307  0.5054 -1.9731
 8715SOL    HW237782   2.329   2.552   1.630  1.3666 -0.2674 -0.5311
 8716SOL     OW37783   2.072   3.144   6.228 -0.0644  0.0920 -0.1827
 8716SOL    HW137784   2.071   3.220   6.286  0.9274 -0.5895  0.7357
 8716SOL    HW237785   2.167   3.133   6.219  0.5464  2.5641  3.3494
 8717SOL     OW37786   0.973   0.897   6.062  0.2303  0.1152 -0.3563
 8717SOL    HW137787   0.916   0.884   5.986 -1.6441 -0.1929  1.1016
 8717SOL    HW237788   0.904   0.907   6.128 -0.4623 -0.6467 -0.9753
 8718SOL     OW37789   4.316   4.146  15.728  0.0788 -0.3427  0.5037
 8718SOL    HW137790   4.222   4.129  15.716 -0.0941  0.0594  1.2835
 8718SOL    HW237791   4.319   4.235  15.693  3.1934 -0.9480 -0.7984
 8719SOL     OW37792   4.142   0.794   8.812  0.4501  0.0055 -0.1571
 8719SOL    HW137793   4.203   0.755   8.749  3.6224  1.5184  1.9910
 8719SOL    HW237794   4.142   0.741   8.892  0.4976 -1.8741 -1.3880
 8720SOL     OW37795   4.590   3.188  14.624  0.5616 -0.6335 -0.0204
 8720SOL    HW137796   4.611   3.281  14.615  1.1648 -0.6580  1.1180
 8720SOL    HW237797   4.662   3.167  14.683  1.7710  0.8302 -0.9677
 8721SOL     OW37798   1.164   3.025   5.238 -0.6294  0.0821  0.4471
 8721SOL    HW137799   1.238   3.068   5.195 -0.9711 -1.3996 -1.6720
 8721SOL    HW237800   1.110   2.986   5.169 -0.0995  1.7098 -0.8875
 8722SOL     OW37801   1.247   1.560   1.978  0.3762  0.0849  0.5713
 8722SOL    HW137802   1.201   1.484   1.942  0.8018 -0.2158  0.6642
 8722SOL    HW237803   1.338   1.547   1.952  0.4937  0.5129  0.7597
 8723SOL     OW37804   1.054   2.010  15.464  0.4738  0.5355 -0.0758
 8723SOL    HW137805   0.960   2.024  15.466  0.0204 -2.6531  1.5121
 8723SOL    HW237806   1.086   2.092  15.501 -2.4087  1.5645  0.1300
 8724SOL     OW37807   4.663   4.679   6.883 -0.2326 -0.0477 -0.2009
 8724SOL    HW137808   4.569   4.691   6.892 -0.0311  0.7155  0.9333
 8724SOL    HW237809   4.700   0.025   6.916  2.0103 -1.4725  0.8650
 8725SOL     OW37810   3.446   2.333  15.876 -0.3112 -0.3213 -0.0168
 8725SOL    HW137811   3.360   2.373  15.863  0.2432  0.5983 -0.9220
 8725SOL    HW237812   3.425   2.248  15.913 -0.5332 -0.0661  0.4533
 8726SOL     OW37813   4.062   0.014   7.272 -0.1126  0.2590 -0.3785
 8726SOL    HW137814   3.972   4.731   7.245 -0.7466 -0.6026  2.3885
 8726SOL    HW237815   4.075   4.687   7.343  0.4490  0.6827 -0.1067
 8727SOL     OW37816   0.482   4.031  10.777  0.1111  0.1858 -0.4008
 8727SOL    HW137817   0.508   4.095  10.711 -1.3759  1.9607  0.7327
 8727SOL    HW237818   0.526   3.948  10.759 -2.6206 -1.0223 -1.5526
 8728SOL     OW37819   0.910   3.239   2.516 -0.2412 -0.1863 -0.8114
 8728SOL    HW137820   0.951   3.231   2.430  1.4277 -0.5583  0.0300
 8728SOL    HW237821   0.826   3.269   2.479 -0.2228  1.8353  0.7895
 8729SOL     OW37822   0.255   4.170  12.067 -0.2343  0.0367  0.1534
 8729SOL    HW137823   0.314   4.208  12.132 -1.6500 -1.4554  2.2856
 8729SOL    HW237824   0.275   4.077  12.076  0.6921  0.0133 -2.0821
 8730SOL     OW37825   3.171   0.937   7.553  0.0509  0.4468 -0.2828
 8730SOL    HW137826   3.181   0.843   7.539  0.1310  0.3506  0.3756
 8730SOL    HW237827   3.264   0.960   7.562 -0.6767  3.3249 -0.0080
 8731SOL     OW37828   2.763   3.478   5.096 -0.2582  0.6786 -0.1375
 8731SOL    HW137829   2.801   3.560   5.063  0.7295 -0.3301 -1.5094
 8731SOL    HW237830   2.823   3.465   5.170  0.9994  0.2980 -1.2123
 8732SOL     OW37831   4.309   2.597  10.595 -0.4106 -0.7897  0.3386
 8732SOL    HW137832   4.270   2.530  10.539 -1.1683 -0.0693  0.0146
 8732SOL    HW237833   4.379   2.631  10.540 -0.3706 -0.0434  0.8545
 8733SOL     OW37834   4.061   1.593  14.245  0.5987 -0.4600 -0.0186
 8733SOL    HW137835   4.008   1.531  14.195  0.5311 -0.6190  0.2525
 8733SOL    HW237836   4.136   1.598  14.187  0.7963  0.6822  0.3323
 8734SOL     OW37837   2.213   3.115   3.100 -0.5363  0.3451  0.4971
 8734SOL    HW137838   2.261   3.040   3.065  0.4915  1.0277  0.4568
 8734SOL    HW237839   2.244   3.191   3.051 -2.7986 -0.4533 -2.1567
 8735SOL     OW37840   0.162   1.794  13.025  0.1375 -0.8402 -0.2605
 8735SOL    HW137841   0.096   1.846  13.072  1.5435 -0.0634  0.8662
 8735SOL    HW237842   0.140   1.812  12.934  1.0352 -0.8529 -0.4846
 8736SOL     OW37843   3.467   1.195   9.071 -0.4572 -0.3803 -0.1005
 8736SOL    HW137844   3.427   1.256   9.132  1.4479 -0.7999  1.5891
 8736SOL    HW237845   3.391   1.170   9.018  0.5967  0.2066 -1.8888
 8737SOL     OW37846   2.245   1.508  11.243  0.0942  0.5980 -0.9157
 8737SOL    HW137847   2.279   1.591  11.209 -0.8914  1.1957 -0.4378
 8737SOL    HW237848   2.155   1.515  11.210 -0.2005 -0.2165 -0.2941
 8738SOL     OW37849   3.086   4.736  13.678 -0.5932 -0.2873  0.8018
 8738SOL    HW137850   3.130   4.732  13.593 -0.5762 -1.3478  0.8587
 8738SOL    HW237851   3.097   4.646  13.707  0.7884 -0.0218  1.1106
 8739SOL     OW37852   1.065   0.045  17.306  0.6019  0.7472 -0.3599
 8739SOL    HW137853   1.015   4.710  17.347 -0.8895  0.6983 -2.2501
 8739SOL    HW237854   1.135   0.054  17.370 -0.2795  0.2664  0.6727
 8740SOL     OW37855   3.749   0.932   7.785 -0.0982  0.2868  0.0172
 8740SOL    HW137856   3.843   0.948   7.773  0.2960 -1.2554  1.0896
 8740SOL    HW237857   3.731   0.974   7.870 -3.8183 -0.4721 -0.4280
 8741SOL     OW37858   1.691   1.232   6.148 -0.3991  0.3714  0.5245
 8741SOL    HW137859   1.741   1.269   6.221 -1.1098  2.3062  0.0413
 8741SOL    HW237860   1.603   1.224   6.185 -0.8960  0.1142 -0.6863
 8742SOL     OW37861   2.718   2.804  13.665  0.7208 -0.5422  0.3196
 8742SOL    HW137862   2.724   2.751  13.745 -1.9208  1.2021  1.6698
 8742SOL    HW237863   2.813   2.817  13.657  0.2367  2.4583 -0.3885
 8743SOL     OW37864   0.194   3.796  14.812 -0.6377  0.0236 -0.0626
 8743SOL    HW137865   0.223   3.711  14.846 -0.5960 -0.3231 -0.9538
 8743SOL    HW237866   0.194   3.765  14.722  1.1456  4.1872 -1.5006
 8744SOL     OW37867   1.192   2.552   9.111 -0.7452 -0.5151 -0.0906
 8744SOL    HW137868   1.162   2.468   9.076  3.3385 -1.2926 -1.7113
 8744SOL    HW237869   1.219   2.530   9.200 -1.4092 -1.8018 -0.2127
 8745SOL     OW37870   4.359   3.503   2.896  0.0397  0.4224 -0.1425
 8745SOL    HW137871   4.332   3.556   2.971  1.5822  3.3702 -1.6672
 8745SOL    HW237872   4.334   3.413   2.918  0.2574 -0.2090 -2.4669
 8746SOL     OW37873   0.379   0.254   5.416 -0.1734  0.0656  0.2842
 8746SOL    HW137874   0.452   0.198   5.391 -0.3634  0.0785 -0.3030
 8746SOL    HW237875   0.417   0.341   5.424  0.5495  0.1260 -3.8158
 8747SOL     OW37876   3.566   0.065  15.477 -0.4621  0.2990 -0.1762
 8747SOL    HW137877   3.548   0.086  15.385  2.0168  1.5762 -0.3693
 8747SOL    HW237878   3.516   4.720  15.485 -1.2782  0.7508 -0.6562
 8748SOL     OW37879   2.503   0.409   3.297 -0.2201  0.1546 -0.4568
 8748SOL    HW137880   2.425   0.359   3.272  1.7832 -1.1910 -4.0439
 8748SOL    HW237881   2.484   0.502   3.294  0.1823  0.3366  2.9869
 8749SOL     OW37882   4.315   1.075   8.812  0.2130  0.9369  0.6125
 8749SOL    HW137883   4.239   1.070   8.870 -0.0836 -1.7963 -0.0521
 8749SOL    HW237884   4.354   0.989   8.800  2.4625  1.9858  0.5396
 8750SOL     OW37885   1.845   1.981   3.177  0.0060  0.1782 -0.0351
 8750SOL    HW137886   1.778   1.938   3.124 -3.1927  1.2922  3.0321
 8750SOL    HW237887   1.900   1.905   3.194  1.0994  1.2554  1.2837
 8751SOL     OW37888   2.609   2.793   7.452  0.1610 -0.1774 -0.3267
 8751SOL    HW137889   2.533   2.770   7.506 -1.3652  2.3362 -1.4416
 8751SOL    HW237890   2.582   2.871   7.403 -0.6627 -0.5490 -0.4573
 8752SOL     OW37891   0.302   4.179   4.650 -1.0040 -0.5843  0.5167
 8752SOL    HW137892   0.250   4.155   4.573 -1.4071  0.8157  0.3414
 8752SOL    HW237893   0.362   4.104   4.656 -1.4255 -1.0975 -1.6598
 8753SOL     OW37894   2.946   3.240   2.552  0.2199  0.3732  0.3672
 8753SOL    HW137895   2.948   3.332   2.578 -0.0221 -0.0465  1.8869
 8753SOL    HW237896   2.853   3.219   2.561  0.2808 -0.9833 -2.0123
 8754SOL     OW37897   2.685   1.593   8.431 -0.3213 -0.2353 -0.1524
 8754SOL    HW137898   2.734   1.675   8.417  2.1979 -1.6550  0.4472
 8754SOL    HW237899   2.636   1.583   8.349  1.4127  0.9015 -1.3375
 8755SOL     OW37900   3.255   0.287   6.222  0.5418 -0.6208 -0.3862
 8755SOL    HW137901   3.200   0.223   6.176 -1.6644  0.9791  0.0062
 8755SOL    HW237902   3.208   0.310   6.302  0.9375 -0.0290 -0.3281
 8756SOL     OW37903   2.313   1.658   8.049 -0.2852  0.3008 -0.9651
 8756SOL    HW137904   2.325   1.753   8.057  0.9203  0.1266 -0.6108
 8756SOL    HW237905   2.228   1.645   8.008 -1.6641  0.0572  1.9620
 8757SOL     OW37906   3.560   1.903  14.840 -0.4345  0.2517  0.4426
 8757SOL    HW137907   3.595   1.820  14.875 -0.3929 -0.3857 -1.0875
 8757SOL    HW237908   3.584   1.895  14.747 -2.0369 -0.7367  0.1053
 8758SOL     OW37909   0.007   2.728   7.387  0.1370 -0.1413  0.3720
 8758SOL    HW137910   4.705   2.777   7.459 -1.1978 -0.5897 -0.0447
 8758SOL    HW237911   4.669   2.691   7.341  0.6871 -1.0240  0.1886
 8759SOL     OW37912   3.016   4.579  11.257  0.3760 -0.1792 -0.3075
 8759SOL    HW137913   3.110   4.574  11.239  0.3641 -0.8261 -0.1872
 8759SOL    HW237914   2.983   4.589  11.168  0.0163  0.8711 -0.0535
 8760SOL     OW37915   2.362   2.511  15.920  0.1919  0.4094 -0.3091
 8760SOL    HW137916   2.395   2.599  15.905  0.7763  0.6536  2.3288
 8760SOL    HW237917   2.278   2.517  15.875 -0.2607 -0.6048  0.3886
 8761SOL     OW37918   3.952   3.778   8.976  0.0734 -0.0485  0.0775
 8761SOL    HW137919   3.975   3.851   8.919  1.1050 -0.7523 -0.4140
 8761SOL    HW237920   3.868   3.748   8.941  0.0752 -0.8790  0.7972
 8762SOL     OW37921   1.810   3.937  12.141 -0.2131 -0.3206 -0.2395
 8762SOL    HW137922   1.869   3.983  12.081 -1.8681  2.4449  0.3015
 8762SOL    HW237923   1.817   3.850  12.101 -1.5600 -0.2174 -0.6950
 8763SOL     OW37924   0.747   1.139   0.433 -0.0539  0.4430 -0.2352
 8763SOL    HW137925   0.820   1.092   0.393  0.6867  1.4296 -0.0203
 8763SOL    HW237926   0.783   1.215   0.478 -0.8460  1.1024 -0.6941
 8764SOL     OW37927   2.477   3.546   7.793  0.3162  0.4574  0.0735
 8764SOL    HW137928   2.482   3.456   7.761 -0.4354  0.0606  1.0647
 8764SOL    HW237929   2.424   3.589   7.726  0.3547  1.2549  0.5584
 8765SOL     OW37930   1.368   2.309   5.509 -0.2054  0.5667 -0.2865
 8765SOL    HW137931   1.454   2.294   5.548 -1.7603 -0.4210  2.8176
 8765SOL    HW237932   1.358   2.240   5.444  1.7274  0.0170  0.0074
 8766SOL     OW37933   2.697   3.135   4.259 -0.3301  0.2579 -0.2619
 8766SOL    HW137934   2.603   3.120   4.269  0.0809 -1.4236  1.1093
 8766SOL    HW237935   2.723   3.153   4.349  0.2022 -0.4903 -0.2702
 8767SOL     OW37936   2.190   2.647   5.751  0.2244 -0.6854 -0.0422
 8767SOL    HW137937   2.163   2.647   5.659  0.0878  1.0958  0.0038
 8767SOL    HW237938   2.195   2.552   5.763 -0.9923 -0.7567 -0.1064
 8768SOL     OW37939   3.475   0.439   6.295  0.3527  0.2406 -0.1082
 8768SOL    HW137940   3.390   0.401   6.274  0.8098 -0.7518 -0.1689
 8768SOL    HW237941   3.459   0.522   6.340 -1.5326  0.2545 -0.8005
 8769SOL     OW37942   2.339   1.228   2.752  0.2277 -0.2544 -0.6223
 8769SOL    HW137943   2.250   1.194   2.754  1.2392 -2.9144 -0.5697
 8769SOL    HW237944   2.331   1.323   2.748  0.2080 -0.3305 -2.1293
 8770SOL     OW37945   4.192   2.787   3.206  0.0958  0.1683 -0.6066
 8770SOL    HW137946   4.105   2.825   3.213 -0.6804 -1.2613 -2.3505
 8770SOL    HW237947   4.188   2.747   3.119 -0.0507 -1.7396  0.2883
 8771SOL     OW37948   0.166   3.690   6.398 -0.2342 -0.6536 -0.3134
 8771SOL    HW137949   0.253   3.662   6.427  0.6884 -0.7356 -3.2037
 8771SOL    HW237950   0.181   3.783   6.409  1.3512 -0.7981 -1.1904
 8772SOL     OW37951   0.441   3.834  15.279 -0.4260 -0.2545  0.1316
 8772SOL    HW137952   0.425   3.740  15.273 -1.2468 -0.1193  0.1482
 8772SOL    HW237953   0.414   3.863  15.192  0.5875  2.0476  0.6029
 8773SOL     OW37954   1.553   3.050  16.066 -0.3438  0.1832 -1.0392
 8773SOL    HW137955   1.511   3.134  16.053 -0.6944  0.4356  1.8407
 8773SOL    HW237956   1.643   3.075  16.044  0.6100 -1.2702  1.1985
 8774SOL     OW37957   3.329   1.303   7.010 -0.4359 -0.5743  0.3499
 8774SOL    HW137958   3.269   1.271   7.078 -0.9490 -0.3175  0.0147
 8774SOL    HW237959   3.359   1.383   7.052 -2.4453  0.5674 -0.4314
 8775SOL     OW37960   0.154   4.152   7.070  0.3268  0.0884  0.9008
 8775SOL    HW137961   0.115   4.071   7.039 -1.3543  1.0924  0.3624
 8775SOL    HW237962   0.121   4.152   7.160 -1.0474  0.5416  0.4094
 8776SOL     OW37963   4.692   0.049   2.757  0.1420 -0.4343  0.4654
 8776SOL    HW137964   0.012   4.735   2.698 -1.2632  0.7824 -1.8824
 8776SOL    HW237965   4.603   0.042   2.723 -0.1065 -2.8600  1.5872
 8777SOL     OW37966   0.980   0.704   2.908 -0.7287 -0.2648 -0.0404
 8777SOL    HW137967   1.051   0.723   2.846 -0.0574 -0.5070  0.6571
 8777SOL    HW237968   0.970   0.791   2.947 -4.1163 -1.7355  2.3421
 8778SOL     OW37969   1.560   4.661   7.961 -0.6173  0.5766 -0.5318
 8778SOL    HW137970   1.513   4.617   7.890 -0.8703  0.2943 -0.1851
 8778SOL    HW237971   1.481   4.678   8.012  0.5975  1.7732  0.9875
 8779SOL     OW37972   3.986   0.157   4.529  0.3811 -0.2413  0.0610
 8779SOL    HW137973   3.925   0.161   4.603  0.3017 -0.9515  0.0294
 8779SOL    HW237974   3.966   0.232   4.473 -0.0053 -2.2517 -2.4719
 8780SOL     OW37975   2.452   2.882  11.916  0.6169 -0.1676  0.1376
 8780SOL    HW137976   2.518   2.816  11.896  1.7176  0.4105  1.9154
 8780SOL    HW237977   2.419   2.847  11.998 -2.5162  1.7297 -0.3241
 8781SOL     OW37978   0.820   0.629   5.085  0.5200  0.5661 -0.4151
 8781SOL    HW137979   0.916   0.627   5.085  0.5029 -0.4479 -2.9368
 8781SOL    HW237980   0.799   0.662   4.998 -0.0742 -1.0870 -0.9047
 8782SOL     OW37981   3.038   1.577   0.738  0.9532 -0.5542 -0.0984
 8782SOL    HW137982   3.031   1.586   0.834  2.8257 -1.6424  0.1328
 8782SOL    HW237983   3.000   1.661   0.710 -1.4611 -0.9383  1.9867
 8783SOL     OW37984   4.075   3.524   3.793 -0.2188 -0.1167 -0.2397
 8783SOL    HW137985   4.061   3.578   3.715 -0.2914 -1.8143 -1.3972
 8783SOL    HW237986   4.143   3.467   3.758 -0.7377  0.4421 -2.1763
 8784SOL     OW37987   1.126   2.825   7.263 -0.0972 -0.6453  0.0028
 8784SOL    HW137988   1.074   2.827   7.183  0.6462 -2.5433 -0.5254
 8784SOL    HW237989   1.180   2.904   7.258 -0.6834 -0.2857 -0.5515
 8785SOL     OW37990   3.211   1.089   9.005  0.1054 -0.0250 -0.0926
 8785SOL    HW137991   3.190   1.015   9.062  3.0525  0.0708  1.1102
 8785SOL    HW237992   3.125   1.101   8.963  0.4554  0.0213 -0.7990
 8786SOL     OW37993   2.294   0.544  11.419  0.5837 -0.2694  0.0005
 8786SOL    HW137994   2.332   0.610  11.478 -0.0911  0.2567 -0.1505
 8786SOL    HW237995   2.202   0.569  11.428  0.2122 -1.4063 -0.6680
 8787SOL     OW37996   3.706   1.675   0.869 -0.8255 -0.4587 -0.0733
 8787SOL    HW137997   3.709   1.603   0.806 -0.5706 -1.7329  1.3886
 8787SOL    HW237998   3.789   1.719   0.853 -1.2551 -0.0681 -1.2086
 8788SOL     OW37999   0.034   1.018   9.864  0.0512  0.3856 -0.2293
 8788SOL    HW138000   0.127   1.000   9.849 -0.5909 -1.5445 -1.8288
 8788SOL    HW238001   0.051   1.089   9.927  0.9343  2.0208 -2.2969
 8789SOL     OW38002   1.630   2.494  15.635 -0.2187  0.5209  0.1822
 8789SOL    HW138003   1.559   2.444  15.674 -0.7437  1.5849  0.6073
 8789SOL    HW238004   1.630   2.565  15.699  0.3761 -0.8520  1.6855
 8790SOL     OW38005   4.676   4.723   5.325  0.2338 -0.1399  0.6249
 8790SOL    HW138006   4.605   0.051   5.315  0.2722 -0.1265  0.4542
 8790SOL    HW238007   4.727   0.027   5.395  1.5884 -1.1755  0.2304
 8791SOL     OW38008   2.586   4.625   8.833 -0.3147 -0.6904 -0.0389
 8791SOL    HW138009   2.511   4.678   8.859 -1.0966 -1.5900 -0.4697
 8791SOL    HW238010   2.536   4.557   8.787  1.7825 -0.4216 -2.7011
 8792SOL     OW38011   2.375   3.256   5.166  0.3060 -0.1759 -0.3558
 8792SOL    HW138012   2.396   3.298   5.250  2.2315  0.3738 -1.0939
 8792SOL    HW238013   2.377   3.332   5.108 -2.4872 -0.1250 -0.3749
 8793SOL     OW38014   2.661   1.388  17.696 -0.3164  0.6401  0.3119
 8793SOL    HW138015   2.726   1.392   0.022 -2.7704  0.6429  2.6014
 8793SOL    HW238016   2.674   1.462  17.637  1.3034  0.9669  1.0667
 8794SOL     OW38017   2.550   2.489   5.825 -0.3074 -0.5333  0.5546
 8794SOL    HW138018   2.543   2.552   5.754  5.5473 -2.1013 -1.4510
 8794SOL    HW238019   2.568   2.403   5.787  0.0409  0.8084 -2.2706
 8795SOL     OW38020   0.371   3.928   9.421 -0.3956  0.4928 -0.1535
 8795SOL    HW138021   0.425   3.978   9.361  1.5782  0.5508  1.6952
 8795SOL    HW238022   0.389   3.839   9.390  0.0346  0.4133  0.3334
 8796SOL     OW38023   2.561   0.108   7.575  0.0915  0.3047 -0.2004
 8796SOL    HW138024   2.477   0.152   7.587  0.1816 -0.7218  4.1896
 8796SOL    HW238025   2.583   0.095   7.668 -0.2873 -0.6274 -0.2474
 8797SOL     OW38026   0.064   1.723   5.165  0.2613  0.0190  0.4684
 8797SOL    HW138027   0.029   1.634   5.164 -2.1615  0.9859 -0.0235
 8797SOL    HW238028   0.037   1.762   5.082  0.9882 -2.2252 -0.8192
 8798SOL     OW38029   2.513   1.149   1.940 -0.5797 -0.0099  0.0843
 8798SOL    HW138030   2.547   1.100   2.014 -0.2529  1.9116  1.1930
 8798SOL    HW238031   2.566   1.229   1.948 -0.9871  0.1711  0.9521
 8799SOL     OW38032   2.865   1.803   8.049  0.4313 -0.3030  0.0716
 8799SOL    HW138033   2.782   1.819   8.004  1.1605  0.0950 -1.1265
 8799SOL    HW238034   2.829   1.790   8.137  2.3814  0.1561  0.9303
 8800SOL     OW38035   0.191   2.456  12.769  0.0356  0.3188 -0.1144
 8800SOL    HW138036   0.234   2.405  12.837  0.7184  0.6545 -0.2857
 8800SOL    HW238037   0.162   2.383  12.715 -2.8909  0.8624  0.7400
 8801SOL     OW38038   0.400   4.305   4.869 -0.5717 -0.1320 -0.0522
 8801SOL    HW138039   0.401   4.260   4.784  1.1985 -0.2243  0.0370
 8801SOL    HW238040   0.328   4.363   4.843 -0.3644  0.0055 -0.3106
 8802SOL     OW38041   4.388   1.529   4.626 -0.0209  0.2165  0.0889
 8802SOL    HW138042   4.327   1.455   4.614 -0.5809  0.7957 -0.6014
 8802SOL    HW238043   4.440   1.500   4.701  1.6594  1.5663 -0.5751
 8803SOL     OW38044   3.904   2.480   4.278  0.4439  0.0961 -0.9418
 8803SOL    HW138045   3.853   2.401   4.295 -0.0438  0.4322 -0.8459
 8803SOL    HW238046   3.982   2.446   4.235  1.7295 -1.9762  3.0755
 8804SOL     OW38047   1.855   1.782   4.470 -0.6845  0.0132 -0.0549
 8804SOL    HW138048   1.762   1.761   4.476 -1.1563  2.0502 -0.0080
 8804SOL    HW238049   1.883   1.761   4.380  0.5505 -0.9583  0.5528
 8805SOL     OW38050   4.678   3.864   2.875 -0.0330 -0.1009 -0.1352
 8805SOL    HW138051   4.644   3.812   2.802 -1.4888 -0.4111  0.7698
 8805SOL    HW238052   0.036   3.850   2.864 -0.6352 -1.9711 -2.8323
 8806SOL     OW38053   1.415   4.554   7.750  0.3059 -0.4546  0.1452
 8806SOL    HW138054   1.368   4.595   7.678  0.9435 -2.6517 -1.5129
 8806SOL    HW238055   1.496   4.552   7.699 -0.7527 -0.4951 -1.5341
 8807SOL     OW38056   2.421   2.431   3.062  0.0932  0.2698 -0.2864
 8807SOL    HW138057   2.517   2.421   3.060  0.0024 -0.4547 -1.1707
 8807SOL    HW238058   2.415   2.494   3.134  0.3207 -0.6639  0.5631
 8808SOL     OW38059   1.695   0.443  11.632  1.0520  0.1150 -0.2129
 8808SOL    HW138060   1.736   0.357  11.639 -0.1154 -0.3950  0.3972
 8808SOL    HW238061   1.778   0.492  11.633  0.6424  0.7497  1.5381
 8809SOL     OW38062   2.780   3.421   6.127  0.7250  0.0406 -0.1742
 8809SOL    HW138063   2.830   3.363   6.184 -0.0882  2.0565  2.5844
 8809SOL    HW238064   2.714   3.370   6.080 -0.9687  1.9816  0.1056
 8810SOL     OW38065   4.433   2.958   7.802 -0.3280  0.4094 -0.1654
 8810SOL    HW138066   4.424   3.053   7.805  3.0718  0.7670 -2.4423
 8810SOL    HW238067   4.381   2.940   7.881  0.9321  2.7465  1.1899
 8811SOL     OW38068   1.470   2.746  10.796 -0.0008 -0.1908  0.6916
 8811SOL    HW138069   1.559   2.713  10.789 -1.0999 -3.0561  0.0829
 8811SOL    HW238070   1.417   2.676  10.758  1.7252  0.1262 -2.2853
 8812SOL     OW38071   4.495   2.446   6.334  0.1751 -0.3567  0.5195
 8812SOL    HW138072   4.454   2.504   6.271 -0.6971 -3.1418 -1.4639
 8812SOL    HW238073   4.571   2.495   6.366  0.3698 -0.3688  0.0656
 8813SOL     OW38074   3.510   1.059   2.223  0.1581  0.0748  1.0244
 8813SOL    HW138075   3.512   1.155   2.219 -0.7103  0.1307  2.1158
 8813SOL    HW238076   3.573   1.043   2.293 -1.7081  0.1734  2.6961
 8814SOL     OW38077   0.210   1.303   2.250 -0.2492 -0.3642  0.5438
 8814SOL    HW138078   0.134   1.337   2.297 -0.8279 -0.8090 -0.0692
 8814SOL    HW238079   0.178   1.285   2.162  0.6721 -0.2150  0.1749
 8815SOL     OW38080   1.749   4.568   8.666  0.3439  0.3419  0.2846
 8815SOL    HW138081   1.664   4.573   8.622  1.0558 -0.7994 -1.2042
 8815SOL    HW238082   1.769   4.478   8.643  2.0132  0.9043 -0.4234
 8816SOL     OW38083   1.277   2.705   4.113  0.3520 -0.0731 -0.4787
 8816SOL    HW138084   1.291   2.650   4.035  1.5317 -0.8020  0.2376
 8816SOL    HW238085   1.332   2.780   4.091  1.4229 -0.6000  0.3551
 8817SOL     OW38086   3.033   1.774  10.955  0.1436  0.2278 -0.6805
 8817SOL    HW138087   3.070   1.862  10.959  0.7008  0.0104 -1.0782
 8817SOL    HW238088   3.107   1.729  10.997 -1.1014 -1.0086  0.1792
 8818SOL     OW38089   2.005   3.795   6.498 -0.2747  0.0352  0.1496
 8818SOL    HW138090   2.100   3.800   6.505 -0.1286 -0.1824 -1.6548
 8818SOL    HW238091   1.998   3.889   6.478  0.3268  0.3644  1.4439
 8819SOL     OW38092   1.327   1.933   3.218 -0.0102 -0.1596  0.4115
 8819SOL    HW138093   1.264   1.996   3.252  1.9363  1.9663  0.1088
 8819SOL    HW238094   1.406   1.988   3.213  0.0551 -0.1679  1.4377
 8820SOL     OW38095   0.121   1.981   8.320 -0.2628  0.6787  0.2146
 8820SOL    HW138096   0.206   1.998   8.362 -0.2180 -1.6181  1.0682
 8820SOL    HW238097   0.075   1.945   8.396  0.5326  2.0645  1.3732
 8821SOL     OW38098   2.670   2.506   2.197 -0.1876  0.4539  0.6698
 8821SOL    HW138099   2.664   2.415   2.228 -1.1352  0.2950  0.0413
 8821SOL    HW238100   2.760   2.539   2.200 -0.6898  1.8503  0.3700
 8822SOL     OW38101   0.681   1.025  17.308  0.3257 -0.7430  0.1660
 8822SOL    HW138102   0.635   0.943  17.324 -1.1313  0.0237 -0.1125
 8822SOL    HW238103   0.666   1.068  17.392 -0.2323  2.6671 -1.6836
 8823SOL     OW38104   4.698   3.585   7.153  0.1040 -0.3965 -0.0117
 8823SOL    HW138105   4.610   3.623   7.150 -1.0347 -3.1129 -0.7120
 8823SOL    HW238106   4.723   3.597   7.245  2.3062  2.8340 -1.0438
 8824SOL     OW38107   2.884   0.646   4.902  0.1099 -0.4782 -0.3133
 8824SOL    HW138108   2.833   0.601   4.969  0.3997  0.9634  0.8660
 8824SOL    HW238109   2.953   0.691   4.951 -0.5741  0.3431 -0.1078
 8825SOL     OW38110   2.257   4.468  11.302 -0.2485 -0.2480  0.6400
 8825SOL    HW138111   2.335   4.414  11.290  0.5190  0.7668  1.1057
 8825SOL    HW238112   2.184   4.406  11.302 -1.5096  1.2229  0.0434
 8826SOL     OW38113   2.126   1.205   5.322 -0.0896  0.0105 -0.3840
 8826SOL    HW138114   2.194   1.140   5.338  0.6987  0.4106 -2.0911
 8826SOL    HW238115   2.156   1.280   5.373 -1.2916 -0.2257  0.6558
 8827SOL     OW38116   1.127   0.100   2.331  0.4266 -0.1378  0.4006
 8827SOL    HW138117   1.185   0.078   2.258  0.3326  1.6865 -0.2191
 8827SOL    HW238118   1.142   0.194   2.340  2.1336 -0.2579 -1.2333
 8828SOL     OW38119   0.899   2.165   3.906 -0.3163 -0.5930 -0.4880
 8828SOL    HW138120   0.951   2.198   3.979 -0.7569  2.1005 -1.4270
 8828SOL    HW238121   0.889   2.236   3.843  0.5872  1.0113  1.1963
 8829SOL     OW38122   0.793   4.084   5.115 -0.1546  0.6065 -0.6557
 8829SOL    HW138123   0.826   4.135   5.189  0.8038 -0.5624 -0.2854
 8829SOL    HW238124   0.878   4.062   5.077  0.7392 -0.2911  1.8816
 8830SOL     OW38125   4.691   3.794   5.506  0.4847 -0.0232  0.3889
 8830SOL    HW138126   0.022   3.782   5.574  2.0303  0.0128 -1.1388
 8830SOL    HW238127   0.018   3.823   5.440 -1.5864  0.4887 -1.3666
 8831SOL     OW38128   0.046   0.428   0.704  0.2668  0.5577  0.5810
 8831SOL    HW138129   0.089   0.422   0.790  1.4882 -0.3843 -0.0969
 8831SOL    HW238130   0.032   0.334   0.689  1.2047  0.5288 -0.0592
 8832SOL     OW38131   4.434   0.227   9.386  0.1783 -0.4908  0.3261
 8832SOL    HW138132   4.451   0.135   9.409 -0.4507 -0.7958 -0.4401
 8832SOL    HW238133   4.409   0.219   9.294  0.5758 -1.3006  0.2888
 8833SOL     OW38134   1.728   1.648  10.100  0.0995 -0.0233 -0.0188
 8833SOL    HW138135   1.661   1.692  10.153 -0.4659  1.0359 -1.5919
 8833SOL    HW238136   1.689   1.568  10.064 -0.7796  0.7531 -0.8099
 8834SOL     OW38137   0.923   3.745  16.679  0.2978 -0.4652 -0.4671
 8834SOL    HW138138   0.997   3.691  16.650  2.5993  2.4212 -0.0144
 8834SOL    HW238139   0.857   3.728  16.612  0.4212 -1.0321 -0.4489
 8835SOL     OW38140   3.965   2.306   9.975  0.1660 -0.1766  0.6149
 8835SOL    HW138141   3.896   2.242   9.957  1.6097 -2.3963  2.8398
 8835SOL    HW238142   4.035   2.302   9.910  1.1138 -1.2672  1.6999
 8836SOL     OW38143   3.075   2.449   4.438  0.2103  0.4061 -0.5722
 8836SOL    HW138144   3.033   2.363   4.434  0.1722  0.3765  0.4212
 8836SOL    HW238145   3.016   2.489   4.502  1.0930 -0.1056  0.5601
 8837SOL     OW38146   1.959   3.321   3.688  0.1128 -0.0638 -0.0250
 8837SOL    HW138147   1.976   3.231   3.716  2.4222  0.3699 -0.0070
 8837SOL    HW238148   2.006   3.369   3.757 -0.5363  1.4272 -0.6208
 8838SOL     OW38149   1.798   3.135  16.636  0.0560  0.0286 -0.5380
 8838SOL    HW138150   1.789   3.041  16.622  1.1379  0.0735 -1.6145
 8838SOL    HW238151   1.760   3.141  16.723  1.9186 -1.7177  0.3900
 8839SOL     OW38152   2.630   3.290  12.927 -0.6912 -0.2535 -0.4454
 8839SOL    HW138153   2.647   3.203  12.892  2.2016  0.8099 -1.7085
 8839SOL    HW238154   2.576   3.329  12.858  2.1249  2.4430 -1.1853
 8840SOL     OW38155   1.429   1.022   3.075  0.0389 -0.5609 -0.4554
 8840SOL    HW138156   1.511   0.972   3.068 -0.0224 -0.3229 -2.7953
 8840SOL    HW238157   1.462   1.111   3.086  0.7640 -0.7189 -1.3178
 8841SOL     OW38158   0.156   1.662   5.636 -0.8180 -0.0683  0.8436
 8841SOL    HW138159   0.135   1.728   5.569 -2.4314 -0.9800  0.4531
 8841SOL    HW238160   0.246   1.637   5.618 -0.4605  1.1480  0.9561
 8842SOL     OW38161   0.265   2.800   8.903  0.2850 -0.1210 -0.3114
 8842SOL    HW138162   0.170   2.798   8.908  0.3246  0.6271  0.6466
 8842SOL    HW238163   0.267   2.801   8.807 -0.9825 -0.7931 -0.3543
 8843SOL     OW38164   2.168   4.365   2.634 -0.2345  0.3006 -0.3603
 8843SOL    HW138165   2.180   4.449   2.590 -3.3226  1.9462  1.9335
 8843SOL    HW238166   2.073   4.356   2.635 -0.2945  0.8352 -1.4259
 8844SOL     OW38167   4.091   2.928   6.919 -0.2296 -0.2140  0.9055
 8844SOL    HW138168   4.176   2.956   6.886 -0.3353  2.0045  2.5041
 8844SOL    HW238169   4.042   2.999   6.878  1.3535 -0.7766 -1.9074
 8845SOL     OW38170   3.939   4.405   9.048  0.5627 -0.4171  0.0171
 8845SOL    HW138171   4.035   4.404   9.056  0.7329  1.5465 -1.8609
 8845SOL    HW238172   3.921   4.320   9.087 -1.5402 -1.3334 -2.9551
 8846SOL     OW38173   4.679   1.331   4.261 -0.3653 -0.0333 -0.5761
 8846SOL    HW138174   0.020   1.301   4.310  0.8767  2.9663 -0.7382
 8846SOL    HW238175   4.614   1.294   4.321  0.1984 -1.4310 -0.8226
 8847SOL     OW38176   4.132   3.875   4.373  0.2044  0.4762 -0.0944
 8847SOL    HW138177   4.126   3.781   4.389  1.5750  0.2124 -1.1491
 8847SOL    HW238178   4.191   3.876   4.298  0.0624 -3.9535 -0.2888
 8848SOL     OW38179   2.151   2.422   1.007  0.9910  0.2301 -0.0417
 8848SOL    HW138180   2.237   2.424   0.965  0.5296 -0.9606 -1.0257
 8848SOL    HW238181   2.150   2.329   1.029 -0.1978  0.7320  2.0726
 8849SOL     OW38182   4.222   4.469  11.954 -0.3441 -0.4766  0.1367
 8849SOL    HW138183   4.228   4.447  12.047 -0.8222  0.7525  0.4689
 8849SOL    HW238184   4.306   4.511  11.939 -0.7568  1.1606  2.3111
 8850SOL     OW38185   3.736   1.609   7.819 -0.2470 -0.0672  0.6327
 8850SOL    HW138186   3.762   1.681   7.763  1.6009 -1.9555 -0.9148
 8850SOL    HW238187   3.722   1.654   7.903  4.2139  1.8713  0.3224
 8851SOL     OW38188   3.251   0.477   5.506 -0.1207 -0.7317  0.2712
 8851SOL    HW138189   3.188   0.458   5.576 -0.1838 -0.6963  0.2243
 8851SOL    HW238190   3.197   0.523   5.441 -3.1700 -2.3996  1.6064
 8852SOL     OW38191   1.229   0.752   5.455  0.3157 -0.4442 -0.6599
 8852SOL    HW138192   1.244   0.794   5.539 -2.8947 -0.5608 -0.0413
 8852SOL    HW238193   1.278   0.673   5.478  0.0048 -0.6902 -0.8442
 8853SOL     OW38194   3.256   0.126   3.821  0.5136  0.0985 -0.8299
 8853SOL    HW138195   3.216   0.040   3.811 -0.8993  0.6157  0.3000
 8853SOL    HW238196   3.175   0.177   3.807  0.2991  0.4570  1.7063
 8854SOL     OW38197   2.226   4.371   4.227 -0.2936  0.4909  0.0408
 8854SOL    HW138198   2.202   4.317   4.152 -0.6422 -0.3039  0.7293
 8854SOL    HW238199   2.320   4.357   4.238 -0.2580  0.6921  0.0054
 8855SOL     OW38200   0.098   1.308   6.939 -0.6097  0.2902 -0.1002
 8855SOL    HW138201   0.096   1.326   7.033 -1.7168  0.8990 -0.2390
 8855SOL    HW238202   0.107   1.214   6.925 -2.3542  0.2736 -1.0985
 8856SOL     OW38203   1.840   3.701   5.296  0.0611 -0.2218  1.0322
 8856SOL    HW138204   1.782   3.772   5.269  1.8515  0.8571 -0.0034
 8856SOL    HW238205   1.923   3.749   5.300  0.0099 -0.0767  0.2886
 8857SOL     OW38206   0.114   0.474   6.685  0.8609  0.4369  0.0455
 8857SOL    HW138207   0.054   0.482   6.611  0.7445  1.9153  0.3089
 8857SOL    HW238208   0.115   0.379   6.694  0.3040  0.4224 -0.0347
 8858SOL     OW38209   4.264   4.125   1.860 -0.3397 -0.2878 -0.0962
 8858SOL    HW138210   4.261   4.061   1.789  0.9675  1.7041 -1.9901
 8858SOL    HW238211   4.184   4.174   1.843  1.3794  3.1759  1.7947
 8859SOL     OW38212   1.976   3.766   2.804 -0.1389 -0.6683 -0.0977
 8859SOL    HW138213   2.041   3.701   2.774 -0.0205 -1.4105  1.7690
 8859SOL    HW238214   1.900   3.760   2.746  1.5719 -0.4064 -2.3778
 8860SOL     OW38215   3.767   2.096   3.680 -0.3311  0.3160 -0.3900
 8860SOL    HW138216   3.719   2.065   3.602 -2.1029  0.5955  0.5793
 8860SOL    HW238217   3.740   2.188   3.674  2.5012  1.1509 -0.0495
 8861SOL     OW38218   0.886   2.785  16.011  0.0596  0.3704  0.1751
 8861SOL    HW138219   0.962   2.735  16.042  0.1815  0.8423  0.6264
 8861SOL    HW238220   0.894   2.875  16.043  0.6670 -0.0877  1.3282
 8862SOL     OW38221   1.173   1.485   5.905 -0.1650 -0.0192 -0.3576
 8862SOL    HW138222   1.256   1.524   5.932  0.2077 -0.1609 -1.2950
 8862SOL    HW238223   1.137   1.561   5.860  0.8294  2.4040  2.9479
 8863SOL     OW38224   2.724   0.497   0.150  0.1016  0.0736 -0.5865
 8863SOL    HW138225   2.673   0.572   0.120 -1.1548 -0.2938  0.6246
 8863SOL    HW238226   2.770   0.537   0.223 -0.1945 -0.3444 -0.1713
 8864SOL     OW38227   1.874   3.507   7.019 -0.1554  0.3041  0.3785
 8864SOL    HW138228   1.858   3.601   7.025 -4.1761 -0.3908  0.7897
 8864SOL    HW238229   1.968   3.513   7.001 -0.5504 -0.3982 -1.9512
 8865SOL     OW38230   2.553   2.938   2.691  0.3599 -0.0406 -0.1836
 8865SOL    HW138231   2.617   2.877   2.653  0.8415  1.2056 -1.3764
 8865SOL    HW238232   2.610   3.014   2.699 -1.4650  1.4898 -1.4163
 8866SOL     OW38233   4.458   3.511   7.426  0.6740  0.1218 -0.4837
 8866SOL    HW138234   4.463   3.479   7.336  3.4278 -0.0219 -0.2989
 8866SOL    HW238235   4.473   3.431   7.475  0.9836  0.6312  0.2537
 8867SOL     OW38236   0.981   2.491   1.136 -0.2193  0.2503 -0.4004
 8867SOL    HW138237   1.001   2.566   1.079  0.9516 -0.8254 -1.4135
 8867SOL    HW238238   1.054   2.434   1.111 -0.7992 -0.9193  0.6070
 8868SOL     OW38239   1.021   3.160   5.870 -0.1832  0.1595  0.1277
 8868SOL    HW138240   1.004   3.073   5.908 -1.1360  0.7615  1.1092
 8868SOL    HW238241   1.039   3.138   5.779 -1.1245  2.1277 -0.5157
 8869SOL     OW38242   3.436   4.452   4.222  0.0327 -0.2756  0.1409
 8869SOL    HW138243   3.419   4.517   4.153  0.8397 -2.4081 -2.0520
 8869SOL    HW238244   3.531   4.443   4.217  0.1078  0.2301  0.6402
 8870SOL     OW38245   4.497   4.680   3.412 -0.8254 -0.2619  0.4310
 8870SOL    HW138246   4.543   4.620   3.353  3.1046  1.1942  2.0029
 8870SOL    HW238247   4.439   4.621   3.459  1.0396 -2.5034 -0.0763
 8871SOL     OW38248   1.135   3.879  10.211 -0.7117  0.6836  0.4311
 8871SOL    HW138249   1.135   3.803  10.269 -1.8568  0.5573  0.2543
 8871SOL    HW238250   1.102   3.945  10.272  1.8311  0.5128  1.9945
 8872SOL     OW38251   2.785   0.150  15.128  0.2735 -0.4558  0.0742
 8872SOL    HW138252   2.825   0.175  15.044  1.4934 -1.0712  0.4677
 8872SOL    HW238253   2.866   0.138  15.177 -0.3074 -1.7502  0.6954
 8873SOL     OW38254   4.450   0.903   8.006  0.5116 -0.5432  0.3946
 8873SOL    HW138255   4.380   0.968   7.996  1.0319 -0.0146  0.2203
 8873SOL    HW238256   4.501   0.949   8.073  2.8164 -1.8216 -0.4834
 8874SOL     OW38257   4.477   0.512   2.478 -0.2618 -0.2521  0.4734
 8874SOL    HW138258   4.477   0.495   2.573 -1.0849  0.1755  0.5487
 8874SOL    HW238259   4.504   0.604   2.473 -0.6753 -0.2861 -2.1897
 8875SOL     OW38260   2.483   1.739   7.438  0.2409 -0.5623 -0.3025
 8875SOL    HW138261   2.445   1.735   7.526 -0.2048  1.9108 -0.3695
 8875SOL    HW238262   2.549   1.671   7.435  1.7799  0.8839  0.4976
 8876SOL     OW38263   0.087   3.823   2.350  0.1859 -0.2032 -0.5905
 8876SOL    HW138264   0.124   3.803   2.264  2.2339 -1.6657  0.6347
 8876SOL    HW238265   0.086   3.736   2.389  0.6936 -1.0857 -2.5291
 8877SOL     OW38266   4.410   0.488   7.867  0.1417  0.3143  0.4089
 8877SOL    HW138267   4.350   0.561   7.853  0.5265  1.0276  2.5283
 8877SOL    HW238268   4.353   0.412   7.859 -0.1886  0.3726  2.2260
 8878SOL     OW38269   4.579   0.298  10.737  0.2116  0.4768 -0.2476
 8878SOL    HW138270   4.668   0.329  10.755 -0.2487  2.6417 -1.7964
 8878SOL    HW238271   4.588   0.318  10.644 -2.0127 -1.1533 -0.8180
 8879SOL     OW38272   0.978   2.807  16.297 -0.1042 -0.2101  0.0043
 8879SOL    HW138273   0.991   2.901  16.282 -1.3077  0.0534  0.6313
 8879SOL    HW238274   1.032   2.763  16.231  2.5837  2.5555  0.3182
 8880SOL     OW38275   1.411   2.304  16.872  0.3182  0.3830 -0.0657
 8880SOL    HW138276   1.360   2.296  16.792 -2.0170  0.7787  1.3695
 8880SOL    HW238277   1.412   2.396  16.897 -1.3546  0.5338 -0.5852
 8881SOL     OW38278   2.410   3.712   9.774  0.1477  0.2862 -0.1759
 8881SOL    HW138279   2.373   3.639   9.823  0.0608  0.1903 -0.3849
 8881SOL    HW238280   2.352   3.786   9.794  1.2139  0.8429  0.8733
 8882SOL     OW38281   3.763   2.370   5.220 -0.2066 -0.4999  0.5886
 8882SOL    HW138282   3.855   2.354   5.241  0.4836  0.6653 -1.5663
 8882SOL    HW238283   3.741   2.293   5.168 -0.1411 -0.4304  0.4584
 8883SOL     OW38284   2.807   3.103  12.259  0.4936  0.2024  0.5017
 8883SOL    HW138285   2.824   3.085  12.352 -0.1501  1.9813  0.9759
 8883SOL    HW238286   2.836   3.194  12.248  0.1027  0.1528 -0.8828
 8884SOL     OW38287   2.812   0.614   1.633 -0.2688 -0.1707  0.3847
 8884SOL    HW138288   2.815   0.520   1.648  0.1947 -0.3035 -0.5413
 8884SOL    HW238289   2.744   0.615   1.565 -0.9860  2.1842  1.1224
 8885SOL     OW38290   1.882   1.835   9.157 -0.3412  0.2135 -0.5899
 8885SOL    HW138291   1.901   1.923   9.125  0.2078  0.1953 -0.3207
 8885SOL    HW238292   1.905   1.853   9.248  0.9995 -3.1093 -0.2647
 8886SOL     OW38293   2.864   1.380   0.121  0.6116  0.0043  0.1418
 8886SOL    HW138294   2.935   1.398   0.183  0.3120  1.3029  0.1159
 8886SOL    HW238295   2.844   1.290   0.146  2.1005 -0.7159 -1.2467
 8887SOL     OW38296   1.822   3.932  13.644  0.0234 -0.4989  0.2608
 8887SOL    HW138297   1.753   3.963  13.586 -0.5216  0.0213  1.1925
 8887SOL    HW238298   1.866   3.868  13.586  0.4402  1.4859 -1.6338
 8888SOL     OW38299   0.651   0.791   8.148  0.5281 -0.1463 -0.1241
 8888SOL    HW138300   0.726   0.796   8.089  0.7943 -2.0090  0.0536
 8888SOL    HW238301   0.674   0.845   8.224 -0.5501 -1.0396  0.8573
 8889SOL     OW38302   3.048   3.397   2.993 -0.1654  0.8856  0.1658
 8889SOL    HW138303   3.080   3.353   2.914  0.8701 -1.2561  1.8009
 8889SOL    HW238304   3.105   3.361   3.060  3.1285  2.5349 -1.7570
 8890SOL     OW38305   3.572   1.956   5.552 -0.1612 -0.8174 -0.5234
 8890SOL    HW138306   3.575   2.051   5.564 -1.9733 -0.7438 -0.7303
 8890SOL    HW238307   3.567   1.915   5.639 -1.3351  2.7678  1.0915
 8891SOL     OW38308   3.064   3.921   8.424  0.6795  0.4579 -0.0246
 8891SOL    HW138309   3.119   3.844   8.431 -1.1591 -0.8992 -0.4349
 8891SOL    HW238310   3.006   3.915   8.500 -1.7253 -1.2976 -1.9785
 8892SOL     OW38311   0.408   1.944   5.754 -0.1406  0.5181 -0.2747
 8892SOL    HW138312   0.349   1.924   5.827 -2.3175  0.5413 -2.0514
 8892SOL    HW238313   0.389   1.873   5.692  1.9791  1.2758 -1.8110
 8893SOL     OW38314   3.630   0.978   0.760  0.4472 -0.1718  0.0854
 8893SOL    HW138315   3.714   0.953   0.798  1.3669  1.8817 -0.6088
 8893SOL    HW238316   3.670   1.044   0.704 -0.4549 -0.8240 -1.3449
 8894SOL     OW38317   0.148   2.964   6.480  0.4951 -0.5910 -1.1515
 8894SOL    HW138318   0.060   2.926   6.481 -0.5014  1.7630  1.2698
 8894SOL    HW238319   0.153   3.003   6.567 -0.8054  0.0934 -1.3762
 8895SOL     OW38320   0.858   1.767  10.204  0.1895  0.0129 -0.0630
 8895SOL    HW138321   0.813   1.847  10.229  0.3320  0.0609  0.0466
 8895SOL    HW238322   0.825   1.746  10.117  0.2508  0.2369 -0.1402
 8896SOL     OW38323   0.968   3.802  16.311  0.0524 -0.2102 -0.1952
 8896SOL    HW138324   1.056   3.828  16.339 -0.7117 -0.2146  2.1688
 8896SOL    HW238325   0.940   3.886  16.274 -0.9087 -0.4364  0.0120
 8897SOL     OW38326   4.489   0.152   8.812 -0.0132  0.0853  0.0272
 8897SOL    HW138327   4.580   0.141   8.786  0.4906  1.3373  1.2741
 8897SOL    HW238328   4.478   0.113   8.898 -0.5128 -1.2346 -0.6302
 8898SOL     OW38329   3.112   3.659  13.578 -0.5402 -0.1794  0.7296
 8898SOL    HW138330   3.095   3.686  13.487  2.1879  0.1140  0.3189
 8898SOL    HW238331   3.066   3.575  13.579 -2.4390  0.8568  1.3894
 8899SOL     OW38332   4.315   2.374   8.384 -0.0521 -0.0310  0.2566
 8899SOL    HW138333   4.378   2.444   8.365 -0.2645  0.4617  1.3585
 8899SOL    HW238334   4.277   2.418   8.460 -1.4726 -0.5531 -0.1591
 8900SOL     OW38335   3.584   4.556   3.013  0.0502 -0.0690 -0.1738
 8900SOL    HW138336   3.522   4.580   3.082 -1.6422 -0.3349 -1.5950
 8900SOL    HW238337   3.533   4.597   2.943 -0.6522  0.3174  0.5624
 8901SOL     OW38338   2.008   0.373  10.678  0.0790 -0.1579  0.2990
 8901SOL    HW138339   2.048   0.408  10.758  1.9849 -1.5976 -0.0476
 8901SOL    HW238340   1.917   0.402  10.690 -0.0060 -0.3562  0.1368
 8902SOL     OW38341   0.884   4.683  11.697  0.2600 -0.0184  0.5375
 8902SOL    HW138342   0.891   4.600  11.651  0.0209  0.8059 -0.9985
 8902SOL    HW238343   0.886   4.648  11.786  0.8844  0.3236  0.6577
 8903SOL     OW38344   2.236   0.726   7.971  0.1988 -0.1156 -0.2772
 8903SOL    HW138345   2.274   0.639   7.960  2.1381  0.7616 -0.5140
 8903SOL    HW238346   2.153   0.701   7.929 -0.0984 -1.2213  0.9491
 8904SOL     OW38347   1.131   4.670   6.366 -0.0851  0.1944  0.3171
 8904SOL    HW138348   1.088   4.650   6.283  2.1561  2.7295 -1.4900
 8904SOL    HW238349   1.074   0.006   6.393 -0.7328 -0.4555  0.6834
 8905SOL     OW38350   0.288   4.207   8.331 -0.3866  0.1296 -0.1632
 8905SOL    HW138351   0.252   4.122   8.305 -2.0451  0.5982  0.5788
 8905SOL    HW238352   0.332   4.234   8.250  1.4464 -1.3520  0.3475
 8906SOL     OW38353   0.375   2.759   2.976 -0.6857  0.3566 -0.2632
 8906SOL    HW138354   0.441   2.700   3.013  1.7676  1.3753 -3.0502
 8906SOL    HW238355   0.343   2.793   3.060  1.4144 -0.6611  0.9321
 8907SOL     OW38356   4.202   0.740   9.091  0.0262 -0.5234  0.3421
 8907SOL    HW138357   4.149   0.669   9.054  1.5927 -0.9708 -1.1089
 8907SOL    HW238358   4.215   0.711   9.181  2.6240  0.5770  0.3364
 8908SOL     OW38359   2.245   1.246   3.696 -0.2645  0.3594 -0.6154
 8908SOL    HW138360   2.163   1.230   3.651 -0.1586  0.2491 -0.7686
 8908SOL    HW238361   2.230   1.196   3.776 -0.5778  0.5507 -0.5526
 8909SOL     OW38362   4.292   0.143   2.100 -0.1405  0.1007 -0.2571
 8909SOL    HW138363   4.253   0.200   2.033  1.6068 -0.2708 -1.5990
 8909SOL    HW238364   4.259   0.056   2.076 -0.9816  0.0173  1.2089
 8910SOL     OW38365   0.206   0.290  15.714 -0.9092 -0.0755 -1.1561
 8910SOL    HW138366   0.159   0.283  15.797  0.0161  1.7304 -0.4785
 8910SOL    HW238367   0.198   0.383  15.692 -0.3477  0.0601 -0.7938
 8911SOL     OW38368   2.046   2.713   6.999  0.5479 -0.1711  0.0595
 8911SOL    HW138369   2.013   2.635   7.043 -1.2246  0.3912 -0.2494
 8911SOL    HW238370   2.015   2.784   7.055 -1.3580 -2.2925  1.7188
 8912SOL     OW38371   3.098   4.014  12.159  0.3861 -0.0189  0.0810
 8912SOL    HW138372   3.097   4.109  12.175  0.6581 -0.0450  0.2509
 8912SOL    HW238373   3.045   4.008  12.079 -1.0328  1.6264  0.8714
 8913SOL     OW38374   0.089   3.328  16.814  0.3964 -0.3540 -0.3396
 8913SOL    HW138375   0.000   3.358  16.792 -0.2739 -2.4640 -0.5270
 8913SOL    HW238376   0.151   3.397  16.792  1.4058 -1.6154 -1.4245
 8914SOL     OW38377   3.393   1.950   7.972 -0.5527  0.4071 -0.3315
 8914SOL    HW138378   3.331   1.880   7.991 -0.1129  0.5421  1.5815
 8914SOL    HW238379   3.363   1.976   7.885  1.6470  0.8522 -0.9560
 8915SOL     OW38380   2.187   4.064   1.810 -0.5691 -0.5512 -0.1120
 8915SOL    HW138381   2.224   3.992   1.862  2.0432 -0.1200 -1.3579
 8915SOL    HW238382   2.149   4.111   1.884 -0.5384 -2.1873  0.9561
 8916SOL     OW38383   0.142   4.159   0.666  0.0858  0.2715  0.5406
 8916SOL    HW138384   0.077   4.126   0.604  1.0603 -1.5399  0.4818
 8916SOL    HW238385   0.122   4.118   0.750 -2.1633  0.7110  0.2100
 8917SOL     OW38386   3.671   2.168   1.492  0.1673  0.4757  0.3258
 8917SOL    HW138387   3.615   2.242   1.472 -1.9559 -1.1283  0.2866
 8917SOL    HW238388   3.708   2.172   1.404  1.8451 -1.0429  0.9661
 8918SOL     OW38389   0.431   3.576   3.503  0.1814  0.6132  0.4658
 8918SOL    HW138390   0.503   3.639   3.494  0.4953  0.1277 -0.4845
 8918SOL    HW238391   0.481   3.506   3.543 -0.2346  0.4022  0.6117
 8919SOL     OW38392   0.866   3.029   2.732 -0.2128  0.1675  0.0066
 8919SOL    HW138393   0.773   3.017   2.713 -0.5970  1.0112  1.3401
 8919SOL    HW238394   0.895   3.115   2.700 -0.0433 -0.6098 -1.8820
 8920SOL     OW38395   4.451   0.670   5.869  0.0787 -0.5488  0.1997
 8920SOL    HW138396   4.407   0.606   5.926 -2.4172 -0.0521 -1.1964
 8920SOL    HW238397   4.472   0.627   5.786  2.2619 -1.8201  1.3838
 8921SOL     OW38398   1.284   4.695   5.401  0.2869 -0.1615  0.2398
 8921SOL    HW138399   1.302   4.623   5.340  1.8632 -0.1654  0.7067
 8921SOL    HW238400   1.316   4.665   5.487 -2.5918 -0.2611  1.2749
 8922SOL     OW38401   3.271   3.748   0.907 -0.2828  0.5719 -0.3637
 8922SOL    HW138402   3.183   3.742   0.943 -0.8141 -0.7134 -1.8836
 8922SOL    HW238403   3.261   3.802   0.829 -0.0211 -0.7194 -1.2918
 8923SOL     OW38404   3.334   3.234   3.402 -0.3299 -0.2614 -0.5465
 8923SOL    HW138405   3.360   3.277   3.484 -0.1846 -1.6818  0.1438
 8923SOL    HW238406   3.407   3.265   3.349 -0.7739 -0.8659 -1.5046
 8924SOL     OW38407   2.899   2.971   0.633  0.1338  0.2326 -0.0820
 8924SOL    HW138408   2.880   2.983   0.727 -1.1465 -2.3296 -0.0185
 8924SOL    HW238409   2.979   2.919   0.640  0.4529  0.6799 -0.4078
 8925SOL     OW38410   1.064   4.385   8.301 -0.0718  0.0375 -0.1075
 8925SOL    HW138411   0.987   4.438   8.321  0.5917  0.5040  1.2330
 8925SOL    HW238412   1.073   4.403   8.208  2.8435 -1.1769 -0.0661
 8926SOL     OW38413   1.784   3.675  12.049  0.2327 -0.4105  0.0853
 8926SOL    HW138414   1.879   3.662  12.044  0.4038  0.4263  0.9938
 8926SOL    HW238415   1.768   3.618  12.124 -2.0922  1.4187  0.9972
 8927SOL     OW38416   3.096   1.177   6.910  0.2961 -0.1854 -0.6853
 8927SOL    HW138417   3.102   1.083   6.927  1.7835  0.1624  0.7884
 8927SOL    HW238418   3.187   1.201   6.927  0.2555 -1.4908  1.3844
 8928SOL     OW38419   0.899   3.350   1.841  0.4593  0.2513  0.1230
 8928SOL    HW138420   0.894   3.309   1.755  0.7233 -0.3964  0.4181
 8928SOL    HW238421   0.804   3.352   1.851  0.4050 -0.0403 -0.3113
 8929SOL     OW38422   2.827   0.342   1.602  0.1089 -0.1909 -0.5051
 8929SOL    HW138423   2.868   0.284   1.666 -1.0293  0.2399  0.6152
 8929SOL    HW238424   2.794   0.270   1.548  0.0304 -0.0283 -0.6744
 8930SOL     OW38425   3.873   3.912   4.556  0.0156  0.2934  0.0400
 8930SOL    HW138426   3.941   3.889   4.492 -0.4846 -0.8369 -0.0926
 8930SOL    HW238427   3.807   3.938   4.492 -0.3471 -0.9666 -0.0972
 8931SOL     OW38428   1.783   3.340   4.726  0.0379 -0.0519  0.5899
 8931SOL    HW138429   1.719   3.399   4.765 -0.4636  0.1020 -0.4888
 8931SOL    HW238430   1.796   3.280   4.800  0.5578  0.2258  0.7276
 8932SOL     OW38431   4.531   3.762   6.835  0.1042  0.6298 -0.5166
 8932SOL    HW138432   4.491   3.849   6.834 -3.1177 -0.8074  2.9709
 8932SOL    HW238433   4.625   3.770   6.819  0.1899  1.5282  0.4120
 8933SOL     OW38434   4.413   2.793   4.384 -0.3690  0.0544  0.4447
 8933SOL    HW138435   4.353   2.829   4.448 -0.5687  2.1229 -0.9182
 8933SOL    HW238436   4.395   2.852   4.311  1.6986 -0.1933 -0.2687
 8934SOL     OW38437   0.946   1.670   0.826  0.5789 -0.0049 -0.1254
 8934SOL    HW138438   0.922   1.762   0.825 -0.9815 -0.3680  2.4865
 8934SOL    HW238439   0.861   1.627   0.834 -0.0197  1.3438  0.7962
 8935SOL     OW38440   2.604   4.306   4.543  0.1582  0.0294  0.0891
 8935SOL    HW138441   2.545   4.259   4.484 -0.6020  0.0334  0.8353
 8935SOL    HW238442   2.657   4.345   4.474  0.8325 -0.3411  0.3961
 8936SOL     OW38443   0.875   1.821   7.710 -0.2418 -0.0224  0.0986
 8936SOL    HW138444   0.868   1.809   7.805 -1.7125  0.6988  0.0807
 8936SOL    HW238445   0.968   1.796   7.707 -0.8147 -2.1078  0.0216
 8937SOL     OW38446   1.593   0.562   2.391  0.1553  0.5670 -0.3294
 8937SOL    HW138447   1.602   0.529   2.480 -0.4439 -1.2689 -0.9454
 8937SOL    HW238448   1.627   0.651   2.402 -1.2391  0.6841  3.0658
 8938SOL     OW38449   1.337   2.211   2.317  0.0935 -0.0807  0.1708
 8938SOL    HW138450   1.326   2.209   2.412 -0.6630 -0.6536  0.0634
 8938SOL    HW238451   1.251   2.195   2.279  0.7012  1.6819 -1.9740
 8939SOL     OW38452   3.631   2.741   4.538  0.8313 -0.1529 -0.0109
 8939SOL    HW138453   3.590   2.757   4.623  1.5291 -1.2739  0.5338
 8939SOL    HW238454   3.711   2.700   4.569  0.1734  0.3442  2.3216
 8940SOL     OW38455   3.086   1.387   3.729 -0.4441 -0.4218 -0.8978
 8940SOL    HW138456   3.018   1.428   3.781 -0.2346 -1.4132  0.1490
 8940SOL    HW238457   3.048   1.299   3.730  0.3115 -0.6843  2.9024
 8941SOL     OW38458   3.178   0.038  11.753 -0.2818 -0.1004 -0.2164
 8941SOL    HW138459   3.273   0.042  11.766 -0.2232  0.6672 -0.9076
 8941SOL    HW238460   3.163   0.000  11.840 -0.1832 -3.0381 -1.4764
 8942SOL     OW38461   4.087   3.559   7.117  0.0476  0.3813  1.1256
 8942SOL    HW138462   4.004   3.577   7.162  0.1961  0.0047  1.5543
 8942SOL    HW238463   4.072   3.605   7.034 -1.7424 -0.1741  1.1329
 8943SOL     OW38464   0.676   2.543  12.106  0.5268 -0.0618 -0.4686
 8943SOL    HW138465   0.652   2.534  12.013 -0.1384  1.1612 -0.4059
 8943SOL    HW238466   0.682   2.635  12.128  0.1970 -0.2006  0.1912
 8944SOL     OW38467   1.241   3.867   7.519 -0.1530  0.1356 -0.0482
 8944SOL    HW138468   1.292   3.908   7.450  1.9739 -0.6763  1.0130
 8944SOL    HW238469   1.310   3.811   7.555  0.0187  1.1440  1.1813
 8945SOL     OW38470   3.905   0.967  14.421  0.1671  0.3247 -0.0116
 8945SOL    HW138471   3.911   0.969  14.517  1.8301  0.7581 -0.1257
 8945SOL    HW238472   3.810   0.959  14.415  0.1901 -0.0471  0.0900
 8946SOL     OW38473   1.469   4.299   2.885 -0.2329  0.5089 -0.4149
 8946SOL    HW138474   1.558   4.298   2.849  0.0492 -1.1427  0.3392
 8946SOL    HW238475   1.447   4.210   2.858 -2.8976  0.6633  1.2085
 8947SOL     OW38476   3.208   2.431   7.213  0.2824  0.5309 -0.1256
 8947SOL    HW138477   3.148   2.476   7.152 -1.0463 -0.8956  0.1313
 8947SOL    HW238478   3.244   2.361   7.159  0.5545  1.3878 -1.0562
 8948SOL     OW38479   1.434   4.324   3.794  0.7253 -1.2603  0.0743
 8948SOL    HW138480   1.465   4.359   3.878 -2.5811 -0.5137  0.9668
 8948SOL    HW238481   1.472   4.388   3.733 -0.0889 -0.8409  0.0116
 8949SOL     OW38482   2.014   2.595   4.513  0.3515  0.4522  0.1420
 8949SOL    HW138483   1.926   2.601   4.552  0.0306  2.9488 -0.8988
 8949SOL    HW238484   2.076   2.604   4.584 -1.7215  1.4354  1.8536
 8950SOL     OW38485   0.416   2.569   2.255 -0.4020  0.7662 -0.2672
 8950SOL    HW138486   0.357   2.635   2.290  0.8713  2.1127 -0.6243
 8950SOL    HW238487   0.469   2.617   2.190  0.8911 -1.2737 -0.7314
 8951SOL     OW38488   1.652   3.595   6.795 -0.4467 -0.2041  0.2064
 8951SOL    HW138489   1.691   3.659   6.737 -0.7496 -0.7767 -0.6297
 8951SOL    HW238490   1.736   3.552   6.810  0.5587  2.5182  2.2039
 8952SOL     OW38491   0.815   0.263   3.814  0.0941 -0.1878 -1.2661
 8952SOL    HW138492   0.850   0.326   3.752  0.6603 -2.5819 -3.3707
 8952SOL    HW238493   0.729   0.294   3.843 -1.0709 -2.1750 -2.6192
 8953SOL     OW38494   4.261   0.639   5.141  0.2801 -0.0892 -0.2730
 8953SOL    HW138495   4.169   0.662   5.156  0.0618 -0.1572 -1.4309
 8953SOL    HW238496   4.299   0.684   5.215 -2.4756 -0.9447  1.6695
 8954SOL     OW38497   1.627   4.039   3.309 -0.5005 -0.3988  0.5450
 8954SOL    HW138498   1.593   3.958   3.345 -1.7561 -0.1887 -0.1549
 8954SOL    HW238499   1.543   4.074   3.279 -1.5891 -2.4059  1.2909
 8955SOL     OW38500   1.631   3.010  17.423 -0.4872 -0.0827 -0.1314
 8955SOL    HW138501   1.700   2.944  17.420  1.4794  1.9833 -0.4184
 8955SOL    HW238502   1.681   3.074  17.473 -0.9875  0.3781 -0.2184
 8956SOL     OW38503   2.697   4.359   9.669 -0.3044  0.0191  0.1760
 8956SOL    HW138504   2.792   4.371   9.663 -0.5912  1.9863 -0.3366
 8956SOL    HW238505   2.681   4.419   9.742  0.8016  0.9897 -0.3727
 8957SOL     OW38506   4.407   1.112   4.094 -0.2111  0.7420  0.7958
 8957SOL    HW138507   4.474   1.177   4.072  0.1100 -0.4152 -1.7002
 8957SOL    HW238508   4.347   1.116   4.018 -0.0526  0.8843  0.6784
 8958SOL     OW38509   0.726   1.119   4.427  0.2935 -0.2540 -0.1975
 8958SOL    HW138510   0.686   1.084   4.507 -1.4153  0.8753 -0.5452
 8958SOL    HW238511   0.752   1.038   4.383  2.2218  1.2392 -1.7874
 8959SOL     OW38512   2.514   4.351  15.274  0.5534 -0.2976 -0.1239
 8959SOL    HW138513   2.445   4.343  15.207  2.0496 -0.0960 -1.6938
 8959SOL    HW238514   2.469   4.339  15.357  3.2316 -1.3633  1.1589
 8960SOL     OW38515   0.415   0.423  11.646 -0.1974 -0.0348 -0.3359
 8960SOL    HW138516   0.422   0.328  11.642 -0.6697 -0.1478  1.6589
 8960SOL    HW238517   0.465   0.441  11.726 -0.0157 -0.5563 -0.3320
 8961SOL     OW38518   2.936   1.069   7.210 -0.5821  0.0596  0.1224
 8961SOL    HW138519   2.980   1.015   7.275 -0.3635  1.4634  1.1192
 8961SOL    HW238520   2.928   0.996   7.148  3.0512  0.0193 -0.2688
 8962SOL     OW38521   1.555   1.168  14.185 -0.3937 -0.3382  0.0989
 8962SOL    HW138522   1.645   1.142  14.201 -0.2872 -0.3709 -0.5476
 8962SOL    HW238523   1.560   1.239  14.120 -0.8567 -1.0077 -0.6795
 8963SOL     OW38524   2.892   0.173   5.581 -0.4249  0.0244 -0.2779
 8963SOL    HW138525   2.876   0.123   5.501 -2.8325  0.6950 -0.2312
 8963SOL    HW238526   2.809   0.142   5.618 -0.5897  1.0748  0.2397
 8964SOL     OW38527   2.086   0.042  15.451  0.1894 -0.3240  0.6597
 8964SOL    HW138528   2.052   0.109  15.392  1.6328 -2.4609 -2.5892
 8964SOL    HW238529   2.142   0.103  15.498 -0.2940  0.7979 -0.2291
 8965SOL     OW38530   1.538   4.204   8.003 -0.1285 -0.2162  0.1543
 8965SOL    HW138531   1.472   4.255   7.957 -0.2967  0.7136  1.4343
 8965SOL    HW238532   1.603   4.177   7.938  0.7197 -1.5169  1.5226
 8966SOL     OW38533   1.464   4.377   3.495 -0.1663 -0.2686 -0.1892
 8966SOL    HW138534   1.389   4.345   3.445  0.7360 -0.7865 -1.2211
 8966SOL    HW238535   1.421   4.442   3.551  0.1011  0.6275 -1.0198
 8967SOL     OW38536   0.336   3.098   9.386 -0.1585  0.1951 -0.2135
 8967SOL    HW138537   0.309   3.082   9.477  0.6308  0.0219 -0.0095
 8967SOL    HW238538   0.419   3.051   9.380 -1.0293 -1.2268 -0.9460
 8968SOL     OW38539   0.902   1.320   0.578  0.6279 -0.0847  0.9906
 8968SOL    HW138540   0.969   1.253   0.595 -0.5033 -1.1490  1.2353
 8968SOL    HW238541   0.952   1.400   0.592 -0.6894  1.1844 -1.4610
 8969SOL     OW38542   4.572   3.915  16.545  0.4963  0.7172 -0.5562
 8969SOL    HW138543   4.662   3.884  16.553  0.6527  0.8567 -1.8513
 8969SOL    HW238544   4.570   3.951  16.456  1.0253  2.7632  0.2570
 8970SOL     OW38545   3.682   0.748   8.662  0.9710 -0.1341  0.2502
 8970SOL    HW138546   3.717   0.714   8.744  0.2794  0.9740  1.0053
 8970SOL    HW238547   3.736   0.695   8.604  0.1634 -0.6664 -0.0129
 8971SOL     OW38548   1.441   3.051   0.654 -0.3314  0.2338  0.3040
 8971SOL    HW138549   1.348   3.058   0.677 -0.2829  4.1903 -0.6962
 8971SOL    HW238550   1.468   2.980   0.713 -0.1426  2.0636  2.4134
 8972SOL     OW38551   0.045   4.400   6.462  0.0179 -0.2230  0.2988
 8972SOL    HW138552   0.068   4.384   6.370  0.6519  1.2788  0.2054
 8972SOL    HW238553   0.066   4.492   6.474 -1.0772 -0.2015  2.0958
 8973SOL     OW38554   2.736   1.896   0.840 -0.3636 -0.4459 -0.2345
 8973SOL    HW138555   2.698   1.983   0.837  0.3829 -0.0006  3.3111
 8973SOL    HW238556   2.760   1.883   0.932 -1.1666 -1.0977 -0.1222
 8974SOL     OW38557   0.081   3.795  10.965 -0.1282  0.0732  0.3781
 8974SOL    HW138558   0.171   3.823  10.982  0.1368 -1.4257  1.4859
 8974SOL    HW238559   0.066   3.843  10.884  0.2142 -2.4145 -1.1623
 8975SOL     OW38560   1.067   0.406   4.651 -0.2776 -0.9318  0.1036
 8975SOL    HW138561   1.067   0.463   4.727 -3.2979 -0.8349  0.0630
 8975SOL    HW238562   0.984   0.437   4.613 -0.1955 -2.0455 -0.9681
 8976SOL     OW38563   0.992   4.528  16.451 -0.0356  0.2649  0.9481
 8976SOL    HW138564   1.040   4.595  16.401  0.8607 -0.9879  0.1334
 8976SOL    HW238565   1.048   4.517  16.527  0.7160  1.8894  0.6349
 8977SOL     OW38566   2.206   2.708   3.700  0.3312  0.2244  0.1361
 8977SOL    HW138567   2.114   2.684   3.685  0.3213  1.4113 -1.6630
 8977SOL    HW238568   2.226   2.787   3.650  0.7612 -0.0084 -0.0558
 8978SOL     OW38569   3.835   3.251   7.423 -0.3408  0.4239  0.0580
 8978SOL    HW138570   3.811   3.168   7.464 -0.4935  0.8464  0.8221
 8978SOL    HW238571   3.810   3.243   7.331 -2.3224  0.7680  0.5508
 8979SOL     OW38572   0.331   0.114   4.253 -0.1366  0.2906  0.7661
 8979SOL    HW138573   0.377   0.085   4.175 -0.7291 -2.1918  1.3566
 8979SOL    HW238574   0.242   0.101   4.220  0.5524 -2.0565 -0.1501
 8980SOL     OW38575   3.822   0.036   8.909 -0.0431  0.2393  0.2578
 8980SOL    HW138576   3.801   4.733   8.994  0.2819 -0.1034  0.1802
 8980SOL    HW238577   3.738   0.025   8.865 -0.0151  0.7937  0.0616
 8981SOL     OW38578   1.411   2.304  15.718 -0.3362 -0.4722 -0.2922
 8981SOL    HW138579   1.443   2.260  15.639  3.5188 -1.3656  1.7719
 8981SOL    HW238580   1.456   2.255  15.786 -0.3972  3.1313  2.3543
 8982SOL     OW38581   1.834   4.734  10.376  0.2272  0.3542 -0.1918
 8982SOL    HW138582   1.898   0.061  10.406  0.7080 -1.3958  2.4820
 8982SOL    HW238583   1.887   4.707  10.301 -1.9018  1.2293 -2.0230
 8983SOL     OW38584   4.688   2.327   5.303  0.4834 -0.0751 -0.2830
 8983SOL    HW138585   4.657   2.274   5.229  0.9819  0.3037 -0.7657
 8983SOL    HW238586   4.630   2.402   5.291 -0.7482 -1.1007 -0.7194
 8984SOL     OW38587   0.728   1.270  17.026  0.4272 -0.2397 -0.2079
 8984SOL    HW138588   0.633   1.271  17.033  0.4180 -0.0375 -0.3707
 8984SOL    HW238589   0.751   1.335  16.960 -0.8213  0.5639  0.1415
 8985SOL     OW38590   4.149   3.913   6.146  0.2654 -0.5860 -0.3766
 8985SOL    HW138591   4.215   3.938   6.211  0.1732  2.5302 -1.4555
 8985SOL    HW238592   4.193   3.848   6.092  2.6610  0.2300  0.6032
 8986SOL     OW38593   2.765   4.123   8.603 -0.0115  0.1022  0.1853
 8986SOL    HW138594   2.851   4.096   8.635  0.6324 -0.3278 -1.9157
 8986SOL    HW238595   2.755   4.201   8.657 -1.7257  0.8451 -1.1899
 8987SOL     OW38596   3.588   1.307   6.465 -0.3172  0.1295  0.0397
 8987SOL    HW138597   3.633   1.391   6.477  1.0618 -0.6698  0.4154
 8987SOL    HW238598   3.531   1.306   6.542 -1.0158  1.4837 -0.4695
 8988SOL     OW38599   4.069   4.624   7.950 -0.0322 -0.8127 -0.1832
 8988SOL    HW138600   4.118   4.705   7.935 -1.9192  0.3997  0.2506
 8988SOL    HW238601   4.112   4.562   7.891 -0.1571 -2.1360  1.1066
 8989SOL     OW38602   0.022   1.875   4.933 -0.2112  0.1575 -0.4932
 8989SOL    HW138603   0.061   1.960   4.956  0.9705 -0.2631 -0.9396
 8989SOL    HW238604   4.688   1.904   4.875  1.4618  1.1177 -2.0482
 8990SOL     OW38605   3.676   3.912   8.348  0.8864  0.3728  0.7034
 8990SOL    HW138606   3.647   3.906   8.439 -1.1935  0.4416  0.0457
 8990SOL    HW238607   3.627   3.991   8.325  0.5590  0.2066  0.8214
 8991SOL     OW38608   2.091   1.845  15.930  0.3833 -0.0256  0.3823
 8991SOL    HW138609   2.059   1.887  15.850  1.0802  0.3220  0.2904
 8991SOL    HW238610   2.105   1.924  15.983  1.9891  0.8549 -1.3299
 8992SOL     OW38611   2.011   2.962   3.183  1.0887 -0.9331 -0.2231
 8992SOL    HW138612   2.091   3.002   3.147  1.2584  0.6113  1.8781
 8992SOL    HW238613   1.940   3.002   3.133  0.4912 -3.0817 -1.1075
 8993SOL     OW38614   0.703   4.276   7.422 -0.0485 -0.1025 -0.3696
 8993SOL    HW138615   0.638   4.327   7.373  0.4167  1.8672  1.0830
 8993SOL    HW238616   0.780   4.320   7.386 -1.6143  0.3669 -3.1801
 8994SOL     OW38617   3.930   4.633  11.472  0.0873  0.0782  0.1807
 8994SOL    HW138618   3.968   4.565  11.415 -1.5017 -0.6028 -0.0795
 8994SOL    HW238619   3.894   4.572  11.536  0.8349 -2.4979 -1.8223
 8995SOL     OW38620   3.254   3.821   4.250  0.2029  0.1561 -0.2240
 8995SOL    HW138621   3.237   3.735   4.290  2.5360  0.6496  1.8841
 8995SOL    HW238622   3.346   3.810   4.223  0.5428  0.1995  0.9067
 8996SOL     OW38623   3.642   3.060   4.636  0.4920 -0.0661  0.1679
 8996SOL    HW138624   3.546   3.061   4.636  0.5027  0.5031 -0.1698
 8996SOL    HW238625   3.657   3.098   4.550  0.3359  2.4871  1.2768
 8997SOL     OW38626   2.012   0.545   7.526  0.1150  0.1446  0.1755
 8997SOL    HW138627   2.095   0.586   7.553 -0.4099  1.5262 -0.3104
 8997SOL    HW238628   2.021   0.465   7.578 -1.1783 -0.7224 -0.9181
 8998SOL     OW38629   2.979   1.049   2.516  0.1563  0.1318 -0.5115
 8998SOL    HW138630   2.963   0.986   2.446  2.8973  0.3667 -1.3724
 8998SOL    HW238631   2.919   1.009   2.578 -0.5389 -2.2230 -2.6932
 8999SOL     OW38632   0.967   2.932   6.238  0.2396 -0.2019 -0.3228
 8999SOL    HW138633   1.045   2.909   6.288  2.0710  3.0983 -1.6952
 8999SOL    HW238634   0.945   3.004   6.296  1.9753  0.9351 -1.0735
 9000SOL     OW38635   4.462   3.125   9.069 -0.3906  0.4418 -0.3537
 9000SOL    HW138636   4.471   3.107   9.163 -1.6920 -1.9620 -0.6902
 9000SOL    HW238637   4.539   3.178   9.048 -0.1316  0.6596  1.1379
 9001SOL     OW38638   2.354   2.128  14.515 -0.2198 -0.4662  0.8167
 9001SOL    HW138639   2.323   2.197  14.456  0.8763  0.7876  1.7226
 9001SOL    HW238640   2.336   2.053  14.458  0.4731  0.1342 -0.1931
 9002SOL     OW38641   0.717   3.596   7.650  0.5287 -0.7427 -0.4210
 9002SOL    HW138642   0.714   3.504   7.621 -0.1288 -1.3735  1.6714
 9002SOL    HW238643   0.716   3.648   7.570  2.6168  1.9511  1.3098
 9003SOL     OW38644   0.343   2.715   6.695  0.0380  0.1948 -0.3343
 9003SOL    HW138645   0.349   2.699   6.789  2.3711  0.8696 -0.3698
 9003SOL    HW238646   0.325   2.626   6.664  2.9904 -0.0613 -1.3327
 9004SOL     OW38647   1.395   1.926   6.906  0.4903 -0.3656 -0.2505
 9004SOL    HW138648   1.321   1.928   6.845 -0.8487 -0.0648  1.3817
 9004SOL    HW238649   1.337   1.909   6.981  0.3459  1.8843  0.1470
 9005SOL     OW38650   4.230   2.349   2.113 -0.0338  0.1092  0.7805
 9005SOL    HW138651   4.277   2.427   2.143 -2.9217  1.7984  0.9466
 9005SOL    HW238652   4.142   2.350   2.151  0.2254 -2.8534  1.4378
 9006SOL     OW38653   1.918   0.827   5.728  0.6180  0.1891 -0.6478
 9006SOL    HW138654   1.978   0.843   5.800  0.7660  0.0349 -0.7372
 9006SOL    HW238655   1.830   0.843   5.761  0.2831 -1.5786 -0.6514
 9007SOL     OW38656   3.067   1.669   4.420 -0.5775  0.0127 -0.3482
 9007SOL    HW138657   3.069   1.587   4.372  0.2833  0.6996 -1.4980
 9007SOL    HW238658   3.079   1.620   4.501 -2.2851 -2.7528 -1.7838
 9008SOL     OW38659   3.672   1.817   8.002  0.1417 -0.1944 -0.2170
 9008SOL    HW138660   3.625   1.884   7.953  1.5155  1.2373  0.4059
 9008SOL    HW238661   3.643   1.839   8.091 -1.6819 -1.7822 -0.4123
 9009SOL     OW38662   0.743   2.323   4.556 -0.2681 -0.2808  0.1441
 9009SOL    HW138663   0.745   2.274   4.474 -1.0117 -0.1472  0.0426
 9009SOL    HW238664   0.724   2.409   4.518  0.7204 -0.1101  0.0402
 9010SOL     OW38665   2.284   3.733   3.031  0.0455 -0.3028  0.0551
 9010SOL    HW138666   2.208   3.686   3.065  0.2047  0.2283  1.1443
 9010SOL    HW238667   2.353   3.668   3.040 -0.6229 -0.6513  2.6035
 9011SOL     OW38668   0.521   0.581   4.403  0.2127 -0.1396  0.3622
 9011SOL    HW138669   0.460   0.509   4.420  2.4897 -1.7015  2.1010
 9011SOL    HW238670   0.493   0.605   4.315 -2.1714 -1.6621  0.7219
 9012SOL     OW38671   4.728   4.129  15.597  0.0219 -0.4205  0.5346
 9012SOL    HW138672   0.080   4.113  15.631  0.3612 -4.4498 -2.1933
 9012SOL    HW238673   4.735   4.080  15.515 -1.2279  1.7500 -0.8564
 9013SOL     OW38674   4.723   2.678   8.353  0.4238  0.2620 -0.3872
 9013SOL    HW138675   0.018   2.634   8.275  1.7842  1.0134 -0.2722
 9013SOL    HW238676   0.054   2.667   8.420  0.7142  1.1195 -0.5324
 9014SOL     OW38677   1.621   2.294   7.034  0.4035 -0.2568  0.4038
 9014SOL    HW138678   1.671   2.310   7.114 -1.5214 -3.8359  2.3276
 9014SOL    HW238679   1.608   2.388   7.019 -1.1767 -0.1326  2.5060
 9015SOL     OW38680   3.362   0.844  11.103 -0.5626 -0.3729 -0.1785
 9015SOL    HW138681   3.414   0.906  11.154  0.2854 -0.5277 -0.8564
 9015SOL    HW238682   3.378   0.862  11.010  0.5858 -1.3495 -0.1743
 9016SOL     OW38683   3.749   2.570  16.354  0.2678  0.5974  0.1140
 9016SOL    HW138684   3.777   2.531  16.272 -0.6783 -1.7193  0.8900
 9016SOL    HW238685   3.815   2.525  16.408  0.4690  0.3134 -0.3690
 9017SOL     OW38686   1.903   1.297   6.954  0.2988 -0.1011  0.2369
 9017SOL    HW138687   1.849   1.299   7.033 -0.8058 -0.0699 -0.5182
 9017SOL    HW238688   1.856   1.360   6.899  0.9630 -0.5052 -0.7861
 9018SOL     OW38689   4.614   0.925  10.090  0.0155 -0.9448 -0.4298
 9018SOL    HW138690   4.678   0.971  10.144 -2.4344 -0.7234  2.3174
 9018SOL    HW238691   4.622   0.838  10.128 -0.2895 -0.0766  1.6245
 9019SOL     OW38692   2.958   0.202   4.355  0.2452 -0.0486 -0.1388
 9019SOL    HW138693   3.002   0.287   4.351  2.3939 -1.0738  1.8057
 9019SOL    HW238694   2.984   0.165   4.271  1.3580 -0.8642  0.5600
 9020SOL     OW38695   1.334   2.483  10.677  0.2173  0.2444  0.1884
 9020SOL    HW138696   1.350   2.389  10.673 -1.4509 -0.0250 -0.3438
 9020SOL    HW238697   1.248   2.506  10.713  0.5392 -1.1889  1.8351
 9021SOL     OW38698   3.628   3.688   7.910 -0.2576  0.3964  0.1177
 9021SOL    HW138699   3.648   3.664   7.819  1.5885  0.9751  0.3671
 9021SOL    HW238700   3.608   3.780   7.895 -1.9568 -0.3094 -2.0170
 9022SOL     OW38701   1.586   3.303   7.595 -0.2298  0.1608 -0.3917
 9022SOL    HW138702   1.543   3.359   7.530  0.1750 -1.7021 -2.2749
 9022SOL    HW238703   1.543   3.341   7.671  1.8484 -0.3293  1.0231
 9023SOL     OW38704   2.010   0.473  13.966  0.1029 -0.1036 -0.0453
 9023SOL    HW138705   2.042   0.543  13.908 -0.9981  0.3497 -0.1261
 9023SOL    HW238706   1.973   0.525  14.038 -0.2525 -0.1763 -0.1720
 9024SOL     OW38707   0.088   0.314  13.265  0.3362  0.0966 -0.1579
 9024SOL    HW138708   0.066   0.398  13.226  2.2055  0.6426 -0.0541
 9024SOL    HW238709   0.156   0.342  13.326  0.9038  0.1839 -0.8245
 9025SOL     OW38710   0.267   4.635   1.902 -0.2774  0.3915  0.5869
 9025SOL    HW138711   0.296   4.571   1.966 -0.9743 -1.5963 -1.0859
 9025SOL    HW238712   0.174   4.644   1.924  0.2608  1.1913  2.5259
 9026SOL     OW38713   1.621   1.178  12.017 -0.2787  0.0838 -0.2444
 9026SOL    HW138714   1.687   1.134  12.071  0.0206 -1.6016 -2.0034
 9026SOL    HW238715   1.549   1.115  12.010  0.5644 -1.0958  1.5408
 9027SOL     OW38716   3.562   3.473   5.688  0.0049  0.2327  0.5290
 9027SOL    HW138717   3.545   3.395   5.635 -2.3436 -0.2220  1.9336
 9027SOL    HW238718   3.470   3.480   5.713 -0.2072  2.3450 -0.8053
 9028SOL     OW38719   4.541   4.123  11.981 -0.1250  0.4143 -0.0450
 9028SOL    HW138720   4.564   4.150  11.892 -1.9107 -2.2082 -1.2885
 9028SOL    HW238721   4.468   4.182  11.999 -2.9856 -3.3308  0.5966
 9029SOL     OW38722   0.507   3.565  15.144 -0.2895 -0.8604  0.3604
 9029SOL    HW138723   0.573   3.513  15.191 -2.6803 -2.6810  1.7402
 9029SOL    HW238724   0.443   3.564  15.216  0.6947  0.3247  1.2317
 9030SOL     OW38725   1.312   4.328   4.487 -0.6087  0.1878  0.1241
 9030SOL    HW138726   1.271   4.241   4.483 -0.7389  0.2624 -0.1188
 9030SOL    HW238727   1.310   4.341   4.582 -0.7034 -1.6202  0.3791
 9031SOL     OW38728   3.428   1.173  10.369 -0.1278 -0.3596  0.5169
 9031SOL    HW138729   3.401   1.264  10.362 -0.9683 -1.0875 -5.1309
 9031SOL    HW238730   3.518   1.200  10.389 -0.6101  0.2725  1.8190
 9032SOL     OW38731   2.171   4.392   1.985 -0.9201 -0.5562  0.4164
 9032SOL    HW138732   2.176   4.300   2.012  1.1305 -0.1089  1.5845
 9032SOL    HW238733   2.088   4.417   2.023 -0.5846  2.6223 -0.9745
 9033SOL     OW38734   2.954   1.815   9.813  0.1810 -0.0599 -0.0455
 9033SOL    HW138735   2.999   1.739   9.850 -1.2063  0.6324  3.1071
 9033SOL    HW238736   2.955   1.868   9.893 -2.1109 -1.0471  0.6497
 9034SOL     OW38737   2.550   1.053   8.432 -0.6742 -0.7020  0.1764
 9034SOL    HW138738   2.601   1.093   8.362 -0.7259 -0.7530  0.1095
 9034SOL    HW238739   2.590   1.095   8.509  0.5342  0.2395 -0.9694
 9035SOL     OW38740   0.639   4.034   5.705 -0.2468  0.3203 -0.3374
 9035SOL    HW138741   0.647   3.958   5.648  0.1293 -0.0310  0.1847
 9035SOL    HW238742   0.666   4.003   5.792 -1.1111  0.4701 -0.0224
 9036SOL     OW38743   3.664   3.142   9.633 -0.0043  0.1087 -0.3230
 9036SOL    HW138744   3.582   3.190   9.627  0.6713  1.5450  1.8332
 9036SOL    HW238745   3.655   3.089   9.713 -0.1028 -0.7536 -0.9102
 9037SOL     OW38746   3.589   1.390   4.611  0.0598  0.1115 -0.3264
 9037SOL    HW138747   3.568   1.471   4.565 -0.7156  2.1404  3.5777
 9037SOL    HW238748   3.679   1.370   4.584 -0.7280 -0.0501 -2.7619
 9038SOL     OW38749   0.574   4.263  13.620 -0.4772 -0.1319 -0.5245
 9038SOL    HW138750   0.628   4.213  13.558  1.3127  0.5017  0.5133
 9038SOL    HW238751   0.637   4.329  13.651 -1.5161  0.6150 -0.0166
 9039SOL     OW38752   1.845   0.319   3.747  0.1097 -0.4166 -0.2565
 9039SOL    HW138753   1.866   0.379   3.676 -0.1469 -0.8963 -0.7417
 9039SOL    HW238754   1.907   0.246   3.746  1.7723  0.9602  2.3198
 9040SOL     OW38755   0.659   1.630   2.057  0.3602 -0.4170 -0.3159
 9040SOL    HW138756   0.747   1.608   2.086  1.0898  0.7091 -1.7011
 9040SOL    HW238757   0.634   1.547   2.016  0.9016  0.3134 -2.1203
 9041SOL     OW38758   4.446   0.344   6.279 -0.4325  0.2075  0.1961
 9041SOL    HW138759   4.483   0.347   6.191 -2.1338 -0.8507 -0.5571
 9041SOL    HW238760   4.517   0.353   6.343 -0.7265 -1.5637  0.7723
 9042SOL     OW38761   2.264   0.107  10.115 -0.4282  0.1894  0.4898
 9042SOL    HW138762   2.297   0.146  10.034 -0.8619  2.9292  1.6068
 9042SOL    HW238763   2.347   0.089  10.160  0.3234 -2.2674 -1.9588
 9043SOL     OW38764   1.327   3.235   9.376 -0.1104  0.2120 -0.3631
 9043SOL    HW138765   1.270   3.298   9.332  1.3930  1.5198 -0.4698
 9043SOL    HW238766   1.332   3.164   9.312 -2.4421 -0.4085  0.1434
 9044SOL     OW38767   1.570   2.060  11.823  0.6039 -0.0241 -0.3585
 9044SOL    HW138768   1.572   1.985  11.882 -0.5172 -0.2605 -0.6371
 9044SOL    HW238769   1.494   2.047  11.767 -1.4622 -1.4199  2.7640
 9045SOL     OW38770   3.371   2.959   0.673  0.1417 -0.3481 -0.2376
 9045SOL    HW138771   3.395   3.051   0.663 -0.5983 -0.0671  0.5520
 9045SOL    HW238772   3.347   2.942   0.582 -3.3872  1.8578  0.2803
 9046SOL     OW38773   2.801   4.424   5.361  0.0323  0.1625  0.3842
 9046SOL    HW138774   2.815   4.334   5.332  0.4323  0.4414 -0.3000
 9046SOL    HW238775   2.856   4.421   5.439  0.0124  1.0293  0.4326
 9047SOL     OW38776   0.782   2.621   9.399  0.2947  0.4097  0.3903
 9047SOL    HW138777   0.792   2.707   9.438  0.1213  0.2131  0.8742
 9047SOL    HW238778   0.767   2.637   9.306  0.7372  1.5262  0.5181
 9048SOL     OW38779   1.799   0.798  12.817 -0.0932  0.6398 -0.0460
 9048SOL    HW138780   1.894   0.802  12.829 -0.0116  0.2031 -0.5612
 9048SOL    HW238781   1.787   0.771  12.726  1.2650 -1.8847  0.5444
 9049SOL     OW38782   4.637   3.299   8.753 -0.1332 -0.8898 -0.3712
 9049SOL    HW138783   4.544   3.281   8.766  0.0523 -1.4712  0.1678
 9049SOL    HW238784   4.666   3.298   8.844  1.2492 -0.9582 -0.8203
 9050SOL     OW38785   0.828   0.048   4.222 -0.5182  0.2646  0.4489
 9050SOL    HW138786   0.773   0.100   4.280  0.2855 -0.5097  1.8972
 9050SOL    HW238787   0.907   0.035   4.274  0.6236 -1.4284 -1.7403
 9051SOL     OW38788   1.003   2.534   6.687  0.3748 -0.1856 -0.0943
 9051SOL    HW138789   0.993   2.505   6.778 -1.2220  1.1674  0.1714
 9051SOL    HW238790   1.069   2.475   6.651 -1.5801 -1.8618 -0.9022
 9052SOL     OW38791   1.028   4.570   5.578 -0.6212 -0.0547  0.1349
 9052SOL    HW138792   0.974   4.496   5.549 -0.8404 -0.9910  2.8824
 9052SOL    HW238793   1.081   4.589   5.501 -0.2132  2.8023  1.1280
 9053SOL     OW38794   2.382   2.135   0.668  0.0551  0.2018  0.0375
 9053SOL    HW138795   2.431   2.170   0.593  0.6979  0.7698  0.7132
 9053SOL    HW238796   2.302   2.104   0.626 -0.2421  0.2203  0.6001
 9054SOL     OW38797   0.070   3.446   7.614 -0.0856 -0.7934 -0.5800
 9054SOL    HW138798   0.055   3.518   7.553 -0.3434  0.7214  1.2653
 9054SOL    HW238799   0.038   3.484   7.696 -0.5447  1.9112 -1.9982
 9055SOL     OW38800   4.522   4.089  16.004 -0.3002 -0.1191  0.2649
 9055SOL    HW138801   4.512   4.048  15.918 -0.0452  2.9259 -1.2276
 9055SOL    HW238802   4.613   4.118  15.999 -1.1886  2.4580 -1.1434
 9056SOL     OW38803   1.880   0.732  15.820 -0.4070 -0.2707  0.0527
 9056SOL    HW138804   1.789   0.705  15.821 -0.4524 -0.0773  2.4289
 9056SOL    HW238805   1.879   0.787  15.899 -2.0206 -0.6101  0.2503
 9057SOL     OW38806   2.869   2.167  14.303  0.1207 -0.1300 -0.2836
 9057SOL    HW138807   2.855   2.191  14.212 -1.3780  2.0952  0.5331
 9057SOL    HW238808   2.932   2.237  14.323 -0.0511  0.4664 -1.8393
 9058SOL     OW38809   1.283   3.736   1.402 -0.2381  0.4192 -0.4463
 9058SOL    HW138810   1.259   3.645   1.384  1.0380 -0.5848  2.8016
 9058SOL    HW238811   1.198   3.777   1.418  0.3333  0.3002  2.8924
 9059SOL     OW38812   0.460   0.406  15.755  0.3198 -0.1439 -0.1091
 9059SOL    HW138813   0.418   0.320  15.764  0.6190 -0.4839 -1.9530
 9059SOL    HW238814   0.486   0.412  15.847 -0.2545 -1.0366  0.1109
 9060SOL     OW38815   1.001   1.791   6.728  0.3017  0.5174  0.3618
 9060SOL    HW138816   1.095   1.805   6.731  0.6852 -1.2522 -3.9851
 9060SOL    HW238817   0.967   1.880   6.713 -0.0563 -0.1895 -3.0410
 9061SOL     OW38818   4.502   1.469  16.359  0.8245 -0.1199 -0.4226
 9061SOL    HW138819   4.539   1.455  16.272  0.1030 -0.9985 -0.5861
 9061SOL    HW238820   4.420   1.420  16.361  0.5657  0.3287 -0.1525
 9062SOL     OW38821   3.741   0.151  15.644 -0.0830 -0.1276  0.2633
 9062SOL    HW138822   3.791   0.070  15.656 -0.5316 -0.3632  0.5730
 9062SOL    HW238823   3.667   0.120  15.592  0.3447 -0.5637 -0.0887
 9063SOL     OW38824   4.526   3.793  14.948 -0.7410 -0.5849  0.0029
 9063SOL    HW138825   4.490   3.832  14.868  0.9192  0.7985 -0.0611
 9063SOL    HW238826   4.520   3.699  14.928 -0.9235 -0.7172  0.6803
 9064SOL     OW38827   2.440   4.403  12.482  0.1618 -0.3877  0.0131
 9064SOL    HW138828   2.422   4.359  12.565  1.5457 -0.7069  0.1537
 9064SOL    HW238829   2.458   4.330  12.422  0.3395  0.0687 -0.4886
 9065SOL     OW38830   3.440   2.421  11.676 -0.2790  0.3861  0.6595
 9065SOL    HW138831   3.440   2.509  11.714  0.0705  0.9422 -0.6093
 9065SOL    HW238832   3.520   2.388  11.717 -2.0783 -0.0258  3.8591
 9066SOL     OW38833   1.935   3.229   7.542  0.1180 -0.4308 -0.1024
 9066SOL    HW138834   1.884   3.269   7.613  0.5578 -3.0289  1.6663
 9066SOL    HW238835   2.015   3.282   7.544 -0.2117  0.0519  0.5512
 9067SOL     OW38836   0.224   3.959  10.798 -0.0364 -0.3010 -0.0321
 9067SOL    HW138837   0.187   3.984  10.714  0.2003  0.1724  0.0079
 9067SOL    HW238838   0.309   4.003  10.796  0.0571 -0.5220 -0.9552
 9068SOL     OW38839   2.765   3.226   5.759 -0.5014 -0.8594 -0.1465
 9068SOL    HW138840   2.761   3.138   5.721  0.5370 -0.7801 -0.4316
 9068SOL    HW238841   2.678   3.222   5.800 -1.2796 -0.1216 -1.7623
 9069SOL     OW38842   1.095   0.188  11.261 -0.2108  0.2694 -0.2397
 9069SOL    HW138843   1.102   0.283  11.274 -0.3148  0.0844  1.1613
 9069SOL    HW238844   1.080   0.169  11.353 -3.2592 -0.4540 -0.9076
 9070SOL     OW38845   0.709   0.692   1.724 -0.3999 -0.1663 -0.1300
 9070SOL    HW138846   0.648   0.694   1.798 -0.3205  1.6659 -0.0960
 9070SOL    HW238847   0.745   0.604   1.730 -0.3666 -0.2646 -1.8259
 9071SOL     OW38848   2.751   3.063  12.876  0.0620  0.2829  0.0414
 9071SOL    HW138849   2.822   3.065  12.812 -0.0085  0.7754 -0.0197
 9071SOL    HW238850   2.717   2.974  12.865  2.1596 -0.5634  0.4187
 9072SOL     OW38851   2.933   4.718  14.435  0.5172  0.1374 -0.6260
 9072SOL    HW138852   2.964   4.671  14.513 -1.8979 -3.0968 -1.6075
 9072SOL    HW238853   2.858   0.019  14.481 -0.6784 -2.1509 -0.7157
 9073SOL     OW38854   3.959   0.394   9.477 -0.4553  0.3034  0.1951
 9073SOL    HW138855   3.936   0.319   9.422  2.2970  0.1652 -0.8031
 9073SOL    HW238856   4.053   0.376   9.488 -0.3323 -1.4034 -3.6062
 9074SOL     OW38857   2.701   2.288  11.952  0.2139 -0.5170  0.2816
 9074SOL    HW138858   2.754   2.313  12.027  0.5525 -1.5575  0.3805
 9074SOL    HW238859   2.644   2.364  11.938  1.5043  0.6947  1.6906
 9075SOL     OW38860   3.501   2.470   6.903 -0.5617  0.5689 -0.2589
 9075SOL    HW138861   3.555   2.397   6.872 -0.8363 -0.8130  2.5081
 9075SOL    HW238862   3.556   2.542   6.873 -0.4656 -0.0961 -1.6710
 9076SOL     OW38863   2.693   2.548   8.628  0.0709  0.1967  0.5220
 9076SOL    HW138864   2.647   2.619   8.671 -1.2482 -1.4874  1.9065
 9076SOL    HW238865   2.686   2.484   8.699 -0.0357 -1.0402 -0.5774
 9077SOL     OW38866   0.973   0.444   2.581  0.9541 -0.0836  0.2122
 9077SOL    HW138867   0.914   0.374   2.608  0.5296 -0.3594 -1.4075
 9077SOL    HW238868   0.903   0.510   2.581  1.8777  0.8995 -0.4634
 9078SOL     OW38869   3.228   0.852   1.796  0.0466  0.4966  0.3528
 9078SOL    HW138870   3.251   0.784   1.733  1.1118  0.9600  0.2391
 9078SOL    HW238871   3.159   0.807   1.844  1.4439 -1.0832  0.8711
 9079SOL     OW38872   3.805   1.282   0.340 -0.0444 -0.4248  0.4567
 9079SOL    HW138873   3.756   1.363   0.325 -0.0627 -0.4105  0.5912
 9079SOL    HW238874   3.799   1.238   0.255  3.0447  1.7453 -0.8769
 9080SOL     OW38875   1.685   3.202   0.655  0.1876 -0.4238 -0.7089
 9080SOL    HW138876   1.610   3.143   0.664  0.5311 -0.6693  0.4301
 9080SOL    HW238877   1.635   3.274   0.617 -0.4159 -0.8446 -0.7222
 9081SOL     OW38878   3.423   2.907  17.672  0.4426  0.2969  0.7982
 9081SOL    HW138879   3.363   2.934  17.602  1.2700  1.1220  0.4077
 9081SOL    HW238880   3.376   2.828  17.698 -0.3626  0.2775 -0.7263
 9082SOL     OW38881   1.092   2.161   2.186 -0.0529  0.0292 -0.1791
 9082SOL    HW138882   1.099   2.143   2.092 -3.9535  1.3040 -0.7228
 9082SOL    HW238883   1.009   2.118   2.206  0.3632 -1.0705 -0.7892
 9083SOL     OW38884   2.059   2.735   5.499  0.0687  0.2927 -0.1963
 9083SOL    HW138885   1.984   2.681   5.525  1.6321 -0.8240  2.0878
 9083SOL    HW238886   2.091   2.685   5.424 -1.7797 -1.2771  0.0462
 9084SOL     OW38887   1.852   3.304   8.680 -0.2964 -0.6141  0.0301
 9084SOL    HW138888   1.930   3.297   8.625 -0.0007 -0.7450  0.4686
 9084SOL    HW238889   1.809   3.368   8.623 -1.9901 -1.8487 -0.0714
 9085SOL     OW38890   0.894   4.281   0.768  0.5152  0.3153  0.2109
 9085SOL    HW138891   0.895   4.260   0.861  1.6022 -0.1465  0.0963
 9085SOL    HW238892   0.807   4.269   0.730 -0.2190  0.2544  1.8866
 9086SOL     OW38893   4.162   4.714   1.443  0.4532  0.2202 -0.6729
 9086SOL    HW138894   4.257   4.701   1.441  0.5238  0.7624 -0.7482
 9086SOL    HW238895   4.164   0.073   1.443 -6.6029  0.3863 -1.1332
 9087SOL     OW38896   0.641   3.766   5.512 -0.2420  0.0897 -0.0202
 9087SOL    HW138897   0.598   3.760   5.426 -0.1552 -1.3115  0.0404
 9087SOL    HW238898   0.666   3.676   5.532 -2.5446 -0.3894  0.6757
 9088SOL     OW38899   4.545   4.026   5.355  0.4795 -0.2499 -0.4573
 9088SOL    HW138900   4.488   4.097   5.326  0.7676  0.0727 -0.2276
 9088SOL    HW238901   4.570   4.033   5.447  1.4383 -3.5662 -0.4743
 9089SOL     OW38902   3.542   1.759   7.410 -0.5766 -0.5946  0.3159
 9089SOL    HW138903   3.562   1.668   7.388  0.0022 -0.9139  2.1905
 9089SOL    HW238904   3.628   1.791   7.438 -0.9020  0.1470  0.4800
 9090SOL     OW38905   3.099   2.004   7.282  0.3154  0.5357 -0.6846
 9090SOL    HW138906   3.112   2.058   7.204  4.3211  0.0594 -0.3245
 9090SOL    HW238907   3.003   2.002   7.290  0.3842  0.3745  0.1579
 9091SOL     OW38908   0.220   4.575   8.274  0.4451  0.2365 -0.0455
 9091SOL    HW138909   0.133   4.610   8.290  0.5876  0.7832 -0.4909
 9091SOL    HW238910   0.249   4.578   8.365 -0.7150 -0.2125  0.3373
 9092SOL     OW38911   1.332   2.307   6.286 -0.1063  0.5573 -0.2761
 9092SOL    HW138912   1.371   2.284   6.202 -0.9985 -1.9113 -0.0390
 9092SOL    HW238913   1.243   2.307   6.252 -0.2239 -0.2709  0.0240
 9093SOL     OW38914   0.662   2.598   8.864 -0.0436  0.0215  0.1451
 9093SOL    HW138915   0.627   2.683   8.837 -1.1351  0.0622  1.6885
 9093SOL    HW238916   0.583   2.559   8.900  1.4225 -1.5974  1.6497
 9094SOL     OW38917   2.558   2.565  10.245  0.0295 -0.2425 -0.1265
 9094SOL    HW138918   2.594   2.612  10.320  0.4418 -1.7743  0.6464
 9094SOL    HW238919   2.623   2.497  10.228  0.9606  0.1819  1.6985
 9095SOL     OW38920   2.163   0.372   9.092  0.1651 -0.0273  0.2487
 9095SOL    HW138921   2.166   0.467   9.104 -0.4709  0.3142 -2.4682
 9095SOL    HW238922   2.077   0.347   9.124  0.2048  1.4562  1.5185
 9096SOL     OW38923   2.956   4.255  12.107 -0.7406 -0.1327 -0.3133
 9096SOL    HW138924   2.878   4.301  12.075  1.2461  2.4012 -1.5689
 9096SOL    HW238925   3.029   4.313  12.084 -0.1496 -1.1381 -0.9353
 9097SOL     OW38926   4.573   2.958   5.456  0.1229  0.1590  0.1687
 9097SOL    HW138927   4.611   2.997   5.534 -1.9265 -0.0319  1.2605
 9097SOL    HW238928   4.549   2.867   5.475  1.8464 -0.7173 -1.8708
 9098SOL     OW38929   1.688   4.620   4.681 -0.5050 -0.4978  0.3474
 9098SOL    HW138930   1.612   4.592   4.732  0.1207 -0.9310  1.0393
 9098SOL    HW238931   1.738   4.655   4.755 -0.0896 -0.7485  0.1834
 9099SOL     OW38932   4.208   4.394   9.071  0.1220 -0.2403 -0.2077
 9099SOL    HW138933   4.241   4.427   9.155  1.1234 -1.0404 -0.2854
 9099SOL    HW238934   4.288   4.392   9.019  1.5156 -0.9324  1.9837
 9100SOL     OW38935   0.359   0.898   9.028 -0.7019  0.1124  0.2140
 9100SOL    HW138936   0.289   0.858   9.080 -1.2146  1.9612  0.9521
 9100SOL    HW238937   0.413   0.947   9.090 -0.7063 -0.9672  1.0766
 9101SOL     OW38938   1.826   1.095   4.733  0.1303  0.1496  0.4718
 9101SOL    HW138939   1.873   1.121   4.654 -0.9676 -1.9867 -0.8806
 9101SOL    HW238940   1.854   1.162   4.795 -2.5304 -0.1828  2.0103
 9102SOL     OW38941   3.810   1.095   6.193 -0.7738 -0.0131 -0.1225
 9102SOL    HW138942   3.752   1.117   6.120 -2.8461 -0.6148  1.3556
 9102SOL    HW238943   3.849   1.012   6.166 -2.5619 -1.1214  0.7312
 9103SOL     OW38944   3.031   0.404  10.491  0.1689  0.1595  0.3912
 9103SOL    HW138945   3.126   0.399  10.480 -0.0423  1.0345 -1.7670
 9103SOL    HW238946   3.011   0.372  10.579  0.1409 -0.1425  0.2757
 9104SOL     OW38947   3.233   2.411   5.557 -0.0741  0.0342 -0.4975
 9104SOL    HW138948   3.303   2.359   5.596  0.3671 -0.0308 -1.3919
 9104SOL    HW238949   3.227   2.481   5.623  0.6261  0.6335 -1.0745
 9105SOL     OW38950   1.494   2.127   8.118 -0.3634  0.2666 -0.0604
 9105SOL    HW138951   1.504   2.171   8.034  0.3477 -1.6853 -1.0056
 9105SOL    HW238952   1.399   2.141   8.124 -0.3267  1.8782 -3.0892
 9106SOL     OW38953   4.136   1.179   4.239  0.0162  0.1224 -0.2493
 9106SOL    HW138954   4.082   1.099   4.245  1.5943 -0.7982  1.6557
 9106SOL    HW238955   4.199   1.159   4.170 -0.3097 -2.6836  0.2661
 9107SOL     OW38956   0.789   2.917  17.553 -0.0043 -0.0445 -0.4100
 9107SOL    HW138957   0.742   2.980  17.609 -0.5644 -0.3958 -0.4865
 9107SOL    HW238958   0.853   2.882  17.615 -0.6957 -0.6014 -0.0118
 9108SOL     OW38959   2.980   1.494  17.617 -0.2161 -0.3127 -0.0196
 9108SOL    HW138960   2.939   1.424  17.566  0.9927 -0.8056 -0.3052
 9108SOL    HW238961   2.974   1.467  17.709  3.4029 -0.7695  0.0676
 9109SOL     OW38962   1.184   0.751   6.410 -0.0556  0.3064  0.3403
 9109SOL    HW138963   1.173   0.840   6.444 -1.4908 -0.0148  0.7439
 9109SOL    HW238964   1.097   0.731   6.377  1.2758 -1.0528 -2.2788
 9110SOL     OW38965   1.397   1.098   6.817 -0.1831  0.8370  0.5722
 9110SOL    HW138966   1.337   1.025   6.831 -2.0255  2.3506  0.6071
 9110SOL    HW238967   1.485   1.063   6.831 -0.1907  0.0262 -1.3406
 9111SOL     OW38968   4.606   3.948   7.979 -0.5333  0.1047  0.1555
 9111SOL    HW138969   4.661   3.887   8.028 -0.1267 -0.4066 -0.9490
 9111SOL    HW238970   4.573   3.993   8.057 -1.1616 -0.8565  0.4496
 9112SOL     OW38971   1.515   2.081  12.919  0.3622 -0.1203 -0.0385
 9112SOL    HW138972   1.512   2.040  13.005 -1.0170  3.1675  1.4793
 9112SOL    HW238973   1.611   2.091  12.918  0.1663  2.1073  1.9804
 9113SOL     OW38974   1.956   0.544   2.585  0.2669  0.9911 -0.6193
 9113SOL    HW138975   1.959   0.562   2.491 -3.3057 -3.3558 -1.6258
 9113SOL    HW238976   1.900   0.468   2.568 -2.5224  2.2562  2.7106
 9114SOL     OW38977   4.704   0.840   8.559  0.4346  0.1208  0.1218
 9114SOL    HW138978   4.736   0.826   8.470  1.7244  1.2433  0.4073
 9114SOL    HW238979   0.037   0.895   8.595  2.0824 -1.0314 -1.2767
 9115SOL     OW38980   0.992   1.289  12.635  0.1229 -0.5216 -0.7300
 9115SOL    HW138981   1.059   1.275  12.568 -0.6413 -1.0966 -1.3628
 9115SOL    HW238982   1.045   1.331  12.702 -1.2137 -0.6569  0.4090
 9116SOL     OW38983   4.336   1.156  12.648  0.1198  0.2009 -0.2323
 9116SOL    HW138984   4.356   1.212  12.723  1.3297  2.1159 -1.9742
 9116SOL    HW238985   4.339   1.214  12.571 -2.0920  0.8899  0.1883
 9117SOL     OW38986   3.054   1.579   7.672 -0.0610 -0.1355  0.1979
 9117SOL    HW138987   2.978   1.536   7.633 -0.2478  0.8438 -0.5262
 9117SOL    HW238988   3.058   1.652   7.610  1.2800  1.0252  1.6497
 9118SOL     OW38989   3.487   4.715  10.306 -0.1257  0.0699 -0.1791
 9118SOL    HW138990   3.475   4.648  10.239 -0.3383 -2.0388  1.9630
 9118SOL    HW238991   3.524   4.653  10.369  0.0580 -0.8828 -1.2252
 9119SOL     OW38992   0.380   2.850   6.366 -0.3939  0.1124 -0.2462
 9119SOL    HW138993   0.313   2.885   6.425  0.5848  0.5257  0.6257
 9119SOL    HW238994   0.361   2.756   6.365 -1.3390  0.3165 -0.8731
 9120SOL     OW38995   3.961   4.375  11.582 -0.3870  0.6251 -0.3456
 9120SOL    HW138996   3.884   4.339  11.626  0.1835  0.4024  0.4572
 9120SOL    HW238997   4.018   4.298  11.578 -0.6784  0.4372 -0.8781
 9121SOL     OW38998   1.723   0.278   4.944  0.2108  0.3417  0.5489
 9121SOL    HW138999   1.687   0.362   4.914  0.0558  0.3597  0.7859
 9121SOL    HW239000   1.686   0.220   4.877 -2.5423  0.5557  1.8824
 9122SOL     OW39001   4.489   3.646   1.200 -0.1135  0.2150 -0.3286
 9122SOL    HW139002   4.430   3.699   1.147 -0.3760 -0.2727 -0.5281
 9122SOL    HW239003   4.524   3.589   1.131  1.6636 -0.5744  1.2196
 9123SOL     OW39004   3.615   1.223   8.232  0.4765  0.4592 -0.2493
 9123SOL    HW139005   3.566   1.152   8.274  2.3614 -1.8476 -1.8883
 9123SOL    HW239006   3.571   1.297   8.272 -0.8232 -0.3054 -0.2549
 9124SOL     OW39007   3.620   0.108   4.021  0.2907 -0.2782 -0.0152
 9124SOL    HW139008   3.634   0.139   3.932 -1.1601  1.2106  0.2872
 9124SOL    HW239009   3.702   0.116   4.069 -0.2099  1.1179  0.6109
 9125SOL     OW39010   1.494   3.428   5.873  0.7184  0.4547  0.7864
 9125SOL    HW139011   1.544   3.353   5.905  3.6442  1.6599 -1.0393
 9125SOL    HW239012   1.403   3.409   5.895  0.8691  1.4977  2.2755
 9126SOL     OW39013   2.123   2.345   4.081  0.0384  0.3627 -0.4114
 9126SOL    HW139014   2.193   2.397   4.040  1.5537 -0.7961  0.7029
 9126SOL    HW239015   2.089   2.296   4.006  0.5114 -0.6515  0.0319
 9127SOL     OW39016   3.154   4.614   4.853 -0.4110 -0.0410 -0.1717
 9127SOL    HW139017   3.064   4.614   4.887 -0.6761  1.1228 -0.9088
 9127SOL    HW239018   3.170   4.520   4.866  1.5416  0.3536  0.2658
 9128SOL     OW39019   1.064   0.453  11.314  0.1288  0.7837 -0.0430
 9128SOL    HW139020   1.144   0.504  11.317  0.7771 -0.1653 -1.2469
 9128SOL    HW239021   1.005   0.523  11.286  1.3874  1.9756  0.2860
 9129SOL     OW39022   1.864   4.523   3.143  0.4608  0.4697  0.4934
 9129SOL    HW139023   1.800   4.494   3.208 -0.9194 -0.7998 -1.4355
 9129SOL    HW239024   1.824   4.600   3.101 -1.8017 -1.1096 -0.2601
 9130SOL     OW39025   1.372   1.522  12.485 -0.7953  0.1638  0.8615
 9130SOL    HW139026   1.375   1.596  12.425 -1.6897  1.1598  2.0191
 9130SOL    HW239027   1.462   1.499  12.506 -0.0903  1.9188 -0.2778
 9131SOL     OW39028   3.778   2.372   2.751 -0.2985 -0.2022 -0.2291
 9131SOL    HW139029   3.715   2.310   2.789  0.8126 -2.1211 -1.4906
 9131SOL    HW239030   3.722   2.449   2.756 -0.4641 -0.2692 -0.9358
 9132SOL     OW39031   2.623   0.046   5.102 -0.4376 -0.0875  0.3393
 9132SOL    HW139032   2.640   0.054   5.008  0.4347 -0.8638  0.4324
 9132SOL    HW239033   2.603   4.688   5.103  0.2479 -0.2473 -0.4821
 9133SOL     OW39034   2.464   0.144  13.568  0.1118 -0.5823 -0.2538
 9133SOL    HW139035   2.376   0.123  13.599 -0.3033  1.3134 -0.1417
 9133SOL    HW239036   2.512   0.094  13.634  1.3524 -0.3309 -0.9593
 9134SOL     OW39037   0.982   0.109   8.212 -0.3511  1.0703 -0.6163
 9134SOL    HW139038   0.917   0.170   8.247 -2.8781 -1.7546 -0.2909
 9134SOL    HW239039   1.018   0.075   8.294 -2.0998 -0.7090 -0.5757
 9135SOL     OW39040   2.136   2.126   0.541 -0.4992  0.3196 -0.0747
 9135SOL    HW139041   2.103   2.072   0.469  0.1699  1.6198 -1.3548
 9135SOL    HW239042   2.067   2.192   0.553 -3.1135 -2.3346 -0.5698
 9136SOL     OW39043   2.554   1.314   3.508 -0.4211 -0.2640 -0.3572
 9136SOL    HW139044   2.561   1.219   3.516 -0.5542 -0.0370  2.2589
 9136SOL    HW239045   2.502   1.321   3.428 -1.0541 -0.3111  0.0589
 9137SOL     OW39046   2.457   2.210  15.542 -0.3136  0.0819 -0.0401
 9137SOL    HW139047   2.457   2.133  15.598  0.3013 -0.1754 -0.3969
 9137SOL    HW239048   2.389   2.260  15.588 -0.1979 -1.0987  1.3865
 9138SOL     OW39049   4.420   0.335   1.852 -0.0922  0.0882  0.3457
 9138SOL    HW139050   4.426   0.431   1.858 -1.2071  0.1971 -0.1707
 9138SOL    HW239051   4.400   0.319   1.760 -0.7422 -1.3272  0.7375
 9139SOL     OW39052   0.248   2.789   9.796  0.4918 -0.3010 -0.6907
 9139SOL    HW139053   0.293   2.714   9.835  1.5809  0.6253 -0.1603
 9139SOL    HW239054   0.234   2.828   9.882  2.4507 -1.3093  0.0906
 9140SOL     OW39055   0.352   3.569   7.743 -0.2862  0.9270 -0.0749
 9140SOL    HW139056   0.280   3.563   7.680  0.2357 -2.4303 -0.3319
 9140SOL    HW239057   0.376   3.662   7.742 -1.1120  1.1954  3.0406
 9141SOL     OW39058   3.282   4.302   3.301 -0.1849 -0.0792 -0.4811
 9141SOL    HW139059   3.198   4.262   3.282  0.7995 -0.8085 -3.3002
 9141SOL    HW239060   3.283   4.379   3.244 -0.8041 -0.0699 -0.4746
 9142SOL     OW39061   2.927   1.167   3.670 -0.2462  0.2881 -0.1337
 9142SOL    HW139062   2.896   1.094   3.617  0.9304  0.8161 -1.5291
 9142SOL    HW239063   2.843   1.203   3.701  0.1206  1.3327 -0.3747
 9143SOL     OW39064   3.843   0.652   2.992 -0.0674  0.1251 -0.1075
 9143SOL    HW139065   3.763   0.675   2.944  0.5686 -0.8692 -1.6115
 9143SOL    HW239066   3.833   0.558   3.001  2.0287 -0.1071 -0.2668
 9144SOL     OW39067   2.856   3.206   3.630 -0.9579 -0.0136  0.5549
 9144SOL    HW139068   2.888   3.137   3.688  0.3647 -1.5431 -1.9862
 9144SOL    HW239069   2.763   3.190   3.614 -1.0864 -0.3821  1.6994
 9145SOL     OW39070   4.435   1.961   4.986 -0.4040 -0.1306  0.3802
 9145SOL    HW139071   4.405   1.870   4.976  2.0696 -0.8549 -0.3399
 9145SOL    HW239072   4.366   1.991   5.046 -1.8101 -1.7099 -0.4283
 9146SOL     OW39073   1.840   4.260  10.558 -0.3368  0.4399 -0.0392
 9146SOL    HW139074   1.766   4.290  10.504 -0.1823 -0.0696 -0.5405
 9146SOL    HW239075   1.913   4.250  10.497 -0.1784 -0.2100  0.2479
 9147SOL     OW39076   0.369   3.085   7.589 -0.4198 -0.1383  0.5260
 9147SOL    HW139077   0.284   3.074   7.548  0.5050 -2.7567 -0.6639
 9147SOL    HW239078   0.406   3.153   7.533 -3.7708  1.8958  0.8013
 9148SOL     OW39079   4.241   2.497   5.399  0.5554  0.1280  0.3373
 9148SOL    HW139080   4.263   2.524   5.488 -4.2171 -2.3852  2.3406
 9148SOL    HW239081   4.154   2.538   5.399  1.3735  1.8472 -0.3104
 9149SOL     OW39082   0.857   2.796   6.840 -0.4086  0.1041  0.6268
 9149SOL    HW139083   0.830   2.731   6.776  2.9554 -0.0171 -0.7073
 9149SOL    HW239084   0.865   2.873   6.783  1.1855  0.6427  1.5618
 9150SOL     OW39085   3.176   2.841  15.460 -0.4365  0.0397 -0.1471
 9150SOL    HW139086   3.212   2.923  15.425  1.3631  0.2873  2.2348
 9150SOL    HW239087   3.246   2.779  15.440 -0.0394  0.8706 -1.3355
 9151SOL     OW39088   2.897   0.954  15.294 -0.2199 -0.1069  0.0284
 9151SOL    HW139089   2.895   0.946  15.390  1.4582 -0.0608  0.0618
 9151SOL    HW239090   2.971   0.897  15.273  0.5005  0.5090  0.8895
 9152SOL     OW39091   0.832   0.052   5.992 -0.1726  0.4659 -0.0788
 9152SOL    HW139092   0.872   0.122   5.941 -1.7338  0.3404 -1.5009
 9152SOL    HW239093   0.849   4.709   5.941 -1.1175 -0.1098  0.4947
 9153SOL     OW39094   0.751   4.714   3.370 -0.0393 -0.2655 -0.3156
 9153SOL    HW139095   0.823   4.653   3.391  0.2792 -0.0391 -0.7551
 9153SOL    HW239096   0.746   0.030   3.450  1.9290 -1.4825  0.6259
 9154SOL     OW39097   4.265   4.260   7.057  0.3520 -0.0192 -0.1898
 9154SOL    HW139098   4.261   4.206   6.978 -1.0953  0.5046 -0.4829
 9154SOL    HW239099   4.233   4.199   7.124  0.5477 -2.0878 -1.9578
 9155SOL     OW39100   0.983   3.301   3.172 -0.1518  0.2283  0.0539
 9155SOL    HW139101   1.049   3.370   3.169  1.5589 -1.4894 -2.0607
 9155SOL    HW239102   0.993   3.274   3.081 -0.0011 -0.0579  0.1533
 9156SOL     OW39103   4.065   4.092  11.302 -0.1347  0.6204  0.2647
 9156SOL    HW139104   4.083   4.102  11.396  0.7426 -2.5941  0.4440
 9156SOL    HW239105   4.057   4.181  11.267 -1.2086 -0.2425 -1.6376
 9157SOL     OW39106   4.238   0.100   9.620  0.0780 -0.5077 -0.1576
 9157SOL    HW139107   4.309   0.164   9.631 -0.3722  0.1891 -1.2743
 9157SOL    HW239108   4.286   0.049   9.555 -0.6750  1.1469 -2.0218
 9158SOL     OW39109   4.173   1.821  17.254 -0.3000  0.2535 -0.2265
 9158SOL    HW139110   4.152   1.739  17.210 -0.7578 -0.7183  1.7687
 9158SOL    HW239111   4.129   1.813  17.339 -0.1135 -0.4952 -0.1996
 9159SOL     OW39112   2.608   0.768   2.332  0.4100 -0.4829  0.0732
 9159SOL    HW139113   2.702   0.759   2.346  0.6014  1.3555 -0.1753
 9159SOL    HW239114   2.570   0.680   2.336  0.4235 -0.5195 -0.6543
 9160SOL     OW39115   2.003   3.304  17.267  0.6970  0.4261 -0.1248
 9160SOL    HW139116   2.010   3.216  17.230 -1.2067  0.6968 -1.1423
 9160SOL    HW239117   1.915   3.328  17.238 -0.0194 -0.7543  1.0806
 9161SOL     OW39118   1.673   2.360   6.646  0.1820  0.1405 -0.0751
 9161SOL    HW139119   1.585   2.365   6.608 -0.7805  3.2333  2.5727
 9161SOL    HW239120   1.664   2.398   6.734  1.8597 -1.3484  0.7404
 9162SOL     OW39121   1.510   3.083  11.577 -0.2122 -0.2444 -0.1257
 9162SOL    HW139122   1.597   3.093  11.616 -1.0482  1.3074  1.3429
 9162SOL    HW239123   1.541   3.038  11.499  0.6122 -0.4039  0.2884
 9163SOL     OW39124   1.317   0.279   7.856 -0.4214  0.0309 -0.0164
 9163SOL    HW139125   1.344   0.310   7.943  1.5815 -0.2321 -0.5307
 9163SOL    HW239126   1.268   0.204   7.888  0.6277 -1.0398 -0.9481
 9164SOL     OW39127   0.618   4.415   3.647  0.0094  0.1185 -0.0288
 9164SOL    HW139128   0.540   4.468   3.631  0.8121  1.2763 -0.1342
 9164SOL    HW239129   0.661   4.463   3.717 -1.8089  0.3505  0.9131
 9165SOL     OW39130   2.358   0.669  10.959  0.0121  0.5658  0.0391
 9165SOL    HW139131   2.294   0.740  10.964 -2.0388 -1.2852  0.3445
 9165SOL    HW239132   2.398   0.682  10.872 -0.7275 -0.9963 -0.5413
 9166SOL     OW39133   0.485   3.331   7.779 -0.4291 -0.4890 -0.2260
 9166SOL    HW139134   0.444   3.417   7.767 -1.1791 -0.9739 -1.1602
 9166SOL    HW239135   0.539   3.319   7.701  2.3538  0.5608  1.5484
 9167SOL     OW39136   2.555   3.726   5.705  0.5173  1.2028 -0.1574
 9167SOL    HW139137   2.626   3.782   5.737  0.3689  1.4025 -0.1808
 9167SOL    HW239138   2.603   3.649   5.674 -1.4755  0.7365 -2.0486
 9168SOL     OW39139   2.171   0.737  12.045  0.3047 -0.3089 -0.2672
 9168SOL    HW139140   2.199   0.705  12.130 -0.7128  1.2748  0.6493
 9168SOL    HW239141   2.095   0.681  12.031 -0.3161  0.4946 -0.0865
 9169SOL     OW39142   1.157   0.544   8.254  0.2680 -0.4655  0.0929
 9169SOL    HW139143   1.096   0.573   8.186 -0.2463 -0.3025  0.6294
 9169SOL    HW239144   1.128   0.588   8.333 -1.5408 -0.1970 -0.7287
 9170SOL     OW39145   3.847   1.869  11.839  0.1227  0.1666  0.2692
 9170SOL    HW139146   3.842   1.782  11.877  1.0852 -0.5750 -1.2834
 9170SOL    HW239147   3.857   1.866  11.744 -2.4807 -0.0556  0.0040
 9171SOL     OW39148   0.434   3.806   2.479 -0.1487  0.0761  0.2213
 9171SOL    HW139149   0.445   3.875   2.414  1.8127 -0.5855 -0.1674
 9171SOL    HW239150   0.386   3.855   2.546 -1.3020  1.2441 -1.4635
 9172SOL     OW39151   0.679   2.141   3.288  0.1832  0.3819 -0.1183
 9172SOL    HW139152   0.630   2.135   3.370  0.3769  3.2198  0.2251
 9172SOL    HW239153   0.601   2.139   3.233  0.5825 -0.7578 -0.6287
 9173SOL     OW39154   3.123   2.825   4.342  0.3156  0.5723  0.2425
 9173SOL    HW139155   3.083   2.901   4.385  2.0789  3.5654 -3.4112
 9173SOL    HW239156   3.135   2.763   4.414  0.2762  1.6676  1.1964
 9174SOL     OW39157   2.210   3.178   4.718 -0.3104  0.3259 -0.1028
 9174SOL    HW139158   2.240   3.171   4.808 -0.5580  1.0075  0.0302
 9174SOL    HW239159   2.281   3.133   4.672 -0.6297 -1.8342  1.4730
 9175SOL     OW39160   0.987   0.291  14.795  0.0235  0.0469 -0.6478
 9175SOL    HW139161   1.042   0.239  14.736  0.6076 -1.3336  1.1366
 9175SOL    HW239162   1.031   0.284  14.879 -2.8560  0.7405  0.9214
 9176SOL     OW39163   2.088   3.783  14.830  0.1721  0.0349 -0.7334
 9176SOL    HW139164   2.014   3.838  14.803 -1.0874 -1.5193 -0.4894
 9176SOL    HW239165   2.148   3.849  14.864  0.0711 -1.3568  2.1080
 9177SOL     OW39166   4.154   4.514  15.930 -0.5368  0.0589 -0.0163
 9177SOL    HW139167   4.242   4.484  15.907 -1.1554 -0.1172 -2.1937
 9177SOL    HW239168   4.109   4.433  15.956 -1.1798  0.2316 -0.5850
 9178SOL     OW39169   4.258   4.088   7.450 -0.2215 -0.1426  0.4703
 9178SOL    HW139170   4.273   4.179   7.473  0.6020  0.0079 -0.6494
 9178SOL    HW239171   4.163   4.098   7.458 -0.2594 -1.4060  1.6363
 9179SOL     OW39172   1.974   0.840  13.942  0.3055 -0.3983 -0.1041
 9179SOL    HW139173   2.029   0.900  13.892  1.5230 -0.1441  1.5149
 9179SOL    HW239174   2.046   0.796  13.988  0.7212  0.8069  0.4126
 9180SOL     OW39175   3.207   3.607   1.388  0.3522 -0.0734  0.4269
 9180SOL    HW139176   3.228   3.596   1.296 -2.4000  0.7480 -0.2862
 9180SOL    HW239177   3.112   3.612   1.386  0.3614  0.0989  0.3896
 9181SOL     OW39178   2.143   1.763  10.634  0.2112  0.3570  0.4059
 9181SOL    HW139179   2.062   1.781  10.682  0.4069 -0.5945  1.0993
 9181SOL    HW239180   2.200   1.731  10.705  3.1617  0.6516 -1.8633
 9182SOL     OW39181   3.954   0.175   1.781  0.0672 -0.1476 -0.1973
 9182SOL    HW139182   3.939   0.237   1.709 -0.6017  1.8704  1.7011
 9182SOL    HW239183   4.004   0.227   1.843 -0.0162 -3.3941  2.5836
 9183SOL     OW39184   0.984   0.396   7.530  0.0891  0.1435 -0.0489
 9183SOL    HW139185   0.912   0.335   7.515  0.6963 -0.8488  1.0713
 9183SOL    HW239186   1.002   0.384   7.623 -1.9313  1.6436  0.5452
 9184SOL     OW39187   1.520   3.701   4.242 -0.2457 -0.2930 -0.0637
 9184SOL    HW139188   1.527   3.619   4.291  2.3275  1.2138  2.0890
 9184SOL    HW239189   1.478   3.665   4.164 -2.4689 -2.0147  1.9254
 9185SOL     OW39190   2.657   1.067  11.916 -0.1048 -0.1933 -0.3679
 9185SOL    HW139191   2.603   1.035  11.843 -1.5452 -2.0128  1.5052
 9185SOL    HW239192   2.711   0.991  11.933  1.6433  1.1318 -0.0253
 9186SOL     OW39193   0.592   4.536   2.342 -0.2582 -0.1145  0.0169
 9186SOL    HW139194   0.607   4.575   2.256 -0.4560 -2.7152 -1.1856
 9186SOL    HW239195   0.679   4.538   2.382  0.0160  0.4572 -0.6007
 9187SOL     OW39196   0.218   4.214  10.581  0.0949  0.1586  0.6265
 9187SOL    HW139197   0.247   4.297  10.543  0.0037 -0.7199 -1.3673
 9187SOL    HW239198   0.123   4.214  10.567  0.3458  1.0518 -1.1508
 9188SOL     OW39199   3.955   3.019   5.386  0.4397  0.2262 -0.5528
 9188SOL    HW139200   3.905   2.955   5.335 -0.4570  0.5017 -0.0176
 9188SOL    HW239201   3.982   2.981   5.469  0.8397 -2.2124 -1.7823
 9189SOL     OW39202   0.811   2.797   2.003 -0.3044  0.0438 -0.7429
 9189SOL    HW139203   0.902   2.775   1.981  0.1127 -0.4794  1.5353
 9189SOL    HW239204   0.782   2.788   1.912 -2.3128  0.4932 -0.1501
 9190SOL     OW39205   1.071   1.172   2.237 -0.1701 -0.4519  0.5212
 9190SOL    HW139206   1.080   1.174   2.142  2.2696 -0.1984  0.7572
 9190SOL    HW239207   1.141   1.232   2.263 -0.5579  0.3388 -0.2678
 9191SOL     OW39208   2.011   4.410   7.399  0.4358 -0.2784 -0.0289
 9191SOL    HW139209   2.084   4.396   7.459 -0.6738  0.0683  1.4030
 9191SOL    HW239210   1.974   4.484   7.447  2.0090 -0.8579  2.0612
 9192SOL     OW39211   0.631   4.185   0.734  0.2902  0.6038 -0.1762
 9192SOL    HW139212   0.606   4.124   0.804  0.3767  0.4968 -0.2377
 9192SOL    HW239213   0.551   4.183   0.681  0.8094  2.2200 -1.0278
 9193SOL     OW39214   0.429   4.367   9.440 -0.0552  0.1031 -0.2074
 9193SOL    HW139215   0.348   4.359   9.489 -0.9736 -0.2940 -1.7644
 9193SOL    HW239216   0.416   4.446   9.388  3.1904  1.9025  1.7572
 9194SOL     OW39217   1.160   3.450   6.135 -0.1607  0.6348 -0.8382
 9194SOL    HW139218   1.189   3.439   6.045  3.2007  2.2369  0.0454
 9194SOL    HW239219   1.185   3.361   6.159 -1.6407  0.3580 -0.3441
 9195SOL     OW39220   3.052   3.057  11.911 -0.8741  0.5668  0.8513
 9195SOL    HW139221   3.025   3.084  11.823 -2.1102 -0.5222  0.9066
 9195SOL    HW239222   3.143   3.087  11.910 -0.5280 -0.4489  1.1864
 9196SOL     OW39223   4.051   1.006   0.490 -0.1104  0.2252  0.3781
 9196SOL    HW139224   4.040   0.972   0.401 -0.4074  3.5740 -0.8536
 9196SOL    HW239225   4.058   1.101   0.482 -1.5080  0.3077  0.1694
 9197SOL     OW39226   4.678   0.282  10.271  0.4553  0.3743  0.5664
 9197SOL    HW139227   4.593   0.265  10.232 -0.6765 -0.0118  3.1981
 9197SOL    HW239228   4.725   0.216  10.219  0.5246  0.7499  0.1590
 9198SOL     OW39229   1.206   3.080  17.609  0.1212  0.1452 -0.3377
 9198SOL    HW139230   1.260   3.007  17.577  0.4647  1.4621 -2.7971
 9198SOL    HW239231   1.264   3.156  17.602 -1.3122  1.3026  0.4363
 9199SOL     OW39232   1.296   1.331   4.307 -0.4225 -0.2191  0.5836
 9199SOL    HW139233   1.255   1.276   4.240  0.9866  1.5807 -1.7544
 9199SOL    HW239234   1.369   1.376   4.264 -0.6906  1.1202  1.5294
 9200SOL     OW39235   2.801   1.855   8.335 -0.0548 -0.1352  0.0502
 9200SOL    HW139236   2.720   1.901   8.357  0.7530  1.4805 -0.4128
 9200SOL    HW239237   2.870   1.912   8.367 -1.0176  0.4701  1.0064
 9201SOL     OW39238   1.148   3.707   3.800 -0.3447 -0.7525  0.1339
 9201SOL    HW139239   1.138   3.612   3.807  0.4668 -0.9066 -0.8396
 9201SOL    HW239240   1.065   3.728   3.843 -1.4095  0.7783 -2.6450
 9202SOL     OW39241   1.344   1.280  12.204 -0.2405  0.2189  0.7520
 9202SOL    HW139242   1.430   1.269  12.244 -0.6603 -1.3909  1.2081
 9202SOL    HW239243   1.365   1.310  12.115  0.8225  1.1433  1.3082
 9203SOL     OW39244   0.229   1.087   2.429  0.2082  0.1705 -0.0248
 9203SOL    HW139245   0.264   1.160   2.379 -0.9770  0.2022 -0.7992
 9203SOL    HW239246   0.167   1.136   2.483  0.1079  1.4457 -1.2966
 9204SOL     OW39247   2.776   3.131   7.417  0.0862  0.0637 -0.6214
 9204SOL    HW139248   2.837   3.135   7.490 -1.7375  1.7116  0.8040
 9204SOL    HW239249   2.825   3.065   7.366  0.4163 -1.5678  1.8067
 9205SOL     OW39250   1.207   1.760  14.696  0.5024  0.4373  0.5153
 9205SOL    HW139251   1.283   1.702  14.703 -0.4654 -0.9192 -0.2939
 9205SOL    HW239252   1.224   1.816  14.620  0.4211  0.2799  0.3826
 9206SOL     OW39253   0.103   4.436   0.700  0.0324  0.4328 -0.1998
 9206SOL    HW139254   0.109   4.341   0.701 -0.7125  0.3916  0.4939
 9206SOL    HW239255   0.010   4.444   0.722 -0.2412  0.5645 -1.4220
 9207SOL     OW39256   2.850   4.683  16.118  0.0121  0.5815 -0.1434
 9207SOL    HW139257   2.816   4.686  16.208  0.9328 -2.0028  0.3096
 9207SOL    HW239258   2.763   4.687  16.078 -0.5693  1.4626  1.1765
 9208SOL     OW39259   0.202   0.467   7.255 -0.2287  0.4073 -0.5779
 9208SOL    HW139260   0.114   0.494   7.229  0.1246  0.6956 -1.4497
 9208SOL    HW239261   0.247   0.533   7.203 -1.5813  1.7602 -0.0410
 9209SOL     OW39262   0.673   2.728  14.991 -0.4722  0.3348 -0.1740
 9209SOL    HW139263   0.635   2.645  15.019 -0.3254  0.8755  1.6900
 9209SOL    HW239264   0.679   2.708  14.898 -2.6730 -0.7159 -0.0884
 9210SOL     OW39265   1.275   1.007   2.669 -0.2028 -0.1067 -0.2424
 9210SOL    HW139266   1.359   0.997   2.624 -0.7643 -0.0475 -1.3199
 9210SOL    HW239267   1.295   1.078   2.730  0.8305 -0.3945 -0.2521
 9211SOL     OW39268   0.658   3.700   0.626 -0.7296 -0.0705 -0.1869
 9211SOL    HW139269   0.651   3.793   0.605 -2.0991 -0.6859 -2.4713
 9211SOL    HW239270   0.600   3.685   0.700 -0.2501 -1.0456 -0.0115
 9212SOL     OW39271   2.985   4.624   6.729 -0.3018 -0.2656 -0.1370
 9212SOL    HW139272   3.025   4.670   6.655  1.2709 -2.3416 -0.5721
 9212SOL    HW239273   3.065   4.610   6.779 -0.3857  1.7943  0.5736
 9213SOL     OW39274   4.722   1.628   6.057 -0.0038 -0.2226 -0.0167
 9213SOL    HW139275   4.688   1.566   5.992  1.9215 -0.8993 -0.3660
 9213SOL    HW239276   0.077   1.605   6.071  0.5480  0.6900 -2.1657
 9214SOL     OW39277   3.473   0.481   6.861  0.0686 -0.2045  0.1854
 9214SOL    HW139278   3.528   0.466   6.938  2.2464  3.6906 -0.6150
 9214SOL    HW239279   3.487   0.573   6.838 -0.5880  0.1335  1.1156
 9215SOL     OW39280   0.991   3.195  17.523 -0.1184 -0.4991  0.5057
 9215SOL    HW139281   0.917   3.176  17.581 -1.2703 -0.3640 -0.9255
 9215SOL    HW239282   1.057   3.135  17.557  0.0898 -0.5756 -0.0472
 9216SOL     OW39283   4.386   1.030   4.347 -0.9327  0.2452 -0.0449
 9216SOL    HW139284   4.401   1.039   4.253 -0.2780  1.4324  0.1808
 9216SOL    HW239285   4.417   1.115   4.379 -0.3033 -0.3897  1.0120
 9217SOL     OW39286   3.215   2.446  15.762 -0.1439 -0.5755 -0.2154
 9217SOL    HW139287   3.188   2.397  15.684 -1.2986 -0.8582  0.3706
 9217SOL    HW239288   3.171   2.529  15.743  1.2040  0.3558  0.7749
 9218SOL     OW39289   0.043   3.398   6.308 -0.1389  0.1553  0.3193
 9218SOL    HW139290   0.011   3.381   6.219  1.5040  0.0229 -0.2458
 9218SOL    HW239291   0.055   3.493   6.304 -2.9290  0.4532 -1.4588
 9219SOL     OW39292   1.589   3.770   3.929 -0.0054  0.1802 -0.3086
 9219SOL    HW139293   1.512   3.827   3.923 -2.2231 -2.7822 -0.2350
 9219SOL    HW239294   1.548   3.686   3.908  0.1535  0.0067  0.0748
 9220SOL     OW39295   4.686   1.437   6.774 -0.4471  0.2693 -0.3122
 9220SOL    HW139296   0.013   1.391   6.828  0.3129  0.3578 -1.1385
 9220SOL    HW239297   4.724   1.436   6.686 -2.3792  0.7712 -1.1639
 9221SOL     OW39298   3.966   1.336   2.157  0.0964 -0.5828 -0.4818
 9221SOL    HW139299   3.965   1.432   2.158 -0.4585 -0.5963  0.1844
 9221SOL    HW239300   3.985   1.312   2.067 -0.3025 -0.6564 -0.5445
 9222SOL     OW39301   1.546   2.616   2.228 -0.0669 -0.8329 -0.0397
 9222SOL    HW139302   1.503   2.561   2.162  0.6241 -0.9848 -0.3653
 9222SOL    HW239303   1.559   2.551   2.296  2.6079 -0.7156 -0.4418
 9223SOL     OW39304   0.062   0.168   7.592  0.1876  0.5998  1.2116
 9223SOL    HW139305   0.025   0.135   7.674  0.5658 -2.8057 -0.0092
 9223SOL    HW239306   4.721   0.164   7.535  1.0859  0.4848  0.0138
 9224SOL     OW39307   0.799   4.157   2.290  0.3405 -0.2324 -0.3858
 9224SOL    HW139308   0.735   4.185   2.355 -0.9957 -1.7972 -1.0416
 9224SOL    HW239309   0.811   4.233   2.233  0.6446 -0.6750 -0.9084
 9225SOL     OW39310   1.942   0.868  16.074 -0.0131 -0.1346  0.0182
 9225SOL    HW139311   2.025   0.847  16.116 -0.3685 -0.2463  0.6694
 9225SOL    HW239312   1.947   0.963  16.069 -1.1258 -0.0428  0.5648
 9226SOL     OW39313   0.604   3.758   6.181  0.1829 -0.3550  0.0089
 9226SOL    HW139314   0.657   3.837   6.168  0.1598 -0.1415  1.2195
 9226SOL    HW239315   0.556   3.761   6.099  0.4516 -1.4132 -0.1781
 9227SOL     OW39316   2.179   3.354   4.290  0.1800  0.6415 -0.1338
 9227SOL    HW139317   2.160   3.441   4.325 -2.7223 -1.1420  2.7694
 9227SOL    HW239318   2.097   3.332   4.244  0.3913  2.5194 -1.4198
 9228SOL     OW39319   3.383   0.726   7.552 -0.0346 -0.2372  0.1173
 9228SOL    HW139320   3.416   0.814   7.570 -0.1946 -0.0913 -0.3027
 9228SOL    HW239321   3.387   0.685   7.638 -0.7383 -1.3703 -0.3916
 9229SOL     OW39322   1.480   1.658   0.302  0.7853  0.0604  0.2821
 9229SOL    HW139323   1.518   1.689   0.220 -0.4508 -1.7038 -0.9620
 9229SOL    HW239324   1.389   1.641   0.277  0.8294 -1.2016  0.9737
 9230SOL     OW39325   3.327   1.351  10.793 -0.1640  0.3284 -0.1342
 9230SOL    HW139326   3.276   1.270  10.792  0.1338  0.1714 -1.9238
 9230SOL    HW239327   3.299   1.392  10.875  2.8700  2.8079 -0.3128
 9231SOL     OW39328   1.332   2.581   6.119  0.3295  0.2677 -0.1348
 9231SOL    HW139329   1.365   2.667   6.142 -0.7473  0.7385 -0.3697
 9231SOL    HW239330   1.390   2.524   6.170  0.5785 -0.0399 -0.7612
 9232SOL     OW39331   0.868   4.595   9.592 -0.0524 -0.2125  0.1854
 9232SOL    HW139332   0.961   4.607   9.572  0.0845 -1.8918 -0.1899
 9232SOL    HW239333   0.851   4.659   9.661 -0.1345 -2.5380  2.2898
 9233SOL     OW39334   1.545   3.135   3.377 -0.1457 -0.2880  0.3384
 9233SOL    HW139335   1.495   3.058   3.350  2.2197 -1.0200 -1.8875
 9233SOL    HW239336   1.632   3.113   3.344  0.0600  0.9120  0.0995
 9234SOL     OW39337   1.910   1.972   1.399 -1.1412 -0.3088 -0.2537
 9234SOL    HW139338   1.958   2.055   1.395 -1.0817 -0.3566 -0.5675
 9234SOL    HW239339   1.865   1.978   1.483 -1.6994  0.6815 -0.6250
 9235SOL     OW39340   0.485   1.413   2.500 -0.1791  0.3751 -0.6493
 9235SOL    HW139341   0.531   1.384   2.421  1.0062  2.0280 -0.5789
 9235SOL    HW239342   0.506   1.348   2.566  0.1869 -1.2153 -2.3437
 9236SOL     OW39343   0.834   3.737   8.853  0.6120  0.1752 -0.1579
 9236SOL    HW139344   0.853   3.724   8.760  0.0303 -0.1505 -0.2300
 9236SOL    HW239345   0.862   3.655   8.896  0.1456  0.7578  1.2617
 9237SOL     OW39346   1.548   2.185   9.316  0.1126  0.0592  0.2997
 9237SOL    HW139347   1.635   2.214   9.288  0.3247 -0.7643  0.0949
 9237SOL    HW239348   1.554   2.089   9.316 -0.1681  0.0401 -1.0810
 9238SOL     OW39349   4.563   0.636  16.890 -0.3974 -0.3184 -0.1920
 9238SOL    HW139350   4.469   0.653  16.892 -0.0028  1.6118  1.4708
 9238SOL    HW239351   4.584   0.656  16.799 -0.0874 -0.4018 -0.1417
 9239SOL     OW39352   1.337   2.891   6.971 -0.6370 -0.3587 -0.4325
 9239SOL    HW139353   1.262   2.835   6.951 -1.9599  1.2622 -0.0308
 9239SOL    HW239354   1.292   2.963   7.016 -4.1715 -1.9911 -1.3793
 9240SOL     OW39355   4.258   0.915   8.332  0.1073  0.7838 -0.2152
 9240SOL    HW139356   4.335   0.968   8.310  0.9637 -1.0088 -1.4504
 9240SOL    HW239357   4.268   0.829   8.293 -0.3057  0.3491  0.6214
 9241SOL     OW39358   3.912   1.041   2.446  0.2419  0.3208 -0.3317
 9241SOL    HW139359   3.983   1.103   2.431  0.0091  1.3174  2.7899
 9241SOL    HW239360   3.840   1.097   2.418  0.8972  0.0765 -2.4742
 9242SOL     OW39361   0.174   2.188   1.174 -0.6156  0.2217 -0.3167
 9242SOL    HW139362   0.247   2.224   1.125 -0.3430 -0.0168 -0.0864
 9242SOL    HW239363   0.222   2.133   1.236  1.0850  1.0327 -0.9146
 9243SOL     OW39364   3.287   4.099   6.137  0.2132 -0.1796  0.5100
 9243SOL    HW139365   3.308   4.160   6.208 -1.1708 -1.2072  1.8141
 9243SOL    HW239366   3.372   4.057   6.122 -1.4253 -3.2617 -0.2170
 9244SOL     OW39367   1.943   0.970   3.277 -0.4009  0.1838  0.3951
 9244SOL    HW139368   1.865   1.016   3.309 -0.3848 -0.9058  1.9987
 9244SOL    HW239369   1.982   0.940   3.359 -2.4921 -0.2355  1.2418
 9245SOL     OW39370   1.051   0.804  10.074 -0.3694 -0.6461  0.3601
 9245SOL    HW139371   0.991   0.729  10.079  0.4026 -1.3902 -1.5318
 9245SOL    HW239372   1.006   0.876  10.118 -1.3973 -0.8750 -0.3026
 9246SOL     OW39373   2.113   3.739   7.994  0.0650 -0.6627  0.7596
 9246SOL    HW139374   2.178   3.685   8.040 -0.2097 -1.7776 -0.1448
 9246SOL    HW239375   2.065   3.774   8.070 -1.5832  0.6232 -0.8910
 9247SOL     OW39376   0.486   1.198   3.785  0.3971 -0.1408  0.2077
 9247SOL    HW139377   0.441   1.117   3.805  1.9452 -1.3763 -1.3131
 9247SOL    HW239378   0.417   1.238   3.732  1.1260  0.8630  0.0170
 9248SOL     OW39379   0.358   1.785   4.616 -0.1248 -0.9587 -0.5186
 9248SOL    HW139380   0.326   1.872   4.592  0.2228 -0.4784  0.7417
 9248SOL    HW239381   0.290   1.764   4.680  1.3781  1.4526  1.8664
 9249SOL     OW39382   2.280   0.597   8.407  0.0602  0.3829 -0.1080
 9249SOL    HW139383   2.352   0.658   8.391  0.4972 -0.8885 -2.9808
 9249SOL    HW239384   2.321   0.513   8.428 -0.8146  0.0449  0.2770
 9250SOL     OW39385   3.741   0.668   6.211  0.3641  0.6899 -0.2258
 9250SOL    HW139386   3.835   0.651   6.208  0.0934 -1.0070  0.4366
 9250SOL    HW239387   3.708   0.603   6.149  1.6565 -0.6313  0.4635
 9251SOL     OW39388   3.777   0.294   4.661  0.2273  0.4950  0.4695
 9251SOL    HW139389   3.694   0.324   4.699 -1.5259 -0.8578 -2.2855
 9251SOL    HW239390   3.827   0.374   4.677  1.6938 -0.1891 -0.6895
 9252SOL     OW39391   3.971   2.363  10.966 -0.3156  0.2769 -0.2199
 9252SOL    HW139392   3.969   2.438  11.026 -1.8055  0.3222 -0.3418
 9252SOL    HW239393   4.051   2.317  10.994  0.4022  0.7406 -1.5244
 9253SOL     OW39394   2.616   1.951  17.671  0.2406 -0.0894  0.0256
 9253SOL    HW139395   2.664   1.884  17.719  1.7333  2.3569  1.9538
 9253SOL    HW239396   2.562   1.996  17.737 -1.6399  0.2232 -1.7382
 9254SOL     OW39397   2.075   1.554   1.901  0.3977  0.2132 -0.5104
 9254SOL    HW139398   2.072   1.462   1.871 -0.8804  0.1480 -0.1784
 9254SOL    HW239399   2.159   1.585   1.867  1.4341 -1.0618  0.9322
 9255SOL     OW39400   1.930   0.951   6.343  0.1689  0.2243 -0.3158
 9255SOL    HW139401   1.941   0.856   6.339 -1.3091  0.0794 -0.9694
 9255SOL    HW239402   1.855   0.973   6.399 -0.6552  1.5668 -1.9344
 9256SOL     OW39403   1.442   2.341  12.949 -0.0374 -0.1157  0.1578
 9256SOL    HW139404   1.475   2.253  12.928 -2.1545 -1.1700  1.1557
 9256SOL    HW239405   1.349   2.323  12.936 -0.0414 -0.0594  0.1115
 9257SOL     OW39406   3.821   1.446  12.330  0.1630 -0.4155 -0.5918
 9257SOL    HW139407   3.866   1.363  12.345  1.8225  0.5492 -0.1231
 9257SOL    HW239408   3.729   1.429  12.313  0.5895 -1.0683 -2.3147
 9258SOL     OW39409   2.172   4.523   8.292  0.0284 -0.3861  0.7336
 9258SOL    HW139410   2.094   4.473   8.269  0.9319 -1.6690  0.4124
 9258SOL    HW239411   2.143   4.596   8.346  1.6386 -0.5914  1.8935
 9259SOL     OW39412   3.575   4.528   5.903 -0.0858 -0.1330 -0.3231
 9259SOL    HW139413   3.667   4.549   5.914 -0.3291  1.2163 -0.8869
 9259SOL    HW239414   3.575   4.516   5.808 -1.7851 -4.1257  0.1463
 9260SOL     OW39415   1.397   3.312   3.841 -0.4155 -0.3084  0.5396
 9260SOL    HW139416   1.399   3.217   3.829 -0.8642 -0.2051 -0.3482
 9260SOL    HW239417   1.424   3.350   3.757 -0.9665  1.7954  1.3064
 9261SOL     OW39418   3.627   4.578   2.238 -0.0746  0.8206  0.0668
 9261SOL    HW139419   3.694   4.643   2.218  0.3701 -0.2853 -2.0783
 9261SOL    HW239420   3.661   4.505   2.185 -1.1046 -1.0524  1.9654
 9262SOL     OW39421   2.946   2.742   6.395  0.4854 -0.0719  0.0083
 9262SOL    HW139422   2.877   2.700   6.445 -1.0945  0.9638 -1.2943
 9262SOL    HW239423   2.951   2.684   6.319 -0.7143 -1.4371  0.9877
 9263SOL     OW39424   0.050   0.593   3.291 -0.4482  0.5385 -0.1313
 9263SOL    HW139425   0.067   0.587   3.197 -2.7602 -1.3675 -0.4308
 9263SOL    HW239426   0.138   0.565   3.317 -1.7254 -2.7882  0.5735
 9264SOL     OW39427   1.884   2.689  15.892  0.1433  0.5054  0.3439
 9264SOL    HW139428   1.870   2.686  15.987  1.1905 -0.7327  0.4680
 9264SOL    HW239429   1.798   2.672  15.855  1.5739 -1.7344 -2.0206
 9265SOL     OW39430   3.603   0.621   5.349  0.0150  0.5396  0.1350
 9265SOL    HW139431   3.615   0.577   5.433 -0.4505  3.3159  1.6553
 9265SOL    HW239432   3.525   0.669   5.376  0.8198  2.0501 -0.2524
 9266SOL     OW39433   2.071   1.620   9.419  0.2735 -0.5720 -0.5910
 9266SOL    HW139434   2.111   1.617   9.332 -1.4011 -0.8994 -1.3424
 9266SOL    HW239435   2.027   1.705   9.416  1.2889  0.0122  0.8738
 9267SOL     OW39436   0.011   1.343  15.191  0.1889  0.8020  0.5420
 9267SOL    HW139437   0.101   1.311  15.196 -0.2108  0.1107  3.3155
 9267SOL    HW239438   0.016   1.439  15.186  0.2306  0.9184  2.7536
 9268SOL     OW39439   1.011   4.354   4.853 -0.1229  0.2597 -0.2883
 9268SOL    HW139440   0.989   4.318   4.767  1.4899 -1.4382  0.0269
 9268SOL    HW239441   0.960   4.435   4.844 -1.1896 -0.3085  0.7179
 9269SOL     OW39442   4.062   1.821  16.611  0.2633  0.4535 -0.1959
 9269SOL    HW139443   4.076   1.855  16.522  1.1579 -0.7626 -0.5122
 9269SOL    HW239444   3.968   1.841  16.614 -0.0059 -0.8556  0.0727
 9270SOL     OW39445   0.482   0.583  12.127  0.7260  0.1059  0.6393
 9270SOL    HW139446   0.438   0.552  12.206  0.4706  1.3803  0.9891
 9270SOL    HW239447   0.470   0.678  12.127  0.5926  0.1204 -3.6667
 9271SOL     OW39448   1.326   4.720   9.348  0.0059  0.0876  0.1223
 9271SOL    HW139449   1.402   0.029   9.383  0.6054 -0.3133 -0.6532
 9271SOL    HW239450   1.348   4.633   9.381  1.7526  0.2243 -0.7053
 9272SOL     OW39451   3.955   1.642   5.384 -0.1517 -0.1691 -0.5583
 9272SOL    HW139452   3.979   1.609   5.297  4.2858  0.9801  0.2301
 9272SOL    HW239453   3.893   1.703   5.344  0.9602  1.0871 -0.3744
 9273SOL     OW39454   2.828   0.068  13.795 -0.0140 -0.1562  0.6000
 9273SOL    HW139455   2.859   0.106  13.877  2.0192 -1.9327  0.6408
 9273SOL    HW239456   2.911   0.043  13.754 -0.0660 -0.5856  0.7591
 9274SOL     OW39457   0.214   3.101  12.829  0.0635  0.2220  0.0212
 9274SOL    HW139458   0.149   3.097  12.899  1.6226  0.6367  1.4911
 9274SOL    HW239459   0.157   3.142  12.764  0.4338 -2.3953 -1.9363
 9275SOL     OW39460   2.730   2.591   9.758  0.0477 -0.8772 -0.1763
 9275SOL    HW139461   2.699   2.605   9.669  0.5997  0.7872 -0.0966
 9275SOL    HW239462   2.706   2.668   9.810 -2.1737 -1.3965 -0.4236
 9276SOL     OW39463   1.891   2.973   6.100 -0.1259 -0.1224  0.0002
 9276SOL    HW139464   1.915   2.887   6.133  0.4872  0.1368  0.2187
 9276SOL    HW239465   1.955   3.032   6.139 -1.0811  1.9581 -1.5926
 9277SOL     OW39466   3.367   0.581   2.665  0.1616  0.4720 -0.4888
 9277SOL    HW139467   3.354   0.567   2.759 -0.0293 -0.1360 -0.5998
 9277SOL    HW239468   3.345   0.674   2.674  1.5625  0.6784  0.7650
 9278SOL     OW39469   3.345   1.181   2.496  0.1007  0.4426  1.0227
 9278SOL    HW139470   3.389   1.230   2.565  0.0696 -1.1716  2.1599
 9278SOL    HW239471   3.405   1.113   2.465 -0.1009  0.6804  0.0845
 9279SOL     OW39472   2.422   3.190   2.901 -0.2029 -0.0154  0.3636
 9279SOL    HW139473   2.357   3.245   2.858  0.9164  0.8228 -0.2738
 9279SOL    HW239474   2.430   3.107   2.855  1.7783 -0.7626  2.0395
 9280SOL     OW39475   1.676   3.482   3.272 -0.7822  0.4666 -0.1465
 9280SOL    HW139476   1.684   3.436   3.356  1.7132 -1.0604 -1.2076
 9280SOL    HW239477   1.746   3.441   3.221 -0.0725  0.1225  1.1000
 9281SOL     OW39478   3.086   0.514   2.059  0.0704  0.3103 -0.4295
 9281SOL    HW139479   3.147   0.538   1.990 -0.6825  2.8346 -0.2055
 9281SOL    HW239480   3.096   0.420   2.075  0.1083  0.3205 -0.3932
 9282SOL     OW39481   2.234   4.713   3.953  0.4170 -0.4890 -0.4776
 9282SOL    HW139482   2.212   0.005   3.864 -2.7047 -0.6214  0.2491
 9282SOL    HW239483   2.155   4.726   4.005 -1.2274 -1.4005 -2.7257
 9283SOL     OW39484   2.930   0.101   2.774 -0.2098 -0.7239  0.0389
 9283SOL    HW139485   2.956   0.035   2.710 -2.3023  0.4649 -2.0619
 9283SOL    HW239486   3.005   0.098   2.833  2.3920 -3.3301 -3.3639
 9284SOL     OW39487   0.396   4.594   3.587 -0.3631 -0.6276  0.1262
 9284SOL    HW139488   0.311   4.605   3.630 -0.7753  2.0956 -1.3757
 9284SOL    HW239489   0.360   4.542   3.515  0.0232 -0.1526 -0.4133
 9285SOL     OW39490   0.282   3.877   3.285 -0.0202  0.0652  0.3755
 9285SOL    HW139491   0.256   3.811   3.220 -0.6125  1.0860 -0.4159
 9285SOL    HW239492   0.209   3.937   3.274 -0.8996 -1.2192 -0.8752
 9286SOL     OW39493   3.864   3.604   1.774 -0.2214 -0.1344  0.0780
 9286SOL    HW139494   3.891   3.605   1.682 -0.9067 -0.0078 -0.1238
 9286SOL    HW239495   3.869   3.698   1.791  1.3204 -0.5061  1.6563
 9287SOL     OW39496   0.926   2.653  11.770 -0.5550 -0.0723 -0.4952
 9287SOL    HW139497   0.871   2.592  11.721  0.8626 -1.9134  0.1888
 9287SOL    HW239498   0.865   2.727  11.764 -1.4375 -0.8704 -1.4642
 9288SOL     OW39499   0.132   2.500   6.200 -0.1144 -0.1485 -0.2313
 9288SOL    HW139500   0.064   2.566   6.193  0.9492  1.0137  0.2705
 9288SOL    HW239501   0.085   2.427   6.160 -1.4753 -0.1619  1.3840
 9289SOL     OW39502   1.116   0.349  16.633  0.1238 -0.4591 -0.4691
 9289SOL    HW139503   1.187   0.398  16.592 -1.2069  1.0675 -0.9501
 9289SOL    HW239504   1.155   0.261  16.632 -1.7998 -1.3115 -0.4978
 9290SOL     OW39505   2.402   0.519   4.823 -0.2070  0.1729 -0.2039
 9290SOL    HW139506   2.356   0.511   4.739  2.6876 -1.8416 -1.5768
 9290SOL    HW239507   2.489   0.549   4.796  0.5601  0.4113  2.5787
 9291SOL     OW39508   4.601   1.882   3.415  0.0001 -0.1834 -0.2934
 9291SOL    HW139509   4.561   1.883   3.502 -1.5135 -0.5103 -0.9825
 9291SOL    HW239510   4.529   1.912   3.360  2.0432  0.8072 -2.4336
 9292SOL     OW39511   0.684   1.776   9.995  0.4540 -0.5873  0.2608
 9292SOL    HW139512   0.615   1.833  10.029  0.3167 -0.6256  0.0466
 9292SOL    HW239513   0.748   1.837   9.959  0.9973  0.6226  3.2781
 9293SOL     OW39514   3.370   2.682   8.470  0.3693 -0.4844 -0.1655
 9293SOL    HW139515   3.285   2.637   8.477  1.3668 -2.4531 -0.6821
 9293SOL    HW239516   3.406   2.652   8.554 -0.6783 -0.8080  0.1714
 9294SOL     OW39517   0.701   3.341   4.193  0.0704 -0.0709 -0.4821
 9294SOL    HW139518   0.665   3.416   4.145  0.9627  1.7454  1.6701
 9294SOL    HW239519   0.658   3.349   4.278 -1.4020  3.0337 -1.4805
 9295SOL     OW39520   2.513   4.097  11.950 -0.1314 -0.9100 -0.7448
 9295SOL    HW139521   2.465   4.140  12.021  0.2005 -1.1879 -0.3511
 9295SOL    HW239522   2.443   4.039  11.922 -0.8229  0.9068 -2.7600
 9296SOL     OW39523   3.314   0.244   2.834  0.4568 -0.2403  0.4999
 9296SOL    HW139524   3.377   0.210   2.771 -0.1218  0.2133 -0.3262
 9296SOL    HW239525   3.364   0.273   2.910  0.4496  3.2896 -0.8103
 9297SOL     OW39526   2.391   2.987   0.419  0.1191  0.4712 -0.1227
 9297SOL    HW139527   2.481   3.017   0.428  1.0048 -2.1629 -0.1162
 9297SOL    HW239528   2.361   3.020   0.504  1.2357 -0.5641  0.6769
 9298SOL     OW39529   4.684   4.204  10.664 -0.2322 -0.2583 -0.8197
 9298SOL    HW139530   4.659   4.116  10.692  3.7119 -1.0386  0.2806
 9298SOL    HW239531   4.719   4.247  10.742  0.9679  1.7562 -2.4752
 9299SOL     OW39532   2.053   0.785  11.026  0.2559  0.6690  0.5270
 9299SOL    HW139533   1.970   0.831  11.040 -0.4421 -0.2296 -0.6919
 9299SOL    HW239534   2.056   0.722  11.097  1.2934  1.9171  1.6110
 9300SOL     OW39535   0.627   1.413   4.046  0.4844  0.2316  0.2537
 9300SOL    HW139536   0.587   1.493   4.012 -0.0539 -0.0336  0.2681
 9300SOL    HW239537   0.669   1.369   3.973  2.1546 -1.2546  2.0984
 9301SOL     OW39538   4.176   3.825   7.503 -0.4916  0.1875  0.6046
 9301SOL    HW139539   4.222   3.897   7.462  1.6518 -1.4611  0.0997
 9301SOL    HW239540   4.169   3.756   7.437 -2.1063 -0.5245  1.4888
 9302SOL     OW39541   2.325   0.132  15.701  0.0161  0.1023  0.6083
 9302SOL    HW139542   2.402   0.177  15.738  1.1702  0.5895 -2.3578
 9302SOL    HW239543   2.252   0.194  15.708 -0.9316 -1.1576  1.7451
 9303SOL     OW39544   0.392   2.138   2.688 -0.1413 -0.6166 -0.4032
 9303SOL    HW139545   0.479   2.118   2.723 -0.7131 -0.7978  0.9006
 9303SOL    HW239546   0.343   2.073   2.739 -1.0365  0.2644 -0.1611
 9304SOL     OW39547   0.351   2.628  11.427 -0.2985 -0.5221 -0.0803
 9304SOL    HW139548   0.320   2.569  11.496 -0.0019 -0.5207  0.0519
 9304SOL    HW239549   0.428   2.667  11.468 -0.5415  0.1201 -0.2291
 9305SOL     OW39550   4.424   0.744   6.913 -0.0544 -0.3692 -0.5095
 9305SOL    HW139551   4.509   0.756   6.954  0.3579  0.5915 -1.6307
 9305SOL    HW239552   4.374   0.732   6.994 -0.0612 -1.7331 -0.7258
 9306SOL     OW39553   0.592   1.217   8.850 -0.1551 -0.5897 -0.5696
 9306SOL    HW139554   0.642   1.184   8.776  0.6473 -0.2241 -0.1877
 9306SOL    HW239555   0.543   1.278   8.795  1.7950  1.7921  0.3306
 9307SOL     OW39556   1.637   2.706   0.035  0.2713 -0.7134 -0.1403
 9307SOL    HW139557   1.637   2.646  17.704  1.4002 -1.7515  0.6866
 9307SOL    HW239558   1.718   2.678   0.077  0.1835  0.0231  0.5140
 9308SOL     OW39559   1.936   4.081  15.435 -0.2603  0.4620 -0.2429
 9308SOL    HW139560   2.016   4.134  15.434 -0.1017  0.2058 -0.9862
 9308SOL    HW239561   1.935   4.063  15.341 -4.1092  2.7857 -0.6491
 9309SOL     OW39562   0.017   3.606   3.971  0.0199 -0.2137 -0.2528
 9309SOL    HW139563   4.718   3.521   3.997 -3.0971  1.0361 -0.4285
 9309SOL    HW239564   0.031   3.579   3.880  1.1308  2.1687 -0.7688
 9310SOL     OW39565   2.019   4.623   2.690 -0.3397 -0.0999  0.1143
 9310SOL    HW139566   2.101   4.663   2.717 -0.0400 -2.5074  2.7287
 9310SOL    HW239567   2.041   4.617   2.598  1.4835 -0.8353  0.6074
 9311SOL     OW39568   2.015   2.659  15.544  0.3859  0.4093 -0.1133
 9311SOL    HW139569   1.987   2.570  15.520 -0.8356  0.3552  1.5191
 9311SOL    HW239570   1.961   2.707  15.482  1.8552  0.6865 -1.1828
 9312SOL     OW39571   2.578   2.799   8.623  0.2929 -0.2393  0.1734
 9312SOL    HW139572   2.651   2.860   8.631  0.2346  0.0277 -1.3102
 9312SOL    HW239573   2.508   2.857   8.592 -0.0499 -0.5376  0.3873
 9313SOL     OW39574   3.020   2.777   8.966 -0.5275 -0.4354  0.1797
 9313SOL    HW139575   2.951   2.804   9.027  0.4712  0.7277  0.7898
 9313SOL    HW239576   3.075   2.719   9.018  1.0910 -0.8096 -1.9543
 9314SOL     OW39577   0.801   0.671   8.574  0.2093  0.0324  0.0096
 9314SOL    HW139578   0.726   0.700   8.522  2.6983  3.4295 -1.6755
 9314SOL    HW239579   0.812   0.746   8.632 -0.8001  0.3894 -0.2750
 9315SOL     OW39580   0.977   1.981   4.549 -0.0708  0.5447  0.2793
 9315SOL    HW139581   0.911   1.965   4.481 -0.0166 -0.3986  0.4370
 9315SOL    HW239582   0.946   1.912   4.608  1.1298 -1.5699 -1.5721
 9316SOL     OW39583   4.287   3.093  12.673  0.0960 -0.0365 -0.2808
 9316SOL    HW139584   4.362   3.098  12.614  1.1758  3.3213  1.3794
 9316SOL    HW239585   4.237   3.172  12.652  0.1827 -0.1809 -1.0146
 9317SOL     OW39586   1.252   1.095  10.921 -0.3898  0.3946  0.2966
 9317SOL    HW139587   1.186   1.156  10.954  1.8364  2.2652  1.3820
 9317SOL    HW239588   1.320   1.100  10.988  0.1660 -0.2065 -0.2230
 9318SOL     OW39589   0.598   3.451   9.003 -0.0379  0.3072 -0.2536
 9318SOL    HW139590   0.541   3.525   8.983  2.5173  2.1169 -0.9011
 9318SOL    HW239591   0.532   3.386   9.029 -0.8418  0.9098 -0.7777
 9319SOL     OW39592   1.099   4.511   9.116 -1.1438 -0.3331 -0.1243
 9319SOL    HW139593   1.163   4.516   9.045 -1.4882  2.3761 -0.2477
 9319SOL    HW239594   1.019   4.514   9.063  0.0353 -1.9449 -2.0050
 9320SOL     OW39595   3.556   0.733  11.428  0.1601 -0.4002  0.7792
 9320SOL    HW139596   3.468   0.728  11.392 -0.0539  1.2601  1.0751
 9320SOL    HW239597   3.547   0.824  11.455  1.2232  0.6397 -2.2678
 9321SOL     OW39598   4.564   4.535   1.836 -0.3254 -0.0648  0.1990
 9321SOL    HW139599   4.560   4.620   1.793  0.9681  0.1755  0.5661
 9321SOL    HW239600   4.614   4.484   1.772 -0.6126  1.4366 -1.2107
 9322SOL     OW39601   0.605   2.102   7.437 -0.5600  0.4195  0.4195
 9322SOL    HW139602   0.538   2.037   7.458  0.6861 -1.0857 -0.1704
 9322SOL    HW239603   0.610   2.093   7.341  1.4177 -0.1974  0.5678
 9323SOL     OW39604   3.610   0.881   7.148 -0.1354  0.0733 -0.1065
 9323SOL    HW139605   3.552   0.806   7.165 -0.0090  0.5239  2.3479
 9323SOL    HW239606   3.566   0.948   7.200 -1.0751  0.5839 -1.5536
 9324SOL     OW39607   0.980   4.191  13.560 -0.4639  0.1557  0.0776
 9324SOL    HW139608   0.905   4.186  13.500  0.2203 -2.2691 -0.6173
 9324SOL    HW239609   0.930   4.195  13.641  0.2947 -2.2416  0.6642
 9325SOL     OW39610   1.406   1.356   0.756 -0.2646 -0.1418  0.7474
 9325SOL    HW139611   1.464   1.408   0.811  0.5696  0.9495 -1.1817
 9325SOL    HW239612   1.367   1.418   0.694  0.4057  0.2048  0.6748
 9326SOL     OW39613   3.519   4.686   8.541  0.1631  0.1556 -0.4965
 9326SOL    HW139614   3.596   4.657   8.490 -0.6842 -1.1432 -1.0340
 9326SOL    HW239615   3.491   4.600   8.573 -0.7847  0.4522 -0.5365
 9327SOL     OW39616   0.306   1.251   4.153  0.0657  0.1732 -0.4630
 9327SOL    HW139617   0.269   1.230   4.238  2.3835 -2.0058 -0.0088
 9327SOL    HW239618   0.373   1.314   4.178  0.9429 -1.1646  0.5090
 9328SOL     OW39619   3.571   3.927  15.672 -0.0519 -0.1450  0.0667
 9328SOL    HW139620   3.645   3.872  15.648  0.5511  1.5197 -1.8325
 9328SOL    HW239621   3.572   3.935  15.767 -1.0778 -2.2313  0.2550
 9329SOL     OW39622   3.254   2.975   9.300 -0.0789 -0.4639 -0.3945
 9329SOL    HW139623   3.235   3.001   9.210  0.6929 -1.1054 -0.7386
 9329SOL    HW239624   3.199   2.898   9.314  2.1879 -1.4306  3.1144
 9330SOL     OW39625   2.053   3.479  12.228  0.3711 -0.1724  0.0742
 9330SOL    HW139626   2.066   3.392  12.190  1.5012  1.1306 -2.4629
 9330SOL    HW239627   1.967   3.476  12.270  0.7163  2.9176  0.9743
 9331SOL     OW39628   1.661   0.816  15.245 -0.1205 -0.0022  0.0457
 9331SOL    HW139629   1.730   0.817  15.178  0.2065  2.2038  0.4201
 9331SOL    HW239630   1.586   0.823  15.187 -0.0713  1.5805  0.1611
 9332SOL     OW39631   0.771   0.344   9.251  0.2642 -0.3258 -0.0431
 9332SOL    HW139632   0.757   0.257   9.286 -1.2074  0.3334  0.9900
 9332SOL    HW239633   0.861   0.330   9.223  0.8380 -0.8868  2.1087
 9333SOL     OW39634   0.044   4.038   5.193 -0.1086  0.6434 -0.7845
 9333SOL    HW139635   0.020   4.094   5.119 -2.4054 -1.0681 -1.3603
 9333SOL    HW239636   4.706   4.040   5.254  0.7636  3.1437  0.1804
 9334SOL     OW39637   0.847   2.813   0.101  0.2661 -0.0419  0.0516
 9334SOL    HW139638   0.850   2.802   0.196 -1.9619 -0.3267  0.0734
 9334SOL    HW239639   0.755   2.840   0.101 -0.1164 -1.4176 -1.9047
 9335SOL     OW39640   4.466   0.571   8.690  0.0836 -0.2554 -0.4518
 9335SOL    HW139641   4.462   0.499   8.627  2.6644  0.4676 -1.4176
 9335SOL    HW239642   4.415   0.638   8.645 -2.4205 -2.5274 -1.0227
 9336SOL     OW39643   4.009   0.408   7.670 -0.0304  0.0575 -0.6563
 9336SOL    HW139644   3.958   0.489   7.672  0.9211  0.6079  1.8450
 9336SOL    HW239645   4.006   0.368   7.583  0.2082 -0.4975 -0.4081
 9337SOL     OW39646   3.832   2.143   8.136 -0.0148 -0.9202 -0.0726
 9337SOL    HW139647   3.818   2.203   8.210  0.4855  1.8314 -2.2139
 9337SOL    HW239648   3.816   2.054   8.168 -2.2395 -0.2445  0.7283
 9338SOL     OW39649   1.174   3.421   5.580 -0.0160 -0.8962 -0.2582
 9338SOL    HW139650   1.083   3.391   5.588  0.9019 -3.6308 -0.3388
 9338SOL    HW239651   1.203   3.390   5.495  0.7251  0.4902 -0.5119
 9339SOL     OW39652   4.691   4.027   8.381 -0.3426  0.3541  0.8124
 9339SOL    HW139653   4.729   4.003   8.465  1.9484  3.9962  0.8277
 9339SOL    HW239654   4.642   3.947   8.362  0.0671  0.1619  0.5659
 9340SOL     OW39655   3.546   0.132  14.913  0.5902  0.3010 -0.0268
 9340SOL    HW139656   3.561   0.044  14.879 -1.1161  0.3679 -0.9213
 9340SOL    HW239657   3.457   0.127  14.947  0.0401 -0.8460 -1.6705
 9341SOL     OW39658   1.819   1.228  15.093 -0.3385 -0.0540  0.7685
 9341SOL    HW139659   1.758   1.203  15.163 -3.0054  1.8463 -0.8757
 9341SOL    HW239660   1.895   1.179  15.123 -0.7431 -1.4776 -0.4869
 9342SOL     OW39661   3.874   0.332   6.352 -0.1456 -0.0818 -0.0494
 9342SOL    HW139662   3.962   0.341   6.389 -0.0961 -1.8982  0.2764
 9342SOL    HW239663   3.882   0.249   6.305 -2.1518 -0.4226  0.2136
 9343SOL     OW39664   3.880   1.316   9.047  0.4587  0.0186  0.3458
 9343SOL    HW139665   3.834   1.240   9.010  2.1708 -1.5580  1.4770
 9343SOL    HW239666   3.810   1.362   9.094 -2.0181 -4.0836  0.6253
 9344SOL     OW39667   2.573   4.031   7.583  0.5553 -0.2419  0.2787
 9344SOL    HW139668   2.534   4.112   7.616  0.1349 -0.2909 -0.1041
 9344SOL    HW239669   2.509   3.961   7.595 -0.2191  0.6735  1.4733
 9345SOL     OW39670   3.352   3.730  11.208  0.4345  0.0930 -0.1751
 9345SOL    HW139671   3.308   3.649  11.184 -1.9901  1.3241  0.0766
 9345SOL    HW239672   3.405   3.748  11.130  1.5841  0.2375  0.6339
 9346SOL     OW39673   3.269   2.875   4.858 -0.5382 -0.1215 -0.2326
 9346SOL    HW139674   3.275   2.827   4.775 -3.1654  0.2462 -0.6539
 9346SOL    HW239675   3.183   2.849   4.891  0.0169  0.3378  1.5441
 9347SOL     OW39676   2.283   0.675  15.083  0.1152  0.1943 -0.9630
 9347SOL    HW139677   2.374   0.664  15.111 -0.9717 -2.6143  1.4411
 9347SOL    HW239678   2.288   0.731  15.006 -3.1679  1.9776  0.1140
 9348SOL     OW39679   0.750   0.003  10.460  0.1223 -0.5270  0.0076
 9348SOL    HW139680   0.681   0.051  10.413  1.1756  1.6146  0.6168
 9348SOL    HW239681   0.814   4.717  10.392 -0.3862 -1.7749 -0.0578
 9349SOL     OW39682   2.517   3.212  17.526  0.1345 -0.0365  0.1400
 9349SOL    HW139683   2.599   3.260  17.539  0.9322 -1.3927  0.1142
 9349SOL    HW239684   2.553   3.125  17.507 -0.4087 -0.1010 -0.5935
 9350SOL     OW39685   1.715   3.978   0.073 -0.4670 -0.2851 -0.2463
 9350SOL    HW139686   1.751   3.999   0.159 -0.9447 -0.7999  0.0806
 9350SOL    HW239687   1.716   4.060   0.024 -1.6657  0.7337  1.4803
 9351SOL     OW39688   1.989   1.348  12.364 -0.1962  0.3390 -0.2236
 9351SOL    HW139689   2.055   1.389  12.308 -1.1093 -0.2142 -1.6977
 9351SOL    HW239690   2.045   1.325  12.439 -3.1896 -0.4231  1.7607
 9352SOL     OW39691   1.550   1.205  17.402 -0.2607  0.2137  0.7271
 9352SOL    HW139692   1.511   1.250  17.477 -0.9346 -0.0956  0.5636
 9352SOL    HW239693   1.591   1.279  17.359 -1.1276 -0.3895 -1.1300
 9353SOL     OW39694   3.772   1.178   7.069 -0.4126  0.0972 -0.1912
 9353SOL    HW139695   3.691   1.155   7.023  0.2651 -0.6152 -1.0243
 9353SOL    HW239696   3.812   1.092   7.073  1.4313  0.9376 -0.6864
 9354SOL     OW39697   1.869   0.472   9.717 -0.0142 -0.0829 -1.0371
 9354SOL    HW139698   1.816   0.409   9.667 -0.1157 -0.5780 -0.2923
 9354SOL    HW239699   1.813   0.495   9.791  0.7650  1.8078 -1.0267
 9355SOL     OW39700   1.665   0.699   5.463 -0.5336 -0.0624 -0.5103
 9355SOL    HW139701   1.721   0.772   5.488 -0.3498  0.7099 -3.2347
 9355SOL    HW239702   1.653   0.724   5.372  1.2933  1.1999 -0.4103
 9356SOL     OW39703   2.773   0.559   6.563 -0.0721 -0.2311  0.1043
 9356SOL    HW139704   2.736   0.577   6.476 -1.2692 -0.8028  0.4939
 9356SOL    HW239705   2.845   0.621   6.571 -0.8892  0.6431  0.6987
 9357SOL     OW39706   3.092   0.587   7.106 -0.2122  0.4036  0.2661
 9357SOL    HW139707   3.138   0.609   7.025  1.1234  0.8174  1.1471
 9357SOL    HW239708   3.041   0.513   7.073 -0.3725  0.4664  0.3766
 9358SOL     OW39709   2.074   2.004   3.559  0.3416 -0.1762  0.1946
 9358SOL    HW139710   2.070   2.001   3.655  0.1577  1.5097  0.2312
 9358SOL    HW239711   2.081   1.912   3.534  0.2002  0.3014 -1.5936
 9359SOL     OW39712   0.484   0.026   0.732  0.0803 -0.0846  0.3290
 9359SOL    HW139713   0.495   4.704   0.807 -0.0566 -1.2058 -0.5344
 9359SOL    HW239714   0.576   0.043   0.713  0.0879  0.6101  0.9701
 9360SOL     OW39715   1.925   3.450   8.219  0.5204  0.3378 -0.5428
 9360SOL    HW139716   1.895   3.473   8.307  0.2591  0.2018 -0.5971
 9360SOL    HW239717   1.856   3.386   8.204  0.1988  0.8832 -1.3398
 9361SOL     OW39718   0.481   0.941   3.438 -0.2803 -0.3396  0.7721
 9361SOL    HW139719   0.548   0.897   3.490 -0.6721 -0.1469  1.4488
 9361SOL    HW239720   0.417   0.942   3.509 -1.8712  0.6920 -0.6619
 9362SOL     OW39721   1.060   2.902  15.046  0.1953  0.1643 -0.1971
 9362SOL    HW139722   1.012   2.969  15.094 -0.9074 -1.7568  1.3898
 9362SOL    HW239723   1.123   2.868  15.110  0.1539 -2.1517 -1.3777
 9363SOL     OW39724   2.047   0.535   3.371 -0.8834 -0.4629  0.9980
 9363SOL    HW139725   1.977   0.588   3.408 -0.2681  0.0354  1.4381
 9363SOL    HW239726   2.122   0.587   3.398  0.4701 -1.2102 -1.3179
 9364SOL     OW39727   0.072   2.956  11.221 -0.2266 -0.3521  0.5768
 9364SOL    HW139728   0.042   2.975  11.132  2.6669 -2.3405 -0.8335
 9364SOL    HW239729   0.120   2.874  11.205 -0.0692 -0.5107  1.8713
 9365SOL     OW39730   4.565   3.333  10.611 -0.1209  0.4582 -0.3244
 9365SOL    HW139731   4.580   3.271  10.683  0.9509 -0.7280 -1.5758
 9365SOL    HW239732   4.486   3.381  10.636  0.4040  0.5409  1.1645
 9366SOL     OW39733   3.256   2.323   8.641  0.6208  0.0277 -0.3159
 9366SOL    HW139734   3.243   2.380   8.565 -2.0912  0.5049  0.5241
 9366SOL    HW239735   3.276   2.240   8.597  0.4582 -1.3623  2.1907
 9367SOL     OW39736   2.619   1.689   5.425 -0.5028 -0.0439 -0.1896
 9367SOL    HW139737   2.607   1.746   5.501  0.7448  0.2460 -0.2026
 9367SOL    HW239738   2.640   1.615   5.482 -0.7182  0.4451  0.5235
 9368SOL     OW39739   2.213   1.343   4.546 -0.2577  0.2226 -0.5494
 9368SOL    HW139740   2.299   1.314   4.575  0.2755 -0.9822 -3.3314
 9368SOL    HW239741   2.165   1.331   4.628 -1.6391 -0.6291 -1.4832
 9369SOL     OW39742   3.430   1.106   6.065 -0.2823  0.1269 -0.4034
 9369SOL    HW139743   3.346   1.070   6.038 -0.9490 -0.1155  1.9622
 9369SOL    HW239744   3.469   1.021   6.086  0.2655  0.0634 -1.7040
 9370SOL     OW39745   3.685   0.181   1.098 -0.2398  0.2492  0.6530
 9370SOL    HW139746   3.600   0.151   1.129 -0.7914  2.6311  1.4843
 9370SOL    HW239747   3.670   0.212   1.009 -3.9491  2.0177  1.8841
 9371SOL     OW39748   1.238   1.170   8.668 -0.2751  0.0970 -0.2077
 9371SOL    HW139749   1.294   1.147   8.742 -0.6741  0.9515  0.3666
 9371SOL    HW239750   1.282   1.249   8.635 -1.1262  0.9330  0.6381
 9372SOL     OW39751   4.093   1.249   2.397 -0.5796  0.2908 -0.7020
 9372SOL    HW139752   4.040   1.274   2.321 -1.0699 -0.4473 -0.6027
 9372SOL    HW239753   4.180   1.273   2.362 -1.3486  2.8426 -0.8744
 9373SOL     OW39754   2.835   2.705   1.909  0.5476 -0.2300  0.6616
 9373SOL    HW139755   2.792   2.620   1.897 -0.1462  0.1617  0.3054
 9373SOL    HW239756   2.926   2.678   1.918  1.1771  0.8269 -2.3879
 9374SOL     OW39757   3.433   2.289  11.001 -0.7252  0.4558  0.2617
 9374SOL    HW139758   3.464   2.214  11.051 -2.5661 -0.2593  0.3229
 9374SOL    HW239759   3.345   2.257  10.980  0.3596 -1.9206 -0.6024
 9375SOL     OW39760   0.441   0.707   5.483  0.4647  0.0366  0.2627
 9375SOL    HW139761   0.395   0.683   5.403  2.0453  1.4191 -1.0631
 9375SOL    HW239762   0.528   0.728   5.451 -0.4181  0.2479 -1.9891
 9376SOL     OW39763   0.791   2.583   2.326  0.0825  0.0665 -0.3169
 9376SOL    HW139764   0.700   2.611   2.340 -0.3100 -0.4544 -1.8580
 9376SOL    HW239765   0.774   2.504   2.274 -1.1579  0.7182 -0.8994
 9377SOL     OW39766   0.509   1.558  10.291  0.0702 -0.7800 -0.6778
 9377SOL    HW139767   0.519   1.630  10.353  1.5889 -1.2756 -0.3499
 9377SOL    HW239768   0.462   1.603  10.220  2.0420  1.5884 -0.4919
 9378SOL     OW39769   4.708   2.758   4.874 -0.1276 -0.6906 -0.3214
 9378SOL    HW139770   0.048   2.702   4.888  0.4886  0.7090  2.0209
 9378SOL    HW239771   4.671   2.718   4.796 -1.0575 -0.0415 -0.2215
 9379SOL     OW39772   1.502   2.607   5.683  0.9747 -0.3729 -0.0916
 9379SOL    HW139773   1.546   2.606   5.767  0.3104  0.3080  0.2638
 9379SOL    HW239774   1.409   2.587   5.698  1.3252 -1.5566  0.4445
 9380SOL     OW39775   1.890   2.059   8.118  0.2531 -0.4836  0.4881
 9380SOL    HW139776   1.829   2.090   8.050  0.8933  0.0577  0.1637
 9380SOL    HW239777   1.918   2.146   8.148  1.7825 -0.1136 -2.0542
 9381SOL     OW39778   1.856   3.578   8.478  0.0038 -0.0903 -0.4427
 9381SOL    HW139779   1.925   3.577   8.544 -0.2119  1.4507 -0.1815
 9381SOL    HW239780   1.809   3.660   8.495  0.1569  0.7146 -3.7029
 9382SOL     OW39781   4.058   4.634   6.680 -0.3503 -0.1823  0.5117
 9382SOL    HW139782   3.986   4.679   6.723  1.6877  1.6034  2.1075
 9382SOL    HW239783   4.016   4.559   6.639  0.5700 -0.1629 -0.4812
 9383SOL     OW39784   1.298   1.556   3.691  0.3434 -0.4826  0.2391
 9383SOL    HW139785   1.372   1.544   3.632  1.7417  0.3239  1.8228
 9383SOL    HW239786   1.307   1.488   3.758 -1.2325 -1.0038 -0.0643
 9384SOL     OW39787   2.042   1.952  10.831 -0.1485  0.8151  0.3434
 9384SOL    HW139788   1.970   1.930  10.890 -2.0570  0.8071 -1.9857
 9384SOL    HW239789   2.106   1.998  10.885  0.8209 -1.1417  0.8618
 9385SOL     OW39790   1.689   1.075   8.074  0.0074  0.2731  0.3518
 9385SOL    HW139791   1.751   1.146   8.093 -0.9829  0.9444  1.1061
 9385SOL    HW239792   1.656   1.051   8.161  3.5663 -0.3986  1.5033
 9386SOL     OW39793   1.413   4.684  15.410  0.5963  0.2221 -0.1524
 9386SOL    HW139794   1.497   4.675  15.365  0.8593  1.0552  0.1731
 9386SOL    HW239795   1.366   4.660  15.330  1.2755 -0.0086 -0.4900
 9387SOL     OW39796   2.181   3.681   5.909  0.2686  0.3467  0.7485
 9387SOL    HW139797   2.267   3.713   5.935 -0.0564  2.4035 -0.6623
 9387SOL    HW239798   2.201   3.660   5.818 -0.4882  2.9936 -0.0499
 9388SOL     OW39799   3.658   0.083  16.089 -0.0496 -0.0032  0.1811
 9388SOL    HW139800   3.680   0.176  16.100  1.4726 -0.3544  0.1185
 9388SOL    HW239801   3.563   0.092  16.087  0.0066  0.9038  2.2646
 9389SOL     OW39802   3.169   4.665   5.390  0.2847 -0.0266  0.2666
 9389SOL    HW139803   3.192   4.631   5.477  0.3342  0.3374  0.3969
 9389SOL    HW239804   3.245   4.651   5.334  1.5320  2.8293  1.2525
 9390SOL     OW39805   2.802   0.571   7.666 -0.4694  0.6639 -0.3235
 9390SOL    HW139806   2.825   0.566   7.759  2.0938  2.5006 -0.8683
 9390SOL    HW239807   2.722   0.518   7.666  1.2603 -1.9949  2.5881
 9391SOL     OW39808   1.992   1.860   4.848  0.4425 -0.0533 -0.2127
 9391SOL    HW139809   1.897   1.855   4.839  0.3996  0.0019  0.2109
 9391SOL    HW239810   2.034   1.841   4.765  2.5200  0.2859  0.7381
 9392SOL     OW39811   1.736   3.437  17.719  0.6357 -0.8011  0.0852
 9392SOL    HW139812   1.701   3.508   0.029  1.7938 -0.6438  0.6137
 9392SOL    HW239813   1.781   3.483  17.649 -0.6886  0.5075  0.0866
 9393SOL     OW39814   3.152   1.908   3.024 -0.0510  0.3651 -0.4882
 9393SOL    HW139815   3.072   1.936   2.979  0.2561 -0.1003 -1.3291
 9393SOL    HW239816   3.168   1.832   2.968  2.5943  0.4854  0.1148
 9394SOL     OW39817   0.055   4.040  12.924  0.2711  1.2178  0.2766
 9394SOL    HW139818   0.035   4.062  13.014 -1.0385 -0.4090  0.3853
 9394SOL    HW239819   0.076   3.947  12.932  2.5792  1.4734 -2.8721
 9395SOL     OW39820   2.000   0.897  17.642  0.0469  0.1475 -0.0729
 9395SOL    HW139821   2.069   0.959  17.666 -1.6110  0.7244  3.2684
 9395SOL    HW239822   2.044   0.820  17.677 -0.6951  0.0602  0.6774
 9396SOL     OW39823   0.866   0.565  15.418 -0.4862 -0.1296  0.3091
 9396SOL    HW139824   0.819   0.489  15.453  1.1272 -1.8150 -1.2102
 9396SOL    HW239825   0.800   0.632  15.434 -0.7560  0.1630 -2.0770
 9397SOL     OW39826   2.204   1.930   7.997 -0.2553  0.4795  0.0594
 9397SOL    HW139827   2.136   1.929   7.929  0.6744 -0.3045 -0.8464
 9397SOL    HW239828   2.235   2.020   7.988  0.1703  0.3681  0.4020
 9398SOL     OW39829   4.150   0.112   9.877 -0.0420 -0.1945  0.3477
 9398SOL    HW139830   4.063   0.077   9.856  1.2254 -1.9675 -1.9937
 9398SOL    HW239831   4.176   0.127   9.786  0.7437  0.1550  0.6362
 9399SOL     OW39832   3.241   1.474  12.779 -0.1740 -0.0457 -0.5857
 9399SOL    HW139833   3.150   1.444  12.768  0.7237 -3.0472  0.2293
 9399SOL    HW239834   3.295   1.425  12.717 -0.0617 -1.8708  0.9734
 9400SOL     OW39835   3.755   2.930   5.094 -0.6748 -0.2677 -0.1348
 9400SOL    HW139836   3.751   3.025   5.091 -0.2973 -0.1961  1.7704
 9400SOL    HW239837   3.664   2.913   5.067 -1.2720  0.8420  1.1925
 9401SOL     OW39838   3.222   4.720   6.295  0.3731 -0.8624  0.2878
 9401SOL    HW139839   3.288   0.041   6.335 -0.0903  0.1863 -0.4354
 9401SOL    HW239840   3.266   4.727   6.210  0.3930 -1.7248  0.2252
 9402SOL     OW39841   3.506   2.346   9.002  0.0036 -0.3432 -0.0974
 9402SOL    HW139842   3.591   2.319   8.966  0.2467 -0.5600  0.6450
 9402SOL    HW239843   3.470   2.403   8.934 -0.9969 -0.0648  0.6771
 9403SOL     OW39844   4.186   2.908   8.281  0.0463 -0.4321  0.0880
 9403SOL    HW139845   4.106   2.958   8.296 -0.3948 -0.7035 -1.3237
 9403SOL    HW239846   4.141   2.825   8.264  0.8997 -1.1268  1.2506
 9404SOL     OW39847   2.893   1.097   7.897 -0.2705  0.1034 -0.1286
 9404SOL    HW139848   2.802   1.082   7.872 -0.2917 -0.9927  0.6074
 9404SOL    HW239849   2.887   1.156   7.972 -0.1919 -0.6197  0.4420
 9405SOL     OW39850   2.660   3.688   3.650 -0.0665 -0.3940 -0.0387
 9405SOL    HW139851   2.624   3.611   3.607 -1.1374  0.5464 -0.8334
 9405SOL    HW239852   2.744   3.684   3.602  0.6665 -2.1205  1.3788
 9406SOL     OW39853   2.940   0.202  14.002 -0.1886 -0.0277  0.4969
 9406SOL    HW139854   3.034   0.186  14.013  0.3922  2.5638 -0.6444
 9406SOL    HW239855   2.907   0.150  14.076  0.6745  1.3560  1.8612
 9407SOL     OW39856   1.329   1.419  12.877  0.5436  0.2846  0.2320
 9407SOL    HW139857   1.276   1.493  12.849  0.2368 -0.6870 -1.7277
 9407SOL    HW239858   1.417   1.450  12.856  0.1142  1.6379  0.3975
 9408SOL     OW39859   3.320   2.757   4.612  0.2156 -0.0236 -0.1106
 9408SOL    HW139860   3.348   2.669   4.586 -0.3054  0.4406 -2.2289
 9408SOL    HW239861   3.377   2.811   4.557  0.2765  0.2323  0.2012
 9409SOL     OW39862   2.766   1.147   0.226 -0.4885  0.0534 -0.2057
 9409SOL    HW139863   2.695   1.100   0.269 -1.5049  1.1466 -0.6805
 9409SOL    HW239864   2.816   1.078   0.183 -0.9299 -0.2190 -0.2805
 9410SOL     OW39865   3.596   3.529   8.266  0.1242  0.3834 -0.4064
 9410SOL    HW139866   3.556   3.562   8.186  0.0454 -0.2105 -0.6112
 9410SOL    HW239867   3.586   3.435   8.249  3.1501  0.1181 -0.8017
 9411SOL     OW39868   0.398   2.172  17.341 -0.5772 -0.4940  0.2840
 9411SOL    HW139869   0.423   2.248  17.288 -4.6538  0.1324 -0.7453
 9411SOL    HW239870   0.477   2.120  17.358 -0.0466  0.8903  2.0560
 9412SOL     OW39871   3.593   3.904   6.364  0.4466 -0.0106 -0.1255
 9412SOL    HW139872   3.665   3.843   6.348  0.8760  0.7214 -0.9738
 9412SOL    HW239873   3.600   3.955   6.283 -1.5274  0.7652  0.1870
 9413SOL     OW39874   2.148   0.526   4.998  0.2414  0.6415 -0.2828
 9413SOL    HW139875   2.196   0.452   4.963 -3.7367 -2.5636  0.9945
 9413SOL    HW239876   2.141   0.504   5.091 -0.5679 -0.1691 -0.5370
 9414SOL     OW39877   3.092   2.167   4.442  0.1950 -0.1436  0.4475
 9414SOL    HW139878   3.178   2.209   4.441 -0.2492  0.7020 -1.4915
 9414SOL    HW239879   3.113   2.080   4.405  0.0995  0.3117 -0.6753
 9415SOL     OW39880   0.070   1.251   8.553 -0.5347 -0.2924  0.8161
 9415SOL    HW139881   4.714   1.276   8.559 -0.8620 -1.1969 -0.3907
 9415SOL    HW239882   0.070   1.172   8.607 -0.5117 -1.0487 -0.2728
 9416SOL     OW39883   3.504   2.113  13.477  0.4150 -0.3282  0.3624
 9416SOL    HW139884   3.503   2.024  13.512  0.7788  0.4193  2.2288
 9416SOL    HW239885   3.516   2.162  13.558 -0.2448  0.0194  0.2481
 9417SOL     OW39886   1.704   1.377  15.768 -0.0390 -0.1533  0.1851
 9417SOL    HW139887   1.728   1.292  15.805  1.8424  1.0696  1.7738
 9417SOL    HW239888   1.640   1.353  15.701 -0.9467 -1.0055  1.3534
 9418SOL     OW39889   0.805   0.745  16.911 -0.2695 -0.3670 -0.1228
 9418SOL    HW139890   0.885   0.794  16.892 -0.0379 -0.6346  0.1512
 9418SOL    HW239891   0.809   0.670  16.852  0.2034  0.0707 -0.6484
 9419SOL     OW39892   3.414   0.143   6.472 -0.1663 -0.2177  0.1808
 9419SOL    HW139893   3.482   0.097   6.422 -0.7100  0.9030 -1.5769
 9419SOL    HW239894   3.470   0.197   6.528 -0.0790 -3.1866  2.9150
 9420SOL     OW39895   3.436   3.041  15.591 -0.2850  0.2886  0.2953
 9420SOL    HW139896   3.367   2.979  15.616 -0.9220  1.1324  0.6311
 9420SOL    HW239897   3.490   2.996  15.527 -1.8393  0.2086 -0.9564
 9421SOL     OW39898   1.118   4.545   4.219  0.6053 -0.0212 -0.3465
 9421SOL    HW139899   1.104   4.610   4.150 -0.8574  0.2998  0.2490
 9421SOL    HW239900   1.106   4.467   4.166  3.9232 -1.4668  1.0418
 9422SOL     OW39901   1.851   3.347   3.132  0.1543  0.1311  0.6323
 9422SOL    HW139902   1.925   3.387   3.087  2.5281 -3.8310  1.0695
 9422SOL    HW239903   1.833   3.264   3.087  0.5791  0.0839  0.5546
 9423SOL     OW39904   2.187   2.035   8.786 -0.0796 -0.0159  0.8531
 9423SOL    HW139905   2.251   2.053   8.855 -0.6650 -1.0799  1.6765
 9423SOL    HW239906   2.175   1.940   8.788 -1.5933  0.1980  2.5024
 9424SOL     OW39907   3.538   3.189   8.039  0.2394  0.2336 -0.3321
 9424SOL    HW139908   3.533   3.284   8.029  0.9999  0.1650 -1.3790
 9424SOL    HW239909   3.477   3.179   7.965  0.3326 -1.1390 -0.2170
 9425SOL     OW39910   1.009   3.458   8.414  0.1109 -0.0606 -0.2174
 9425SOL    HW139911   1.041   3.411   8.490  0.7096  1.2584  0.3426
 9425SOL    HW239912   1.073   3.526   8.394  0.6306 -0.6817 -0.6567
 9426SOL     OW39913   4.070   4.354   2.783 -0.3705  0.3282  0.1941
 9426SOL    HW139914   4.065   4.291   2.856  1.2666 -2.3914 -2.0268
 9426SOL    HW239915   3.992   4.406   2.801 -2.0782 -1.0709 -3.1325
 9427SOL     OW39916   0.349   3.667   7.407  0.1159 -0.4053 -0.4057
 9427SOL    HW139917   0.423   3.611   7.383  0.5980 -0.0148  0.1762
 9427SOL    HW239918   0.389   3.739   7.456 -1.0754 -0.3235  0.4468
 9428SOL     OW39919   0.880   1.073  16.581  0.0167 -0.5538  0.2309
 9428SOL    HW139920   0.859   1.091  16.672  1.6625 -1.5190  0.7983
 9428SOL    HW239921   0.875   0.978  16.569  0.7321 -0.7235  1.3600
 9429SOL     OW39922   2.031   1.687   7.540 -0.4085 -0.4672  0.0107
 9429SOL    HW139923   2.087   1.764   7.530 -0.8118 -0.3369 -1.3046
 9429SOL    HW239924   2.060   1.619   7.478  0.5333  1.3914 -1.5878
 9430SOL     OW39925   2.886   2.491   5.749 -0.1362 -0.3358  0.3751
 9430SOL    HW139926   2.838   2.424   5.799 -0.0199 -2.4903 -2.3807
 9430SOL    HW239927   2.918   2.432   5.681 -0.0372  0.9951 -0.7183
 9431SOL     OW39928   1.833   3.155   1.032 -0.7056  1.0096 -0.1640
 9431SOL    HW139929   1.825   3.061   1.017  2.0618  1.0015 -1.5775
 9431SOL    HW239930   1.822   3.151   1.127  0.3643 -0.9443 -0.1287
 9432SOL     OW39931   0.920   0.249  17.160 -0.6068  0.4935 -0.7808
 9432SOL    HW139932   0.854   0.274  17.224  0.5777  2.2371 -0.2316
 9432SOL    HW239933   0.983   0.193  17.205 -2.7029 -1.7979 -0.7266
 9433SOL     OW39934   0.582   4.200   3.473 -0.3241  0.4444  0.1738
 9433SOL    HW139935   0.491   4.222   3.455  0.4691  2.8473 -0.8868
 9433SOL    HW239936   0.602   4.277   3.526  0.2553  1.0004 -0.8550
 9434SOL     OW39937   4.603   0.830   4.181  0.3811 -0.3999  0.2611
 9434SOL    HW139938   4.509   0.845   4.191  0.4209  0.4457 -0.6655
 9434SOL    HW239939   4.611   0.852   4.089 -3.8825 -2.1916 -0.5319
 9435SOL     OW39940   3.457   4.266   2.225 -0.0208  0.5183 -0.1644
 9435SOL    HW139941   3.393   4.325   2.265  0.7038  1.1282  0.0979
 9435SOL    HW239942   3.457   4.196   2.289 -0.8936 -1.5357 -2.4074
 9436SOL     OW39943   3.942   3.870  10.343 -0.3563  0.0867  0.2946
 9436SOL    HW139944   3.989   3.951  10.324 -3.0004  1.3990 -0.6514
 9436SOL    HW239945   3.970   3.823  10.264 -1.5363  0.7462 -0.5042
 9437SOL     OW39946   2.143   2.162  15.485  0.7466 -0.1039  0.1220
 9437SOL    HW139947   2.173   2.215  15.559  1.9462  0.8026 -1.0018
 9437SOL    HW239948   2.171   2.221  15.415  1.3799 -0.2545  0.2512
 9438SOL     OW39949   2.840   2.770   9.442 -0.3664  0.2721 -0.1273
 9438SOL    HW139950   2.863   2.813   9.525 -0.8093  1.1731 -0.4752
 9438SOL    HW239951   2.922   2.766   9.392  0.0922 -0.7096  0.6887
 9439SOL     OW39952   2.244   4.395   5.711  0.4567  0.1037 -0.0968
 9439SOL    HW139953   2.215   4.337   5.640 -0.5031 -1.4019  1.4984
 9439SOL    HW239954   2.311   4.345   5.757 -0.2293 -0.6795  0.0570
 9440SOL     OW39955   1.314   4.690   5.898 -0.3314 -0.3428  0.2290
 9440SOL    HW139956   1.323   4.648   5.813 -1.8018 -0.7266  0.2502
 9440SOL    HW239957   1.405   4.712   5.918 -0.8338  1.9718 -0.1053
 9441SOL     OW39958   1.443   4.122   3.106  0.6744  0.1239 -0.2313
 9441SOL    HW139959   1.353   4.145   3.085  0.6761 -1.0455 -1.5391
 9441SOL    HW239960   1.496   4.189   3.064 -0.2570  1.7027  1.1379
 9442SOL     OW39961   3.113   1.721   5.780  0.2261  0.4155  0.1509
 9442SOL    HW139962   3.025   1.732   5.745  0.4146 -0.3521 -0.5866
 9442SOL    HW239963   3.098   1.628   5.793  1.5924 -0.0206 -1.2836
 9443SOL     OW39964   1.916   4.011   4.869 -0.1579 -0.7990  0.2687
 9443SOL    HW139965   1.951   4.060   4.795  3.0659  0.1363  2.4289
 9443SOL    HW239966   1.824   4.037   4.869 -0.5414 -2.1946  1.3261
 9444SOL     OW39967   2.174   1.532  13.276 -0.3156 -0.4540 -0.4192
 9444SOL    HW139968   2.157   1.608  13.332 -0.9281 -0.7632 -0.1849
 9444SOL    HW239969   2.107   1.548  13.209 -0.2299 -2.1531 -0.9013
 9445SOL     OW39970   0.586   3.147   0.215  0.0415  0.5832  0.0068
 9445SOL    HW139971   0.563   3.149   0.308  2.7961 -1.4783  0.7219
 9445SOL    HW239972   0.675   3.179   0.223 -0.5442  2.2046  0.0540
 9446SOL     OW39973   0.966   3.996   8.581  0.5821  0.3352 -0.6042
 9446SOL    HW139974   0.963   4.028   8.671  2.1254 -2.2166  0.3580
 9446SOL    HW239975   1.030   3.924   8.574 -0.9752 -1.1447  0.2309
 9447SOL     OW39976   1.422   3.198   7.339  0.4230 -0.4032 -0.2157
 9447SOL    HW139977   1.433   3.279   7.390  0.6259 -0.5401 -0.0439
 9447SOL    HW239978   1.403   3.143   7.415  2.1830 -1.1027 -0.2795
 9448SOL     OW39979   4.597   0.673   7.542  0.1498 -0.4434  0.1772
 9448SOL    HW139980   4.534   0.713   7.482 -0.9147 -1.3622  0.6767
 9448SOL    HW239981   4.568   0.696   7.631 -1.0512 -2.3457  0.2850
 9449SOL     OW39982   2.603   3.135   1.301  0.1568 -0.4579  0.3858
 9449SOL    HW139983   2.548   3.177   1.367  0.1425  0.0565  0.0445
 9449SOL    HW239984   2.678   3.103   1.350 -0.6168 -3.2224 -0.2580
 9450SOL     OW39985   2.907   1.440  13.557  0.0878  0.0350  0.2348
 9450SOL    HW139986   2.970   1.475  13.621 -0.5541  0.8369  0.4321
 9450SOL    HW239987   2.827   1.449  13.608 -0.2142  0.8207 -0.3751
 9451SOL     OW39988   1.987   0.197  10.458  0.2094 -0.4477  0.3361
 9451SOL    HW139989   2.009   0.254  10.384  1.4268 -0.3650  0.7647
 9451SOL    HW239990   2.002   0.261  10.527  1.0409 -1.1742  0.8159
 9452SOL     OW39991   2.789   2.373  12.223 -0.0596  0.0968 -0.1596
 9452SOL    HW139992   2.844   2.307  12.266  1.6708  1.2100 -0.6622
 9452SOL    HW239993   2.807   2.452  12.273 -3.4527  0.7903 -0.0563
 9453SOL     OW39994   0.483   4.624   1.536  0.3244 -0.7429  0.3466
 9453SOL    HW139995   0.571   4.585   1.531  0.1169 -1.1042 -0.4516
 9453SOL    HW239996   0.486   4.643   1.629  3.4710 -0.2401  0.1628
 9454SOL     OW39997   3.281   2.187  13.836  0.1709 -0.2693  0.4827
 9454SOL    HW139998   3.242   2.228  13.759  2.1310  0.6940 -0.0008
 9454SOL    HW239999   3.372   2.198  13.810  0.0769 -2.1935 -0.7067
 9455SOL     OW40000   0.546   0.230   9.914  0.7324  0.2217  0.7508
 9455SOL    HW140001   0.535   0.177   9.835  1.1516 -0.4780  1.1620
 9455SOL    HW240002   0.534   0.322   9.890  2.5043  0.2156 -0.1597
 9456SOL     OW40003   2.890   3.303   1.619 -0.6822 -0.4167 -0.1364
 9456SOL    HW140004   2.910   3.242   1.690  1.1694  1.0775  0.6246
 9456SOL    HW240005   2.874   3.250   1.541 -0.5109 -0.8355  0.1163
 9457SOL     OW40006   0.218   2.052   4.730 -0.5209 -0.2533  0.4487
 9457SOL    HW140007   0.276   2.102   4.672  1.9505 -0.4991  2.7063
 9457SOL    HW240008   0.147   2.024   4.672 -0.9156 -1.3496  1.4533
 9458SOL     OW40009   4.374   3.584   5.012  0.2874 -0.4435  0.2139
 9458SOL    HW140010   4.431   3.576   5.089  0.7413  0.1006 -0.0612
 9458SOL    HW240011   4.308   3.516   5.023  0.4577 -0.3378  1.8612
 9459SOL     OW40012   2.194   1.394   5.551 -0.0374  0.7353  0.1450
 9459SOL    HW140013   2.275   1.425   5.593  0.7456 -1.4881  0.2939
 9459SOL    HW240014   2.137   1.471   5.547 -1.7449 -0.5216  0.8038
 9460SOL     OW40015   3.970   3.200   2.867 -0.2730 -0.4142  0.3328
 9460SOL    HW140016   4.061   3.205   2.840  0.0038 -0.3324  1.2659
 9460SOL    HW240017   3.989   3.234   2.955  0.6852  1.4854 -0.6298
 9461SOL     OW40018   0.104   4.111   2.272 -0.3327 -0.2546  0.3216
 9461SOL    HW140019   0.123   4.019   2.288 -0.9777 -0.2897  0.8668
 9461SOL    HW240020   0.075   4.102   2.182 -0.2941 -1.8332  0.4697
 9462SOL     OW40021   0.934   3.077  16.263 -0.3934 -0.2186  0.0575
 9462SOL    HW140022   0.943   3.061  16.169  0.2211 -1.7817  0.3806
 9462SOL    HW240023   0.889   3.160  16.250  2.9572  1.6656  0.5624
 9463SOL     OW40024   2.605   2.177   5.435 -0.2089 -0.5605  0.0036
 9463SOL    HW140025   2.520   2.212   5.408 -0.0939 -0.3417 -0.0704
 9463SOL    HW240026   2.668   2.246   5.414  0.4784 -1.6953 -1.6681
 9464SOL     OW40027   0.485   3.383  14.288  0.1505  0.3605 -0.6158
 9464SOL    HW140028   0.532   3.318  14.235 -0.6926 -1.0095  0.2941
 9464SOL    HW240029   0.426   3.423  14.225 -1.4377 -0.1114  0.5557
 9465SOL     OW40030   0.411   1.298   9.487 -0.4990  0.0532  0.4438
 9465SOL    HW140031   0.406   1.279   9.393  0.9529  0.0161  0.3857
 9465SOL    HW240032   0.487   1.245   9.511 -0.1544  0.6548  0.6797
 9466SOL     OW40033   2.487   1.278  12.771 -0.1657 -0.0606 -0.4391
 9466SOL    HW140034   2.551   1.215  12.738 -0.2855 -1.1552  1.4897
 9466SOL    HW240035   2.533   1.300  12.851 -0.6193 -1.5240  0.2097
 9467SOL     OW40036   0.818   0.876   3.359 -0.2547  0.6720 -0.3756
 9467SOL    HW140037   0.822   0.926   3.440 -2.3670 -0.9468  0.7508
 9467SOL    HW240038   0.891   0.900   3.303  0.5790  0.3156  0.5612
 9468SOL     OW40039   2.525   2.392  12.283 -0.0630 -0.6046  0.7286
 9468SOL    HW140040   2.543   2.404  12.376  1.8095 -1.8056  0.5211
 9468SOL    HW240041   2.615   2.398  12.251  0.0648  0.6733  1.3321
 9469SOL     OW40042   0.945   1.963   5.187  0.5754 -0.2458  0.2240
 9469SOL    HW140043   0.932   1.986   5.095  1.4177 -0.5251  0.0391
 9469SOL    HW240044   0.976   2.052   5.206  0.6091 -0.7367  2.4055
 9470SOL     OW40045   2.833   1.555   3.783 -0.2749  0.2093  0.2518
 9470SOL    HW140046   2.850   1.649   3.778  0.1218  0.1806  1.2074
 9470SOL    HW240047   2.794   1.545   3.696  1.5136  1.4920 -0.6970
 9471SOL     OW40048   3.932   0.370   4.355  0.2726  0.5546  0.2888
 9471SOL    HW140049   3.996   0.393   4.287 -2.1980 -1.6849 -2.7727
 9471SOL    HW240050   3.900   0.457   4.380  0.5071  1.1152 -1.3595
 9472SOL     OW40051   2.812   1.019   2.029 -0.1236 -0.0669 -0.0756
 9472SOL    HW140052   2.761   0.990   2.105 -3.5234  0.2004 -2.2546
 9472SOL    HW240053   2.899   1.017   2.068 -0.1058 -2.4105 -0.2624
 9473SOL     OW40054   2.415   0.492   4.426  0.0878 -0.0909  0.1029
 9473SOL    HW140055   2.367   0.545   4.490  1.0630  1.1474 -0.1874
 9473SOL    HW240056   2.480   0.556   4.397 -0.4276 -0.3760 -1.6525
 9474SOL     OW40057   3.932   0.478   3.622 -0.0539 -0.4200  0.4928
 9474SOL    HW140058   3.874   0.403   3.608 -1.0132  0.8123 -2.0349
 9474SOL    HW240059   4.018   0.440   3.604 -0.2939 -1.3913  1.3701
 9475SOL     OW40060   0.839   0.953  17.092 -0.2680  0.4134  0.1905
 9475SOL    HW140061   0.813   0.877  17.040 -2.4677 -0.2996  2.2960
 9475SOL    HW240062   0.783   0.948  17.170 -0.7386  0.5467 -0.1361
 9476SOL     OW40063   4.314   0.570   4.472  0.3611  0.0629 -0.0916
 9476SOL    HW140064   4.298   0.493   4.527 -0.2885 -1.1190 -1.9384
 9476SOL    HW240065   4.409   0.569   4.457  0.4615 -0.3193  0.5421
 9477SOL     OW40066   2.564   3.258  15.599 -0.7783  0.2068  0.4040
 9477SOL    HW140067   2.527   3.241  15.513 -0.7162  1.5190  0.1152
 9477SOL    HW240068   2.500   3.317  15.638 -1.0515  0.2870 -0.1717
 9478SOL     OW40069   2.496   4.064  10.604  0.1517  0.1494 -0.0001
 9478SOL    HW140070   2.419   4.101  10.561  0.7637 -0.9182 -1.9713
 9478SOL    HW240071   2.560   4.081  10.535  0.7668 -2.8329 -0.1585
 9479SOL     OW40072   0.116   1.186   2.014 -0.4555  0.1304 -0.7603
 9479SOL    HW140073   0.152   1.187   1.925 -2.1559  2.5905 -1.4241
 9479SOL    HW240074   0.027   1.153   2.000 -1.3732  1.4190  2.0899
 9480SOL     OW40075   4.535   1.616  16.671 -0.2679 -0.3824 -0.0203
 9480SOL    HW140076   4.448   1.611  16.632 -1.0696 -4.8445  2.2738
 9480SOL    HW240077   4.583   1.691  16.638 -0.2613 -1.1341 -1.7076
 9481SOL     OW40078   1.044   4.485  13.572  0.0346  0.1942 -0.1597
 9481SOL    HW140079   1.138   4.472  13.586  0.4847  2.1899 -1.3213
 9481SOL    HW240080   1.011   4.396  13.561  1.9166 -0.6388  1.0603
 9482SOL     OW40081   4.410   0.845   7.368  0.0451 -0.1777  0.1415
 9482SOL    HW140082   4.398   0.939   7.356 -2.1632 -0.7482 -2.1357
 9482SOL    HW240083   4.357   0.807   7.298 -2.5369  1.5885  1.1486
 9483SOL     OW40084   3.635   3.962   7.893 -0.4732 -0.4317  0.2293
 9483SOL    HW140085   3.575   4.032   7.920  0.6347 -0.0583  1.7258
 9483SOL    HW240086   3.709   3.992   7.946 -0.7533  1.8310 -0.6241
 9484SOL     OW40087   1.524   4.694   3.978 -0.1328 -0.3099 -0.2736
 9484SOL    HW140088   1.608   4.698   4.023  1.4580  0.9425 -3.3370
 9484SOL    HW240089   1.514   4.599   3.971 -1.4530 -0.0979 -1.3506
 9485SOL     OW40090   0.049   1.094  12.218 -0.1301  0.6330  0.0794
 9485SOL    HW140091   4.705   1.142  12.198 -0.9912 -1.3332 -1.2485
 9485SOL    HW240092   0.105   1.169  12.236 -0.7862  1.1424 -0.0049
 9486SOL     OW40093   1.324   1.221   2.422 -0.0416  0.0399  0.0432
 9486SOL    HW140094   1.385   1.148   2.431 -0.9101 -0.4245  2.2779
 9486SOL    HW240095   1.250   1.188   2.473 -1.5589  0.1582 -2.0664
 9487SOL     OW40096   2.544   2.643   1.484  0.9185 -0.2997  0.0132
 9487SOL    HW140097   2.615   2.685   1.435  0.1059 -2.4483 -3.0030
 9487SOL    HW240098   2.509   2.590   1.413 -1.8137  1.4276  0.0869
 9488SOL     OW40099   4.260   4.019   2.857 -0.5108 -0.1603 -0.0926
 9488SOL    HW140100   4.246   3.984   2.769 -0.8841  2.1220 -0.9278
 9488SOL    HW240101   4.303   3.946   2.901 -0.0842  0.8854  1.2204
 9489SOL     OW40102   3.184   1.788   7.422 -0.2155 -0.4325  0.0566
 9489SOL    HW140103   3.209   1.749   7.338 -0.6210 -0.8879  0.1489
 9489SOL    HW240104   3.134   1.857   7.378  0.0905 -1.4903 -1.9675
 9490SOL     OW40105   3.884   0.340   5.410 -0.3205  0.0346  0.3656
 9490SOL    HW140106   3.933   0.309   5.334  1.4698 -0.1001  1.5793
 9490SOL    HW240107   3.935   0.421   5.418 -0.6030  0.1516  0.9869
 9491SOL     OW40108   4.091   4.273   7.570 -0.1286 -0.2243  0.2617
 9491SOL    HW140109   4.129   4.323   7.642  0.0346  1.5848 -1.0762
 9491SOL    HW240110   4.062   4.340   7.508 -1.4172  0.4696  1.6219
 9492SOL     OW40111   1.496   2.732  17.081 -0.1511  0.5368  0.8794
 9492SOL    HW140112   1.542   2.721  17.164  0.1440 -0.7027  0.5469
 9492SOL    HW240113   1.460   2.819  17.100 -0.5111 -0.1116  3.1194
 9493SOL     OW40114   1.560   2.949   5.522  0.3168  0.1119  0.0567
 9493SOL    HW140115   1.587   2.867   5.481  0.9011 -0.1930  1.0677
 9493SOL    HW240116   1.465   2.938   5.524  0.3535  0.5583  3.7389
 9494SOL     OW40117   1.848   2.295  14.737 -0.4398  0.4146 -0.0850
 9494SOL    HW140118   1.918   2.231  14.723  0.3651  1.5213 -1.2385
 9494SOL    HW240119   1.774   2.278  14.679  1.4960 -1.9991 -1.8847
 9495SOL     OW40120   2.903   1.939  15.027 -0.3899  0.7774 -0.0063
 9495SOL    HW140121   2.928   1.946  14.935  1.1471 -1.2953  0.2518
 9495SOL    HW240122   2.820   1.891  15.028  1.1817 -1.8450  2.2674
 9496SOL     OW40123   1.520   1.789  12.522  0.2980 -0.0242  0.2327
 9496SOL    HW140124   1.607   1.767  12.489 -0.1666 -1.1799 -0.2159
 9496SOL    HW240125   1.459   1.772  12.451  0.8110  0.2233 -0.2650
 9497SOL     OW40126   3.544   2.086   6.331 -0.1564 -0.4568 -0.0673
 9497SOL    HW140127   3.552   2.035   6.251 -2.3713 -0.0329 -0.5490
 9497SOL    HW240128   3.565   2.014   6.391  2.0493 -0.6328 -1.0711
 9498SOL     OW40129   1.593   0.995   5.362  0.2913  0.0115 -0.1250
 9498SOL    HW140130   1.683   0.963   5.377  1.2528  2.8840  0.1832
 9498SOL    HW240131   1.562   1.007   5.452  0.4057  0.5732 -0.1630
 9499SOL     OW40132   4.564   3.820   3.402 -0.1941 -0.0702  0.7627
 9499SOL    HW140133   4.545   3.756   3.471  1.2070  0.7338  1.8887
 9499SOL    HW240134   4.634   3.777   3.353  1.8868  4.2505 -0.1121
 9500SOL     OW40135   2.251   0.638   7.633 -0.0869  0.1036  0.1695
 9500SOL    HW140136   2.284   0.595   7.712  1.7542  1.8647  0.3702
 9500SOL    HW240137   2.285   0.727   7.650 -0.0867 -0.0630  1.0355
 9501SOL     OW40138   0.694   0.070  11.545 -0.3104 -0.7093 -0.0666
 9501SOL    HW140139   0.764   0.023  11.590  1.5143 -1.0680 -3.2740
 9501SOL    HW240140   0.690   0.033  11.456  1.5344 -0.2628 -0.3325
 9502SOL     OW40141   4.202   0.486  17.065  0.0546  0.5052 -0.4357
 9502SOL    HW140142   4.171   0.475  16.975  1.9929 -0.7249 -0.9439
 9502SOL    HW240143   4.246   0.571  17.061 -1.0981  1.2683  3.2228
 9503SOL     OW40144   2.514   2.471   5.374 -0.0621  0.0956  0.4391
 9503SOL    HW140145   2.604   2.497   5.393  0.4246 -0.3311 -1.2328
 9503SOL    HW240146   2.484   2.541   5.317 -1.3006 -0.7870  0.0035
 9504SOL     OW40147   2.452   1.384  17.209  0.1321 -0.1653 -0.2036
 9504SOL    HW140148   2.360   1.396  17.235  0.6678  1.8754  0.7227
 9504SOL    HW240149   2.475   1.470  17.173 -2.0269  0.8394  0.7836
 9505SOL     OW40150   3.453   1.844   4.613 -0.5818 -0.7048 -0.3908
 9505SOL    HW140151   3.459   1.817   4.705 -0.5093 -0.6012 -0.3649
 9505SOL    HW240152   3.363   1.875   4.617 -0.3406  0.0878 -1.0638
 9506SOL     OW40153   0.941   1.822   0.457 -0.0922  0.2891  0.4375
 9506SOL    HW140154   0.879   1.848   0.388  1.1679 -0.8141 -1.1086
 9506SOL    HW240155   0.927   1.728   0.444 -0.1037  0.4580 -0.7449
 9507SOL     OW40156   4.333   2.503   5.664  0.2235  0.0539  0.5917
 9507SOL    HW140157   4.297   2.495   5.752  1.2288  2.9496  1.2862
 9507SOL    HW240158   4.393   2.429   5.662  0.0710 -0.0809  1.1919
 9508SOL     OW40159   3.646   2.619   2.704  0.0750 -0.2620 -0.5402
 9508SOL    HW140160   3.725   2.652   2.746  1.2948 -0.8699 -2.3756
 9508SOL    HW240161   3.622   2.684   2.639  2.4097  0.2965 -0.8264
 9509SOL     OW40162   3.593   1.349   3.264 -0.1953 -0.5276 -0.2825
 9509SOL    HW140163   3.518   1.386   3.217  0.7794  0.4943 -1.0453
 9509SOL    HW240164   3.659   1.349   3.194 -0.6245 -0.3646 -0.6899
 9510SOL     OW40165   0.110   1.854  15.040 -0.2136  0.3197  0.5888
 9510SOL    HW140166   0.059   1.904  14.976  1.2386 -0.2456 -0.9982
 9510SOL    HW240167   0.169   1.925  15.066 -2.2247  1.7725  1.1948
 9511SOL     OW40168   1.093   3.859   2.888  0.5671  0.2148  0.3122
 9511SOL    HW140169   1.129   3.913   2.817 -0.8556  0.6997 -0.0371
 9511SOL    HW240170   1.097   3.920   2.961  3.4589 -2.2607  2.1871
 9512SOL     OW40171   2.049   3.129  16.834 -0.3274 -0.2735  0.0517
 9512SOL    HW140172   2.064   3.219  16.863 -0.5492  0.0789 -0.9326
 9512SOL    HW240173   2.093   3.127  16.749 -1.0852 -1.7805 -0.3066
 9513SOL     OW40174   3.407   3.631   6.201 -0.0893 -0.8908  0.3311
 9513SOL    HW140175   3.485   3.583   6.171  0.4356  1.0148 -1.3492
 9513SOL    HW240176   3.337   3.592   6.149 -1.2114 -2.8771  3.3108
 9514SOL     OW40177   0.059   4.518   3.491 -0.0285  0.0238  0.6504
 9514SOL    HW140178   0.041   4.481   3.577 -0.0068  0.3670  0.8035
 9514SOL    HW240179   0.001   4.467   3.434 -0.1360  0.0619  0.7262
 9515SOL     OW40180   1.009   1.097   4.677  0.0802  0.0919 -0.2097
 9515SOL    HW140181   1.062   1.171   4.649  0.2541  0.7312  1.8014
 9515SOL    HW240182   0.994   1.128   4.767  1.0359 -1.0658  0.3400
 9516SOL     OW40183   0.214   3.963  15.652 -0.0873  0.3428 -0.1637
 9516SOL    HW140184   0.152   3.892  15.633  1.1976 -0.8212  0.0461
 9516SOL    HW240185   0.265   3.925  15.723 -1.7663 -0.9776  0.3580
 9517SOL     OW40186   1.656   4.119   7.004  0.0352 -0.2781  0.1592
 9517SOL    HW140187   1.563   4.116   6.984 -0.2549  0.0391  1.4583
 9517SOL    HW240188   1.690   4.180   6.939 -0.3078  0.1816  0.4128
 9518SOL     OW40189   0.963   3.932   7.435  0.1068 -0.0764  0.3202
 9518SOL    HW140190   1.033   3.875   7.467 -0.5683 -0.8236  0.4750
 9518SOL    HW240191   1.012   4.014   7.438 -1.6993  0.9997  0.1018
 9519SOL     OW40192   3.284   0.036  13.485  0.1554 -0.1774 -0.3482
 9519SOL    HW140193   3.319   0.117  13.448  0.2580 -0.3162 -0.5590
 9519SOL    HW240194   3.305   4.708  13.417 -0.4179 -0.0499 -0.6429
 9520SOL     OW40195   3.493   2.182   1.815  0.9530 -0.2194 -0.3272
 9520SOL    HW140196   3.506   2.110   1.754 -0.1694 -0.0002 -0.8164
 9520SOL    HW240197   3.496   2.265   1.768  2.6206 -0.3127 -0.3891
 9521SOL     OW40198   2.509   4.539   2.146 -0.2317  0.6751  0.1398
 9521SOL    HW140199   2.524   4.583   2.230 -0.1408  0.7683  0.0754
 9521SOL    HW240200   2.435   4.487   2.177  0.7993  0.2415  1.8974
 9522SOL     OW40201   3.334   2.591   6.455 -0.1472  0.1574 -0.0073
 9522SOL    HW140202   3.368   2.568   6.542  1.7020  0.3048 -0.6809
 9522SOL    HW240203   3.347   2.685   6.465 -0.9984  0.2669  0.0118
 9523SOL     OW40204   0.037   4.415  13.228  0.2561  0.3817  0.7704
 9523SOL    HW140205   0.092   4.367  13.166  0.5453 -0.3845  1.6298
 9523SOL    HW240206   0.095   4.424  13.303  0.0802 -2.0525  1.1938
 9524SOL     OW40207   4.227   1.318  13.935 -0.4070  0.1743 -0.2588
 9524SOL    HW140208   4.160   1.344  13.872 -1.6877 -3.7073 -0.5095
 9524SOL    HW240209   4.297   1.278  13.885 -0.5144 -0.2304 -0.0852
 9525SOL     OW40210   2.421   4.627  15.610  0.2021  0.2049  0.1969
 9525SOL    HW140211   2.512   4.625  15.641 -0.0676  3.4455  1.2678
 9525SOL    HW240212   2.376   4.705  15.643 -1.6705  0.2096 -2.3743
 9526SOL     OW40213   2.077   1.436   8.236  0.9180 -0.0691  0.8150
 9526SOL    HW140214   2.164   1.400   8.250  0.9740 -1.0164 -2.0940
 9526SOL    HW240215   2.086   1.521   8.278  1.7572  0.3275 -0.1784
 9527SOL     OW40216   3.800   2.165   1.247 -0.4531  0.1805  0.0691
 9527SOL    HW140217   3.891   2.144   1.222 -0.4053  0.3028  0.1412
 9527SOL    HW240218   3.761   2.155   1.160  1.1795 -1.1643 -0.5183
 9528SOL     OW40219   3.732   3.943  16.723 -0.0676 -0.2572 -0.1968
 9528SOL    HW140220   3.751   3.849  16.724 -1.6889 -0.5682  0.4465
 9528SOL    HW240221   3.707   3.955  16.815 -0.4536  1.3005 -0.5087
 9529SOL     OW40222   1.626   1.993   9.037  0.4394  1.0229  0.0018
 9529SOL    HW140223   1.647   1.989   9.130 -1.0361  1.4429  0.3666
 9529SOL    HW240224   1.668   1.912   9.009 -0.0425  1.6957 -2.7344
 9530SOL     OW40225   1.890   3.219  11.927  0.0846 -0.6958  0.2942
 9530SOL    HW140226   1.834   3.229  12.003 -1.6879  2.5808 -1.4600
 9530SOL    HW240227   1.857   3.137  11.888  2.0693 -1.1994 -0.3297
 9531SOL     OW40228   1.483   4.700   2.247 -0.6286  0.3986 -0.5654
 9531SOL    HW140229   1.445   4.717   2.333 -0.8245 -0.2930 -0.5116
 9531SOL    HW240230   1.507   4.608   2.259  0.5167  0.9809  1.6484
 9532SOL     OW40231   0.593   0.097   8.866 -0.4888  0.0181  0.0890
 9532SOL    HW140232   0.611   0.051   8.948  1.2882 -0.5228 -0.6080
 9532SOL    HW240233   0.668   0.156   8.861 -1.4842  1.1730 -1.2004
 9533SOL     OW40234   4.092   4.322  15.274 -0.0562  0.1733 -0.2990
 9533SOL    HW140235   4.040   4.245  15.298 -0.0659  0.3092  0.1102
 9533SOL    HW240236   4.172   4.279  15.244  0.1018  0.9605 -1.0103
 9534SOL     OW40237   0.801   3.080   5.246 -0.3864 -0.1466  0.1118
 9534SOL    HW140238   0.856   3.005   5.268 -0.7860 -1.0138 -1.8058
 9534SOL    HW240239   0.823   3.129   5.325 -3.0598 -1.2085  1.4938
 9535SOL     OW40240   3.371   3.429   6.565 -0.5715  0.5724 -0.4669
 9535SOL    HW140241   3.384   3.509   6.513  0.9984  0.6993  0.1435
 9535SOL    HW240242   3.327   3.373   6.501  0.7094  0.9603 -1.7027
 9536SOL     OW40243   2.455   3.301   1.142 -0.0764 -0.9536  0.3013
 9536SOL    HW140244   2.481   3.392   1.160  1.0131 -1.1847 -0.1148
 9536SOL    HW240245   2.524   3.255   1.190 -0.4957  1.3624  3.1525
 9537SOL     OW40246   2.393   0.928   1.560 -0.4426  0.2809 -0.5651
 9537SOL    HW140247   2.320   0.874   1.531  0.2430 -2.3740  2.7099
 9537SOL    HW240248   2.434   0.882   1.633 -0.8169 -0.8336 -1.0714
 9538SOL     OW40249   3.353   4.264   5.438  0.5873  0.2277  0.2076
 9538SOL    HW140250   3.387   4.293   5.523 -1.4070 -0.3157  1.1955
 9538SOL    HW240251   3.433   4.222   5.405  0.1023 -1.4898  1.2012
 9539SOL     OW40252   3.669   2.462  11.137 -0.8336  0.0611 -0.4614
 9539SOL    HW140253   3.756   2.493  11.112  1.3609 -4.4544  1.7462
 9539SOL    HW240254   3.685   2.420  11.221  0.0884  2.1902  0.4385
 9540SOL     OW40255   4.703   2.705   6.903 -0.0311 -0.2749 -0.5209
 9540SOL    HW140256   0.043   2.691   6.959  0.6556  0.9506 -1.1668
 9540SOL    HW240257   4.673   2.615   6.891  0.7885 -0.4358 -1.3602
 9541SOL     OW40258   4.338   1.925   3.356 -0.7346  0.2794 -0.3229
 9541SOL    HW140259   4.291   1.974   3.423 -0.4034 -0.1269  0.2026
 9541SOL    HW240260   4.274   1.939   3.286  0.3620 -1.2240 -1.6520
 9542SOL     OW40261   1.424   3.219   1.986  0.9128 -0.2535  0.2163
 9542SOL    HW140262   1.392   3.211   2.076 -1.7349  0.7327 -0.6282
 9542SOL    HW240263   1.396   3.130   1.965  1.0852  0.1509 -1.7687
 9543SOL     OW40264   1.037   0.171  11.547  0.1362  0.0860  0.4789
 9543SOL    HW140265   1.095   0.189  11.621  1.1143  1.4983 -0.6255
 9543SOL    HW240266   1.000   0.087  11.576 -1.6935  0.4357 -0.8931
 9544SOL     OW40267   4.297   0.178   9.144  0.1418 -0.4377 -0.7974
 9544SOL    HW140268   4.207   0.146   9.158 -0.1293 -0.1899 -1.9900
 9544SOL    HW240269   4.312   0.144   9.056  1.6940 -2.3855  0.2291
 9545SOL     OW40270   2.964   3.618  15.949 -0.2700  0.2335 -0.6371
 9545SOL    HW140271   2.949   3.661  15.865  0.9049 -1.5704 -1.7592
 9545SOL    HW240272   3.001   3.538  15.913  1.0447 -0.9817  3.3806
 9546SOL     OW40273   3.068   1.080   2.135 -0.1324  0.6872  0.3831
 9546SOL    HW140274   3.107   0.998   2.167  0.5367 -0.0975 -2.4960
 9546SOL    HW240275   3.124   1.140   2.184  0.4633  0.4503 -0.0188
 9547SOL     OW40276   1.081   1.281  11.032 -0.3355 -0.4071 -0.7956
 9547SOL    HW140277   1.073   1.264  11.126  2.0165  0.6186 -0.4347
 9547SOL    HW240278   1.138   1.357  11.043  0.5170 -0.8358 -2.3462
 9548SOL     OW40279   2.918   4.627  11.497 -0.3960  0.3702 -0.0445
 9548SOL    HW140280   2.876   4.542  11.515  1.6105 -0.6869 -0.3419
 9548SOL    HW240281   2.950   4.608  11.409  0.6240 -2.5784  0.9497
 9549SOL     OW40282   4.391   0.819   2.743  0.1997 -0.6364 -0.4065
 9549SOL    HW140283   4.434   0.821   2.829  0.4480  2.9621 -0.6011
 9549SOL    HW240284   4.464   0.827   2.681  0.9013 -0.3463  0.4480
 9550SOL     OW40285   2.132   0.188   9.547 -0.2219 -0.3066 -0.1648
 9550SOL    HW140286   2.051   0.187   9.496  0.7119  0.1690 -1.6770
 9550SOL    HW240287   2.143   0.263   9.605 -3.0520 -0.7076  0.8865
 9551SOL     OW40288   4.275   2.600   4.258  0.2326 -0.3824 -0.0041
 9551SOL    HW140289   4.341   2.662   4.291  0.1385 -0.1679 -0.2158
 9551SOL    HW240290   4.241   2.582   4.346 -1.2638  1.5684 -0.1805
 9552SOL     OW40291   1.190   0.634   6.728 -0.6300  0.0398  0.3387
 9552SOL    HW140292   1.244   0.556   6.743 -0.6051  0.1267  0.7007
 9552SOL    HW240293   1.172   0.630   6.635  0.9373 -1.0773  0.0810
 9553SOL     OW40294   0.750   2.809   4.680  0.5592  0.3747 -0.6422
 9553SOL    HW140295   0.756   2.737   4.743 -1.0834  1.7357  1.0490
 9553SOL    HW240296   0.715   2.766   4.601 -0.9593 -1.9360  1.2649
 9554SOL     OW40297   2.568   0.307   5.588 -0.3603  0.8392  0.5683
 9554SOL    HW140298   2.611   0.265   5.663 -0.7643  1.8260  1.3530
 9554SOL    HW240299   2.552   0.237   5.525  1.9274  1.4893 -0.7232
 9555SOL     OW40300   2.309   0.235   9.872 -0.3098  0.3712  0.6096
 9555SOL    HW140301   2.235   0.289   9.845  0.9620  0.6158 -2.4407
 9555SOL    HW240302   2.371   0.305   9.893  0.6589  0.3033 -1.9904
 9556SOL     OW40303   0.188   0.073   0.834  0.0498  0.1757  0.0757
 9556SOL    HW140304   0.265   0.057   0.779  0.2357 -1.5982  0.8390
 9556SOL    HW240305   0.116   0.065   0.771  0.5933  2.5519 -0.8439
 9557SOL     OW40306   3.041   2.091   1.186  0.5079  0.5852 -0.1144
 9557SOL    HW140307   3.016   2.150   1.115 -2.6292  0.3231  0.7530
 9557SOL    HW240308   3.092   2.150   1.242  2.3122 -0.4314 -0.6971
 9558SOL     OW40309   1.175   1.290   4.571 -0.4852 -0.0870  0.2735
 9558SOL    HW140310   1.251   1.275   4.516 -1.5548 -1.8259 -0.7177
 9558SOL    HW240311   1.102   1.306   4.511 -2.6121 -2.0498  2.3160
 9559SOL     OW40312   3.964   3.878   8.289  0.2854  1.1259 -0.1123
 9559SOL    HW140313   4.010   3.896   8.208  3.5638  0.4772  1.5941
 9559SOL    HW240314   3.877   3.912   8.268 -0.1785 -1.0116 -1.5903
 9560SOL     OW40315   3.548   4.588   5.598  0.0542 -0.4491 -0.0663
 9560SOL    HW140316   3.600   4.634   5.532  1.1464 -2.6636 -0.7566
 9560SOL    HW240317   3.524   4.516   5.540 -1.5517  1.5436 -1.9078
 9561SOL     OW40318   0.341   0.117  17.407 -0.6652  0.4578  0.2606
 9561SOL    HW140319   0.336   0.210  17.383  3.2706  0.1704 -1.6729
 9561SOL    HW240320   0.402   0.089  17.339 -1.7350  0.8247 -0.8420
 9562SOL     OW40321   1.978   0.006   2.244  0.5641 -0.1881 -0.6640
 9562SOL    HW140322   2.017   0.071   2.303  2.3244  0.3962 -2.4431
 9562SOL    HW240323   1.891   0.015   2.282  0.6391 -1.1603 -0.2823
 9563SOL     OW40324   3.845   4.100   9.460 -0.1296 -0.4898 -0.1713
 9563SOL    HW140325   3.921   4.132   9.509 -0.2823 -1.0828  0.4509
 9563SOL    HW240326   3.866   4.008   9.473  2.9094  0.5663  2.4705
 9564SOL     OW40327   4.059   0.778   7.014 -0.3069 -0.0510  0.0846
 9564SOL    HW140328   3.975   0.822   7.030 -0.0228  0.5117  0.0213
 9564SOL    HW240329   4.026   0.693   6.986  0.3799 -0.1193 -0.5185
 9565SOL     OW40330   3.750   4.095   1.032  0.6869 -0.2202  0.3719
 9565SOL    HW140331   3.673   4.140   0.996  1.4666  0.3230 -0.6046
 9565SOL    HW240332   3.722   4.056   1.114  1.0475 -2.0800 -0.3912
 9566SOL     OW40333   3.354   2.825  13.549 -0.1308  0.0796 -0.1764
 9566SOL    HW140334   3.366   2.885  13.623  0.3802  1.1986 -1.1628
 9566SOL    HW240335   3.444   2.826  13.517 -0.5661  0.0631 -1.3943
 9567SOL     OW40336   4.458   0.300   9.692  0.0327 -0.6012 -0.4141
 9567SOL    HW140337   4.519   0.316   9.764 -0.0815 -1.6633 -0.0873
 9567SOL    HW240338   4.505   0.314   9.609  0.8991  0.2615  0.2120
 9568SOL     OW40339   4.183   4.526   7.740 -0.1662  0.2683 -1.0109
 9568SOL    HW140340   4.215   4.589   7.675  1.6093  0.4428  0.0091
 9568SOL    HW240341   4.263   4.508   7.791 -2.2247 -0.5780  1.9229
 9569SOL     OW40342   3.910   0.954  17.688 -0.1393  0.0647 -0.2512
 9569SOL    HW140343   3.915   1.014   0.018  2.4084  0.3208 -0.6366
 9569SOL    HW240344   3.953   1.011  17.623  0.6082 -2.1537 -1.7068
   4.73633   4.73633  17.74384
