Membrane in water
40344
    1TMC1    C1    1   1.794   3.560  11.714 -0.4164 -0.3893 -0.0903
    1TMC1    C2    2   1.882   3.569  11.610 -0.0303 -0.4541  0.3587
    1TMC1    C3    3   1.929   3.692  11.573  1.5528  0.0040  0.4226
    1TMC1    C4    4   1.727   3.669  11.755 -0.3939 -0.0742  0.3029
    1TMC1    C5    5   1.767   3.795  11.705 -0.1884 -1.0252 -0.5437
    1TMC1    C6    6   1.867   3.805  11.609 -0.0683 -0.0495  0.4366
    1TMC1     C    7   1.744   3.439  11.762  0.0677 -0.1511  0.0646
    1TMC1     O    8   1.633   3.436  11.806 -0.0146 -0.6836 -0.0993
    1TMC1     H    9   1.925   3.480  11.566  1.2306  0.0289  0.6198
    1TMC1    H1   10   1.656   3.652  11.835 -1.2521  2.4330  0.0844
    1TMC1    H2   11   1.885   3.902  11.564  0.6403 -0.4351 -0.1087
    1TMC1    C7   12   1.693   3.920  11.724 -0.6157  0.4948 -0.7245
    1TMC1    C8   13   2.048   3.694  11.494  0.1240  0.1740  0.0181
    1TMC1    O1   14   1.734   4.031  11.688  0.0614  0.0872 -0.1610
    1TMC1    O2   15   2.085   3.605  11.414  0.1445  0.2979  0.0381
    1TMC1    O3   16   1.622   3.899  11.839  0.3378 -0.2558 -0.0138
    1TMC1    H3   17   1.581   3.810  11.843 -1.8433  0.8060  1.0011
    1TMC1    O5   18   2.120   3.796  11.537 -0.0534  0.1846 -0.1509
    1TMC1    H5   19   2.066   3.860  11.588 -0.6171  0.1357 -0.6937
    2MPD2     C   20   1.813   2.948  11.900  0.7004  1.0179  0.7594
    2MPD2    C1   21   1.696   3.020  11.881  0.0909 -0.6977  0.5945
    2MPD2    C2   22   1.710   3.148  11.830  0.0996  0.2653 -0.2566
    2MPD2    C3   23   1.834   3.201  11.790  0.3623 -0.3385 -0.4361
    2MPD2    C4   24   1.942   3.128  11.798 -0.0707 -0.2230 -0.1913
    2MPD2    C5   25   1.934   2.998  11.851 -0.2256 -0.4690  0.0434
    2MPD2     H   26   1.626   3.215  11.837  1.2483  1.6521  0.2897
    2MPD2    H1   27   2.043   3.157  11.772 -0.4680 -0.9565 -2.5062
    2MPD2    H2   28   1.812   2.849  11.944  1.9061  0.1584 -1.1625
    2MPD2    H3   29   2.022   2.941  11.879 -0.8682 -1.0426  0.9102
    2MPD2     N   30   1.845   3.341  11.761  0.3683 -0.4291 -0.4286
    2MPD2    H5   31   1.938   3.373  11.736  1.2662 -1.7764  1.1994
    2MPD2    N1   32   1.564   2.984  11.922 -0.3924 -0.5054 -0.8379
    2MPD2    H7   33   1.481   3.039  11.908 -1.1661 -1.9236 -1.8486
    3TMC1    C1   34   1.653   0.219  10.320  0.1480 -0.0095 -0.2681
    3TMC1    C2   35   1.792   0.207  10.337  0.0592 -0.5363  0.2187
    3TMC1    C3   36   1.863   0.278  10.248  0.0314  0.4696 -0.4282
    3TMC1    C4   37   1.597   0.278  10.210  0.5229  0.2170  0.0759
    3TMC1    C5   38   1.682   0.328  10.118  0.0294  0.6620 -0.4186
    3TMC1    C6   39   1.818   0.327  10.132 -0.0360  0.2872 -0.4038
    3TMC1     C   40   1.564   0.183  10.425 -0.0788  0.3015 -0.2309
    3TMC1     O   41   1.609   0.096  10.499 -0.0792 -0.1390  0.1124
    3TMC1     H   42   1.836   0.175  10.431  0.6111 -0.8677 -0.1500
    3TMC1    H1   43   1.491   0.295  10.197  0.6475 -0.3033 -1.6485
    3TMC1    H2   44   1.886   0.386  10.070 -1.1360 -0.4291 -2.3019
    3TMC1    C7   45   1.637   0.375   9.990 -0.5997  0.2414  0.4332
    3TMC1    C8   46   2.001   0.302  10.281 -0.8218  0.4709 -0.1430
    3TMC1    O1   47   1.527   0.417   9.965  0.4029  0.2970 -0.2195
    3TMC1    O2   48   2.090   0.310  10.193  0.2391  0.5441  0.6822
    3TMC1    O3   49   1.735   0.350   9.899 -0.1261  0.1500 -0.3303
    3TMC1    H3   50   1.824   0.314   9.919 -0.7866 -0.8398  0.8345
    3TMC1    O5   51   2.017   0.350  10.404 -0.0118  0.2616 -0.4237
    3TMC1    H5   52   1.931   0.368  10.447  0.0147 -1.3903  0.3374
    4MPD2     C   53   1.177   0.273  10.763 -0.1282 -0.0825 -0.1079
    4MPD2    C1   54   1.172   0.370  10.656  0.5337 -0.1919 -0.0026
    4MPD2    C2   55   1.263   0.364  10.549 -0.7732  0.0085  0.5125
    4MPD2    C3   56   1.361   0.270  10.548  0.5557 -0.1904 -0.3098
    4MPD2    C4   57   1.374   0.178  10.653  0.4624 -0.7027  0.6032
    4MPD2    C5   58   1.279   0.179  10.753  0.2224  0.2896  0.3225
    4MPD2     H   59   1.245   0.437  10.471  0.1685  0.8286  1.0503
    4MPD2    H1   60   1.450   0.100  10.657  0.3075 -0.9795 -1.6729
    4MPD2    H2   61   1.095   0.266  10.833  1.3959 -1.5317  1.5438
    4MPD2    H3   62   1.284   0.096  10.823  1.5634  1.2003  1.2980
    4MPD2     N   63   1.452   0.259  10.433  0.0189 -0.3274 -0.3362
    4MPD2    H5   64   1.446   0.329  10.360  1.5160 -1.8155 -1.8963
    4MPD2    N1   65   1.079   0.480  10.658 -0.0730  0.3680 -0.4840
    4MPD2    H7   66   1.075   0.537  10.574 -0.5157  0.5654 -0.3273
    5TCq1    O1   67   1.525   1.233  11.796  0.1737  0.4747 -0.5135
    5TCq1    C1   68   1.630   1.273  11.869  0.1691 -0.1994 -0.3086
    5TCq1    O2   69   1.626   1.292  11.989 -0.0076 -0.0709  0.2391
    5TCq1    C2   70   1.734   1.343  11.796  0.5369 -0.0480  0.0242
    5TCq1    C3   71   1.822   1.417  11.867  0.0782  0.0559  0.2075
    5TCq1    C4   72   1.914   1.495  11.798  0.0644  0.0295 -0.5082
    5TCq1    C5   73   1.905   1.517  11.664  0.8628 -0.2783 -0.0479
    5TCq1    C6   74   1.814   1.439  11.596  0.7461 -0.3215 -0.0775
    5TCq1    C7   75   1.729   1.351  11.664  0.5270  0.0920  0.1295
    5TCq1    C8   76   1.802   1.447  11.452 -0.1819  0.3215  0.2565
    5TCq1    O4   77   1.763   1.344  11.398  0.4017  0.2656  0.6037
    5TCq1    C9   78   2.028   1.555  11.867  0.3666 -0.6949  0.4753
    5TCq1    O5   79   2.035   1.541  11.988  0.3409  0.2229  0.0353
    5TCq1    O6   80   2.104   1.628  11.807  0.5043 -0.4322 -0.4889
    5TCq1    H1   81   1.542   1.217  11.701  0.9255 -1.0331 -0.1133
    5TCq1    H2   82   1.834   1.400  11.973 -3.1833  0.6916  0.6762
    5TCq1    H3   83   1.979   1.586  11.626 -0.3952  0.5424 -1.0176
    5TCq1    H4   84   1.663   1.293  11.600 -1.3337  0.7344  1.4704
    6MPD2     C   85   1.871   1.732  11.234  0.5249  0.3227  0.3689
    6MPD2    C1   86   1.833   1.603  11.263 -0.0481  1.0817  0.2036
    6MPD2    C2   87   1.786   1.527  11.158  0.6731  0.7135 -0.0760
    6MPD2    C3   88   1.775   1.573  11.032 -0.2186  0.0658 -0.2148
    6MPD2    C4   89   1.804   1.708  11.008  0.4515  0.0893 -0.9048
    6MPD2    C5   90   1.861   1.788  11.111  0.8081  0.1178 -0.3747
    6MPD2     H   91   1.769   1.420  11.168  0.1922  0.7889 -0.0893
    6MPD2    H1   92   1.811   1.750  10.908  1.1392  1.1306 -0.4320
    6MPD2    H2   93   1.914   1.783  11.320 -1.7949 -0.1551  1.8032
    6MPD2    H3   94   1.892   1.888  11.083  0.3736 -0.5124 -3.1890
    6MPD2     N   95   1.736   1.478  10.929 -0.0031  0.0302  0.2633
    6MPD2    H5   96   1.722   1.383  10.961 -0.3856  0.4934  1.4376
    6MPD2    N1   97   1.836   1.569  11.397 -0.2529 -0.3056  0.5010
    6MPD2    H7   98   1.888   1.632  11.458  0.8730 -0.0655 -0.6937
    7TCq1    O1   99   4.297   0.666  12.443 -0.5151 -0.1775 -0.6906
    7TCq1    C1  100   4.405   0.638  12.515  0.0908  0.4497  0.0587
    7TCq1    O2  101   4.490   0.556  12.498  0.5364  0.3725  0.1596
    7TCq1    C2  102   4.406   0.730  12.629  0.3541 -0.3698  0.1651
    7TCq1    C3  103   4.331   0.839  12.613 -0.8187 -0.6317  0.4042
    7TCq1    C4  104   4.316   0.929  12.721  0.4005  0.4611 -0.4500
    7TCq1    C5  105   4.371   0.897  12.841 -1.1779 -0.2756  0.4095
    7TCq1    C6  106   4.441   0.778  12.854 -0.4321 -0.2947  0.0944
    7TCq1    C7  107   4.449   0.686  12.751  0.5503 -0.8414 -0.4912
    7TCq1    C8  108   4.465   0.719  12.985 -0.2457 -0.2853 -0.7703
    7TCq1    O4  109   4.491   0.601  12.980  0.6903 -0.7428  0.7436
    7TCq1    C9  110   4.248   1.056  12.706  0.3933 -0.6038  0.0915
    7TCq1    O5  111   4.194   1.085  12.593 -0.0561  0.1174  0.1466
    7TCq1    O6  112   4.256   1.129  12.807 -0.4415 -0.0837 -0.0012
    7TCq1    H1  113   4.240   0.736  12.483 -1.2902 -1.8907  1.2078
    7TCq1    H2  114   4.305   0.885  12.518  0.7361  0.7560  0.6430
    7TCq1    H3  115   4.357   0.970  12.920 -0.0243  0.2115  0.1617
    7TCq1    H4  116   4.508   0.595  12.757  0.9223 -0.6366 -1.0691
    8MPD2     C  117   4.680   0.780  13.454 -0.1131  0.3814 -0.2099
    8MPD2    C1  118   4.700   0.682  13.356  0.3001 -0.5480  0.2858
    8MPD2    C2  119   4.635   0.694  13.234 -0.5440  0.1990 -0.6951
    8MPD2    C3  120   4.545   0.796  13.203  0.2439 -0.2082 -0.6597
    8MPD2    C4  121   4.542   0.895  13.300 -0.5582 -0.0460 -0.5616
    8MPD2    C5  122   4.604   0.889  13.416  0.1789 -0.3552  0.3884
    8MPD2     H  123   4.648   0.613  13.164  0.4663 -0.8936  0.7589
    8MPD2    H1  124   4.484   0.983  13.277  2.0915  1.4051 -1.7147
    8MPD2    H2  125   4.727   0.802  13.550 -1.3709  0.0054  0.4940
    8MPD2    H3  126   4.591   0.966  13.491 -0.4306  1.0736 -1.1764
    8MPD2     N  127   4.470   0.810  13.086  0.1013  1.0573  0.3182
    8MPD2    H5  128   4.414   0.894  13.078 -2.4290 -0.6537 -0.1386
    8MPD2    N1  129   0.040   0.570  13.372 -0.4948 -0.5747  0.1724
    8MPD2    H7  130   0.015   0.493  13.311  1.8914  1.3562 -3.1927
    9TMC1    C1  131   1.378   4.701  11.616  0.5081 -0.2631  0.0347
    9TMC1    C2  132   1.449   0.050  11.541  0.0762  0.0465 -0.1387
    9TMC1    C3  133   1.408   0.177  11.531  0.5630  0.2122  0.8027
    9TMC1    C4  134   1.263   0.001  11.683 -0.1143  0.4460 -0.4925
    9TMC1    C5  135   1.229   0.136  11.680  0.3820  0.0030  0.7589
    9TMC1    C6  136   1.301   0.227  11.597 -0.5583 -0.4616  0.8087
    9TMC1     C  137   1.400   4.556  11.588 -0.1495 -0.4646  0.3187
    9TMC1     O  138   1.455   4.524  11.486 -0.3582 -0.2132 -0.1235
    9TMC1     H  139   1.530   0.008  11.482 -0.2512 -2.2079  1.0301
    9TMC1    H1  140   1.193   4.665  11.722  1.1717 -0.5090  0.0484
    9TMC1    H2  141   1.282   0.334  11.591  1.1000 -0.1266  1.6380
    9TMC1    C7  142   1.122   0.188  11.758 -0.6656  0.6438 -0.0193
    9TMC1    C8  143   1.499   0.269  11.472 -0.3067  0.0989  0.0052
    9TMC1    O1  144   1.036   0.110  11.802 -0.5158 -0.7374 -0.5957
    9TMC1    O2  145   1.472   0.373  11.412 -0.3138  0.0454 -0.0361
    9TMC1    O3  146   1.133   0.319  11.779 -0.8660 -0.5864  0.0829
    9TMC1    H3  147   1.219   0.363  11.764 -1.3706 -0.1700 -1.5891
    9TMC1    O5  148   1.624   0.217  11.464 -0.1490 -0.1471 -0.2544
    9TMC1    H5  149   1.630   0.138  11.522  1.0456  0.7224  0.7856
   10MPD2     C  150   1.399   4.255  11.585  0.0632  0.8032  0.4677
   10MPD2    C1  151   1.377   4.337  11.695  0.0833 -0.6392  0.2108
   10MPD2    C2  152   1.363   4.275  11.817 -0.4840 -0.7089 -0.0755
   10MPD2    C3  153   1.361   4.140  11.837 -0.6652  0.0901  0.1129
   10MPD2    C4  154   1.389   4.064  11.728  0.1143  0.5311 -0.2582
   10MPD2    C5  155   1.404   4.122  11.608  0.1301 -0.0504 -0.4800
   10MPD2     H  156   1.350   4.341  11.902 -1.7149  0.7470 -1.3747
   10MPD2    H1  157   1.373   3.957  11.732 -0.9159  0.6814 -0.2303
   10MPD2    H2  158   1.416   4.295  11.486  1.5273 -1.7491 -0.3204
   10MPD2    H3  159   1.414   4.058  11.521  1.5393  1.2946 -1.3008
   10MPD2     N  160   1.357   4.079  11.964  0.0427  0.2922 -0.3655
   10MPD2    H5  161   1.361   3.978  11.959 -2.1338  0.0928  1.9693
   10MPD2    N1  162   1.365   4.474  11.692  0.1052 -0.2298  0.5413
   10MPD2    H7  163   1.340   4.515  11.781 -1.1466 -0.1769  0.1687
   11TCq1    O1  164   2.851   4.172  13.963  0.2357 -0.2942 -0.3715
   11TCq1    C1  165   2.972   4.129  13.939  0.7870 -0.7466 -0.2388
   11TCq1    O2  166   3.068   4.202  13.944  0.4765  0.4921 -0.4024
   11TCq1    C2  167   2.938   4.048  13.822  0.3274 -1.7933 -0.3592
   11TCq1    C3  168   2.987   4.091  13.702  0.4878  0.6759  0.4548
   11TCq1    C4  169   2.973   4.004  13.595 -0.5933  0.2535  0.5894
   11TCq1    C5  170   2.899   3.892  13.612  0.0087  0.2662 -0.0690
   11TCq1    C6  171   2.851   3.858  13.736  0.4675  0.0063  0.0432
   11TCq1    C7  172   2.866   3.938  13.842 -0.1476 -0.2407 -0.4288
   11TCq1    C8  173   2.781   3.733  13.760  0.2100  0.3548 -0.5393
   11TCq1    O4  174   2.768   3.696  13.874  0.6525 -0.3476  0.1388
   11TCq1    C9  175   3.032   4.043  13.467  0.3128 -0.4789  0.1822
   11TCq1    O5  176   3.022   3.971  13.367 -0.3588  0.7070  0.1176
   11TCq1    O6  177   3.124   4.129  13.474  0.0196 -0.1337  1.3700
   11TCq1    H1  178   2.777   4.126  13.918 -0.8326  0.1732  0.8839
   11TCq1    H2  179   3.057   4.173  13.699  0.3568  0.7412 -1.1766
   11TCq1    H3  180   2.888   3.819  13.532  0.1872 -1.3814  1.3955
   11TCq1    H4  181   2.841   3.905  13.942 -3.1540  3.0197 -0.0649
   12MPD2     C  182   2.614   3.472  13.748 -0.0735 -0.0856 -0.2822
   12MPD2    C1  183   2.654   3.550  13.643  0.1394  0.2908 -0.3419
   12MPD2    C2  184   2.627   3.506  13.517 -0.3907  0.7616  0.3800
   12MPD2    C3  185   2.574   3.377  13.492  0.0265 -0.2726 -0.8857
   12MPD2    C4  186   2.552   3.295  13.604 -0.9168 -0.5302  0.5616
   12MPD2    C5  187   2.554   3.354  13.727 -0.3321  1.0197 -0.4120
   12MPD2     H  188   2.671   3.567  13.439  0.6773  1.6101  1.6455
   12MPD2    H1  189   2.522   3.192  13.589 -1.1574 -0.0724 -2.0299
   12MPD2    H2  190   2.626   3.506  13.850  0.3754 -3.2386  0.7170
   12MPD2    H3  191   2.529   3.288  13.809  0.7409  0.8457 -0.2213
   12MPD2     N  192   2.542   3.330  13.366  0.1347 -0.1979 -0.6198
   12MPD2    H5  193   2.524   3.230  13.366 -1.4437  0.0871 -0.4253
   12MPD2    N1  194   2.733   3.665  13.653 -0.5353  0.1516 -0.4489
   12MPD2    H7  195   2.747   3.715  13.566  2.9026  1.1209  0.6514
   13TCq1    O1  196   2.065   4.298  10.792  0.1087 -0.2847  0.0974
   13TCq1    C1  197   2.013   4.228  10.687 -0.1061  0.0013 -1.2918
   13TCq1    O2  198   2.081   4.148  10.629  0.2841 -0.6890 -0.1515
   13TCq1    C2  199   1.881   4.286  10.641 -0.3889 -1.3431  0.3934
   13TCq1    C3  200   1.858   4.269  10.503 -0.3738 -0.5717  0.4352
   13TCq1    C4  201   1.723   4.265  10.472  0.4387  0.6264  0.5205
   13TCq1    C5  202   1.627   4.243  10.570  0.3797 -0.4461  0.7859
   13TCq1    C6  203   1.667   4.230  10.704  0.5235 -1.5831  0.7179
   13TCq1    C7  204   1.788   4.276  10.741 -1.0477  0.1212 -0.2702
   13TCq1    C8  205   1.563   4.207  10.804 -0.9999 -0.5264  0.8027
   13TCq1    O4  206   1.589   4.255  10.915  0.3096  0.1696 -0.1220
   13TCq1    C9  207   1.696   4.249  10.334  0.2320  0.1493 -0.0626
   13TCq1    O5  208   1.796   4.234  10.261  0.2732  0.0893  0.0391
   13TCq1    O6  209   1.580   4.283  10.296  0.4110  0.5700  0.1599
   13TCq1    H1  210   2.003   4.372  10.809 -0.7387 -0.7711 -0.8731
   13TCq1    H2  211   1.937   4.240  10.434 -0.3180 -0.9148  0.6424
   13TCq1    H3  212   1.526   4.243  10.531  0.3993 -1.0550  0.7462
   13TCq1    H4  213   1.807   4.283  10.847 -0.7792 -0.9345 -0.2400
   14MPD2     C  214   1.265   4.003  10.785 -0.2039 -0.6615 -0.2373
   14MPD2    C1  215   1.343   4.096  10.843  0.2974  0.3614 -0.1377
   14MPD2    C2  216   1.320   4.144  10.973 -0.0678  0.2093 -0.2763
   14MPD2    C3  217   1.206   4.103  11.041 -0.2821  0.3220  0.3346
   14MPD2    C4  218   1.127   4.008  10.980  0.4941 -0.1059 -0.6238
   14MPD2    C5  219   1.154   3.959  10.855 -0.1686 -0.2107  0.0996
   14MPD2     H  220   1.388   4.214  11.020 -0.7140  1.0508 -0.6036
   14MPD2    H1  221   1.038   3.971  11.030  0.5076 -0.0569 -0.5630
   14MPD2    H2  222   1.280   3.974  10.682  0.3544 -0.3568 -0.2426
   14MPD2    H3  223   1.083   3.892  10.807  0.5736 -0.6263 -0.4237
   14MPD2     N  224   1.184   4.159  11.171 -0.1202  0.6729  0.4483
   14MPD2    H5  225   1.228   4.247  11.195  1.5513 -0.3852  1.2540
   14MPD2    N1  226   1.462   4.120  10.762  0.4703  0.0019  0.5478
   14MPD2    H7  227   1.465   4.070  10.674  0.9007  0.5620  0.2499
   15TCq1    O1  228   2.797   3.128   2.106  0.0411  0.7650  0.3646
   15TCq1    C1  229   2.844   3.209   2.011  0.0971 -0.3862  0.1024
   15TCq1    O2  230   2.782   3.237   1.912  0.1415  0.0968 -0.1560
   15TCq1    C2  231   2.989   3.190   2.009  0.2169  0.0975  0.0210
   15TCq1    C3  232   3.042   3.174   2.136  0.2066  0.2499 -0.6655
   15TCq1    C4  233   3.170   3.127   2.134 -0.0666 -0.0235  0.1090
   15TCq1    C5  234   3.243   3.104   2.024  0.1892  0.1288 -0.2577
   15TCq1    C6  235   3.190   3.130   1.901 -0.5113 -0.1758 -0.3308
   15TCq1    C7  236   3.055   3.173   1.892 -0.1498 -0.3213  0.4508
   15TCq1    C8  237   3.265   3.093   1.778 -0.0463 -0.3340 -0.2817
   15TCq1    O4  238   3.373   3.042   1.788  0.2313 -0.1380 -0.0164
   15TCq1    C9  239   3.233   3.123   2.265 -0.1577 -0.1700  0.0356
   15TCq1    O5  240   3.161   3.166   2.357 -0.1130 -0.4121 -0.5014
   15TCq1    O6  241   3.348   3.074   2.270  0.0898  0.4909  0.2590
   15TCq1    H1  242   2.862   3.074   2.156  0.3633  0.2470 -0.6277
   15TCq1    H2  243   2.995   3.202   2.229  0.3117 -1.1556 -0.1860
   15TCq1    H3  244   3.346   3.072   2.037 -0.5839 -2.8217 -1.2727
   15TCq1    H4  245   3.003   3.188   1.798 -0.5512  0.9559  0.8758
   16MPD2     C  246   3.168   3.199   1.433 -0.6000 -0.2986 -0.4496
   16MPD2    C1  247   3.234   3.117   1.524  0.3280 -0.2972 -0.4936
   16MPD2    C2  248   3.322   3.016   1.481 -0.6566 -0.0334  0.0746
   16MPD2    C3  249   3.354   3.003   1.349  0.4320  0.1718 -0.9351
   16MPD2    C4  250   3.292   3.088   1.260  0.7363  0.1075  0.2114
   16MPD2    C5  251   3.200   3.185   1.300  1.1603  0.5898 -0.1259
   16MPD2     H  252   3.366   2.951   1.557 -1.2928 -0.6793 -0.1156
   16MPD2    H1  253   3.311   3.087   1.154  0.0663 -0.5152  0.0986
   16MPD2    H2  254   3.101   3.279   1.462 -1.8156 -1.8359  1.0277
   16MPD2    H3  255   3.182   3.261   1.225 -0.0124 -2.0590 -2.5073
   16MPD2     N  256   3.455   2.905   1.309 -0.5526  0.3382 -0.2270
   16MPD2    H5  257   3.504   2.846   1.376  0.6874  1.9968  0.3470
   16MPD2    N1  258   3.215   3.154   1.663 -0.1897  0.7790  0.1799
   16MPD2    H7  259   3.148   3.230   1.673 -0.4274  0.3659  1.7406
   17TMC1    C1  260   1.218   3.460  11.533 -0.2118  0.1477  0.6556
   17TMC1    C2  261   1.281   3.355  11.593 -0.0696  0.4029 -0.3017
   17TMC1    C3  262   1.193   3.269  11.652  0.1745 -0.0099  0.5590
   17TMC1    C4  263   1.082   3.483  11.535  0.5887 -0.0151  0.6001
   17TMC1    C5  264   1.005   3.384  11.588  0.4658  0.0321 -1.1072
   17TMC1    C6  265   1.054   3.279  11.651 -0.9697  1.0392  0.3974
   17TMC1     C  266   1.299   3.574  11.488 -0.8033  0.8473 -0.1686
   17TMC1     O  267   1.239   3.680  11.468 -0.0738  0.4675 -0.2729
   17TMC1     H  268   1.388   3.346  11.607 -0.1640 -3.1705 -1.8379
   17TMC1    H1  269   1.035   3.576  11.508  1.5833  0.2011 -0.4182
   17TMC1    H2  270   0.984   3.211  11.699 -0.7351 -0.7027 -1.7148
   17TMC1    C7  271   0.858   3.398  11.584 -0.0427 -0.0284  0.0245
   17TMC1    C8  272   1.256   3.146  11.675 -0.2189 -0.6664 -0.0665
   17TMC1    O1  273   0.782   3.364  11.672 -0.2307 -0.5437  0.3321
   17TMC1    O2  274   1.360   3.139  11.735 -0.0465  0.5991  0.0409
   17TMC1    O3  275   0.822   3.462  11.474 -0.0927  0.1423  0.0831
   17TMC1    H3  276   0.884   3.454  11.398 -0.1243  5.3941 -0.4962
   17TMC1    O5  277   1.227   3.074  11.561  0.0971  0.2020  0.2068
   17TMC1    H5  278   1.156   3.124  11.514 -1.0494 -1.4965  0.1469
   18MPD2     C  279   1.501   3.767  11.402 -0.1449  0.0978 -0.4313
   18MPD2    C1  280   1.517   3.632  11.413  0.5920  0.2401 -0.6593
   18MPD2    C2  281   1.638   3.579  11.366 -0.1507  0.2981  0.3086
   18MPD2    C3  282   1.723   3.651  11.288 -0.1261  0.4132 -0.0502
   18MPD2    C4  283   1.710   3.784  11.281 -0.0984 -0.1232 -0.1178
   18MPD2    C5  284   1.601   3.839  11.339  0.3778  1.0469 -0.5008
   18MPD2     H  285   1.654   3.478  11.401 -1.7519 -0.7206 -1.8970
   18MPD2    H1  286   1.775   3.850  11.224 -0.6381 -0.6666 -1.3693
   18MPD2    H2  287   1.417   3.828  11.432 -0.3104 -1.2573  1.8112
   18MPD2    H3  288   1.582   3.945  11.331  0.0081  1.1670  1.8664
   18MPD2     N  289   1.837   3.591  11.224  0.2047  0.4483  0.2425
   18MPD2    H5  290   1.884   3.657  11.164 -0.7705  0.4965 -0.4672
   18MPD2    N1  291   1.426   3.543  11.468 -0.1974  0.5221  0.5726
   18MPD2    H7  292   1.452   3.445  11.468  2.8079  1.3375  2.8360
   19TMC2    C1  293   3.299   3.808  13.662 -0.2396  0.4184  0.4769
   19TMC2    C2  294   3.238   3.766  13.544 -0.5733 -0.2860  0.1982
   19TMC2    C3  295   3.168   3.650  13.547  0.7926 -0.7549 -0.3161
   19TMC2    C4  296   3.285   3.730  13.778 -0.3257  0.3968 -0.0015
   19TMC2    C5  297   3.207   3.618  13.775  0.3271 -0.5901  0.4941
   19TMC2    C6  298   3.148   3.574  13.655  0.1570 -0.0014  0.2282
   19TMC2     C  299   3.415   3.879  13.656 -0.2928  0.0179  0.0564
   19TMC2     O  300   3.431   3.967  13.572  0.1013  0.5098  1.0413
   19TMC2     H  301   3.241   3.828  13.454  0.0168 -0.9401 -0.2367
   19TMC2    H1  302   3.334   3.766  13.867  0.1366 -0.8412  0.2432
   19TMC2    H2  303   3.092   3.481  13.649  2.4276 -1.3923  0.3735
   19TMC2    C7  304   3.248   3.515  13.868  0.0885  0.1999  0.4377
   19TMC2    C8  305   3.075   3.624  13.440  0.1740  0.3971  0.9023
   19TMC2    O1  306   3.341   3.546  13.940  0.4117  0.4184  0.3487
   19TMC2    O2  307   2.962   3.577  13.456 -0.3853  0.1058  0.3134
   19TMC2    O5  308   3.137   3.647  13.325 -0.6858  0.2456  0.5729
   19TMC2    H5  309   3.231   3.674  13.332 -1.0044  2.1558 -2.8804
   20MPD2     C  310   3.707   3.964  13.666  0.6360  0.0308  0.0449
   20MPD2    C1  311   3.654   3.862  13.737  0.5042 -0.3206  0.2513
   20MPD2    C2  312   3.740   3.795  13.822 -0.3366  0.6775 -0.2321
   20MPD2    C3  313   3.867   3.847  13.846  0.1040  0.2496 -0.8368
   20MPD2    C4  314   3.911   3.952  13.774 -0.6740  0.5745  0.0307
   20MPD2    C5  315   3.833   4.005  13.674  0.4548  0.1940 -0.4585
   20MPD2     H  316   3.696   3.716  13.882  1.1194  0.7410  0.9210
   20MPD2    H1  317   4.014   3.987  13.784 -0.3265  0.0887 -1.7450
   20MPD2    H2  318   3.642   4.016  13.595  1.8848  2.1860  0.4812
   20MPD2    H3  319   3.860   4.084  13.605  2.6441 -0.6271 -0.5736
   20MPD2     N  320   3.946   3.791  13.949 -0.4727  0.0495  0.2943
   20MPD2    H5  321   4.029   3.839  13.982 -0.3959  0.5271 -0.5881
   20MPD2    N1  322   3.520   3.816  13.730 -0.4700  0.4013 -0.2938
   20MPD2    H7  323   3.495   3.739  13.791  0.7946 -1.0324 -1.5541
   21TMC2    C1  324   1.274   4.156  14.608  0.8902 -0.0971  0.3160
   21TMC2    C2  325   1.314   4.036  14.658 -0.0905  0.1563  0.2118
   21TMC2    C3  326   1.311   4.026  14.793 -0.6836  0.5782 -0.3307
   21TMC2    C4  327   1.224   4.255  14.689 -0.0864 -0.5608 -1.0629
   21TMC2    C5  328   1.219   4.232  14.826 -0.0974 -0.1421 -0.2813
   21TMC2    C6  329   1.265   4.114  14.877  0.4805  0.9276 -0.2154
   21TMC2     C  330   1.270   4.160  14.462 -0.4187  0.2424  0.1245
   21TMC2     O  331   1.342   4.088  14.393 -0.3192 -0.3883 -0.3280
   21TMC2     H  332   1.372   3.962  14.604  0.3260  1.0531 -0.5751
   21TMC2    H1  333   1.201   4.352  14.648  1.2607  0.3799  0.4066
   21TMC2    H2  334   1.258   4.086  14.982  1.1371 -0.8833 -0.6500
   21TMC2    C7  335   1.140   4.321  14.919  0.2059 -0.6370 -0.1772
   21TMC2    C8  336   1.349   3.899  14.851  0.5983 -0.2406  0.8309
   21TMC2    O1  337   1.150   4.296  15.036 -0.6103  0.7351 -0.1042
   21TMC2    O2  338   1.432   3.824  14.796 -0.1303  0.1954  0.4208
   21TMC2    O5  339   1.240   3.858  14.926 -0.7262  0.0816  0.1868
   21TMC2    H5  340   1.181   3.936  14.936 -1.7771 -0.7948  0.7919
   22MPD2     C  341   1.095   4.401  14.037 -0.4292 -0.2327  0.8159
   22MPD2    C1  342   1.201   4.312  14.056  0.8568 -0.5517  0.2042
   22MPD2    C2  343   1.230   4.266  14.182 -0.6251 -0.1540  0.1388
   22MPD2    C3  344   1.155   4.305  14.290  0.0793  0.4044  0.1001
   22MPD2    C4  345   1.060   4.406  14.273 -0.1790  0.2346  0.4783
   22MPD2    C5  346   1.029   4.446  14.146 -0.1884  0.5205  0.6609
   22MPD2     H  347   1.309   4.198  14.211 -0.2895 -0.2215 -0.9529
   22MPD2    H1  348   1.007   4.443  14.360  0.7843  0.6130  0.8961
   22MPD2    H2  349   1.066   4.440  13.940 -3.1569 -1.3269  1.1870
   22MPD2    H3  350   0.940   4.501  14.119 -0.8723 -0.2429  1.3924
   22MPD2     N  351   1.179   4.253  14.420  0.0665 -0.3540 -0.1297
   22MPD2    H5  352   1.114   4.285  14.491 -2.3221 -4.2625 -0.5563
   22MPD2    N1  353   1.294   4.285  13.958  0.5490 -0.6602 -0.3003
   22MPD2    H7  354   1.373   4.224  13.976  0.5885 -1.0785 -1.9176
   23TMC2    C1  355   2.767   0.672  14.730  0.4028  1.0395  1.1731
   23TMC2    C2  356   2.895   0.672  14.683  0.1313  0.5007  0.0808
   23TMC2    C3  357   2.917   0.623  14.561 -0.1529 -0.8054  0.3955
   23TMC2    C4  358   2.668   0.618  14.664 -0.3260  0.3805  0.1046
   23TMC2    C5  359   2.703   0.548  14.553 -0.6328 -0.2252  0.3271
   23TMC2    C6  360   2.827   0.550  14.494 -0.1999  0.0638 -0.1055
   23TMC2     C  361   2.750   0.733  14.863 -0.0852  0.1298 -0.2291
   23TMC2     O  362   2.852   0.738  14.929  0.3898  0.1309  0.2648
   23TMC2     H  363   2.978   0.708  14.742  0.4246 -1.7918  1.0797
   23TMC2    H1  364   2.570   0.615  14.709 -0.4671  0.4238 -0.2031
   23TMC2    H2  365   2.851   0.489  14.407  1.3998  2.1722 -1.1551
   23TMC2    C7  366   2.593   0.461  14.499 -0.2436  1.1702  0.2043
   23TMC2    C8  367   3.048   0.574  14.546 -0.4602 -0.2273  0.3671
   23TMC2    O1  368   2.630   0.383  14.416 -0.0646 -0.1346 -0.0062
   23TMC2    O2  369   3.101   0.509  14.634 -0.6359  0.4666 -0.0849
   23TMC2    O5  370   3.066   0.563  14.415  0.1488 -0.0987  0.7972
   23TMC2    H5  371   3.000   0.623  14.373  0.2945 -0.4369  0.0777
   24MPD2     C  372   2.473   0.905  15.262  0.1379  0.2265  0.0959
   24MPD2    C1  373   2.584   0.823  15.254 -0.4669 -0.4502  0.3186
   24MPD2    C2  374   2.640   0.784  15.132  0.2500  0.2782  0.4098
   24MPD2    C3  375   2.574   0.821  15.015 -0.0425 -0.5271  0.0904
   24MPD2    C4  376   2.466   0.902  15.022  0.1373  0.2153  0.7185
   24MPD2    C5  377   2.421   0.950  15.143 -0.2396 -0.3634 -1.0190
   24MPD2     H  378   2.731   0.727  15.130  1.3924  2.0946  0.6284
   24MPD2    H1  379   2.428   0.915  14.921  0.3947  1.2052  0.7457
   24MPD2    H2  380   2.424   0.925  15.357  0.1140 -1.2425  0.4006
   24MPD2    H3  381   2.331   1.010  15.152  0.9899  1.4415 -0.7546
   24MPD2     N  382   2.623   0.780  14.886  0.4384 -0.3646  0.0743
   24MPD2    H5  383   2.562   0.800  14.808  0.1016 -0.8120  0.2268
   24MPD2    N1  384   2.638   0.772  15.374  0.9165 -0.0348  0.1779
   24MPD2    H7  385   2.716   0.708  15.365 -0.1669 -1.0945 -1.6341
   25TMC2    C1  386   1.877   2.389  11.620 -0.2706  0.3867 -0.5814
   25TMC2    C2  387   1.985   2.455  11.671 -0.2108  0.3769  0.3886
   25TMC2    C3  388   1.979   2.496  11.794  0.3221 -0.4794 -0.1038
   25TMC2    C4  389   1.772   2.348  11.700 -0.6793 -0.6022  0.5900
   25TMC2    C5  390   1.786   2.373  11.835  0.5996  0.4825 -0.2515
   25TMC2    C6  391   1.888   2.450  11.882 -0.0642 -0.2362  0.1584
   25TMC2     C  392   1.873   2.365  11.477 -0.1541  0.3562 -0.3690
   25TMC2     O  393   1.982   2.370  11.419 -0.5972 -0.3596  0.0268
   25TMC2     H  394   2.067   2.484  11.607 -0.0500  0.6297  0.7092
   25TMC2    H1  395   1.710   2.265  11.669  0.0024 -1.4580  1.5325
   25TMC2    H2  396   1.888   2.467  11.989  0.3570  1.8760 -0.1756
   25TMC2    C7  397   1.670   2.358  11.927 -0.0863 -0.3023  0.2751
   25TMC2    C8  398   2.099   2.561  11.849 -0.1128  0.5260  0.4710
   25TMC2    O1  399   1.711   2.356  12.043 -0.2354  0.1745 -0.2129
   25TMC2    O2  400   2.162   2.509  11.944  0.1267 -0.0082 -0.7788
   25TMC2    O5  401   2.156   2.632  11.756  0.2534  0.2544  0.0606
   25TMC2    H5  402   2.092   2.678  11.698  1.1737  0.4622 -0.7756
   26MPD2     C  403   1.646   2.168  11.075 -0.2763  0.4611  0.3387
   26MPD2    C1  404   1.554   2.206  11.161 -0.7869  0.4372  0.3581
   26MPD2    C2  405   1.598   2.273  11.274  0.0554 -0.8164 -0.5724
   26MPD2    C3  406   1.726   2.291  11.304  0.8748  0.0096  0.3542
   26MPD2    C4  407   1.826   2.246  11.212  0.1350  0.2422  0.0850
   26MPD2    C5  408   1.780   2.186  11.100  0.2234 -0.2383  0.0320
   26MPD2     H  409   1.523   2.313  11.341  0.6623 -0.6488  0.0116
   26MPD2    H1  410   1.930   2.276  11.214  1.2796 -3.7957  1.4793
   26MPD2    H2  411   1.613   2.112  10.988 -1.7538 -1.1837  1.9571
   26MPD2    H3  412   1.851   2.150  11.026 -1.0793 -1.1335 -0.7897
   26MPD2     N  413   1.750   2.344  11.424 -0.2061  0.2430  0.1716
   26MPD2    H5  414   1.674   2.373  11.485 -0.5602  0.1842 -0.2454
   26MPD2    N1  415   1.425   2.166  11.137 -0.1134 -0.1383  0.3844
   26MPD2    H7  416   1.403   2.133  11.043 -0.7439 -1.0933  0.8657
   27TMC2    C1  417   0.169   0.233  11.849  0.2793  0.0643 -0.3201
   27TMC2    C2  418   0.116   0.213  11.728  0.9317 -0.4942 -0.4884
   27TMC2    C3  419   0.147   0.301  11.629 -0.4200  0.0033  0.2006
   27TMC2    C4  420   0.262   0.329  11.870  0.2881 -0.0730 -0.1411
   27TMC2    C5  421   0.295   0.406  11.768 -0.4337 -0.4471  0.1947
   27TMC2    C6  422   0.233   0.398  11.650  0.4352 -0.2564 -0.7571
   27TMC2     C  423   0.099   0.174  11.961  0.1116  0.1632 -0.3504
   27TMC2     O  424   4.736   0.115  11.931 -0.5473  0.1055 -0.0227
   27TMC2     H  425   0.067   0.120  11.699  1.2148 -0.5591 -0.7502
   27TMC2    H1  426   0.306   0.343  11.968 -1.4105  0.0006  0.6059
   27TMC2    H2  427   0.262   0.468  11.572 -0.8805 -0.3113 -1.2917
   27TMC2    C7  428   0.408   0.496  11.772  0.0227 -0.7032  0.6629
   27TMC2    C8  429   0.126   0.261  11.492 -0.0981 -0.1340 -0.1573
   27TMC2    O1  430   0.437   0.570  11.675  0.0337 -0.3302  0.1286
   27TMC2    O2  431   0.015   0.219  11.450  0.1136 -0.2615  0.3835
   27TMC2    O5  432   0.246   0.260  11.427 -0.6498 -0.7635 -0.2277
   27TMC2    H5  433   0.323   0.276  11.486 -1.4311  2.2542  0.0114
   28MPD2     C  434   0.084   4.679  12.402 -0.0106 -0.1021  0.3825
   28MPD2    C1  435   0.135   0.068  12.426  0.1626 -0.5549  0.0954
   28MPD2    C2  436   0.162   0.152  12.318  0.2289 -0.3274 -0.3280
   28MPD2    C3  437   0.129   0.111  12.190 -0.2212 -0.0169 -0.3830
   28MPD2    C4  438   0.072   4.725  12.173 -0.4555 -0.0830 -0.3339
   28MPD2    C5  439   0.047   4.641  12.279 -0.3666 -0.5809  0.3542
   28MPD2     H  440   0.206   0.251  12.328  0.8063 -0.7263  1.0127
   28MPD2    H1  441   0.027   4.684  12.084  1.2371  0.9450 -1.6663
   28MPD2    H2  442   0.076   4.612  12.486 -0.8408 -1.1131 -0.5094
   28MPD2    H3  443   4.725   4.553  12.252  0.2709 -0.9526  0.1833
   28MPD2     N  444   0.160   0.191  12.082 -0.1839  0.8121  0.9846
   28MPD2    H5  445   0.222   0.269  12.101 -0.1061  0.6087  1.5766
   28MPD2    N1  446   0.173   0.097  12.561  0.4862 -0.6748 -0.0215
   28MPD2    H7  447   0.149   0.033  12.636  0.1241  1.0866  1.3677
   29TMC2    C1  448   4.381   2.833  14.522 -0.0821 -0.1305  0.4324
   29TMC2    C2  449   4.367   2.893  14.649  0.6297 -0.5351  0.3171
   29TMC2    C3  450   4.427   3.008  14.675  0.2445  0.7289  0.5681
   29TMC2    C4  451   4.464   2.905  14.432  0.5495 -0.5351 -0.0189
   29TMC2    C5  452   4.510   3.036  14.466  0.0316 -0.1380 -0.5688
   29TMC2    C6  453   4.499   3.089  14.589  0.4048 -0.1554 -0.0211
   29TMC2     C  454   4.360   2.686  14.503 -0.4070 -0.5908  0.5745
   29TMC2     O  455   4.361   2.610  14.600 -0.1986  0.4687  0.6274
   29TMC2     H  456   4.295   2.851  14.719 -0.1234  0.5385  0.1804
   29TMC2    H1  457   4.489   2.872  14.332  0.4824 -1.6231  0.3278
   29TMC2    H2  458   4.507   3.195  14.610 -0.3647  0.0135 -0.5695
   29TMC2    C7  459   4.584   3.109  14.367 -0.1782 -0.2281  0.5073
   29TMC2    C8  460   4.389   3.081  14.795 -0.7188 -0.2924 -0.7307
   29TMC2    O1  461   4.570   3.074  14.248  0.4311  0.7536 -0.3652
   29TMC2    O2  462   4.271   3.092  14.833  0.5088  0.3407  0.2262
   29TMC2    O5  463   4.501   3.149  14.841 -0.8720 -0.0549 -0.1885
   29TMC2    H5  464   4.581   3.138  14.785 -0.5783  2.9922 -0.3720
   30MPD2     C  465   4.212   2.293  14.229  0.1769  0.5793 -0.4679
   30MPD2    C1  466   4.310   2.299  14.323  0.5456 -0.3113 -0.4787
   30MPD2    C2  467   4.349   2.420  14.378 -0.3709  0.1737  0.3294
   30MPD2    C3  468   4.289   2.535  14.329  0.3267 -0.1301  0.3868
   30MPD2    C4  469   4.203   2.533  14.224 -0.3083  0.4360 -0.0381
   30MPD2    C5  470   4.160   2.408  14.181 -0.0162 -0.8848 -0.3949
   30MPD2     H  471   4.430   2.443  14.446 -2.1169  0.7397  2.2372
   30MPD2    H1  472   4.167   2.624  14.178  0.9865  1.1713  0.3885
   30MPD2    H2  473   4.179   2.204  14.176  1.3703  0.5365 -1.1243
   30MPD2    H3  474   4.116   2.416  14.083  0.7552 -1.0176 -0.7526
   30MPD2     N  475   4.321   2.663  14.374 -0.3541 -0.2444 -0.4158
   30MPD2    H5  476   4.299   2.743  14.315 -2.7508 -0.3722  0.2913
   30MPD2    N1  477   4.368   2.179  14.368 -0.5947 -0.1505  0.1759
   30MPD2    H7  478   4.458   2.195  14.411 -0.0997 -1.1090 -0.4970
   31TMC2    C1  479   2.037   1.752  15.571 -0.3756  0.0591  0.1639
   31TMC2    C2  480   1.932   1.836  15.583 -0.4323  0.3841  0.3144
   31TMC2    C3  481   1.906   1.886  15.704  0.0535 -0.6996  0.0344
   31TMC2    C4  482   2.123   1.732  15.672 -0.7054 -0.4082 -0.1796
   31TMC2    C5  483   2.106   1.805  15.784  0.3015  0.1087 -0.1886
   31TMC2    C6  484   1.986   1.873  15.810  0.0637 -0.3641 -0.0315
   31TMC2     C  485   2.080   1.707  15.439 -0.1237 -0.2125  1.0462
   31TMC2     O  486   2.060   1.779  15.340  0.7363  0.0032 -0.4504
   31TMC2     H  487   1.867   1.854  15.498 -0.6522 -0.2341  0.3569
   31TMC2    H1  488   2.219   1.683  15.658 -0.6331 -0.2678 -0.1670
   31TMC2    H2  489   1.970   1.918  15.908  0.1598  0.0143 -0.1902
   31TMC2    C7  490   2.187   1.765  15.899 -0.2935 -0.7968 -0.3702
   31TMC2    C8  491   1.767   1.924  15.716 -0.6944  0.0983 -0.1407
   31TMC2    O1  492   2.245   1.663  15.899 -0.3160 -0.8539  0.7087
   31TMC2    O2  493   1.704   1.980  15.623  0.5019  0.4961  0.1681
   31TMC2    O5  494   1.721   1.834  15.805  0.7411 -0.0081 -0.3551
   31TMC2    H5  495   1.797   1.792  15.850  0.6917 -0.1356 -0.3930
   32MPD2     C  496   2.325   1.381  15.114 -0.0079 -0.3263 -0.4082
   32MPD2    C1  497   2.279   1.507  15.085 -0.6547  0.2450 -0.4643
   32MPD2    C2  498   2.221   1.585  15.191  0.4190  0.2672  0.8265
   32MPD2    C3  499   2.210   1.534  15.318  0.5569 -0.1599 -0.0232
   32MPD2    C4  500   2.266   1.408  15.343 -0.0486 -0.2429 -0.3827
   32MPD2    C5  501   2.314   1.334  15.244 -0.3175  0.2170 -0.6305
   32MPD2     H  502   2.183   1.684  15.173  2.0597  0.8611  0.6083
   32MPD2    H1  503   2.239   1.357  15.434  3.0100  0.5608  1.0050
   32MPD2    H2  504   2.380   1.320  15.043  0.6472  0.6338 -0.7223
   32MPD2    H3  505   2.345   1.231  15.257 -2.8951 -0.5973 -0.7555
   32MPD2     N  506   2.153   1.594  15.437 -0.4929 -0.1616 -0.2301
   32MPD2    H5  507   2.178   1.550  15.524  0.3060 -1.4390 -1.1062
   32MPD2    N1  508   2.307   1.565  14.958 -0.0977  0.4640  0.3241
   32MPD2    H7  509   2.365   1.519  14.890 -0.9331 -1.3819  0.8688
   33TMC2    C1  510   2.159   3.924  10.365  0.5494  0.0718 -0.1043
   33TMC2    C2  511   2.058   3.857  10.299  0.0950  0.0147 -0.1813
   33TMC2    C3  512   1.976   3.940  10.223  0.3916 -0.1923 -0.3206
   33TMC2    C4  513   2.195   4.054  10.340 -0.7588  0.5323 -0.0444
   33TMC2    C5  514   2.110   4.121  10.257  0.1509 -0.8163 -0.2273
   33TMC2    C6  515   2.004   4.071  10.193 -0.0706  0.5013  0.5504
   33TMC2     C  516   2.202   3.856  10.491  0.2401  0.2603  0.1217
   33TMC2     O  517   2.131   3.762  10.524 -0.6016  0.2104 -0.2320
   33TMC2     H  518   2.031   3.754  10.320  0.6514  0.0159  0.5445
   33TMC2    H1  519   2.272   4.115  10.387 -0.1296 -2.3340  2.6566
   33TMC2    H2  520   1.946   4.125  10.119  0.3744  1.8745  1.2053
   33TMC2    C7  521   2.148   4.261  10.224  0.1928 -0.1603  0.1438
   33TMC2    C8  522   1.851   3.887  10.180  0.0899  0.2813  0.3664
   33TMC2    O1  523   2.264   4.279  10.209 -0.0741  0.1933  0.2098
   33TMC2    O2  524   1.830   3.768  10.184  0.1547 -0.4193 -0.7701
   33TMC2    O5  525   1.757   3.977  10.203 -0.4255  0.8197  0.5395
   33TMC2    H5  526   1.798   4.066  10.213 -1.1344  1.2076 -0.0957
   34MPD2     C  527   2.469   3.815  10.913  0.2505  0.7584 -0.3833
   34MPD2    C1  528   2.380   3.724  10.863  0.4110 -0.1610 -0.4350
   34MPD2    C2  529   2.318   3.762  10.744  0.5348 -0.6993  0.3212
   34MPD2    C3  530   2.364   3.869  10.669  1.1029 -0.1421  0.3091
   34MPD2    C4  531   2.472   3.943  10.718  0.4323  0.8869  0.1502
   34MPD2    C5  532   2.522   3.918  10.844  0.1696  0.2086 -0.4120
   34MPD2     H  533   2.235   3.704  10.705 -0.4532 -0.1261  1.5595
   34MPD2    H1  534   2.514   4.017  10.652  0.3751 -0.0802 -0.9732
   34MPD2    H2  535   2.512   3.802  11.012  0.8117  0.4665 -0.6618
   34MPD2    H3  536   2.602   3.979  10.885  1.7997 -1.2329 -1.4475
   34MPD2     N  537   2.307   3.918  10.550 -0.1412 -0.2510 -0.8589
   34MPD2    H5  538   2.357   3.994  10.504 -0.4341  0.4135 -0.0826
   34MPD2    N1  539   2.327   3.624  10.947 -0.2842  0.2014 -0.8149
   34MPD2    H7  540   2.358   3.631  11.044  0.3859  1.0626 -1.0816
   35TMC2    C1  541   3.222   4.371  11.717 -0.0701  0.5352 -0.0647
   35TMC2    C2  542   3.173   4.467  11.632  0.0879 -0.7551 -1.0582
   35TMC2    C3  543   3.040   4.465  11.592  0.9744 -0.2767 -0.0798
   35TMC2    C4  544   3.139   4.263  11.748 -0.1288 -0.5779  0.7661
   35TMC2    C5  545   3.013   4.263  11.703  1.0761  0.0871  0.2774
   35TMC2    C6  546   2.957   4.357  11.623 -0.1615 -0.1747  0.1331
   35TMC2     C  547   3.320   4.415  11.815 -0.1550  0.3392  0.2395
   35TMC2     O  548   3.362   4.532  11.811 -0.4340  0.3652 -0.1147
   35TMC2     H  549   3.233   4.553  11.606 -0.3994 -0.3259 -0.7674
   35TMC2    H1  550   3.162   4.180  11.813  0.7514  1.3479  2.9124
   35TMC2    H2  551   2.855   4.356  11.589 -0.8193 -0.3190  2.1268
   35TMC2    C7  552   2.945   4.130  11.704 -0.0514 -0.2583  0.2145
   35TMC2    C8  553   2.998   4.531  11.467 -0.9143 -0.4683  0.0922
   35TMC2    O1  554   3.013   4.028  11.689 -1.0302  0.0396  0.4416
   35TMC2    O2  555   2.919   4.476  11.391  0.1421 -0.2390  0.0248
   35TMC2    O5  556   3.028   4.662  11.467  0.7650 -0.2268  0.3866
   35TMC2    H5  557   3.081   4.685  11.545  1.5865 -0.8532  0.0049
   36MPD2     C  558   3.630   4.318  12.222 -0.1185  0.1625  0.0267
   36MPD2    C1  559   3.592   4.439  12.164  0.7884  0.4488  0.0868
   36MPD2    C2  560   3.506   4.436  12.053  0.7957  0.5841 -0.7900
   36MPD2    C3  561   3.455   4.319  11.999 -0.2589 -0.6958 -0.4749
   36MPD2    C4  562   3.498   4.207  12.053  0.1947 -0.0702 -0.4143
   36MPD2    C5  563   3.583   4.201  12.160 -0.0417  0.3171  0.1394
   36MPD2     H  564   3.464   4.534  12.033 -1.2631  0.0706  0.9713
   36MPD2    H1  565   3.463   4.114  12.010 -0.2551  0.4548 -1.1653
   36MPD2    H2  566   3.688   4.303  12.312  0.2478  1.4681  0.0107
   36MPD2    H3  567   3.606   4.104  12.202  1.2536 -0.9439 -3.4952
   36MPD2     N  568   3.363   4.309  11.894  0.3560 -0.4563  0.2874
   36MPD2    H5  569   3.319   4.220  11.873 -2.1300  0.8678 -0.2347
   36MPD2    N1  570   3.628   4.556  12.232  0.2189 -0.1214 -0.3566
   36MPD2    H7  571   3.708   4.534  12.290  0.2822  2.5405  0.5301
   37TMC2    C1  572   0.801   0.373  11.833 -0.4402  0.7367  0.1924
   37TMC2    C2  573   0.710   0.288  11.788  0.5403 -0.8413  0.2420
   37TMC2    C3  574   0.669   0.306  11.659  0.7841 -0.5700 -0.0136
   37TMC2    C4  575   0.869   0.460  11.758 -0.2467 -0.5485  0.5592
   37TMC2    C5  576   0.815   0.481  11.628 -0.4002 -0.5674  1.2283
   37TMC2    C6  577   0.718   0.401  11.572 -0.5560 -0.4908  0.0618
   37TMC2     C  578   0.837   0.359  11.976  0.3591  0.5646  0.1681
   37TMC2     O  579   0.754   0.303  12.045  0.1613 -0.0329  0.2514
   37TMC2     H  580   0.668   0.215  11.855  0.1200  0.0972  1.0087
   37TMC2    H1  581   0.937   0.531  11.804  0.7228 -1.3419  0.3297
   37TMC2    H2  582   0.683   0.407  11.470 -0.0881  2.7403  0.1079
   37TMC2    C7  583   0.905   0.553  11.537 -0.0938 -0.0637  0.0724
   37TMC2    C8  584   0.573   0.214  11.602  1.0220  0.4405 -0.1813
   37TMC2    O1  585   1.023   0.559  11.576 -0.1508 -0.5007 -0.7576
   37TMC2    O2  586   0.489   0.245  11.523  0.3022 -0.2127 -0.5236
   37TMC2    O5  587   0.579   0.100  11.664  0.0597  0.2398 -0.2686
   37TMC2    H5  588   0.663   0.094  11.714  1.7551 -1.2928 -3.3019
   38MPD2     C  589   1.145   0.482  12.372 -0.3131  0.2130  0.7791
   38MPD2    C1  590   1.202   0.520  12.248 -0.1062  0.7874  0.1133
   38MPD2    C2  591   1.145   0.492  12.127 -0.0375  0.7055 -0.6446
   38MPD2    C3  592   1.026   0.416  12.127  0.1598  0.3959 -0.2447
   38MPD2    C4  593   0.971   0.375  12.243  0.8077  0.2503 -0.5956
   38MPD2    C5  594   1.031   0.407  12.366  0.1627 -0.3301 -0.4999
   38MPD2     H  595   1.179   0.533  12.033  1.6249  1.7458  0.4106
   38MPD2    H1  596   0.881   0.314  12.246  0.4572  0.7978  0.4542
   38MPD2    H2  597   1.184   0.508  12.470  0.7671  3.1757 -0.4230
   38MPD2    H3  598   0.976   0.386  12.457 -0.3419 -2.0098 -1.1899
   38MPD2     N  599   0.967   0.403  12.001  0.0937 -0.0262  0.7755
   38MPD2    H5  600   1.026   0.427  11.922 -0.2103 -0.2617  0.4761
   38MPD2    N1  601   1.334   0.579  12.243  0.4723 -0.0340 -0.7078
   38MPD2    H7  602   1.376   0.598  12.152 -0.1587  1.6655 -0.6528
   39TMC2    C1  603   4.308   2.601   1.411  0.1474 -0.4514  0.3170
   39TMC2    C2  604   4.294   2.690   1.518 -0.0566  0.2901  0.1869
   39TMC2    C3  605   4.398   2.778   1.546  0.2253  0.0136  1.0497
   39TMC2    C4  606   4.426   2.589   1.345  0.7509 -0.7267  0.1006
   39TMC2    C5  607   4.524   2.677   1.379 -0.2288 -0.3258 -0.4071
   39TMC2    C6  608   4.514   2.769   1.474  0.1632 -0.1899  0.2718
   39TMC2     C  609   4.189   2.523   1.375 -0.0014  0.0763 -0.3649
   39TMC2     O  610   4.077   2.566   1.408  0.4585  0.3699  0.5478
   39TMC2     H  611   4.192   2.714   1.546  0.4485  1.7894  0.7214
   39TMC2    H1  612   4.438   2.513   1.268 -0.7535  0.1545 -1.0136
   39TMC2    H2  613   4.602   2.825   1.503  0.3370  0.2888 -1.2143
   39TMC2    C7  614   4.647   2.673   1.298  0.7726  0.2169 -0.7144
   39TMC2    C8  615   4.371   2.890   1.635  0.1749  0.1880 -0.1740
   39TMC2    O1  616   4.668   2.574   1.229 -0.2973 -0.2646  0.8617
   39TMC2    O2  617   4.266   2.903   1.696 -0.3368 -0.7918  0.0708
   39TMC2    O5  618   4.475   2.976   1.654 -0.3358  0.0011  0.5126
   39TMC2    H5  619   4.556   2.965   1.598  1.2986  0.6590  2.7430
   40MPD2     C  620   4.178   2.191   1.214  0.0765  0.4930  0.6427
   40MPD2    C1  621   4.123   2.310   1.261  0.3251 -0.2554  0.6066
   40MPD2    C2  622   3.987   2.330   1.253 -0.1244 -0.0474 -0.1742
   40MPD2    C3  623   3.908   2.233   1.188  0.6254 -0.0867 -0.8595
   40MPD2    C4  624   3.974   2.129   1.121 -0.2726 -0.0401 -0.1676
   40MPD2    C5  625   4.109   2.109   1.129 -0.6116  0.2530  0.0063
   40MPD2     H  626   3.936   2.419   1.286 -0.7683 -0.2856 -0.5249
   40MPD2    H1  627   3.927   2.050   1.063  0.4935 -2.2307  2.2025
   40MPD2    H2  628   4.284   2.166   1.219  0.0396  0.3359  0.6303
   40MPD2    H3  629   4.164   2.033   1.075 -1.0652 -0.1899  0.1721
   40MPD2     N  630   3.767   2.229   1.190  0.4852  0.4848  0.0505
   40MPD2    H5  631   3.722   2.161   1.129 -0.7394 -2.1222  3.8842
   40MPD2    N1  632   4.219   2.399   1.319 -0.2300  0.1172  0.2334
   40MPD2    H7  633   4.315   2.367   1.325 -0.2001 -0.1900 -1.8686
   41TMC2    C1  634   3.341   0.200  13.310  0.4305  0.0638  0.2735
   41TMC2    C2  635   3.219   0.187  13.375  0.2891 -0.2433  0.1447
   41TMC2    C3  636   3.116   0.246  13.314  0.1913 -0.3476 -0.2500
   41TMC2    C4  637   3.348   0.252  13.181  0.2433 -0.0839 -0.7525
   41TMC2    C5  638   3.234   0.285  13.123 -0.1275  0.1898 -0.1244
   41TMC2    C6  639   3.120   0.299  13.190  0.1757 -0.0073 -0.3463
   41TMC2     C  640   3.472   0.205  13.381  0.5448  0.3776 -0.0189
   41TMC2     O  641   3.574   0.209  13.314  0.1389  0.1440 -0.1697
   41TMC2     H  642   3.208   0.157  13.478  1.5639 -0.0949  0.3237
   41TMC2    H1  643   3.442   0.270  13.132  0.3414  0.7851 -0.2453
   41TMC2    H2  644   3.034   0.345  13.143  1.3501 -0.9026 -3.4101
   41TMC2    C7  645   3.254   0.400  13.048 -0.8118  0.2565 -0.0225
   41TMC2    C8  646   2.990   0.253  13.373 -0.9066  0.3300  0.0389
   41TMC2    O1  647   3.257   0.499  13.115  0.3682 -0.5214 -0.0196
   41TMC2    O2  648   2.892   0.277  13.303  0.3605  0.0624 -0.2060
   41TMC2    O5  649   2.985   0.296  13.505 -0.0055  0.0294  0.1312
   41TMC2    H5  650   3.067   0.297  13.558  1.3439 -0.9348 -1.8951
   42MPD2     C  651   3.708   0.189  13.559 -0.5463 -0.0202 -0.0769
   42MPD2    C1  652   3.586   0.252  13.592  1.0119 -0.1558  0.7227
   42MPD2    C2  653   3.584   0.318  13.716 -0.0001  0.3987  0.4812
   42MPD2    C3  654   3.703   0.333  13.787  0.0178  0.3954 -0.0645
   42MPD2    C4  655   3.820   0.274  13.751  0.1132  0.9407  0.5697
   42MPD2    C5  656   3.818   0.206  13.637  0.4807 -0.1133  0.0160
   42MPD2     H  657   3.493   0.369  13.746 -0.3947  0.5494 -0.9589
   42MPD2    H1  658   3.910   0.284  13.811 -0.1999 -1.1022  1.3845
   42MPD2    H2  659   3.716   0.126  13.471  2.2558  0.9238 -0.5118
   42MPD2    H3  660   3.911   0.158  13.608  0.9577 -0.0144  1.3903
   42MPD2     N  661   3.703   0.418  13.900  0.4598 -0.9171  0.0724
   42MPD2    H5  662   3.794   0.420  13.946  0.7967  0.6438 -0.6560
   42MPD2    N1  663   3.463   0.234  13.517  0.2549 -0.2373  0.3161
   42MPD2    H7  664   3.377   0.251  13.568  0.3643  4.4034 -1.0140
   43TMC2    C1  665   3.592   3.680   0.600 -0.0171  0.0203 -0.2141
   43TMC2    C2  666   3.579   3.575   0.688  0.1917 -0.1494 -0.3421
   43TMC2    C3  667   3.556   3.602   0.819 -0.1722 -0.6264  0.4270
   43TMC2    C4  668   3.595   3.809   0.646 -0.4992  0.5928  0.3107
   43TMC2    C5  669   3.571   3.825   0.780  0.2652  0.2136  1.4800
   43TMC2    C6  670   3.558   3.725   0.873 -0.7155  0.2473 -1.2487
   43TMC2     C  671   3.683   3.645   0.492  0.2870 -0.6407  0.4899
   43TMC2     O  672   3.763   3.558   0.516 -0.2039  0.2952 -0.4420
   43TMC2     H  673   3.597   3.475   0.650 -0.4530  0.1548 -1.4459
   43TMC2    H1  674   3.624   3.886   0.576  0.7735  0.7417  1.0013
   43TMC2    H2  675   3.524   3.749   0.973 -1.2898  1.7926 -1.8146
   43TMC2    C7  676   3.587   3.959   0.824  0.4659 -1.0539  0.4184
   43TMC2    C8  677   3.552   3.485   0.897 -0.3868 -0.0016  0.2728
   43TMC2    O1  678   3.577   4.046   0.742  0.2667 -0.0037 -0.6013
   43TMC2    O2  679   3.504   3.381   0.859 -0.5617 -0.0613  0.0409
   43TMC2    O5  680   3.572   3.521   1.029 -0.1836  1.0058  0.4304
   43TMC2    H5  681   3.625   3.604   1.029 -1.1540  1.6230 -1.2236
   44MPD2     C  682   3.864   3.718   0.011 -0.6181  1.1748 -0.3889
   44MPD2    C1  683   3.933   3.693   0.128 -0.6002 -0.5242 -0.5464
   44MPD2    C2  684   3.869   3.681   0.254  0.0153  0.1952  0.1397
   44MPD2    C3  685   3.731   3.701   0.258 -0.2895 -0.0745 -1.0985
   44MPD2    C4  686   3.668   3.745   0.143  0.3352  0.7471  0.5479
   44MPD2    C5  687   3.732   3.750   0.022  0.3548  0.6518  0.8730
   44MPD2     H  688   3.928   3.652   0.340  0.3174  0.1611 -0.0783
   44MPD2    H1  689   3.564   3.776   0.139  0.1835  0.5400  2.8650
   44MPD2    H2  690   3.914   3.722  17.659  0.4339 -1.6894  0.0350
   44MPD2    H3  691   3.684   3.790  17.678 -1.9326 -2.0579  0.8653
   44MPD2     N  692   3.656   3.710   0.377  0.2720 -0.9154 -0.1713
   44MPD2    H5  693   3.562   3.749   0.375 -0.2338 -2.2041 -1.8016
   44MPD2    N1  694   4.069   3.664   0.127 -0.1344  0.1039 -0.0135
   44MPD2    H7  695   4.113   3.631   0.212  1.4469 -1.3084 -1.3696
   45TMC2    C1  696   0.600   0.386   9.628  0.4014 -0.5181 -0.0604
   45TMC2    C2  697   0.687   0.391   9.522  0.1890 -0.0505  0.0792
   45TMC2    C3  698   0.766   0.502   9.504 -0.6016 -0.1534  0.0117
   45TMC2    C4  699   0.560   0.505   9.688 -0.0164  0.2085 -0.8991
   45TMC2    C5  700   0.617   0.625   9.635  0.3704 -0.2832  0.5510
   45TMC2    C6  701   0.721   0.620   9.547 -0.1337 -0.5794  0.4215
   45TMC2     C  702   0.527   0.260   9.657 -0.1610 -0.4326 -0.3778
   45TMC2     O  703   0.409   0.270   9.702  0.0201  0.1752  0.3768
   45TMC2     H  704   0.711   0.300   9.469  1.0259 -0.1540  0.6335
   45TMC2    H1  705   0.489   0.503   9.770  3.2869  3.3368  2.0068
   45TMC2    H2  706   0.785   0.700   9.510  1.6097 -1.4219  1.6371
   45TMC2    C7  707   0.584   0.746   9.707  0.0412 -0.0630  0.4253
   45TMC2    C8  708   0.857   0.508   9.404 -0.0902  0.3537 -0.1161
   45TMC2    O1  709   0.561   0.752   9.827  0.1801  0.0345  0.5457
   45TMC2    O2  710   0.844   0.580   9.307 -0.1130  0.0961 -0.5604
   45TMC2    O5  711   0.933   0.396   9.399  0.3748 -0.7319  0.2178
   45TMC2    H5  712   0.925   0.349   9.485  0.0455 -0.2736  0.4428
   46MPD2     C  713   0.668   4.666   9.586  0.0151 -0.5243 -0.0620
   46MPD2    C1  714   0.572   0.022   9.597 -0.5100  0.2975 -0.9243
   46MPD2    C2  715   0.438   4.722   9.576  0.0159  0.4639  0.2705
   46MPD2    C3  716   0.398   4.596   9.546 -0.2281  0.6111  0.0494
   46MPD2    C4  717   0.496   4.498   9.553 -0.8711  0.1963 -0.2713
   46MPD2    C5  718   0.630   4.539   9.566  0.2593  0.6477 -0.3051
   46MPD2     H  719   0.364   0.062   9.557  0.4108  0.0864 -2.7980
   46MPD2    H1  720   0.482   4.391   9.542  0.7504 -0.1031  0.5994
   46MPD2    H2  721   0.775   4.682   9.592 -0.2925  0.8494  1.7242
   46MPD2    H3  722   0.702   4.457   9.565 -1.7182 -1.0601 -2.8441
   46MPD2     N  723   0.271   4.572   9.497  0.2477 -0.6603  0.1817
   46MPD2    H5  724   0.203   4.647   9.488  2.1529  0.6326 -3.3736
   46MPD2    N1  725   0.607   0.159   9.627 -0.0068 -0.4687  0.3299
   46MPD2    H7  726   0.705   0.180   9.613  0.1077 -0.7801  0.6703
   47TMC2    C1  727   1.736   1.773   9.623  0.2282  0.1345 -0.0470
   47TMC2    C2  728   1.809   1.817   9.517 -0.4405 -0.5994  0.3197
   47TMC2    C3  729   1.783   1.940   9.476  0.6567  0.9020  0.4776
   47TMC2    C4  730   1.632   1.846   9.679  0.1013  0.1731  0.6408
   47TMC2    C5  731   1.599   1.964   9.614  0.0892  0.4736  0.5764
   47TMC2    C6  732   1.671   2.009   9.509  0.3405 -0.6347  0.7889
   47TMC2     C  733   1.777   1.649   9.697 -0.1864  0.0894  0.5878
   47TMC2     O  734   1.729   1.634   9.809 -0.3514  0.2268  0.1209
   47TMC2     H  735   1.895   1.763   9.480  0.5965 -0.0134  1.8785
   47TMC2    H1  736   1.581   1.809   9.768 -0.7436  0.1476  0.1460
   47TMC2    H2  737   1.654   2.107   9.466  0.9454 -1.1887 -0.7116
   47TMC2    C7  738   1.486   2.046   9.662 -0.4352  0.1793 -0.3852
   47TMC2    C8  739   1.845   1.983   9.350  0.5447  0.4706 -0.5910
   47TMC2    O1  740   1.449   2.139   9.595  0.0537 -0.3521  0.1412
   47TMC2    O2  741   1.795   2.030   9.249  0.1974 -0.1692  0.2324
   47TMC2    O5  742   1.968   2.004   9.381  0.0335  0.1298 -0.1257
   47TMC2    H5  743   1.988   1.976   9.473 -1.8758  0.7638  0.4736
   48MPD2     C  744   1.948   1.433   9.805  0.7876  0.0442 -0.1108
   48MPD2    C1  745   1.929   1.452   9.668 -0.4087  0.6388 -0.1509
   48MPD2    C2  746   2.004   1.375   9.582 -0.5383 -0.2943 -0.2297
   48MPD2    C3  747   2.099   1.283   9.620 -0.1381  0.2230  0.1702
   48MPD2    C4  748   2.123   1.270   9.756 -0.0202  0.0840 -0.5827
   48MPD2    C5  749   2.039   1.346   9.841 -0.3578 -0.4834 -0.1663
   48MPD2     H  750   1.995   1.397   9.477 -0.7910  0.9639  0.0544
   48MPD2    H1  751   2.198   1.209   9.806 -0.9814 -0.0309  0.7371
   48MPD2    H2  752   1.888   1.480   9.883  0.6338  1.9580 -1.3886
   48MPD2    H3  753   2.049   1.331   9.947  0.5609 -0.4057 -0.2432
   48MPD2     N  754   2.191   1.231   9.521  0.5410  0.1553  0.1215
   48MPD2    H5  755   2.167   1.258   9.426  1.5015  0.1441 -0.1328
   48MPD2    N1  756   1.849   1.557   9.616  0.0244  0.1293 -0.5280
   48MPD2    H7  757   1.850   1.571   9.515 -0.1918  2.5060 -0.1913
   49TMC2    C1  758   1.513   2.763  11.269  0.2399  0.9243 -0.0496
   49TMC2    C2  759   1.636   2.705  11.256 -0.1722  0.0810  0.0048
   49TMC2    C3  760   1.728   2.758  11.177 -0.4967  1.3146  0.4204
   49TMC2    C4  761   1.492   2.886  11.210 -0.3720 -0.5720  0.8532
   49TMC2    C5  762   1.588   2.936  11.127 -0.3986  0.4126  0.3660
   49TMC2    C6  763   1.705   2.866  11.103 -0.2507 -0.2779 -0.3143
   49TMC2     C  764   1.411   2.712  11.361  0.7693 -0.5498 -0.7494
   49TMC2     O  765   1.444   2.623  11.436  0.0844  0.5336 -0.5206
   49TMC2     H  766   1.667   2.627  11.324 -0.0946 -1.0945 -1.3928
   49TMC2    H1  767   1.414   2.951  11.248  0.3083 -0.2121  1.6271
   49TMC2    H2  768   1.789   2.899  11.043  1.6144 -1.3447  1.6714
   49TMC2    C7  769   1.566   3.077  11.087  0.1880 -0.1922  0.4435
   49TMC2    C8  770   1.864   2.707  11.173  0.2516 -0.6144 -0.5973
   49TMC2    O1  771   1.476   3.134  11.149  1.0145 -0.0991  0.0734
   49TMC2    O2  772   1.945   2.727  11.084  0.0193 -0.1369 -0.2891
   49TMC2    O5  773   1.908   2.683  11.295 -0.2992  0.1158 -0.1255
   49TMC2    H5  774   1.852   2.705  11.373  0.3453  1.6355 -0.0869
   50MPD2     C  775   1.170   2.674  11.528  0.2723  0.5141  0.2339
   50MPD2    C1  776   1.176   2.759  11.419 -0.4863 -0.2660  0.7277
   50MPD2    C2  777   1.066   2.834  11.388  0.1147 -0.8901 -0.3806
   50MPD2    C3  778   0.953   2.828  11.463  0.4023 -0.3091 -0.3544
   50MPD2    C4  779   0.955   2.748  11.576 -0.4855 -0.8248 -0.4973
   50MPD2    C5  780   1.068   2.681  11.613  1.1514 -0.3245  0.2178
   50MPD2     H  781   1.071   2.902  11.303 -1.2058  0.1613  0.3852
   50MPD2    H1  782   0.871   2.746  11.645  0.4190  0.7431  0.6336
   50MPD2    H2  783   1.243   2.598  11.556  1.1524  1.2604 -0.0088
   50MPD2    H3  784   1.060   2.618  11.700  0.1769 -0.1113  0.2851
   50MPD2     N  785   0.834   2.896  11.425 -0.6114  0.0219  0.3973
   50MPD2    H5  786   0.757   2.870  11.487  0.5909 -2.4449  0.8522
   50MPD2    N1  787   1.293   2.778  11.341  0.2832  0.0656  0.6656
   50MPD2    H7  788   1.290   2.849  11.269 -0.8454  1.1085  1.7454
   51TMC2    C1  789   1.701   1.694   2.220  0.4761  0.1257 -0.4769
   51TMC2    C2  790   1.760   1.649   2.338  0.4357 -0.2184  0.1643
   51TMC2    C3  791   1.808   1.745   2.422 -0.2259  0.2065 -0.1241
   51TMC2    C4  792   1.713   1.820   2.181  0.1070 -0.4264  0.2419
   51TMC2    C5  793   1.761   1.909   2.271 -0.4706  0.1903 -0.3163
   51TMC2    C6  794   1.813   1.872   2.393  0.8259 -0.0735  0.2196
   51TMC2     C  795   1.665   1.597   2.112  0.1386  0.0789 -0.2168
   51TMC2     O  796   1.652   1.639   1.994 -0.0739 -0.3184  0.3124
   51TMC2     H  797   1.760   1.542   2.357 -2.3412  0.0524  1.6885
   51TMC2    H1  798   1.668   1.853   2.088 -0.5414 -1.2527  0.2602
   51TMC2    H2  799   1.836   1.952   2.462  0.1747 -1.5423  2.1519
   51TMC2    C7  800   1.803   2.043   2.222  0.7580 -0.1514  0.1973
   51TMC2    C8  801   1.869   1.708   2.545  0.0639 -0.3544 -0.3320
   51TMC2    O1  802   1.813   2.127   2.309 -0.4044 -1.0921 -0.3122
   51TMC2    O2  803   1.840   1.609   2.610 -0.9175 -1.0499  0.2049
   51TMC2    O5  804   1.991   1.769   2.538 -0.3514  0.4889 -0.3035
   51TMC2    H5  805   2.000   1.828   2.459 -1.8644  0.6728 -0.3442
   52MPD2     C  806   1.495   1.134   1.957 -0.3605 -0.4696  0.1273
   52MPD2    C1  807   1.546   1.242   1.889  0.4501  0.4644  0.2197
   52MPD2    C2  808   1.591   1.353   1.964 -0.0125  0.2670 -0.4696
   52MPD2    C3  809   1.566   1.367   2.096  0.3689  0.0780  0.2646
   52MPD2    C4  810   1.509   1.260   2.162 -0.0599  0.5389 -0.2694
   52MPD2    C5  811   1.462   1.153   2.091  0.2585  0.0299 -0.2444
   52MPD2     H  812   1.647   1.430   1.913 -0.4997  0.5554 -0.5681
   52MPD2    H1  813   1.473   1.254   2.264 -1.5031  2.0885 -0.6884
   52MPD2    H2  814   1.451   1.047   1.909  1.7844 -2.3399  1.5704
   52MPD2    H3  815   1.401   1.079   2.140  1.2889  2.4842  4.6831
   52MPD2     N  816   1.617   1.479   2.168  0.3831  0.2080  0.1949
   52MPD2    H5  817   1.601   1.475   2.268  1.0771 -0.6958  0.2766
   52MPD2    N1  818   1.577   1.244   1.747  0.3042 -0.1611  0.1380
   52MPD2    H7  819   1.606   1.334   1.710  1.0428 -0.3313  0.3157
   53TMC2    C1  820   1.411   0.939  11.183 -0.5812 -0.2169  0.3330
   53TMC2    C2  821   1.485   1.003  11.082  0.1575 -0.0937  0.5291
   53TMC2    C3  822   1.621   1.009  11.103 -0.0002  0.0624  0.3995
   53TMC2    C4  823   1.465   0.872  11.293 -0.6817  0.3968 -0.2433
   53TMC2    C5  824   1.609   0.880  11.302 -0.1813  0.0250 -0.1576
   53TMC2    C6  825   1.685   0.949  11.207  0.9834  0.0050  0.1853
   53TMC2     C  826   1.271   0.922  11.162 -0.3728  0.0587 -0.3453
   53TMC2     O  827   1.226   1.023  11.112  0.7363  0.2691  0.0600
   53TMC2     H  828   1.437   1.045  10.995  2.1371  0.0460 -0.5064
   53TMC2    H1  829   1.405   0.832  11.374  0.2374  1.7637  1.1260
   53TMC2    H2  830   1.788   0.982  11.218  0.5447  1.6211 -0.5566
   53TMC2    C7  831   1.658   0.864  11.438  0.7951 -0.0843  0.6350
   53TMC2    C8  832   1.704   1.071  11.009  0.2398  0.1674 -0.5260
   53TMC2    O1  833   1.582   0.806  11.515 -0.0443  0.4147 -0.4883
   53TMC2    O2  834   1.824   1.047  11.000  0.6178 -0.2401  0.2743
   53TMC2    O5  835   1.658   1.198  10.998  0.0581  0.2039 -0.0878
   53TMC2    H5  836   1.565   1.212  11.027  0.1325 -0.5531  0.5291
   54MPD2     C  837   0.987   0.862  11.136 -0.1794  0.9126  0.1213
   54MPD2    C1  838   1.076   0.788  11.216  0.8031  1.0580 -0.4314
   54MPD2    C2  839   1.031   0.703  11.312  0.8109 -0.0836 -0.0641
   54MPD2    C3  840   0.901   0.677  11.318 -0.4749 -0.0055  0.3602
   54MPD2    C4  841   0.807   0.741  11.234 -0.5470 -0.3483  0.3289
   54MPD2    C5  842   0.853   0.838  11.149  0.4250 -0.9995  0.1707
   54MPD2     H  843   1.093   0.640  11.375 -0.3348 -1.5244 -0.3815
   54MPD2    H1  844   0.703   0.712  11.243 -1.1155  0.4889 -3.4338
   54MPD2    H2  845   1.027   0.931  11.063 -1.7595  1.0482 -0.6127
   54MPD2    H3  846   0.780   0.888  11.086  0.2850 -0.7760  0.5120
   54MPD2     N  847   0.841   0.596  11.419 -0.0106 -0.0416  0.2886
   54MPD2    H5  848   0.739   0.596  11.421 -0.0180  2.2191  0.5626
   54MPD2    N1  849   1.215   0.802  11.213 -0.1060  0.4674 -0.3157
   54MPD2    H7  850   1.275   0.732  11.256 -0.5441  1.1012  1.3251
   55TMC2    C1  851   2.754   4.413  17.495 -0.0528 -0.2019  0.1957
   55TMC2    C2  852   2.854   4.503  17.447 -0.6407  0.0992 -0.2347
   55TMC2    C3  853   2.981   4.458  17.449 -0.2189  0.4177  0.1197
   55TMC2    C4  854   2.775   4.291  17.544  0.7321  0.3758 -0.4433
   55TMC2    C5  855   2.907   4.260  17.553  0.2599  0.1608 -0.0482
   55TMC2    C6  856   3.011   4.341  17.502 -0.2044  0.0689 -0.3080
   55TMC2     C  857   2.619   4.461  17.519  0.0769 -0.2162 -0.3607
   55TMC2     O  858   2.548   4.383  17.576 -0.1894  0.1154  0.0969
   55TMC2     H  859   2.828   4.601  17.408  0.7684  0.2604 -0.7944
   55TMC2    H1  860   2.700   4.213  17.546  0.9864  0.2188  3.2652
   55TMC2    H2  861   3.115   4.321  17.526 -0.2867  3.1242  2.5401
   55TMC2    C7  862   2.943   4.125  17.596  0.4376 -0.4921 -0.2585
   55TMC2    C8  863   3.075   4.521  17.361  0.5712 -0.4354  0.4171
   55TMC2    O1  864   3.049   4.082  17.551  0.6328 -0.2625 -0.1149
   55TMC2    O2  865   3.063   4.631  17.309 -0.2556  0.0802 -0.4371
   55TMC2    O5  866   3.118   4.408  17.293 -0.4987 -0.7570 -0.1938
   55TMC2    H5  867   3.075   4.332  17.338 -1.6631  0.6019  1.0089
   56MPD2     C  868   2.463   0.022  17.365 -0.1715 -0.3219 -0.2665
   56MPD2    C1  869   2.468   4.643  17.439  0.2075 -0.2792 -0.0985
   56MPD2    C2  870   2.364   4.612  17.519  0.2499  0.1531  0.2432
   56MPD2    C3  871   2.245   4.693  17.518 -0.0705  0.0397  0.7072
   56MPD2    C4  872   2.249   0.079  17.454 -0.8295 -0.1459 -0.1439
   56MPD2    C5  873   2.357   0.107  17.381  0.0433 -0.8010  0.1642
   56MPD2     H  874   2.365   4.528  17.588  2.0150 -0.1450 -0.1459
   56MPD2    H1  875   2.172   0.155  17.457 -0.4519  0.3102 -2.0172
   56MPD2    H2  876   2.537   0.045  17.290  0.2767 -0.8018  0.0233
   56MPD2    H3  877   2.357   0.200  17.324 -0.3308 -2.4386 -2.4789
   56MPD2     N  878   2.137   4.659  17.606 -0.1349  0.2572  0.1498
   56MPD2    H5  879   2.145   4.564  17.639  0.0637 -0.2662 -1.3821
   56MPD2    N1  880   2.587   4.570  17.440 -0.2615 -0.7746 -0.3040
   56MPD2    H7  881   2.660   4.603  17.376 -0.5912 -0.8219 -0.7054
   57TMC2    C1  882   1.762   3.617  12.965 -0.5997 -0.2323 -0.8141
   57TMC2    C2  883   1.693   3.515  12.906 -0.7437  0.3767 -0.4913
   57TMC2    C3  884   1.767   3.414  12.846  0.9543  0.1587 -0.4358
   57TMC2    C4  885   1.894   3.634  12.941  0.8305 -0.2094  0.2496
   57TMC2    C5  886   1.963   3.555  12.854  0.1278 -0.6962 -0.4353
   57TMC2    C6  887   1.902   3.436  12.819 -0.4711  0.5235  0.1512
   57TMC2     C  888   1.692   3.730  13.021  0.3338  0.3597  0.1444
   57TMC2     O  889   1.764   3.809  13.077 -0.0324 -0.3931 -0.2128
   57TMC2     H  890   1.590   3.502  12.937 -0.1950  0.5714  1.4601
   57TMC2    H1  891   1.950   3.710  12.995  0.1072 -0.3905  1.2590
   57TMC2    H2  892   1.954   3.349  12.782 -1.9276 -0.9290  1.5052
   57TMC2    C7  893   2.106   3.573  12.838  0.1139 -0.4538  0.4784
   57TMC2    C8  894   1.697   3.329  12.756  0.0574 -0.4325 -0.4353
   57TMC2    O1  895   2.140   3.687  12.864  0.4318 -0.4644  0.4919
   57TMC2    O2  896   1.732   3.333  12.637  0.4093 -0.2758  0.3593
   57TMC2    O5  897   1.583   3.288  12.809 -0.4672 -0.3623 -0.2219
   57TMC2    H5  898   1.598   3.271  12.905 -2.8043 -0.5993  0.1194
   58MPD2     C  899   1.326   4.073  13.092  0.0458 -0.2543  0.3706
   58MPD2    C1  900   1.445   4.056  13.158  0.2423  0.7987  0.1864
   58MPD2    C2  901   1.520   3.953  13.126 -1.0174  0.0677  0.4189
   58MPD2    C3  902   1.481   3.864  13.028 -1.0567  0.3623  0.4923
   58MPD2    C4  903   1.365   3.879  12.963  0.1166  0.8000 -0.1663
   58MPD2    C5  904   1.283   3.979  13.004 -0.2632  0.2579  0.0985
   58MPD2     H  905   1.607   3.940  13.189 -1.0254 -0.2681  0.3619
   58MPD2    H1  906   1.333   3.818  12.879  1.7455  0.2597 -0.4015
   58MPD2    H2  907   1.262   4.159  13.108 -0.4174 -0.8328  1.6412
   58MPD2    H3  908   1.185   4.000  12.962 -0.5361 -2.8383 -0.8256
   58MPD2     N  909   1.560   3.753  12.985  0.5571  0.0368 -0.2706
   58MPD2    H5  910   1.522   3.696  12.909 -1.2715  0.6601  0.1727
   58MPD2    N1  911   1.499   4.150  13.251  0.2265 -0.3135 -0.5309
   58MPD2    H7  912   1.589   4.128  13.292 -0.4227 -0.3228  0.8755
   59TMC2    C1  913   0.063   4.387  12.843  0.0844 -0.6407 -0.9805
   59TMC2    C2  914   4.713   4.288  12.860 -0.1047 -0.3753 -0.1217
   59TMC2    C3  915   4.590   4.298  12.809 -0.2658 -0.0987 -0.0632
   59TMC2    C4  916   0.024   4.501  12.780 -0.6699  0.3829 -0.0443
   59TMC2    C5  917   4.623   4.520  12.755  0.3146  0.4658 -0.3060
   59TMC2    C6  918   4.539   4.411  12.755 -0.0466  0.3427  0.2544
   59TMC2     C  919   0.205   4.360  12.861 -0.0421  0.5203 -0.0337
   59TMC2     O  920   0.249   4.253  12.818 -0.2439  0.1241 -0.1202
   59TMC2     H  921   0.005   4.202  12.920 -0.8565 -1.0095 -0.6787
   59TMC2    H1  922   0.096   4.581  12.789  0.7120 -0.9329  0.5871
   59TMC2    H2  923   4.432   4.419  12.736 -0.6185 -4.2253  1.4921
   59TMC2    C7  924   4.577   4.651  12.709  0.4811  0.0367 -0.8065
   59TMC2    C8  925   4.477   4.218  12.869 -0.9304  0.2917 -0.0131
   59TMC2    O1  926   4.671   4.730  12.711  0.5965 -0.1088 -0.1042
   59TMC2    O2  927   4.370   4.266  12.905  0.0038 -0.7501  0.3252
   59TMC2    O5  928   4.539   4.105  12.918 -0.3245 -0.1809 -0.3595
   59TMC2    H5  929   4.615   4.085  12.860  0.5329  0.1605  0.6457
   60MPD2     C  930   0.496   4.379  12.918 -0.8603 -0.6861 -0.4445
   60MPD2    C1  931   0.396   4.454  12.981 -0.0929 -0.2045 -0.2298
   60MPD2    C2  932   0.429   4.550  13.079  0.3647  0.0238 -0.4475
   60MPD2    C3  933   0.556   4.563  13.120 -0.0452 -0.3323  0.0506
   60MPD2    C4  934   0.653   4.492  13.061 -0.4628  0.3267  0.1880
   60MPD2    C5  935   0.628   4.401  12.960 -0.0849  0.9884 -0.2531
   60MPD2     H  936   0.351   4.611  13.124  1.2246  1.1140 -0.4231
   60MPD2    H1  937   0.757   4.507  13.088 -0.0353 -2.9167  0.2676
   60MPD2    H2  938   0.470   4.321  12.831 -1.1486 -1.1390 -0.0584
   60MPD2    H3  939   0.708   4.341  12.918 -1.2101 -1.3888  1.0006
   60MPD2     N  940   0.590   4.646  13.225  0.0453 -0.0819  0.7751
   60MPD2    H5  941   0.690   4.657  13.239 -0.1647 -0.3817  2.4179
   60MPD2    N1  942   0.263   4.459  12.934 -0.2072  0.2150 -0.0981
   60MPD2    H7  943   0.199   4.528  12.971 -1.9436 -0.6784 -1.4708
   61TMC2    C1  944   3.470   0.668  15.686  0.1930 -0.3698 -0.9013
   61TMC2    C2  945   3.410   0.592  15.787  0.0813 -0.1864  0.2199
   61TMC2    C3  946   3.393   0.649  15.911  0.3126  0.0179  0.3553
   61TMC2    C4  947   3.520   0.795  15.712  0.2156 -0.1484  0.0576
   61TMC2    C5  948   3.488   0.848  15.833  0.8499 -0.4615  0.4220
   61TMC2    C6  949   3.426   0.775  15.933 -0.1422  0.2037 -0.1831
   61TMC2     C  950   3.471   0.618  15.544  0.1314 -0.4595 -0.5019
   61TMC2     O  951   3.433   0.504  15.520 -0.1914  1.0435  0.0577
   61TMC2     H  952   3.407   0.486  15.766  0.6794  0.2674 -2.0995
   61TMC2    H1  953   3.576   0.851  15.638  1.1805  0.9336  1.6125
   61TMC2    H2  954   3.413   0.810  16.035 -0.3173 -1.4319  0.3572
   61TMC2    C7  955   3.529   0.987  15.849  0.2928 -0.8498 -0.0815
   61TMC2    C8  956   3.402   0.555  16.018  0.0675 -0.1209 -0.2825
   61TMC2    O1  957   3.566   1.045  15.752 -0.3821  0.5265 -0.0588
   61TMC2    O2  958   3.387   0.434  16.000  0.1563 -0.5463  0.3244
   61TMC2    O5  959   3.503   0.596  16.105 -0.7467 -0.8018 -0.2923
   61TMC2    H5  960   3.517   0.692  16.113  0.5150 -0.8161 -2.5233
   62MPD2     C  961   3.547   0.569  15.258  0.0737  0.1689  0.4245
   62MPD2    C1  962   3.563   0.689  15.326 -0.2289  0.3666 -0.4807
   62MPD2    C2  963   3.619   0.799  15.258 -0.7950  0.4652 -0.2953
   62MPD2    C3  964   3.667   0.790  15.133 -0.4054 -0.4570  0.1534
   62MPD2    C4  965   3.651   0.666  15.075 -0.1408  0.2502 -0.5270
   62MPD2    C5  966   3.593   0.554  15.135 -0.4864  1.1524 -0.6017
   62MPD2     H  967   3.628   0.889  15.318 -0.5338  0.0514  0.2850
   62MPD2    H1  968   3.690   0.646  14.975 -1.3142 -3.3732 -0.2752
   62MPD2    H2  969   3.514   0.478  15.306 -1.5934 -0.0151 -1.0346
   62MPD2    H3  970   3.584   0.458  15.085 -1.1563  0.7388  0.3207
   62MPD2     N  971   3.747   0.894  15.076  0.2757  0.2427 -0.4607
   62MPD2    H5  972   3.762   0.878  14.977  0.5454 -0.2257 -0.3459
   62MPD2    N1  973   3.520   0.713  15.451  0.2138 -1.1239  0.0460
   62MPD2    H7  974   3.528   0.809  15.484 -1.3349 -0.7822 -0.5868
   63TMC2    C1  975   3.377   0.820  10.395 -0.5012  0.2098 -0.0222
   63TMC2    C2  976   3.489   0.811  10.471 -0.0997  0.7538  0.4728
   63TMC2    C3  977   3.586   0.907  10.465  0.4825 -0.4720  0.3879
   63TMC2    C4  978   3.372   0.913  10.296 -0.0059  0.0813  0.2955
   63TMC2    C5  979   3.474   1.005  10.291 -0.4089  0.0626 -0.1670
   63TMC2    C6  980   3.587   1.006  10.368 -0.1399 -0.5879 -0.3015
   63TMC2     C  981   3.261   0.763  10.458 -0.4234  0.1349  0.4393
   63TMC2     O  982   3.283   0.675  10.538  0.4855  0.0597  0.1173
   63TMC2     H  983   3.501   0.751  10.560  3.1991 -1.0185 -1.1878
   63TMC2    H1  984   3.281   0.919  10.239  0.4480  1.1192 -0.3074
   63TMC2    H2  985   3.671   1.073  10.350 -0.0218 -0.3145  1.1902
   63TMC2    C7  986   3.454   1.093  10.178  0.1429  0.3047  0.2318
   63TMC2    C8  987   3.688   0.918  10.566 -0.3533 -0.2579  0.8326
   63TMC2    O1  988   3.362   1.072  10.102 -0.0822 -0.5613  0.1027
   63TMC2    O2  989   3.705   1.031  10.610 -0.2589 -0.1915  0.0164
   63TMC2    O5  990   3.693   0.801  10.636 -0.0268  0.2217 -1.1031
   63TMC2    H5  991   3.686   0.721  10.579 -1.7179 -0.5082  0.1190
   64MPD2     C  992   2.753   0.677  10.502  0.6385 -0.3812  0.1460
   64MPD2    C1  993   2.859   0.594  10.522  0.4240  0.2323 -0.2666
   64MPD2    C2  994   2.993   0.635  10.506 -0.2031  0.3992  0.0627
   64MPD2    C3  995   3.018   0.765  10.456 -0.2374  0.1211 -0.1063
   64MPD2    C4  996   2.907   0.839  10.416 -0.2104  0.4426 -1.1625
   64MPD2    C5  997   2.782   0.796  10.440  0.2675 -0.2364  0.4334
   64MPD2     H  998   3.077   0.567  10.513 -0.5682 -0.1023 -0.3587
   64MPD2    H1  999   2.918   0.932  10.362  0.6249  1.7904  1.3057
   64MPD2    H2 1000   2.651   0.660  10.533  0.7285  1.2737  1.4028
   64MPD2    H3 1001   2.699   0.864  10.430  0.6850  0.4220  1.4638
   64MPD2     N 1002   3.142   0.816  10.419  0.2282  0.7214 -0.4290
   64MPD2    H5 1003   3.140   0.901  10.365  0.9134  1.0488  0.0595
   64MPD2    N1 1004   2.836   0.453  10.546 -0.2093 -0.3436 -0.4197
   64MPD2    H7 1005   2.922   0.399  10.549 -0.5974 -0.8694  0.9204
   65TMC2    C1 1006   3.874   1.163  15.700  0.8355 -0.0920  0.1170
   65TMC2    C2 1007   3.780   1.154  15.600 -0.5827 -0.2448 -0.5396
   65TMC2    C3 1008   3.745   1.273  15.537 -0.6103  0.8658 -0.1451
   65TMC2    C4 1009   3.919   1.281  15.739 -0.9190 -1.2213  0.0635
   65TMC2    C5 1010   3.878   1.395  15.675  0.3382  0.9514 -0.0872
   65TMC2    C6 1011   3.795   1.396  15.571 -0.1082 -0.5307 -0.0038
   65TMC2     C 1012   3.882   1.051  15.793  0.1002  0.2684  0.8366
   65TMC2     O 1013   3.919   1.072  15.907  0.0655  0.3660  0.5875
   65TMC2     H 1014   3.737   1.056  15.580  0.5995 -0.2876 -2.8319
   65TMC2    H1 1015   3.988   1.294  15.821 -1.3594 -0.4231  0.3112
   65TMC2    H2 1016   3.780   1.473  15.497  1.7147 -1.1385 -0.9996
   65TMC2    C7 1017   3.933   1.527  15.712 -0.1553 -0.1001 -0.2862
   65TMC2    C8 1018   3.628   1.267  15.453  0.1800  0.2926 -0.2361
   65TMC2    O1 1019   3.925   1.624  15.635  0.1971  0.0099  0.3195
   65TMC2    O2 1020   3.587   1.361  15.386  0.1338 -0.1594 -0.0792
   65TMC2    O5 1021   3.545   1.181  15.515  0.2994 -0.1225 -0.0698
   65TMC2    H5 1022   3.586   1.144  15.596 -0.0283  2.9297  1.5224
   66MPD2     C 1023   3.820   0.796  15.922  0.3255 -0.0154 -0.0252
   66MPD2    C1 1024   3.846   0.805  15.788  0.1325 -0.5680  0.0941
   66MPD2    C2 1025   3.830   0.694  15.704 -0.0555  0.5209  0.2159
   66MPD2    C3 1026   3.790   0.572  15.762  0.7574 -0.0979 -0.4196
   66MPD2    C4 1027   3.753   0.570  15.893 -0.0795  0.5691  0.0829
   66MPD2    C5 1028   3.769   0.680  15.972  0.0620  0.0419 -0.3037
   66MPD2     H 1029   3.853   0.695  15.598  3.6638  1.2576  1.0201
   66MPD2    H1 1030   3.711   0.479  15.935  1.2840 -1.1638 -2.3092
   66MPD2    H2 1031   3.833   0.874  15.996  2.8572 -1.3416  0.9000
   66MPD2    H3 1032   3.749   0.674  16.078  1.9434  0.7689  0.0962
   66MPD2     N 1033   3.770   0.458  15.685  0.1496  0.6956 -0.7268
   66MPD2    H5 1034   3.741   0.373  15.733  1.0333  1.5205  1.2750
   66MPD2    N1 1035   3.873   0.932  15.727  0.0494  0.2849 -0.5058
   66MPD2    H7 1036   3.877   0.930  15.626 -2.3828  2.8093 -0.6614
   67TMC2    C1 1037   4.639   0.233  14.300 -0.3617 -0.7522  0.4548
   67TMC2    C2 1038   4.585   0.355  14.317  0.0049 -0.2163 -0.9650
   67TMC2    C3 1039   4.586   0.407  14.447  0.3488 -0.1895  0.2194
   67TMC2    C4 1040   4.705   0.165  14.402 -0.5572 -1.3320 -0.1656
   67TMC2    C5 1041   4.691   0.215  14.530  0.2401  0.2238  0.1657
   67TMC2    C6 1042   4.647   0.346  14.551 -0.0505 -0.4301  0.4044
   67TMC2     C 1043   4.666   0.192  14.167  0.7603 -0.5360  1.0233
   67TMC2     O 1044   4.700   0.075  14.154  0.1906  0.3973 -0.0377
   67TMC2     H 1045   4.514   0.391  14.245 -0.4121  1.0265  0.0712
   67TMC2    H1 1046   0.009   0.067  14.380  0.2307 -0.2901 -3.3405
   67TMC2    H2 1047   4.649   0.405  14.642  0.7364  1.1070 -0.6098
   67TMC2    C7 1048   0.047   0.160  14.623  0.1641  0.4818 -0.4789
   67TMC2    C8 1049   4.510   0.523  14.482 -0.0318 -0.6134 -1.0702
   67TMC2    O1 1050   0.142   0.093  14.580 -0.1694  0.2467  0.5712
   67TMC2    O2 1051   4.504   0.567  14.594 -0.6423 -1.0472  0.8411
   67TMC2    O5 1052   4.488   0.600  14.374 -0.3127 -0.4547  0.1404
   67TMC2    H5 1053   4.528   0.559  14.295 -0.9620  1.3777 -1.1560
   68MPD2     C 1054   4.677   0.171  13.865 -0.7917  0.4507 -0.4052
   68MPD2    C1 1055   4.645   0.283  13.939  0.2565 -0.1538  0.0303
   68MPD2    C2 1056   4.599   0.393  13.867 -0.3514 -0.1896  0.1424
   68MPD2    C3 1057   4.587   0.382  13.730 -0.0182  0.2666 -0.2201
   68MPD2    C4 1058   4.620   0.264  13.666 -0.0414  0.8800  0.7684
   68MPD2    C5 1059   4.660   0.157  13.736 -0.2412  0.0723  0.0546
   68MPD2     H 1060   4.569   0.475  13.932 -0.9129 -0.9925  0.8847
   68MPD2    H1 1061   4.614   0.251  13.558 -1.7580 -0.3267  0.9971
   68MPD2    H2 1062   4.723   0.082  13.905 -1.8198  0.9339  1.8749
   68MPD2    H3 1063   4.700   0.070  13.685  0.0105 -0.8757  1.9101
   68MPD2     N 1064   4.530   0.482  13.653 -0.5274  0.2615 -0.2703
   68MPD2    H5 1065   4.482   0.448  13.570  0.0180 -2.3403  0.4641
   68MPD2    N1 1066   4.652   0.293  14.074  0.8131  0.3904  0.1050
   68MPD2    H7 1067   4.643   0.389  14.106  0.7904  1.1092 -2.1100
   69TMC2    C1 1068   2.240   0.989  12.269  0.5239 -0.3746  0.9070
   69TMC2    C2 1069   2.262   1.104  12.340  0.2730  0.0200 -0.2577
   69TMC2    C3 1070   2.329   1.204  12.273 -0.1516 -0.1755  0.0413
   69TMC2    C4 1071   2.279   0.977  12.139 -0.7166 -0.1210 -0.5278
   69TMC2    C5 1072   2.339   1.079  12.078  0.2019 -0.9454 -0.2154
   69TMC2    C6 1073   2.356   1.205  12.135  0.3028  0.1112  0.0046
   69TMC2     C 1074   2.165   0.872  12.321 -0.8094  0.2091  0.3429
   69TMC2     O 1075   2.224   0.765  12.300 -0.7023  0.1055 -0.1296
   69TMC2     H 1076   2.235   1.098  12.445  1.6828 -2.0448 -0.0387
   69TMC2    H1 1077   2.248   0.889  12.085  1.2589  1.4338 -4.2289
   69TMC2    H2 1078   2.407   1.289  12.089  5.2038 -2.6569  0.4158
   69TMC2    C7 1079   2.369   1.076  11.935  0.6390 -0.3088  0.1066
   69TMC2    C8 1080   2.353   1.316  12.359 -0.3601  0.0185 -0.3673
   69TMC2    O1 1081   2.408   0.969  11.891  0.4683 -0.3681  0.1270
   69TMC2    O2 1082   2.367   1.309  12.482  0.5743  0.2445 -0.2045
   69TMC2    O5 1083   2.363   1.427  12.282 -0.3295  0.5250 -0.5019
   69TMC2    H5 1084   2.312   1.413  12.200 -0.1633  2.9601 -1.0385
   70MPD2     C 1085   1.890   0.888  12.554  0.6807 -0.3589  0.1815
   70MPD2    C1 1086   1.990   0.832  12.489 -0.4366  0.2400 -0.4670
   70MPD2    C2 1087   2.022   0.699  12.520  0.3089  1.1187 -0.2900
   70MPD2    C3 1088   1.942   0.633  12.611  0.0151 -0.0519  0.3543
   70MPD2    C4 1089   1.830   0.691  12.669 -0.6029 -0.5849 -0.0504
   70MPD2    C5 1090   1.803   0.819  12.633  0.1148  0.6021  0.6509
   70MPD2     H 1091   2.112   0.658  12.476  0.3709  0.1982  0.7003
   70MPD2    H1 1092   1.757   0.650  12.737 -1.8435 -1.9681 -2.2164
   70MPD2    H2 1093   1.875   0.994  12.541  2.0314 -0.0120  1.5222
   70MPD2    H3 1094   1.720   0.868  12.682 -2.3223 -3.1462  0.3054
   70MPD2     N 1095   1.971   0.499  12.664  0.3540  0.1397  0.3374
   70MPD2    H5 1096   1.906   0.479  12.739  0.0233 -2.4436 -0.6423
   70MPD2    N1 1097   2.060   0.910  12.398  0.5854 -0.0561  0.0826
   70MPD2    H7 1098   2.036   1.009  12.404  1.2819  0.1481 -0.5118
   71TMC2    C1 1099   4.223   1.333   0.928  0.8572  0.4934  0.2479
   71TMC2    C2 1100   4.269   1.211   0.901  0.0042 -0.1141 -0.1983
   71TMC2    C3 1101   4.351   1.157   0.998  1.0499 -0.0796 -0.0476
   71TMC2    C4 1102   4.259   1.403   1.039 -0.3620  0.3663 -0.2979
   71TMC2    C5 1103   4.356   1.357   1.119 -0.2862 -0.7256  0.3663
   71TMC2    C6 1104   4.401   1.232   1.100 -0.6457  0.4811  0.2658
   71TMC2     C 1105   4.128   1.400   0.842 -0.3279 -0.1162 -0.3673
   71TMC2     O 1106   4.083   1.505   0.885 -0.6475  0.1957  0.4091
   71TMC2     H 1107   4.264   1.162   0.805 -0.7878  2.4165 -1.4323
   71TMC2    H1 1108   4.215   1.496   1.072 -4.2966 -1.2870 -0.8032
   71TMC2    H2 1109   4.489   1.203   1.156  0.0713  2.0322 -0.0435
   71TMC2    C7 1110   4.330   1.383   1.255 -0.5270 -0.2758  1.0168
   71TMC2    C8 1111   4.388   1.016   1.006  0.4772  0.2239 -0.2396
   71TMC2    O1 1112   4.425   1.414   1.326 -0.4786  0.4687 -0.3781
   71TMC2    O2 1113   4.454   0.964   1.099  0.7969 -0.0641 -0.0744
   71TMC2    O5 1114   4.328   0.950   0.906  0.2006 -0.1657  0.1399
   71TMC2    H5 1115   4.270   0.998   0.843 -0.7614  0.3460  1.4140
   72MPD2     C 1116   3.738   1.375   0.501  0.4367  0.1100 -0.8124
   72MPD2    C1 1117   3.792   1.485   0.566 -0.1545 -0.7622 -0.0234
   72MPD2    C2 1118   3.904   1.472   0.646  0.0328 -0.7286 -1.0019
   72MPD2    C3 1119   3.969   1.345   0.659 -0.0953 -0.0069  0.4138
   72MPD2    C4 1120   3.914   1.242   0.590 -1.0288 -0.2575 -0.7953
   72MPD2    C5 1121   3.800   1.258   0.514 -0.5095 -0.5012  0.2993
   72MPD2     H 1122   3.937   1.561   0.699  0.9151 -2.1562  0.8137
   72MPD2    H1 1123   3.949   1.140   0.579  0.4798  0.5377 -3.4429
   72MPD2    H2 1124   3.649   1.366   0.440 -0.1947  0.2543  0.0871
   72MPD2    H3 1125   3.762   1.171   0.462  1.7080 -1.7240  0.7092
   72MPD2     N 1126   4.076   1.313   0.748 -0.3591  0.4368  0.5914
   72MPD2    H5 1127   4.121   1.223   0.736  0.1695  0.8390 -0.4190
   72MPD2    N1 1128   3.732   1.611   0.564 -0.4901 -0.1821  0.5489
   72MPD2    H7 1129   3.780   1.678   0.623  1.0080 -1.2411  0.5388
   73TMC2    C1 1130   3.226   3.133  13.379  0.8762  0.4794  0.8397
   73TMC2    C2 1131   3.288   3.033  13.314  0.0113  0.0244 -0.4595
   73TMC2    C3 1132   3.346   2.936  13.394  0.3839 -0.4027 -0.1740
   73TMC2    C4 1133   3.232   3.144  13.509 -0.3747  0.2025 -0.1813
   73TMC2    C5 1134   3.312   3.063  13.582 -0.1776 -0.6715  0.2723
   73TMC2    C6 1135   3.364   2.955  13.524 -0.3876 -0.2136 -0.0503
   73TMC2     C 1136   3.235   3.258  13.310 -0.1602 -0.3330 -0.2271
   73TMC2     O 1137   3.278   3.354  13.379  0.0034  0.2774  0.1903
   73TMC2     H 1138   3.299   3.020  13.207  1.6968  0.0255 -0.2932
   73TMC2    H1 1139   3.179   3.225  13.558 -1.4161  0.0659 -1.0848
   73TMC2    H2 1140   3.441   2.890  13.563 -0.5650 -0.0444  0.5821
   73TMC2    C7 1141   3.417   3.135  13.659  1.0051  0.1593 -0.0424
   73TMC2    C8 1142   3.450   2.856  13.332 -0.2207  0.4549 -0.2435
   73TMC2    O1 1143   3.507   3.073  13.715 -0.2588 -0.5721 -0.0556
   73TMC2    O2 1144   3.496   2.885  13.222  0.2010  0.1257  0.1884
   73TMC2    O5 1145   3.475   2.736  13.399  0.5047  0.0899  0.4384
   73TMC2    H5 1146   3.405   2.725  13.467 -1.2706  1.2126 -1.2158
   74MPD2     C 1147   3.271   3.570  12.901 -0.2879  0.3908  0.2772
   74MPD2    C1 1148   3.311   3.586  13.033 -0.5095  0.0018  0.2121
   74MPD2    C2 1149   3.285   3.483  13.123 -0.0000 -0.5715 -0.1053
   74MPD2    C3 1150   3.221   3.364  13.084 -0.7838 -0.8005  0.4843
   74MPD2    C4 1151   3.169   3.362  12.960 -0.1583  0.3269  0.0716
   74MPD2    C5 1152   3.191   3.462  12.869 -0.7461 -0.2569 -0.4201
   74MPD2     H 1153   3.313   3.485  13.228  0.7498  0.9942 -0.3415
   74MPD2    H1 1154   3.104   3.280  12.935  1.3400 -0.3636 -1.5599
   74MPD2    H2 1155   3.285   3.655  12.835  0.7276  0.1017  0.1241
   74MPD2    H3 1156   3.149   3.447  12.770 -1.1951  1.1369 -0.4413
   74MPD2     N 1157   3.204   3.255  13.178 -0.6670  0.3844  0.1473
   74MPD2    H5 1158   3.155   3.174  13.141 -1.1796  0.3489  0.9201
   74MPD2    N1 1159   3.395   3.700  13.060  0.6258 -0.4563 -0.0131
   74MPD2    H7 1160   3.426   3.761  12.985  1.0813 -2.4301 -1.4147
   75TMC2    C1 1161   4.421   0.683  13.604  0.0426 -0.5679  0.1440
   75TMC2    C2 1162   4.358   0.797  13.653 -0.6451  0.6801  0.4477
   75TMC2    C3 1163   4.257   0.856  13.577 -0.4810 -0.3772  0.5041
   75TMC2    C4 1164   4.383   0.618  13.486 -0.3443  0.4571  0.4429
   75TMC2    C5 1165   4.283   0.682  13.419  0.3061 -0.1983 -0.6480
   75TMC2    C6 1166   4.220   0.799  13.459 -0.8165 -0.1002  0.6162
   75TMC2     C 1167   4.507   0.612  13.693  0.2726  0.9423  0.3135
   75TMC2     O 1168   4.540   0.673  13.795  0.4048  0.3081  0.2822
   75TMC2     H 1169   4.401   0.841  13.742  1.0267  2.2803 -1.1600
   75TMC2    H1 1170   4.443   0.543  13.436 -1.0040  0.2831 -0.0809
   75TMC2    H2 1171   4.130   0.848  13.423  0.4168  2.7333  1.3626
   75TMC2    C7 1172   4.215   0.611  13.307  0.0957  0.0215  0.4621
   75TMC2    C8 1173   4.177   0.970  13.615 -0.4183  0.6069 -0.3345
   75TMC2    O1 1174   4.223   0.486  13.310  0.7462 -0.4249  0.1774
   75TMC2    O2 1175   4.064   1.001  13.574  0.5414 -0.6613 -0.0664
   75TMC2    O5 1176   4.276   1.060  13.646  0.7835 -0.1706 -0.0873
   75TMC2    H5 1177   4.354   1.017  13.687  0.2978  0.0948  1.1392
   76TMC2    C1 1178   2.585   0.031  11.541  0.6567  0.1049 -0.0259
   76TMC2    C2 1179   2.466   4.705  11.515  0.3911  0.4361  0.5254
   76TMC2    C3 1180   2.441   4.589  11.587  0.7015 -0.0174  0.4324
   76TMC2    C4 1181   2.683   4.706  11.613 -0.2428 -0.2608  0.8245
   76TMC2    C5 1182   2.651   4.595  11.681 -0.0801 -0.2996  0.6093
   76TMC2    C6 1183   2.533   4.530  11.669  0.2152 -0.3261 -0.4183
   76TMC2     C 1184   2.607   0.157  11.481 -0.2785 -0.2181  0.2168
   76TMC2     O 1185   2.519   0.242  11.483 -0.5266  0.2674  0.3840
   76TMC2     H 1186   2.382   0.016  11.465  0.3715  0.2217  0.3531
   76TMC2    H1 1187   2.783   0.012  11.616 -1.3813  2.3977  0.8152
   76TMC2    H2 1188   2.522   4.426  11.699  2.6271 -0.7269 -0.9022
   76TMC2    C7 1189   2.751   4.541  11.778 -0.4584  0.2340  0.7769
   76TMC2    C8 1190   2.344   4.500  11.527  0.2012  0.7572 -0.2838
   76TMC2    O1 1191   2.743   4.421  11.801 -0.0366  0.1003 -0.4484
   76TMC2    O2 1192   2.357   4.379  11.523 -0.4198  0.4711  0.3077
   76TMC2    O5 1193   2.224   4.567  11.526  0.1984  0.5014  0.0542
   76TMC2    H5 1194   2.226   4.641  11.590  2.8706 -0.4922  1.1144
   77MPD2     C 1195   2.880   0.463  11.162 -0.4513  0.3386 -0.2609
   77MPD2    C1 1196   2.753   0.477  11.212  0.2305 -0.6107  0.3818
   77MPD2    C2 1197   2.696   0.378  11.297 -0.3627 -0.4967  0.3165
   77MPD2    C3 1198   2.770   0.264  11.333  0.0502  0.3758  0.1025
   77MPD2    C4 1199   2.896   0.251  11.286  0.2619 -0.2490 -0.1102
   77MPD2    C5 1200   2.953   0.352  11.198  0.7278 -0.5325  0.4422
   77MPD2     H 1201   2.596   0.386  11.337  0.9624  1.3022  3.2922
   77MPD2    H1 1202   2.957   0.163  11.308  0.7782  0.3057  0.6760
   77MPD2    H2 1203   2.928   0.538  11.101  1.0459  0.5844  1.2201
   77MPD2    H3 1204   3.052   0.337  11.157 -0.0061  1.1820 -1.9382
   77MPD2     N 1205   2.729   0.165  11.421 -0.2185 -0.1510  0.4313
   77MPD2    H5 1206   2.789   0.084  11.432 -1.4662 -1.0029  0.9452
   77MPD2    N1 1207   2.671   0.588  11.183  1.0292 -0.3532  0.6100
   77MPD2    H7 1208   2.583   0.589  11.232  0.3326 -1.3536 -0.6009
   78TMC2    C1 1209   3.740   1.788   1.288 -0.3692  0.5855  0.1966
   78TMC2    C2 1210   3.695   1.711   1.188  0.7310  0.3690 -0.6099
   78TMC2    C3 1211   3.796   1.662   1.109  0.0316  0.1806 -0.2117
   78TMC2    C4 1212   3.872   1.800   1.318  0.9142  0.2846 -0.5201
   78TMC2    C5 1213   3.963   1.741   1.239  0.0098 -0.2293 -0.3812
   78TMC2    C6 1214   3.930   1.674   1.129 -0.6744 -0.3413  0.3144
   78TMC2     C 1215   3.647   1.870   1.362  0.8742 -0.3560  0.0225
   78TMC2     O 1216   3.691   1.918   1.466 -0.0729  0.3322 -0.0986
   78TMC2     H 1217   3.591   1.692   1.166  1.4642 -2.2328 -1.7784
   78TMC2    H1 1218   3.889   1.877   1.393  2.2514  0.8191 -1.3739
   78TMC2    H2 1219   4.004   1.648   1.055  1.2915  3.4114  0.9728
   78TMC2    C7 1220   4.107   1.744   1.261 -0.1132 -0.1817 -0.3067
   78TMC2    C8 1221   3.755   1.612   0.978 -0.2618  0.1070 -0.0555
   78TMC2    O1 1222   4.171   1.680   1.180  0.5316  0.3849 -0.3590
   78TMC2    O2 1223   3.648   1.561   0.958 -0.2924  0.1862 -0.4701
   78TMC2    O5 1224   3.824   1.682   0.882  0.5101 -0.3905 -0.6538
   78TMC2    H5 1225   3.919   1.671   0.900  0.4556 -0.7005 -0.5559
   79MPD1     C 1226   3.258   2.207   1.382 -0.5591  0.4051 -0.0076
   79MPD1    C1 1227   3.377   2.198   1.457 -0.6658 -0.0491  0.1977
   79MPD1    C2 1228   3.472   2.100   1.432 -0.0912 -0.4101  0.3288
   79MPD1    C3 1229   3.447   2.000   1.335 -0.5263 -0.1974  0.5105
   79MPD1    C4 1230   3.326   2.006   1.265 -0.4971  0.2943 -0.2221
   79MPD1    C5 1231   3.238   2.112   1.288 -0.4854  0.1912 -0.2497
   79MPD1     H 1232   3.569   2.111   1.479  0.1692  0.2681 -0.3668
   79MPD1    H1 1233   3.311   1.929   1.190  1.9111 -2.1925  1.8350
   79MPD1    H2 1234   3.179   2.281   1.393  0.7315  1.6704  0.7785
   79MPD1    H3 1235   3.150   2.099   1.227 -1.2333 -0.1469  0.8938
   79MPD1     N 1236   3.537   1.900   1.288  0.1535 -0.0451  0.4196
   79MPD1    H5 1237   3.514   1.848   1.204 -0.3087 -0.4859  0.8258
   79MPD1    N1 1238   3.401   2.301   1.555 -0.0637  0.1919 -0.1642
   79MPD1    H6 1239   3.487   2.302   1.609 -0.3660 -2.7032  0.3564
   79MPD1    H7 1240   3.324   2.305   1.621  0.2073 -0.6789  0.2043
   80TMC2    C1 1241   1.124   4.597  12.113  0.4645 -0.3312 -0.2793
   80TMC2    C2 1242   1.031   4.685  12.161  0.3155  0.3439 -0.4366
   80TMC2    C3 1243   0.944   4.642  12.260  0.0924  0.1140 -0.2621
   80TMC2    C4 1244   1.123   4.467  12.140 -0.9739  0.4776 -0.3250
   80TMC2    C5 1245   1.040   4.429  12.243 -0.3430  0.1986  0.4787
   80TMC2    C6 1246   0.938   4.511  12.294 -0.0318 -0.0063 -0.9983
   80TMC2     C 1247   1.238   4.635  12.029  0.3478  0.8378 -0.1584
   80TMC2     O 1248   1.258   4.554  11.938  0.3274  0.5628 -0.1886
   80TMC2     H 1249   1.032   0.054  12.134 -2.2737  0.6276  0.6825
   80TMC2    H1 1250   1.188   4.395  12.092  0.2018  2.7485 -2.1263
   80TMC2    H2 1251   0.873   4.472  12.372  2.5827 -0.3684  1.0333
   80TMC2    C7 1252   1.093   4.335  12.338  0.2727 -0.1862  0.4073
   80TMC2    C8 1253   0.867   4.735  12.325 -0.1803  0.0999 -0.1417
   80TMC2    O1 1254   1.009   4.274  12.402 -0.6273 -0.3092  0.0703
   80TMC2    O2 1255   0.898   0.074  12.417 -0.3607  0.1623  0.3215
   80TMC2    O5 1256   0.743   4.695  12.295 -0.4218 -0.3093  0.5777
   80TMC2    H5 1257   0.756   4.640  12.215 -0.1831  2.2913 -1.1653
   81MPD2     C 1258   1.495   4.704  11.919  0.0671  0.1449  0.0103
   81MPD2    C1 1259   1.414   0.058  11.985 -0.2963 -0.6993 -0.7085
   81MPD2    C2 1260   1.459   0.182  12.012  0.2508  0.0325  0.2905
   81MPD2    C3 1261   1.584   0.221  11.957 -0.1887 -0.0166 -0.3148
   81MPD2    C4 1262   1.662   0.127  11.892  0.5478 -0.1826  0.3606
   81MPD2    C5 1263   1.613   0.005  11.880 -0.8894  0.0190 -0.1683
   81MPD2     H 1264   1.402   0.255  12.069  0.6052 -1.3973  2.5051
   81MPD2    H1 1265   1.756   0.152  11.845 -0.9814  1.4353 -1.8567
   81MPD2    H2 1266   1.470   4.600  11.904  0.5853 -0.1309  1.1057
   81MPD2    H3 1267   1.679   4.673  11.828 -2.1597 -0.2425 -1.4053
   81MPD2     N 1268   1.639   0.352  11.968 -0.6650 -0.4072  0.2423
   81MPD2    H5 1269   1.736   0.358  11.940 -0.5002  1.0077  1.1625
   81MPD2    N1 1270   1.295   0.018  12.049 -0.0100  0.6873  0.1028
   81MPD2    H7 1271   1.253   0.072  12.125 -0.5510  2.9028 -1.7793
   82TMC2    C1 1272   4.396   3.965  11.136 -0.0738  0.0702 -0.1302
   82TMC2    C2 1273   4.422   4.050  11.234  0.1395 -0.0864  0.4609
   82TMC2    C3 1274   4.441   4.005  11.356 -0.3892  0.2115 -0.0214
   82TMC2    C4 1275   4.366   3.830  11.154 -0.8048 -0.0312  0.0632
   82TMC2    C5 1276   4.394   3.788  11.282  0.1016 -0.2147  0.1358
   82TMC2    C6 1277   4.432   3.874  11.388  0.4035  0.4097  0.6794
   82TMC2     C 1278   4.405   4.009  10.992 -0.7337 -0.1284 -0.1998
   82TMC2     O 1279   4.367   3.922  10.910 -1.0396  0.1905 -0.1415
   82TMC2     H 1280   4.427   4.158  11.222 -2.0315 -0.0987 -0.6050
   82TMC2    H1 1281   4.338   3.762  11.075 -0.5870 -0.3943  0.3023
   82TMC2    H2 1282   4.438   3.847  11.492 -0.7606  1.4001  1.0025
   82TMC2    C7 1283   4.423   3.650  11.304  0.4777 -0.2522  0.3219
   82TMC2    C8 1284   4.455   4.109  11.458 -0.2025 -0.5707  0.4474
   82TMC2    O1 1285   4.461   3.628  11.423  0.1314 -0.1321 -0.0917
   82TMC2    O2 1286   4.514   4.085  11.563 -0.5916 -0.0330 -0.1786
   82TMC2    O5 1287   4.328   4.164  11.449  0.0449 -0.5220  0.0473
   82TMC2    H5 1288   4.266   4.138  11.378  1.4414 -0.1940 -1.3000
   83MPD2     C 1289   4.467   4.372  10.623 -0.7142  0.1991  0.4794
   83MPD2    C1 1290   4.403   4.251  10.623  0.2192 -0.4614 -0.2280
   83MPD2    C2 1291   4.403   4.170  10.736 -0.2058 -0.9538  0.0103
   83MPD2    C3 1292   4.449   4.213  10.858  0.2582 -0.1488  0.5429
   83MPD2    C4 1293   4.507   4.338  10.863  0.1451  1.0037 -0.3304
   83MPD2    C5 1294   4.512   4.417  10.746 -0.2096  0.4318  0.2326
   83MPD2     H 1295   4.365   4.069  10.728  2.7321 -2.0969  0.4562
   83MPD2    H1 1296   4.530   4.386  10.957  0.7655 -0.7217  0.4068
   83MPD2    H2 1297   4.472   4.432  10.533 -0.0472  0.5379  0.7480
   83MPD2    H3 1298   4.552   4.518  10.751  0.5644  0.2334 -1.8932
   83MPD2     N 1299   4.442   4.136  10.978 -0.5235  0.0018 -0.0158
   83MPD2    H5 1300   4.465   4.184  11.064  0.1893  0.9337 -0.7306
   83MPD2    N1 1301   4.329   4.217  10.504 -0.0309  0.0259  0.2181
   83MPD2    H7 1302   4.317   4.298  10.444 -2.9886 -1.7204 -1.5163
   84TMC2    C1 1303   0.576   3.238  11.253 -0.1290 -0.3674 -0.2108
   84TMC2    C2 1304   0.480   3.229  11.349 -0.1013  0.2624  0.7999
   84TMC2    C3 1305   0.490   3.127  11.431  0.2626  0.4322  0.1561
   84TMC2    C4 1306   0.671   3.146  11.234  0.0253  0.0332  0.0867
   84TMC2    C5 1307   0.684   3.041  11.323 -0.0393  0.1757 -0.9020
   84TMC2    C6 1308   0.588   3.032  11.423  0.2414 -0.6629 -0.1009
   84TMC2     C 1309   0.563   3.345  11.157 -0.2009  0.2314  0.5722
   84TMC2     O 1310   0.468   3.423  11.167  0.4513  0.0797  0.7007
   84TMC2     H 1311   0.410   3.308  11.375 -1.4605 -0.7215  0.0961
   84TMC2    H1 1312   0.745   3.141  11.154 -0.3098  0.6412 -0.2650
   84TMC2    H2 1313   0.603   2.957  11.500 -0.1157  0.8608  1.4315
   84TMC2    C7 1314   0.818   2.983  11.327 -0.0413  0.5390  0.1837
   84TMC2    C8 1315   0.410   3.128  11.559  0.7730 -0.6271  0.5568
   84TMC2    O1 1316   0.903   3.038  11.257  0.1855 -0.5739  0.3352
   84TMC2    O2 1317   0.360   3.222  11.619 -0.0029  0.0460  0.3337
   84TMC2    O5 1318   0.372   3.001  11.580  0.3229 -0.0307  0.2422
   84TMC2    H5 1319   0.388   2.938  11.507 -2.0131  0.9135 -1.0846
   85TMC2    C1 1320   1.897   2.436  15.826  0.0032  0.3670 -0.4607
   85TMC2    C2 1321   1.850   2.554  15.871 -0.2639  0.2067 -0.3854
   85TMC2    C3 1322   1.899   2.665  15.811  0.0495 -0.5208  0.9432
   85TMC2    C4 1323   1.991   2.421  15.721  0.3740  0.6728 -0.5200
   85TMC2    C5 1324   2.034   2.538  15.663  0.7355  0.3271  0.3843
   85TMC2    C6 1325   1.986   2.658  15.704 -0.0958 -0.5677 -0.6186
   85TMC2     C 1326   1.850   2.319  15.886  0.0490  0.7070 -0.6112
   85TMC2     O 1327   1.849   2.218  15.820  0.0851  0.3142 -0.0064
   85TMC2     H 1328   1.786   2.558  15.959 -1.0372  0.1183 -0.9535
   85TMC2    H1 1329   2.036   2.326  15.694 -1.0703  0.1030 -0.8944
   85TMC2    H2 1330   2.020   2.752  15.660  3.5298 -2.4612 -1.8386
   85TMC2    C7 1331   2.068   2.519  15.523  0.0058 -0.6073 -0.0434
   85TMC2    C8 1332   1.902   2.791  15.866  0.0951  0.3880  0.7038
   85TMC2    O1 1333   2.131   2.416  15.505  0.1961 -0.2844  0.0183
   85TMC2    O2 1334   1.930   2.895  15.806 -0.5191  0.0306 -0.5558
   85TMC2    O5 1335   1.858   2.779  15.993  0.2160 -0.7074  0.1027
   85TMC2    H5 1336   1.865   2.689  16.031 -2.9539 -0.6436  0.8305
   86MPD2     C 1337   1.791   2.048  16.296  0.2730  0.9785 -0.2833
   86MPD2    C1 1338   1.716   2.037  16.181  0.0319 -0.2469 -0.0866
   86MPD2    C2 1339   1.743   2.130  16.082  0.0093  0.0269  0.1034
   86MPD2    C3 1340   1.834   2.233  16.109  0.1492 -0.1344 -0.4930
   86MPD2    C4 1341   1.888   2.250  16.229 -0.0774 -0.0497 -0.3720
   86MPD2    C5 1342   1.867   2.159  16.325  0.5408  1.0424 -0.1275
   86MPD2     H 1343   1.682   2.125  15.992 -1.4221 -2.0333  1.1936
   86MPD2    H1 1344   1.946   2.340  16.249 -2.1802  1.1416  0.3193
   86MPD2    H2 1345   1.790   1.972  16.373  0.5842  2.2014  0.9103
   86MPD2    H3 1346   1.909   2.176  16.424  1.5352 -1.2198 -0.1577
   86MPD2     N 1347   1.872   2.329  16.017 -0.4902  0.7638  1.4204
   86MPD2    H5 1348   1.922   2.407  16.059  1.3148  0.3377  0.0400
   86MPD2    N1 1349   1.633   1.925  16.154 -0.5086 -0.1074 -0.5387
   86MPD2    H7 1350   1.587   1.918  16.064 -1.9921 -0.0218  0.2081
   87TMC2    C1 1351   4.193   4.707   0.805  0.6538 -0.9311 -0.0103
   87TMC2    C2 1352   4.145   4.628   0.905 -0.5106  0.5121 -0.1235
   87TMC2    C3 1353   4.129   4.687   1.022  0.0296  0.8356  0.3964
   87TMC2    C4 1354   4.238   0.094   0.826 -0.6957 -0.5880 -0.2795
   87TMC2    C5 1355   4.236   0.137   0.957  0.0219  0.4216  0.0660
   87TMC2    C6 1356   4.186   0.065   1.063  0.1033  0.2498  0.2690
   87TMC2     C 1357   4.187   4.663   0.669 -0.6615  0.2331  0.1579
   87TMC2     O 1358   4.188   0.015   0.589 -0.3869 -0.4751  0.0683
   87TMC2     H 1359   4.101   4.532   0.878  0.6811  0.0273 -0.3271
   87TMC2    H1 1360   4.268   0.161   0.746  1.7075 -0.5675  0.6395
   87TMC2    H2 1361   4.170   0.107   1.161  1.0860  1.3926 -0.0690
   87TMC2    C7 1362   4.310   0.259   0.977 -0.0295  0.0701 -0.7824
   87TMC2    C8 1363   4.027   4.644   1.116 -0.1709  0.5953 -0.3396
   87TMC2    O1 1364   4.330   0.335   0.883  0.1230  0.3931  0.2642
   87TMC2    O2 1365   4.013   4.676   1.231  0.3855 -0.1903 -0.2410
   87TMC2    O5 1366   3.925   4.587   1.053 -0.4405  0.0195 -0.3918
   87TMC2    H5 1367   3.939   4.556   0.961  1.8712 -1.6530  0.5266
   88MPD2     C 1368   4.482   0.374   1.281 -0.2436  0.1989  0.1304
   88MPD2    C1 1369   4.437   0.384   1.154 -0.9312 -0.1423  0.0815
   88MPD2    C2 1370   4.484   0.483   1.078 -0.2738 -0.1876  0.6351
   88MPD2    C3 1371   4.576   0.580   1.130  0.1258 -0.3088 -0.0972
   88MPD2    C4 1372   4.616   0.571   1.263  0.0437  0.8237 -0.2151
   88MPD2    C5 1373   4.570   0.463   1.333 -0.0702 -0.3356 -0.5300
   88MPD2     H 1374   4.455   0.486   0.974  0.9968  0.9420  0.3048
   88MPD2    H1 1375   4.683   0.636   1.318  1.1576  0.0223 -0.6091
   88MPD2    H2 1376   4.457   0.301   1.358  0.3591 -2.9033 -2.6017
   88MPD2    H3 1377   4.595   0.457   1.438 -1.0831  0.4392 -0.2398
   88MPD2     N 1378   4.609   0.685   1.043  0.2319  0.5416 -0.3373
   88MPD2    H5 1379   4.558   0.689   0.955 -0.7998 -0.7631  0.2120
   88MPD2    N1 1380   4.343   0.283   1.109 -0.2737  0.1554 -0.0139
   88MPD2    H7 1381   4.337   0.219   1.187  0.6744  0.3483  0.2178
   89TMC2    C1 1382   0.179   3.281   0.844 -0.0763 -0.0741  0.0963
   89TMC2    C2 1383   0.166   3.311   0.714  0.2097 -0.1162  0.1867
   89TMC2    C3 1384   0.149   3.446   0.694  0.1971  0.3927 -0.2198
   89TMC2    C4 1385   0.172   3.371   0.946  0.0881 -0.1941  0.1236
   89TMC2    C5 1386   0.154   3.504   0.916  0.1670  0.4742 -1.1305
   89TMC2    C6 1387   0.137   3.541   0.794  0.1754 -0.2265 -0.0309
   89TMC2     C 1388   0.207   3.144   0.873  0.4606 -0.0994  0.7940
   89TMC2     O 1389   0.267   3.082   0.786  0.2120 -0.0221  0.0241
   89TMC2     H 1390   0.158   3.243   0.630 -1.0249  0.4439 -0.1478
   89TMC2    H1 1391   0.213   3.345   1.043  0.4125 -1.7357 -0.4188
   89TMC2    H2 1392   0.134   3.644   0.760 -0.3541 -0.2924 -0.1792
   89TMC2    C7 1393   0.165   3.600   1.032  0.3353  0.4926 -0.1196
   89TMC2    C8 1394   0.153   3.506   0.561 -0.2692  0.0186  0.1106
   89TMC2    O1 1395   0.148   3.559   1.145  0.5370  0.2981 -0.5888
   89TMC2    O2 1396   0.099   3.613   0.536 -0.6064 -0.1976 -0.3065
   89TMC2    O5 1397   0.219   3.423   0.471 -0.6537 -0.0149 -0.1787
   89TMC2    H5 1398   0.280   3.365   0.521 -1.0186  0.1839  0.4933
   90MPD2     C 1399   0.176   2.718   1.162 -0.4856 -0.0789 -0.6572
   90MPD2    C1 1400   0.094   2.820   1.215  0.0316  0.1166 -0.2506
   90MPD2    C2 1401   0.104   2.949   1.176  0.8779  0.0459  0.3013
   90MPD2    C3 1402   0.173   2.976   1.061 -0.4478 -0.0473 -0.4775
   90MPD2    C4 1403   0.266   2.888   1.012 -0.0655 -0.1346  0.2733
   90MPD2    C5 1404   0.265   2.758   1.069  0.2561 -0.3362 -0.2309
   90MPD2     H 1405   0.033   3.020   1.216  2.9618  1.6388  1.1534
   90MPD2    H1 1406   0.321   2.920   0.925  0.3538 -1.8025 -0.0833
   90MPD2    H2 1407   0.177   2.615   1.196 -3.3794  0.5103  1.2824
   90MPD2    H3 1408   0.333   2.687   1.022  2.2133  0.7503  0.9376
   90MPD2     N 1409   0.150   3.099   0.994  0.6100  0.0600 -0.7917
   90MPD2    H5 1410   0.091   3.169   1.038  1.0572 -0.3936  0.5082
   90MPD2    N1 1411   4.720   2.789   1.299 -0.1881 -0.6993 -0.2661
   90MPD2    H7 1412   4.681   2.877   1.331 -0.7197 -0.6673 -0.9843
   91TMC2    C1 1413   1.574   3.305  16.951 -0.6594 -1.0959  0.4923
   91TMC2    C2 1414   1.628   3.378  16.845 -0.0512  0.0880  0.5206
   91TMC2    C3 1415   1.545   3.386  16.733 -0.5824 -0.2295  0.1840
   91TMC2    C4 1416   1.466   3.220  16.937 -0.0650  0.4367 -0.6538
   91TMC2    C5 1417   1.398   3.225  16.822  0.6154  0.0918  0.1745
   91TMC2    C6 1418   1.428   3.316  16.725 -0.5266  0.5186  0.0138
   91TMC2     C 1419   1.669   3.265  17.053 -0.2669  0.4253  0.3772
   91TMC2     O 1420   1.635   3.182  17.135 -0.4415 -0.4194  0.6444
   91TMC2     H 1421   1.717   3.439  16.854 -1.1778  1.5190  1.9445
   91TMC2    H1 1422   1.434   3.155  17.017 -0.0006  0.8595 -0.2850
   91TMC2    H2 1423   1.365   3.337  16.639  1.7069  2.1279 -1.2364
   91TMC2    C7 1424   1.305   3.117  16.810 -0.3636  0.3336  0.3667
   91TMC2    C8 1425   1.580   3.468  16.618 -0.1648  0.0453  0.1772
   91TMC2    O1 1426   1.292   3.033  16.897 -0.2725  0.5514 -0.2271
   91TMC2    O2 1427   1.499   3.494  16.527 -0.8954 -0.0539  0.5671
   91TMC2    O5 1428   1.717   3.456  16.596 -0.2328  0.1940 -0.2642
   91TMC2    H5 1429   1.770   3.406  16.662 -1.1528  0.3945  0.6173
   92MPD2     C 1430   1.936   3.228  17.208 -0.1804  0.0644  0.3309
   92MPD2    C1 1431   1.925   3.280  17.082  0.0089  0.8269 -0.0078
   92MPD2    C2 1432   2.036   3.308  17.020  0.4611 -0.0025  0.6484
   92MPD2    C3 1433   2.159   3.282  17.063  0.4582 -0.0824 -0.6508
   92MPD2    C4 1434   2.175   3.235  17.196  0.3861  0.3610  0.3367
   92MPD2    C5 1435   2.058   3.205  17.260  0.2065  0.6523  0.0969
   92MPD2     H 1436   2.029   3.355  16.923 -0.5276 -1.1190  0.1855
   92MPD2    H1 1437   2.266   3.219  17.252  0.8822  1.1328 -0.2418
   92MPD2    H2 1438   1.850   3.196  17.265 -0.1353 -1.3175 -0.3486
   92MPD2    H3 1439   2.065   3.150  17.354  1.6804  1.5908  0.5343
   92MPD2     N 1440   2.266   3.317  16.975  0.2277 -0.1667  0.0812
   92MPD2    H5 1441   2.233   3.354  16.886  0.6238  2.2607  0.9713
   92MPD2    N1 1442   1.798   3.298  17.016 -0.5278 -0.4305  0.1698
   92MPD2    H7 1443   1.792   3.348  16.928 -1.9344  0.9240  1.0379
   93TMC2    C1 1444   3.807   2.519  14.129 -0.1373 -0.3672  0.2401
   93TMC2    C2 1445   3.714   2.598  14.196  0.3234 -0.2960  0.3561
   93TMC2    C3 1446   3.726   2.731  14.176  0.0098 -0.4077  0.1185
   93TMC2    C4 1447   3.893   2.579  14.033 -0.1536  0.5361 -0.1259
   93TMC2    C5 1448   3.891   2.712  14.014  0.3792  0.2700 -0.0215
   93TMC2    C6 1449   3.809   2.792  14.082  0.3457  0.5077 -0.0567
   93TMC2     C 1450   3.777   2.374  14.119  0.0593 -0.2421  0.0704
   93TMC2     O 1451   3.877   2.311  14.089  0.5901 -0.3950 -0.5143
   93TMC2     H 1452   3.662   2.547  14.276  0.9373 -1.2173  0.1735
   93TMC2    H1 1453   3.965   2.525  13.974 -0.4909 -0.6639  0.5641
   93TMC2    H2 1454   3.832   2.898  14.087 -1.4137  0.7436  2.7804
   93TMC2    C7 1455   4.006   2.770  13.942  0.9191 -0.4463 -0.5356
   93TMC2    C8 1456   3.653   2.820  14.260  0.0229  0.0450 -0.0683
   93TMC2    O1 1457   4.115   2.715  13.962  0.6202  0.3677  0.1365
   93TMC2    O2 1458   3.700   2.924  14.299  0.1839  0.0903 -0.5129
   93TMC2    O5 1459   3.546   2.756  14.316 -0.2660  0.7431 -0.1327
   93TMC2    H5 1460   3.516   2.684  14.256 -1.8689  1.1157  0.2136
   94MPD2     C 1461   3.689   2.101  14.100  0.4517  0.0017  0.4664
   94MPD2    C1 1462   3.604   2.204  14.133 -0.5023  0.3985  0.1202
   94MPD2    C2 1463   3.475   2.174  14.163  0.1752 -0.4760  0.6159
   94MPD2    C3 1464   3.428   2.048  14.160 -0.4055  0.3240  0.0669
   94MPD2    C4 1465   3.511   1.945  14.124  0.0718 -0.1456 -0.1920
   94MPD2    C5 1466   3.636   1.974  14.095 -0.2344  0.2200  0.0871
   94MPD2     H 1467   3.411   2.254  14.199 -0.1977 -1.1815  1.5133
   94MPD2    H1 1468   3.481   1.840  14.125  1.3632 -0.5019  0.1108
   94MPD2    H2 1469   3.795   2.109  14.080  0.5798 -1.1149  0.6618
   94MPD2    H3 1470   3.702   1.892  14.068 -1.6340 -1.0995  0.7097
   94MPD2     N 1471   3.291   2.023  14.186  0.0442 -0.0151  0.0875
   94MPD2    H5 1472   3.252   1.933  14.161  1.3920 -0.7729  0.7370
   94MPD2    N1 1473   3.645   2.335  14.142 -0.0410  0.1720  0.1697
   94MPD2    H7 1474   3.573   2.406  14.142 -0.9266 -0.7172 -2.4994
   95TMC2    C1 1475   3.197   4.460  16.015 -0.1374 -0.0607 -0.4988
   95TMC2    C2 1476   3.169   4.327  16.006 -0.3449  0.5641  0.2945
   95TMC2    C3 1477   3.223   4.245  16.112 -0.4858 -0.1471  0.4681
   95TMC2    C4 1478   3.247   4.514  16.131 -0.3861 -0.0038  0.2843
   95TMC2    C5 1479   3.282   4.430  16.238 -0.1431 -0.4059 -0.0725
   95TMC2    C6 1480   3.275   4.294  16.227  0.2827  0.6021 -0.2249
   95TMC2     C 1481   3.235   4.522  15.899 -0.5830  0.0977 -0.0348
   95TMC2     O 1482   3.309   4.618  15.920  0.6177 -0.0437 -0.2166
   95TMC2     H 1483   3.111   4.275  15.931 -0.6793  1.0600  0.2048
   95TMC2    H1 1484   3.255   4.622  16.141  0.8588 -0.0702  0.0217
   95TMC2    H2 1485   3.326   4.225  16.293  0.8095 -0.2723 -1.5294
   95TMC2    C7 1486   3.350   4.488  16.352 -0.1897 -0.4757  0.8853
   95TMC2    C8 1487   3.207   4.099  16.109  0.4275 -0.2487  0.2708
   95TMC2    O1 1488   3.416   4.584  16.319 -0.4841  0.5259  1.1235
   95TMC2    O2 1489   3.211   4.034  16.214  0.6124 -0.0154 -0.0461
   95TMC2    O5 1490   3.211   4.049  15.985 -0.0927  0.3072 -0.8187
   95TMC2    H5 1491   3.230   4.109  15.909  0.5917  0.2871 -0.6662
   96MPD2     C 1492   3.235   4.599  15.386 -0.2940 -0.4601  0.1660
   96MPD2    C1 1493   3.312   4.646  15.485  0.4018 -0.5257 -0.7513
   96MPD2    C2 1494   3.296   4.604  15.615  0.2177 -0.2158  0.4627
   96MPD2    C3 1495   3.199   4.514  15.655 -0.3578 -0.4100 -0.7277
   96MPD2    C4 1496   3.122   4.462  15.547 -0.5307 -0.0456 -0.3919
   96MPD2    C5 1497   3.146   4.498  15.418 -0.3654  0.0813  0.1118
   96MPD2     H 1498   3.377   4.623  15.685 -0.3271 -0.3898  1.1348
   96MPD2    H1 1499   3.063   4.372  15.559  0.9708 -1.2361 -1.9557
   96MPD2    H2 1500   3.251   4.630  15.283  1.2473 -1.2538  0.1630
   96MPD2    H3 1501   3.093   4.450  15.336  0.4733 -2.7954  1.2687
   96MPD2     N 1502   3.167   4.470  15.787  0.5978 -0.1879  0.3382
   96MPD2    H5 1503   3.108   4.387  15.795 -1.7243  1.4451  0.2915
   96MPD2    N1 1504   3.409   0.008  15.448 -0.8270 -1.0641 -0.2703
   96MPD2    H7 1505   3.404   0.033  15.349 -2.7273 -2.1589 -0.4611
   97TMC2    C1 1506   0.595   2.978  17.186 -0.2902 -0.6854  0.0510
   97TMC2    C2 1507   0.561   2.889  17.082 -0.5620 -0.6206  0.7356
   97TMC2    C3 1508   0.585   2.943  16.956 -0.5019  0.5418  0.7852
   97TMC2    C4 1509   0.636   3.101  17.164  0.0615  0.3698  0.2546
   97TMC2    C5 1510   0.640   3.151  17.037  0.7265 -0.0444  0.0977
   97TMC2    C6 1511   0.619   3.075  16.929  0.3911 -0.0399  0.1138
   97TMC2     C 1512   0.584   2.927  17.327 -0.4567 -0.4225  0.6730
   97TMC2     O 1513   0.565   2.806  17.341 -0.0546  0.1331  0.6155
   97TMC2     H 1514   0.526   2.787  17.095  0.9892 -1.0260  1.7236
   97TMC2    H1 1515   0.672   3.156  17.250 -0.3369 -1.3996  1.5445
   97TMC2    H2 1516   0.638   3.110  16.828  0.8828  0.0134  0.2224
   97TMC2    C7 1517   0.744   3.254  17.031 -0.3152  0.3359  0.3822
   97TMC2    C8 1518   0.563   2.860  16.836  0.0703  0.2970  0.6128
   97TMC2    O1 1519   0.850   3.230  17.093 -1.0057  0.4106 -0.3471
   97TMC2    O2 1520   0.565   2.902  16.719  0.2005  0.1396 -0.3057
   97TMC2    O5 1521   0.620   2.745  16.875 -0.3355  0.3169 -0.4046
   97TMC2    H5 1522   0.625   2.730  16.972  3.0146 -0.3048 -0.6581
   98MPD2     C 1523   0.705   2.953   0.076  0.0373  0.2411  0.1449
   98MPD2    C1 1524   0.705   2.850  17.734  0.2205 -0.2691  0.0794
   98MPD2    C2 1525   0.669   2.867  17.605 -0.0877 -0.5287 -1.0361
   98MPD2    C3 1526   0.630   2.995  17.561  0.2909 -0.1857  0.3420
   98MPD2    C4 1527   0.617   3.101  17.650 -0.3122 -0.0140  0.1176
   98MPD2    C5 1528   0.663   3.075   0.031 -0.0566 -0.3650 -0.5162
   98MPD2     H 1529   0.675   2.783  17.536 -0.9729  0.2448 -2.0586
   98MPD2    H1 1530   0.585   3.200  17.620  0.4254  1.5532  4.4206
   98MPD2    H2 1531   0.715   2.937   0.183 -0.9419 -2.5613 -0.1750
   98MPD2    H3 1532   0.648   3.148   0.110  2.3292 -0.8295  0.3613
   98MPD2     N 1533   0.599   3.026  17.426  0.1816 -0.2582  0.4191
   98MPD2    H5 1534   0.599   3.123  17.398  1.0881 -0.9686 -2.0522
   98MPD2    N1 1535   0.719   2.723   0.047  0.0246  0.2272 -0.0725
   98MPD2    H7 1536   0.745   2.720   0.146 -2.2498 -1.2548  0.4839
   99TMC2    C1 1537   4.073   4.206   1.466  0.5775  0.2124  0.2667
   99TMC2    C2 1538   4.168   4.295   1.503  0.4341  0.2064 -0.2405
   99TMC2    C3 1539   4.217   4.293   1.629 -0.2686  0.6122  0.2497
   99TMC2    C4 1540   4.003   4.135   1.562  0.5444 -0.6603 -0.1015
   99TMC2    C5 1541   4.039   4.141   1.692 -0.2943  0.7224  0.6008
   99TMC2    C6 1542   4.154   4.210   1.723 -0.5060  0.3366 -0.2933
   99TMC2     C 1543   3.993   4.248   1.354  0.7676  0.0511  0.2355
   99TMC2     O 1544   4.005   4.371   1.321  0.4384 -0.0372 -0.7184
   99TMC2     H 1545   4.210   4.346   1.417 -0.4625 -1.2836 -1.5635
   99TMC2    H1 1546   3.917   4.080   1.527  1.3361 -1.5926 -0.5980
   99TMC2    H2 1547   4.189   4.224   1.824  0.8268 -0.0278 -0.7069
   99TMC2    C7 1548   4.011   4.033   1.787  0.1985  0.0277  0.3493
   99TMC2    C8 1549   4.341   4.351   1.669 -0.2117 -0.3228 -0.0872
   99TMC2    O1 1550   4.099   4.001   1.866  0.1642  0.1875 -0.5812
   99TMC2    O2 1551   4.370   4.382   1.789 -0.1348 -0.0904 -0.0384
   99TMC2    O5 1552   4.426   4.303   1.578  0.5754  0.1641 -0.1434
   99TMC2    H5 1553   4.371   4.271   1.503  0.0715  3.1528 -1.0593
  100MPD2     C 1554   3.775   4.284   1.166  0.2622  0.2804  0.0801
  100MPD2    C1 1555   3.831   4.161   1.194 -0.0946  0.3476 -0.1444
  100MPD2    C2 1556   3.781   4.049   1.124  0.1075 -0.2200  0.1187
  100MPD2    C3 1557   3.691   4.069   1.022  0.4722  0.2710  0.6611
  100MPD2    C4 1558   3.638   4.194   0.993 -0.9524  0.2425  0.8943
  100MPD2    C5 1559   3.677   4.305   1.072 -0.4686  0.8080  0.6998
  100MPD2     H 1560   3.829   3.955   1.146 -0.8194 -0.9996 -1.1438
  100MPD2    H1 1561   3.567   4.223   0.915  1.4345 -0.9486 -1.7233
  100MPD2    H2 1562   3.810   4.373   1.217  1.9769 -0.2155 -0.2393
  100MPD2    H3 1563   3.655   4.406   1.039 -0.6122  0.3677 -0.5307
  100MPD2     N 1564   3.652   3.950   0.947  0.3995  0.0942  0.0023
  100MPD2    H5 1565   3.679   3.859   0.982  0.7284 -0.1847 -0.9830
  100MPD2    N1 1566   3.915   4.147   1.304  0.5102  0.1940  0.0668
  100MPD2    H7 1567   3.924   4.053   1.341 -0.5151  0.2131  0.3798
  101TMC2    C1 1568   1.326   0.886  13.299 -0.3449 -0.5407 -1.1821
  101TMC2    C2 1569   1.399   0.912  13.410 -0.2319  0.5688 -0.2750
  101TMC2    C3 1570   1.529   0.960  13.397 -0.1748  0.3576 -0.5260
  101TMC2    C4 1571   1.373   0.918  13.175 -0.5415 -0.6467  0.6114
  101TMC2    C5 1572   1.500   0.964  13.160  0.2694 -0.4089  0.0831
  101TMC2    C6 1573   1.582   0.974  13.268  0.6244  0.7886 -1.2986
  101TMC2     C 1574   1.195   0.821  13.308  0.6625 -0.1840  0.5278
  101TMC2     O 1575   1.167   0.774  13.417 -0.1148  0.1843  0.0668
  101TMC2     H 1576   1.370   0.887  13.512  0.0857  1.4476  0.0316
  101TMC2    H1 1577   1.308   0.901  13.091 -0.6430  0.4375  0.4662
  101TMC2    H2 1578   1.684   1.008  13.260  1.6775 -1.8130  1.0771
  101TMC2    C7 1579   1.550   0.998  13.020  0.7358 -0.1815  0.2625
  101TMC2    C8 1580   1.615   0.990  13.509  0.1030  0.2565  0.0305
  101TMC2    O1 1581   1.470   0.983  12.929 -0.1635  0.1656  0.1758
  101TMC2    O2 1582   1.568   1.029  13.616  0.1170  0.3278 -0.1387
  101TMC2    O5 1583   1.744   0.988  13.478 -0.7051 -0.6261  0.6593
  101TMC2    H5 1584   1.751   0.945  13.390  0.2556  0.1046  0.3844
  102MPD2     C 1585   0.919   0.788  13.068  0.2764 -0.0141  0.4545
  102MPD2    C1 1586   1.003   0.741  13.167 -0.0616 -0.0835 -0.7152
  102MPD2    C2 1587   0.971   0.638  13.252 -0.7047 -0.1874 -0.3496
  102MPD2    C3 1588   0.852   0.569  13.227 -0.3206  0.6226 -0.5392
  102MPD2    C4 1589   0.766   0.612  13.125 -0.4226 -0.2616  1.3025
  102MPD2    C5 1590   0.801   0.724  13.051  0.3976  0.2668  0.1214
  102MPD2     H 1591   1.042   0.604  13.327 -2.1461 -2.4529  0.0023
  102MPD2    H1 1592   0.671   0.562  13.111 -0.9930  1.6704 -1.9024
  102MPD2    H2 1593   0.944   0.878  13.012  0.2586 -0.1849  0.1712
  102MPD2    H3 1594   0.730   0.761  12.978 -0.7475  0.0773  1.1247
  102MPD2     N 1595   0.824   0.458  13.303 -0.1737  0.2807  0.5913
  102MPD2    H5 1596   0.888   0.446  13.380 -3.3684 -2.0522  2.8754
  102MPD2    N1 1597   1.116   0.828  13.195 -0.1569 -0.0995 -0.3563
  102MPD2    H7 1598   1.140   0.885  13.114  0.8546 -0.8755 -0.5999
  103TMC2    C1 1599   3.327   0.276  12.044  0.6487 -0.1750  0.4167
  103TMC2    C2 1600   3.348   0.392  11.968 -0.1922 -0.4739  0.4409
  103TMC2    C3 1601   3.389   0.505  12.039 -0.3110  0.6174  0.0627
  103TMC2    C4 1602   3.344   0.280  12.182  0.3182 -0.1428  0.0244
  103TMC2    C5 1603   3.377   0.397  12.246 -1.3683  0.3876 -0.0602
  103TMC2    C6 1604   3.403   0.514  12.175 -0.1080 -0.4254 -0.3919
  103TMC2     C 1605   3.224   0.190  11.990 -0.3769  0.3762  0.2015
  103TMC2     O 1606   3.173   0.213  11.881 -0.3720  0.1941 -0.3063
  103TMC2     H 1607   3.335   0.390  11.860 -0.8373 -2.2282  0.5555
  103TMC2    H1 1608   3.337   0.190  12.242 -1.1290  1.4341  2.2615
  103TMC2    H2 1609   3.451   0.602  12.215  0.5177 -0.1554 -1.7459
  103TMC2    C7 1610   3.361   0.389  12.391 -0.2565  0.6899  0.3394
  103TMC2    C8 1611   3.372   0.628  11.962 -0.7011 -0.7445 -0.3631
  103TMC2    O1 1612   3.303   0.292  12.429 -0.0612 -0.4028  0.5913
  103TMC2    O2 1613   3.399   0.633  11.841  0.2242 -0.6495 -0.5732
  103TMC2    O5 1614   3.299   0.719  12.031  0.8116 -0.0818  0.2822
  103TMC2    H5 1615   3.278   0.696  12.124  0.0032 -0.8328 -0.0818
  104MPD2     C 1616   3.153   4.585  12.079 -0.3058  0.3640  0.0219
  104MPD2    C1 1617   3.121   4.705  12.024 -0.9056  0.5757 -0.2486
  104MPD2    C2 1618   3.012   4.722  11.941 -0.0860  0.4420 -0.1905
  104MPD2    C3 1619   2.932   4.616  11.918  0.3289  0.5888  0.6371
  104MPD2    C4 1620   2.964   4.489  11.974 -0.5137 -0.5998 -0.0399
  104MPD2    C5 1621   3.064   4.486  12.063 -0.6592 -0.2519  0.2692
  104MPD2     H 1622   2.990   0.085  11.905 -0.6897  0.6165  0.6657
  104MPD2    H1 1623   2.909   4.397  11.960 -3.3696  0.8491  1.5952
  104MPD2    H2 1624   3.234   4.579  12.151 -2.2544 -0.2031  2.1728
  104MPD2    H3 1625   3.077   4.394  12.119 -3.3896 -0.0500  1.2531
  104MPD2     N 1626   2.836   4.635  11.823  0.3380 -0.1245  0.0916
  104MPD2    H5 1627   2.838   4.726  11.778 -0.3930 -0.9669 -1.6411
  104MPD2    N1 1628   3.212   0.070  12.055  0.3190 -0.3167 -0.2647
  104MPD2    H7 1629   3.283   0.048  12.124  0.8449  0.6925 -0.4851
  105TMC2    C1 1630   4.249   4.731  17.512 -0.4425 -0.3418 -0.0298
  105TMC2    C2 1631   4.247   0.122  17.569 -0.9457  0.4687 -0.5465
  105TMC2    C3 1632   4.186   0.137  17.694 -0.8582 -0.4308 -0.1084
  105TMC2    C4 1633   4.195   4.625  17.582  0.3454  0.2335 -0.3343
  105TMC2    C5 1634   4.150   4.645  17.712 -0.0528 -0.0809 -0.4925
  105TMC2    C6 1635   4.152   0.033   0.026  0.2522 -0.5569  0.3672
  105TMC2     C 1636   4.309   4.725  17.381  0.2011  0.3198 -0.7448
  105TMC2     O 1637   4.264   4.636  17.317  0.4580 -0.2163 -0.0172
  105TMC2     H 1638   4.286   0.203  17.510 -0.1048 -0.8458 -1.7942
  105TMC2    H1 1639   4.212   4.528  17.537  1.9286 -0.4109  1.6322
  105TMC2    H2 1640   4.131   0.052   0.131  0.9798  0.3889  0.3484
  105TMC2    C7 1641   4.177   4.525   0.054 -0.2932 -0.4363  0.9564
  105TMC2    C8 1642   4.221   0.261   0.019  0.8618  0.1124 -0.2185
  105TMC2    O1 1643   4.205   4.421  17.742  0.7283  0.2545  0.0431
  105TMC2    O2 1644   4.287   0.342  17.702  0.5065 -0.2933  0.4141
  105TMC2    O5 1645   4.101   0.294   0.076 -0.2144  0.3024 -0.6071
  105TMC2    H5 1646   4.048   0.217   0.106 -0.6692 -0.5026 -3.4514
  106MPD2     C 1647   4.650   0.073  17.014 -0.2413  0.0325  0.3482
  106MPD2    C1 1648   4.705   0.126  17.124 -0.3994 -0.7681  0.2132
  106MPD2    C2 1649   4.621   0.136  17.236  0.4178  0.3034  0.2346
  106MPD2    C3 1650   4.499   0.075  17.241  0.2716 -0.7243 -0.4575
  106MPD2    C4 1651   4.452   0.023  17.130 -0.1485 -0.3881  0.2275
  106MPD2    C5 1652   4.524   0.027  17.012  0.9031  0.9413  0.4571
  106MPD2     H 1653   4.659   0.189  17.323  3.1906 -0.5211 -0.4806
  106MPD2    H1 1654   4.348   4.730  17.121  0.0347 -1.6442  2.4258
  106MPD2    H2 1655   4.697   0.075  16.917  0.5220  0.5839  0.7374
  106MPD2    H3 1656   4.472   4.728  16.924 -0.6244 -2.2244  2.6103
  106MPD2     N 1657   4.416   0.067  17.359  0.8041  0.1295  0.5865
  106MPD2    H5 1658   4.443   0.126  17.436  2.0378  1.1057 -0.6109
  106MPD2    N1 1659   0.094   0.182  17.124 -0.1337 -0.2093  0.0182
  106MPD2    H7 1660   0.125   0.240  17.202 -0.9773 -1.2605  1.1475
  107TMC2    C1 1661   0.705   4.145  11.295 -0.2936  0.8241  0.0185
  107TMC2    C2 1662   0.756   4.269  11.255 -0.0722  0.0712 -0.4620
  107TMC2    C3 1663   0.784   4.281  11.120  0.0730  0.4369  0.3885
  107TMC2    C4 1664   0.681   4.035  11.210  0.5201 -0.1224  0.8764
  107TMC2    C5 1665   0.712   4.060  11.082 -0.6728 -0.3592  0.7459
  107TMC2    C6 1666   0.766   4.179  11.038 -0.1118  0.0280 -0.2415
  107TMC2     C 1667   0.695   4.112  11.433  0.0647 -1.2281 -0.0126
  107TMC2     O 1668   0.655   4.200  11.508 -0.4167  0.2149  0.2632
  107TMC2     H 1669   0.782   4.349  11.324  2.1749 -2.4808  1.6138
  107TMC2    H1 1670   0.650   3.938  11.246 -0.8622  0.2763  0.7668
  107TMC2    H2 1671   0.782   4.202  10.933  1.7701  0.4244  0.1380
  107TMC2    C7 1672   0.724   3.947  10.991  0.0185  0.5773  1.0357
  107TMC2    C8 1673   0.836   4.399  11.064  0.4877  0.2461  0.1903
  107TMC2    O1 1674   0.760   3.972  10.877 -0.3966 -0.2326  0.2040
  107TMC2    O2 1675   0.829   4.504  11.132 -0.9581  0.0228  0.4445
  107TMC2    O5 1676   0.959   4.356  11.023  0.3460 -0.4079  0.0607
  107TMC2    H5 1677   0.961   4.279  10.962  0.4895  0.5393 -1.1218
  108MPD2     C 1678   0.831   3.814  11.600  0.2062 -0.4578  0.7075
  108MPD2    C1 1679   0.741   3.918  11.580 -0.1330 -0.2198  0.1782
  108MPD2    C2 1680   0.651   3.952  11.679 -0.6772  0.3646 -0.5527
  108MPD2    C3 1681   0.634   3.872  11.792 -0.1057 -0.4610  0.3322
  108MPD2    C4 1682   0.716   3.766  11.801 -0.4233 -0.0027  0.1144
  108MPD2    C5 1683   0.818   3.734  11.713 -0.4422  0.5940 -0.5441
  108MPD2     H 1684   0.592   4.042  11.669 -1.8982 -0.6232 -2.1311
  108MPD2    H1 1685   0.702   3.697  11.883  1.1512  0.2093  0.5581
  108MPD2    H2 1686   0.907   3.786  11.528 -2.9700  1.0123 -3.1801
  108MPD2    H3 1687   0.887   3.654  11.736 -0.3542  1.0730  0.8598
  108MPD2     N 1688   0.536   3.884  11.902  0.4461 -0.6384  1.0486
  108MPD2    H5 1689   0.551   3.819  11.978 -0.4487  1.0880  2.7093
  108MPD2    N1 1690   0.751   3.989  11.456  0.0554 -0.0771  0.3726
  108MPD2    H7 1691   0.799   3.947  11.377 -0.0122  1.2576 -0.3776
  109TMC2    C1 1692   0.402   1.318   0.163  0.1217 -0.0254  0.1367
  109TMC2    C2 1693   0.414   1.230   0.062  0.5553 -0.1415 -0.0855
  109TMC2    C3 1694   0.499   1.266  17.700  0.0953  0.5136 -0.2159
  109TMC2    C4 1695   0.461   1.442   0.157  0.1782 -0.6352  0.2560
  109TMC2    C5 1696   0.538   1.472   0.049  0.4929  0.7222  0.2179
  109TMC2    C6 1697   0.562   1.384  17.700  0.4234 -0.3730  0.3407
  109TMC2     C 1698   0.360   1.262   0.289 -1.1214 -0.4441 -0.0139
  109TMC2     O 1699   0.327   1.143   0.286  0.0685  0.0879 -0.0211
  109TMC2     H 1700   0.366   1.134   0.053  2.1108 -0.8479 -0.8447
  109TMC2    H1 1701   0.430   1.519   0.227  1.0309  1.6636 -1.9080
  109TMC2    H2 1702   0.637   1.399  17.623  0.4934 -1.0095  0.2864
  109TMC2    C7 1703   0.595   1.606   0.041 -0.4743 -0.0457 -0.0783
  109TMC2    C8 1704   0.535   1.184  17.585 -0.6330 -0.6307  0.4296
  109TMC2    O1 1705   0.608   1.675   0.138 -0.2800 -0.0612 -0.7120
  109TMC2    O2 1706   0.553   1.233  17.472  0.0227 -0.1107  0.1596
  109TMC2    O5 1707   0.536   1.053  17.615 -0.0040  0.7204 -0.3293
  109TMC2    H5 1708   0.535   1.040  17.712  0.2939  0.7690 -0.3220
  110MPD2     C 1709   0.281   1.226   0.784  0.3842 -0.3117 -0.2730
  110MPD2    C1 1710   0.275   1.357   0.754  0.4146 -0.0655  0.6556
  110MPD2    C2 1711   0.290   1.397   0.623  0.1636 -0.4008 -0.0313
  110MPD2    C3 1712   0.320   1.300   0.531  0.0536 -0.2791 -0.0807
  110MPD2    C4 1713   0.320   1.161   0.561  0.0041  0.6077 -0.6994
  110MPD2    C5 1714   0.291   1.127   0.691 -0.1488  0.5105 -0.1523
  110MPD2     H 1715   0.291   1.503   0.603  1.8729 -0.5992 -1.0110
  110MPD2    H1 1716   0.357   1.088   0.491  0.5698 -1.0912  1.3756
  110MPD2    H2 1717   0.273   1.192   0.887 -1.3742  0.1353 -0.2681
  110MPD2    H3 1718   0.291   1.025   0.728 -0.4322  0.3107 -0.7004
  110MPD2     N 1719   0.356   1.340   0.401 -0.7680 -0.2015  0.0024
  110MPD2    H5 1720   0.369   1.438   0.381  0.1347 -0.7623 -2.1385
  110MPD2    N1 1721   0.250   1.440   0.861 -0.0124 -0.5113 -0.3505
  110MPD2    H7 1722   0.252   1.384   0.946  1.8509  0.8748  0.5326
  111TMC2    C1 1723   0.443   0.931  11.932  0.0813 -0.2487 -0.3425
  111TMC2    C2 1724   0.410   0.865  12.048  0.0403 -0.2789 -0.8627
  111TMC2    C3 1725   0.468   0.903  12.174 -0.1036  0.4838  0.2003
  111TMC2    C4 1726   0.541   1.022  11.937 -0.1208  0.2583 -0.1449
  111TMC2    C5 1727   0.609   1.044  12.050 -0.2851 -0.3807  0.5733
  111TMC2    C6 1728   0.575   0.985  12.169  0.6075  0.6105 -0.5680
  111TMC2     C 1729   0.387   0.891  11.805 -0.4215 -0.4327  0.7876
  111TMC2     O 1730   0.459   0.899  11.707 -0.6240  0.1792  0.2948
  111TMC2     H 1731   0.359   0.770  12.038 -0.7137  0.1145 -0.6862
  111TMC2    H1 1732   0.556   1.086  11.851  0.4256  0.5773  0.1843
  111TMC2    H2 1733   0.644   0.982  12.253  2.2315 -0.2206 -1.9209
  111TMC2    C7 1734   0.753   1.077  12.038 -0.4843  0.4012  0.3733
  111TMC2    C8 1735   0.425   0.827  12.288  0.2549  0.2264  1.0250
  111TMC2    O1 1736   0.811   1.099  12.142 -0.3197 -0.3147 -0.0875
  111TMC2    O2 1737   0.480   0.853  12.394  0.1892  0.1208 -0.1829
  111TMC2    O5 1738   0.305   0.769  12.259 -0.0722  0.8474 -0.1605
  111TMC2    H5 1739   0.272   0.802  12.173 -0.6782  0.6436 -0.0033
  112MPD2     C 1740   0.005   0.739  11.479 -0.4575 -0.0130  0.0351
  112MPD2    C1 1741   0.119   0.806  11.459  0.5865 -0.4519 -0.8209
  112MPD2    C2 1742   0.210   0.830  11.565  0.0880 -0.2833 -0.1818
  112MPD2    C3 1743   0.181   0.802  11.701 -0.0146  0.4198 -0.3632
  112MPD2    C4 1744   0.055   0.733  11.723  0.0219 -0.2567 -0.0773
  112MPD2    C5 1745   4.705   0.707  11.617  0.6828 -0.1454  0.2197
  112MPD2     H 1746   0.306   0.877  11.545  0.9337 -2.3692 -0.9806
  112MPD2    H1 1747   0.029   0.704  11.824  0.6443 -0.0251  0.1485
  112MPD2    H2 1748   4.681   0.701  11.397 -0.2235  0.0017 -0.1441
  112MPD2    H3 1749   4.616   0.649  11.640  0.4122 -0.2310 -0.9963
  112MPD2     N 1750   0.257   0.841  11.815  0.3164 -0.0666  0.6542
  112MPD2    H5 1751   0.207   0.846  11.903  0.5135 -0.2481  0.7758
  112MPD2    N1 1752   0.155   0.856  11.333 -0.9803  0.3924  0.1222
  112MPD2    H7 1753   0.247   0.899  11.331 -1.3860  1.2521 -0.5449
  113TMC2    C1 1754   3.202   3.969   0.930 -0.2036 -0.7116  0.0501
  113TMC2    C2 1755   3.258   4.043   0.829 -0.2442  0.9110 -0.1191
  113TMC2    C3 1756   3.258   3.985   0.707  0.7737 -0.1849 -0.0535
  113TMC2    C4 1757   3.156   3.843   0.911 -0.0023 -1.1995 -0.3991
  113TMC2    C5 1758   3.157   3.793   0.783 -0.0411 -0.8479  0.5559
  113TMC2    C6 1759   3.207   3.865   0.679 -0.4350 -0.4753 -0.4822
  113TMC2     C 1760   3.247   4.011   1.062  0.9034  0.7154  0.3011
  113TMC2     O 1761   3.261   4.134   1.062  0.6523  0.1769 -0.1219
  113TMC2     H 1762   3.307   4.137   0.851 -1.6751  1.9402 -1.3443
  113TMC2    H1 1763   3.135   3.788   1.002 -1.2067 -0.0926 -0.0089
  113TMC2    H2 1764   3.203   3.825   0.579  1.7188  0.1412 -0.8200
  113TMC2    C7 1765   3.151   3.646   0.764  0.6014  0.2896  0.2664
  113TMC2    C8 1766   3.292   4.064   0.587 -0.1082  0.2132  0.4958
  113TMC2    O1 1767   3.228   3.612   0.677 -0.2467  0.0388 -0.5283
  113TMC2    O2 1768   3.306   4.012   0.478  0.0100  0.1421  0.0883
  113TMC2    O5 1769   3.229   4.181   0.605 -0.0925 -0.2556  0.0599
  113TMC2    H5 1770   3.205   4.203   0.698  1.4636 -0.9482  0.6249
  114MPD2     C 1771   3.562   3.963   1.471 -0.1748  0.4835  0.7051
  114MPD2    C1 1772   3.511   4.077   1.411 -0.0056  0.2573 -0.3070
  114MPD2    C2 1773   3.426   4.066   1.304  0.7872 -0.4508 -0.4756
  114MPD2    C3 1774   3.403   3.941   1.245  0.7792 -0.6973 -0.2142
  114MPD2    C4 1775   3.466   3.829   1.293 -0.8601  0.4604  0.4213
  114MPD2    C5 1776   3.546   3.847   1.404 -0.0965 -0.6370 -0.5406
  114MPD2     H 1777   3.388   4.161   1.270  0.5769 -0.2656  0.2776
  114MPD2    H1 1778   3.468   3.733   1.241 -0.0033 -0.1195  1.5186
  114MPD2    H2 1779   3.624   3.969   1.560  2.8460  1.3727 -1.4574
  114MPD2    H3 1780   3.600   3.762   1.443 -0.9217  0.0143  1.9750
  114MPD2     N 1781   3.307   3.914   1.138 -0.4455  0.2234  0.3074
  114MPD2    H5 1782   3.306   3.816   1.111  0.6867  0.3750 -0.2588
  114MPD2    N1 1783   3.545   4.208   1.453 -0.1546  0.0176 -0.2171
  114MPD2    H7 1784   3.500   4.288   1.410  0.1137  1.1135  1.5407
  115TMC2    C1 1785   4.430   2.270   0.060  0.6756  0.0910 -0.2968
  115TMC2    C2 1786   4.531   2.217  17.722 -0.2761  0.4686 -0.1051
  115TMC2    C3 1787   4.639   2.296  17.709  0.5113 -0.1950  1.0387
  115TMC2    C4 1788   4.423   2.401   0.103  0.0954 -0.7312 -0.0851
  115TMC2    C5 1789   4.537   2.473   0.077 -0.5437 -0.8012  0.6010
  115TMC2    C6 1790   4.640   2.423   0.005  0.3302  0.2463  0.9822
  115TMC2     C 1791   4.309   2.194   0.046  0.0289  0.6716  0.8242
  115TMC2     O 1792   4.323   2.079   0.007  0.1369  0.0622  0.0752
  115TMC2     H 1793   4.518   2.124  17.669  1.0528 -1.3040  2.7420
  115TMC2    H1 1794   4.341   2.440   0.162  0.5112 -0.9691  0.6481
  115TMC2    H2 1795   4.732   2.481   0.009  0.7888 -0.4944  1.2942
  115TMC2    C7 1796   4.516   2.616   0.069  0.1096  0.2800  0.7295
  115TMC2    C8 1797   0.022   2.258  17.640 -0.8967  0.1543  0.0022
  115TMC2    O1 1798   4.460   2.675   0.163  0.0087 -0.1760  0.4422
  115TMC2    O2 1799   0.107   2.345  17.627  0.0062  0.0683 -0.3357
  115TMC2    O5 1800   0.039   2.125  17.633  0.2063 -0.4835  0.0749
  115TMC2    H5 1801   4.702   2.062  17.651 -0.4136 -0.4438 -2.3050
  116MPD2     C 1802   3.800   2.191  17.671  0.3538 -0.2805 -0.1308
  116MPD2    C1 1803   3.896   2.092  17.681  0.7856 -0.9404  0.3477
  116MPD2    C2 1804   4.023   2.116  17.720  0.3768 -0.2167  0.1300
  116MPD2    C3 1805   4.065   2.241   0.009  0.4495  0.1951 -0.0439
  116MPD2    C4 1806   3.969   2.340   0.003 -0.5912 -0.1496  0.5662
  116MPD2    C5 1807   3.841   2.316  17.709  0.3624 -0.1362 -0.2173
  116MPD2     H 1808   4.097   2.037  17.721  0.0460 -0.5299  0.2155
  116MPD2    H1 1809   4.002   2.441   0.024  3.0782 -1.2649  0.1622
  116MPD2    H2 1810   3.699   2.166  17.643 -0.2048  1.7755 -0.0001
  116MPD2    H3 1811   3.768   2.396  17.708  1.1609  0.5923 -0.4450
  116MPD2     N 1812   4.193   2.280   0.047  0.1710  0.0403 -0.9592
  116MPD2    H5 1813   4.210   2.379   0.057 -2.2508  0.2369  1.2575
  116MPD2    N1 1814   3.862   1.967  17.627  0.5892 -0.6303  0.5585
  116MPD2    H7 1815   3.770   1.969  17.584  0.3022  2.5355  1.3283
  117TMC2    C1 1816   2.733   2.632  13.845  0.2835  0.7502  0.7275
  117TMC2    C2 1817   2.794   2.538  13.926  0.0652 -0.5028  0.4715
  117TMC2    C3 1818   2.889   2.582  14.020  0.7016 -0.1435 -1.4488
  117TMC2    C4 1819   2.767   2.764  13.852  0.1959  0.4588 -0.1560
  117TMC2    C5 1820   2.872   2.802  13.935  0.5674 -0.1554  0.3320
  117TMC2    C6 1821   2.932   2.714  14.015 -0.2452  0.1271 -0.6489
  117TMC2     C 1822   2.653   2.584  13.734 -0.6627  0.6088  0.0833
  117TMC2     O 1823   2.662   2.465  13.716  0.6737 -0.5487 -0.4725
  117TMC2     H 1824   2.777   2.431  13.917 -0.5915 -0.3875  0.3934
  117TMC2    H1 1825   2.714   2.844  13.801  2.3611  2.4592  0.7225
  117TMC2    H2 1826   3.010   2.741  14.086 -0.8412  2.2611 -0.8215
  117TMC2    C7 1827   2.949   2.924  13.907  0.2156  0.2071 -0.2769
  117TMC2    C8 1828   2.987   2.477  14.064 -0.9158  0.3571 -0.0650
  117TMC2    O1 1829   2.894   3.006  13.837 -0.2526 -0.7595 -0.1679
  117TMC2    O2 1830   3.103   2.504  14.096 -0.0513  0.2084  0.5066
  117TMC2    O5 1831   2.914   2.385  14.131  0.1929 -0.5588  0.5626
  117TMC2    H5 1832   2.821   2.374  14.100  0.1962 -2.2270  1.1391
  118MPD2     C 1833   3.291   3.014  13.993 -0.7501 -0.0357  0.3802
  118MPD2    C1 1834   3.167   3.035  13.957 -0.5292  0.1856 -0.0498
  118MPD2    C2 1835   3.130   3.172  13.927  0.8613  0.4322  0.2566
  118MPD2    C3 1836   3.220   3.273  13.929  0.3818 -0.9286 -0.1751
  118MPD2    C4 1837   3.342   3.249  13.989  0.3720  0.1249  0.6729
  118MPD2    C5 1838   3.382   3.118  14.007  0.4841 -0.3684 -0.0340
  118MPD2     H 1839   3.030   3.183  13.887 -0.6207  2.0371  4.4477
  118MPD2    H1 1840   3.407   3.333  14.010  2.2996 -1.3249  0.4177
  118MPD2    H2 1841   3.320   2.916  14.029  0.2892  0.9315  2.1848
  118MPD2    H3 1842   3.483   3.093  14.036 -0.0095 -4.0289 -1.4367
  118MPD2     N 1843   3.176   3.397  13.869 -0.2884  0.0541  0.7427
  118MPD2    H5 1844   3.081   3.399  13.834  0.2160 -2.5852 -0.7653
  118MPD2    N1 1845   3.071   2.931  13.961  0.1496 -0.2942  0.1132
  118MPD2    H7 1846   3.111   2.843  13.993  1.1894  1.1732  2.8457
  119TMC2    C1 1847   1.325   4.582  12.985  0.2548  0.2584  0.1220
  119TMC2    C2 1848   1.309   4.617  12.856  0.2542  0.1942 -0.3245
  119TMC2    C3 1849   1.210   4.562  12.774 -0.4724 -0.2423  0.2865
  119TMC2    C4 1850   1.235   4.501  13.050 -0.0473 -0.3931 -0.0918
  119TMC2    C5 1851   1.129   4.458  12.977 -0.9714 -0.6608  0.2238
  119TMC2    C6 1852   1.110   4.485  12.839 -0.5163 -0.3606  0.2983
  119TMC2     C 1853   1.456   4.573  13.048 -0.3715  0.0041 -0.7457
  119TMC2     O 1854   1.459   4.578  13.170  0.2297 -0.5637  0.3435
  119TMC2     H 1855   1.383   4.680  12.808  0.9537 -1.7958 -1.8392
  119TMC2    H1 1856   1.246   4.475  13.154 -0.7784 -0.8925 -0.1466
  119TMC2    H2 1857   1.036   4.429  12.784  0.8062 -3.0644  1.2526
  119TMC2    C7 1858   1.032   4.366  13.040  0.2016 -0.0967 -0.1417
  119TMC2    C8 1859   1.204   4.604  12.635 -0.0983 -0.4308  0.8859
  119TMC2    O1 1860   0.962   4.298  12.965  0.0954 -0.4383 -0.3503
  119TMC2    O2 1861   1.302   4.644  12.575  0.1721  0.5747  0.4035
  119TMC2    O5 1862   1.089   4.557  12.588  0.0064  0.3480 -0.4872
  119TMC2    H5 1863   1.012   4.551  12.649  0.6210  0.6494  0.3100
  120MPD2     C 1864   1.952   4.421  13.047 -0.3250 -0.1445  0.1351
  120MPD2    C1 1865   1.878   4.472  13.146  0.4069 -0.1264 -0.0314
  120MPD2    C2 1866   1.755   4.529  13.118 -0.1911 -0.1215  0.3117
  120MPD2    C3 1867   1.697   4.518  12.992  0.7466  0.3308  0.6827
  120MPD2    C4 1868   1.780   4.470  12.895 -0.5312  0.1909  0.1201
  120MPD2    C5 1869   1.895   4.416  12.926  0.1106 -0.2351  0.5869
  120MPD2     H 1870   1.688   4.578  13.188 -2.4029  3.0037 -3.9783
  120MPD2    H1 1871   1.755   4.465  12.790 -1.5004 -0.8373  0.3989
  120MPD2    H2 1872   2.048   4.376  13.068 -0.7302 -1.4035 -0.6959
  120MPD2    H3 1873   1.946   4.373  12.840 -1.8392  1.5133 -1.4490
  120MPD2     N 1874   1.557   4.540  12.961  0.0590 -0.3687  0.1120
  120MPD2    H5 1875   1.534   4.522  12.864  0.7043  0.1834 -0.1438
  120MPD2    N1 1876   1.931   4.465  13.273 -0.2544 -0.0198 -0.5007
  120MPD2    H7 1877   2.031   4.444  13.278 -0.8898 -3.0123 -0.5851
  121TMC2    C1 1878   2.427   1.441  14.203 -0.7748  0.2297  0.1357
  121TMC2    C2 1879   2.402   1.524  14.092  0.0911 -0.8061 -0.3553
  121TMC2    C3 1880   2.276   1.574  14.062  0.5697  0.2030 -0.8501
  121TMC2    C4 1881   2.319   1.405  14.281 -0.2001  0.9674 -0.4521
  121TMC2    C5 1882   2.191   1.438  14.235  0.5757  0.3208  0.1438
  121TMC2    C6 1883   2.164   1.529  14.135 -0.0266  0.2005 -0.5235
  121TMC2     C 1884   2.548   1.362  14.206  0.2327 -0.1244 -0.0761
  121TMC2     O 1885   2.562   1.292  14.304 -0.0905  0.7741  0.0097
  121TMC2     H 1886   2.483   1.562  14.031  0.5123  0.8118  1.2086
  121TMC2    H1 1887   2.340   1.331  14.357 -2.2065 -1.9660 -2.7247
  121TMC2    H2 1888   2.071   1.579  14.112 -0.4491  0.3793  1.5682
  121TMC2    C7 1889   2.084   1.393  14.313  0.1444 -0.1892 -0.2677
  121TMC2    C8 1890   2.249   1.670  13.959 -0.0508 -0.1654  0.9221
  121TMC2    O1 1891   2.107   1.320  14.409 -0.0063 -0.1856 -0.3472
  121TMC2    O2 1892   2.148   1.650  13.893 -0.0090  0.2483  0.4229
  121TMC2    O5 1893   2.363   1.727  13.914  0.1448  0.6870 -0.4860
  121TMC2    H5 1894   2.408   1.781  13.982  0.9683  2.4681 -2.4526
  122MPD2     C 1895   2.758   1.152  14.131  0.1668  0.1598  0.4223
  122MPD2    C1 1896   2.722   1.257  14.053 -0.4774 -0.1324 -0.7173
  122MPD2    C2 1897   2.786   1.285  13.935  0.2984 -0.1824 -0.1641
  122MPD2    C3 1898   2.885   1.193  13.893 -0.2276  0.3160 -0.1018
  122MPD2    C4 1899   2.913   1.081  13.970  0.0921  0.4103 -0.0911
  122MPD2    C5 1900   2.847   1.068  14.084  0.4175 -0.9388  0.3289
  122MPD2     H 1901   2.754   1.368  13.872  1.1794 -0.8397 -1.4753
  122MPD2    H1 1902   2.998   1.020  13.944 -0.1179  0.0719  0.0194
  122MPD2    H2 1903   2.732   1.135  14.235  0.9414  4.2960  1.2943
  122MPD2    H3 1904   2.891   0.994  14.151 -0.3843 -0.8282  0.9779
  122MPD2     N 1905   2.950   1.210  13.771  0.0333 -0.2224  0.2224
  122MPD2    H5 1906   2.993   1.128  13.730 -1.5245 -0.2076 -1.4427
  122MPD2    N1 1907   2.621   1.348  14.086  0.0463  0.0193  0.3284
  122MPD2    H7 1908   2.584   1.404  14.010  0.3246 -0.6090 -0.2740
  123TMC2    C1 1909   0.450   4.617  11.118  0.0983 -0.3786  0.0539
  123TMC2    C2 1910   0.512   4.699  11.209  0.1598  0.3994 -0.2554
  123TMC2    C3 1911   0.600   0.061  11.171 -0.0811  0.0569  0.0778
  123TMC2    C4 1912   0.480   4.638  10.990  0.2097  0.4316  0.0547
  123TMC2    C5 1913   0.570   4.734  10.953 -0.2874 -0.4932  0.2150
  123TMC2    C6 1914   0.642   0.077  11.039 -0.5756 -0.6407 -0.2414
  123TMC2     C 1915   0.444   4.476  11.155  0.3466 -0.0873 -0.3384
  123TMC2     O 1916   0.400   4.446  11.268 -0.2072 -0.0287  0.6997
  123TMC2     H 1917   0.475   4.695  11.311 -0.1466 -0.9314 -0.4181
  123TMC2    H1 1918   0.402   4.602  10.923  2.9938 -3.2316 -1.2333
  123TMC2    H2 1919   0.724   0.142  11.012 -2.5062  1.2036 -1.6472
  123TMC2    C7 1920   0.638   4.671  10.832 -0.5118  0.3616  0.5609
  123TMC2    C8 1921   0.684   0.132  11.269 -0.1360 -0.3113  0.0584
  123TMC2    O1 1922   0.601   4.557  10.801 -0.0329  0.3606 -0.2805
  123TMC2    O2 1923   0.733   0.240  11.263 -0.0473 -0.1123 -0.4227
  123TMC2    O5 1924   0.719   0.041  11.374  0.3130 -0.2290 -0.1543
  123TMC2    H5 1925   0.691   4.683  11.375  1.8059 -0.6899 -1.0923
  124MPD2     C 1926   0.369   4.001  10.979 -0.3017 -0.2918  0.3086
  124MPD2    C1 1927   0.408   4.078  10.874 -0.2389  0.2696 -0.3016
  124MPD2    C2 1928   0.439   4.210  10.899  0.5947  0.2758 -1.2143
  124MPD2    C3 1929   0.431   4.261  11.025 -0.0809 -0.3644 -0.2964
  124MPD2    C4 1930   0.391   4.186  11.130 -0.3880 -0.0703 -0.6215
  124MPD2    C5 1931   0.363   4.056  11.109 -0.1081  0.5559 -0.3624
  124MPD2     H 1932   0.471   4.278  10.820 -2.5015  0.4258 -2.3159
  124MPD2    H1 1933   0.378   4.230  11.228 -2.5763 -2.0147 -0.0148
  124MPD2    H2 1934   0.346   3.895  10.970  1.8475 -0.8619  1.5540
  124MPD2    H3 1935   0.337   3.989  11.190  1.9739  1.0666  0.7156
  124MPD2     N 1936   0.457   4.399  11.039  0.1078 -0.1188 -0.2180
  124MPD2    H5 1937   0.490   4.447  10.956 -1.1946 -0.6815 -1.0686
  124MPD2    N1 1938   0.418   4.015  10.750  0.2353  0.0289 -0.1528
  124MPD2    H7 1939   0.399   3.916  10.738  1.8672 -0.1869 -0.9674
  125TMC2    C1 1940   0.766   2.473   9.575  0.5464  0.7681 -0.2470
  125TMC2    C2 1941   0.651   2.512   9.629 -0.1347  0.2465 -0.0674
  125TMC2    C3 1942   0.621   2.468   9.753  0.2255  0.1766 -0.3671
  125TMC2    C4 1943   0.849   2.387   9.643  0.4266  0.6908  0.6790
  125TMC2    C5 1944   0.814   2.350   9.771  1.0191  0.2672  0.7980
  125TMC2    C6 1945   0.698   2.395   9.831 -0.2896 -0.4463  0.2425
  125TMC2     C 1946   0.806   2.531   9.444  0.5050 -1.3913 -0.3746
  125TMC2     O 1947   0.733   2.611   9.385  0.1584  0.5408  0.0092
  125TMC2     H 1948   0.591   2.583   9.573 -0.9661 -0.3174  0.1102
  125TMC2    H1 1949   0.947   2.360   9.604 -0.5675 -2.1355  0.1448
  125TMC2    H2 1950   0.678   2.364   9.933  0.0311  1.4047  0.8790
  125TMC2    C7 1951   0.900   2.260   9.855 -0.4325  1.0122 -0.3263
  125TMC2    C8 1952   0.508   2.532   9.819 -0.8291  0.5708  0.2548
  125TMC2    O1 1953   0.853   2.237   9.964  0.1435  0.5818 -0.3195
  125TMC2    O2 1954   0.502   2.546   9.943 -1.3700  0.5711 -0.6068
  125TMC2    O5 1955   0.401   2.515   9.728 -0.2317 -0.5856  0.3289
  125TMC2    H5 1956   0.422   2.480   9.639 -2.9341 -0.7484 -0.2516
  126MPD1     C 1957   1.144   2.632   9.068  0.4394 -0.1832 -0.0815
  126MPD1    C1 1958   1.193   2.526   9.139 -0.3487  0.7501 -1.0873
  126MPD1    C2 1959   1.113   2.476   9.237 -0.6494 -0.2593 -0.0331
  126MPD1    C3 1960   0.997   2.538   9.277  0.8588 -0.7337  0.4053
  126MPD1    C4 1961   0.957   2.656   9.208  0.6957 -0.0582 -0.4353
  126MPD1    C5 1962   1.025   2.691   9.095 -0.2924 -0.9791 -0.4959
  126MPD1     H 1963   1.140   2.389   9.296  1.1600 -0.1066 -0.6416
  126MPD1    H1 1964   0.876   2.715   9.248  1.0299  1.0449 -1.3775
  126MPD1    H2 1965   1.186   2.658   8.971  1.0317 -3.2118 -0.6213
  126MPD1    H3 1966   0.988   2.769   9.030 -0.2615 -0.8294 -0.3335
  126MPD1     N 1967   0.926   2.485   9.395  0.3436 -0.8731 -0.0245
  126MPD1    H5 1968   0.970   2.408   9.445  0.3624 -0.0917  1.1506
  126MPD1    N1 1969   1.294   2.443   9.090 -0.6484 -0.1972 -0.3572
  126MPD1    H6 1970   1.337   2.395   9.169 -1.0945 -0.8953 -0.5470
  126MPD1    H7 1971   1.371   2.495   9.048 -2.0628  1.8246 -0.4874
  127TMC2    C1 1972   2.558   0.304   9.842  0.0159  0.8403  0.7301
  127TMC2    C2 1973   2.654   0.277   9.939 -0.3631 -0.4882 -0.3413
  127TMC2    C3 1974   2.622   0.180  10.034 -0.4057 -0.4072 -0.1503
  127TMC2    C4 1975   2.434   0.252   9.847  0.0258  0.7075 -0.4447
  127TMC2    C5 1976   2.406   0.161   9.944 -0.6552  0.5872  0.5617
  127TMC2    C6 1977   2.499   0.118  10.038 -0.1415  0.0898 -0.4786
  127TMC2     C 1978   2.579   0.421   9.759 -0.3583  0.0697 -0.9240
  127TMC2     O 1979   2.480   0.459   9.697 -0.0007 -0.4839  0.8061
  127TMC2     H 1980   2.749   0.329   9.947  0.1784 -1.1578 -2.4202
  127TMC2    H1 1981   2.359   0.292   9.780  0.8375 -0.8114 -2.2696
  127TMC2    H2 1982   2.478   0.055  10.124  4.0841 -1.2644 -0.4735
  127TMC2    C7 1983   2.274   0.109   9.963 -0.5020 -0.3886 -0.2331
  127TMC2    C8 1984   2.702   0.179  10.146 -0.7453 -0.7598  0.2138
  127TMC2    O1 1985   2.191   0.157   9.886  0.3403  0.3424 -0.5007
  127TMC2    O2 1986   2.820   0.197  10.142 -0.8811  0.1429  0.0858
  127TMC2    O5 1987   2.627   0.221  10.247 -0.2102 -0.3140 -0.5508
  127TMC2    H5 1988   2.534   0.243  10.226  0.7320  3.6369 -0.4604
  128MPD2     C 1989   2.886   0.530   9.577  0.8020 -0.1162 -0.5048
  128MPD2    C1 1990   2.754   0.532   9.619  0.6017  0.7078 -0.3885
  128MPD2    C2 1991   2.671   0.631   9.561 -0.0558  0.1690  0.1253
  128MPD2    C3 1992   2.730   0.731   9.482 -0.1972 -0.2630 -0.1209
  128MPD2    C4 1993   2.861   0.723   9.452 -0.6457 -0.0220 -0.3282
  128MPD2    C5 1994   2.938   0.623   9.503 -0.2305  0.0060 -0.3224
  128MPD2     H 1995   2.565   0.646   9.582  0.5702  0.2672  3.2585
  128MPD2    H1 1996   2.902   0.810   9.401  4.1379 -2.1639 -0.1857
  128MPD2    H2 1997   2.958   0.455   9.609  0.9050 -0.3562 -1.2905
  128MPD2    H3 1998   3.042   0.600   9.481 -0.3490 -2.0671  1.3311
  128MPD2     N 1999   2.643   0.825   9.424 -0.0035  0.1191  0.0809
  128MPD2    H5 2000   2.553   0.816   9.470  0.1514 -1.4097  0.0552
  128MPD2    N1 2001   2.711   0.431   9.707  0.3699 -0.0065 -0.4625
  128MPD2    H7 2002   2.789   0.381   9.749 -1.1191 -3.4183 -1.7280
  129TMC2    C1 2003   2.163   0.209   1.353  0.7114 -0.0765 -0.0517
  129TMC2    C2 2004   2.273   0.127   1.370 -0.1757 -0.1570 -0.5651
  129TMC2    C3 2005   2.249   4.731   1.364 -0.1872  0.5990  0.7533
  129TMC2    C4 2006   2.042   0.163   1.323 -0.7227 -0.0599  0.1722
  129TMC2    C5 2007   2.025   0.029   1.333  0.9900  0.9251  0.2847
  129TMC2    C6 2008   2.128   4.676   1.349 -0.0795 -0.6158  0.2217
  129TMC2     C 2009   2.197   0.346   1.317 -0.3101 -0.5166  0.1902
  129TMC2     O 2010   2.302   0.351   1.260  0.5264  0.2960  0.1043
  129TMC2     H 2011   2.371   0.173   1.367  1.1961 -2.9690  0.5628
  129TMC2    H1 2012   1.964   0.232   1.294 -0.6216  0.4120  1.0245
  129TMC2    H2 2013   2.106   4.572   1.369  1.5617 -0.9227  0.3872
  129TMC2    C7 2014   1.898   4.710   1.307 -0.3383  0.7175  0.0692
  129TMC2    C8 2015   2.363   4.642   1.359  0.3372 -0.4114  0.4115
  129TMC2    O1 2016   1.805   0.049   1.310 -0.3283 -0.2514  0.2329
  129TMC2    O2 2017   2.357   4.531   1.306  0.0361  0.5754  0.1448
  129TMC2    O5 2018   2.449   4.678   1.454 -0.4470  0.2450  0.3086
  129TMC2    H5 2019   2.397   4.731   1.518  1.4394  0.7572  1.4011
  130MPD2     C 2020   2.226   0.631   1.271  0.3346 -0.0637 -0.3084
  130MPD2    C1 2021   2.111   0.576   1.321 -0.3669 -0.0302  0.0334
  130MPD2    C2 2022   2.002   0.665   1.334  0.7820 -0.4304  0.3967
  130MPD2    C3 2023   2.009   0.804   1.313 -0.3977 -0.1889 -0.0002
  130MPD2    C4 2024   2.131   0.849   1.260  0.4405  0.2639 -0.0570
  130MPD2    C5 2025   2.236   0.765   1.242 -0.2058 -0.4541  0.3145
  130MPD2     H 2026   1.907   0.623   1.362  1.1379 -1.8299 -0.5394
  130MPD2    H1 2027   2.160   0.950   1.233  3.0604 -0.7392 -1.0161
  130MPD2    H2 2028   2.319   0.576   1.260 -0.7165 -1.8825 -0.1831
  130MPD2    H3 2029   2.324   0.810   1.197  0.1242 -1.1909  0.2135
  130MPD2     N 2030   1.897   0.887   1.338 -0.4799  0.0591  0.3526
  130MPD2    H5 2031   1.815   0.843   1.380 -0.5412  3.0547  3.4036
  130MPD2    N1 2032   2.103   0.440   1.350 -0.5540  0.3140 -0.4075
  130MPD2    H7 2033   2.018   0.410   1.397  0.1874 -0.7483  0.2509
  131TMC2    C1 2034   0.800   0.098  10.187 -0.2649 -0.6821  0.5707
  131TMC2    C2 2035   0.817   0.176  10.305 -0.4320 -0.1562 -0.1969
  131TMC2    C3 2036   0.836   0.310  10.298 -0.0832 -0.0470  0.1438
  131TMC2    C4 2037   0.822   0.160  10.066  0.1516  0.1889  0.0655
  131TMC2    C5 2038   0.827   0.296  10.068  0.0599 -0.4234  0.0350
  131TMC2    C6 2039   0.835   0.377  10.182 -0.3164 -0.4952  0.1642
  131TMC2     C 2040   0.733   4.700  10.194 -0.2519  0.3308 -0.5248
  131TMC2     O 2041   0.676   4.668  10.297  0.4459  0.6362  0.3293
  131TMC2     H 2042   0.827   0.130  10.402 -1.2024 -0.0418 -0.0638
  131TMC2    H1 2043   0.830   0.101   9.976 -2.1967  1.8147 -1.2233
  131TMC2    H2 2044   0.850   0.484  10.175 -3.4368  0.0595  1.7996
  131TMC2    C7 2045   0.891   0.350   9.946  0.0958  0.3485  0.0462
  131TMC2    C8 2046   0.857   0.385  10.418  0.5140  0.2458  0.2025
  131TMC2    O1 2047   0.955   0.272   9.875 -0.3837  0.3018  0.2153
  131TMC2    O2 2048   0.819   0.360  10.530 -0.3902 -0.0031 -0.1909
  131TMC2    O5 2049   0.956   0.468  10.374 -0.2785 -0.1226 -0.2248
  131TMC2    H5 2050   0.988   0.454  10.283  2.1348 -1.2933  0.7926
  132MPD2     C 2051   0.728   4.460   9.905  1.0461 -0.3503  0.1872
  132MPD2    C1 2052   0.698   4.502  10.034  0.3129  0.3660  0.0995
  132MPD2    C2 2053   0.622   4.420  10.121 -0.6626 -0.2469 -0.3584
  132MPD2    C3 2054   0.573   4.297  10.082  0.4949 -0.4365  0.0883
  132MPD2    C4 2055   0.623   4.249   9.963 -0.8245 -0.7636 -0.3326
  132MPD2    C5 2056   0.696   4.334   9.878  0.4978 -0.1198 -0.1477
  132MPD2     H 2057   0.585   4.460  10.214  1.6208  0.8864  0.0675
  132MPD2    H1 2058   0.590   4.151   9.931  0.5915 -1.1203 -0.7235
  132MPD2    H2 2059   0.789   4.512   9.832 -2.5011  0.5871 -2.1200
  132MPD2    H3 2060   0.724   4.293   9.782  0.5097 -0.5709  0.0500
  132MPD2     N 2061   0.496   4.219  10.175  0.1081  0.7686  0.1966
  132MPD2    H5 2062   0.490   4.256  10.269  2.6580  0.7408  0.3641
  132MPD2    N1 2063   0.747   4.632  10.068 -0.2267  0.0750  0.7057
  132MPD2    H7 2064   0.804   4.669   9.993 -2.3215 -0.6098 -1.2392
  133TMC2    C1 2065   4.082   3.748   9.666 -0.4433  0.0029 -0.5498
  133TMC2    C2 2066   4.112   3.613   9.659 -0.3116  0.8433 -0.4456
  133TMC2    C3 2067   4.009   3.527   9.648  0.0469  0.0883 -0.0516
  133TMC2    C4 2068   3.952   3.799   9.670  0.5326  0.3333  0.1492
  133TMC2    C5 2069   3.859   3.711   9.634 -0.2386 -0.4373 -0.0155
  133TMC2    C6 2070   3.886   3.576   9.629 -0.0525 -0.1077 -0.0626
  133TMC2     C 2071   4.189   3.848   9.684 -0.1833 -0.2294 -0.7905
  133TMC2     O 2072   4.165   3.967   9.665  0.1029  0.0280 -0.2547
  133TMC2     H 2073   4.206   3.574   9.695  0.1382  0.5358 -1.9415
  133TMC2    H1 2074   3.926   3.903   9.689  1.1957  0.6077 -0.4771
  133TMC2    H2 2075   3.814   3.511   9.580 -0.8494 -0.0126  0.9633
  133TMC2    C7 2076   3.722   3.755   9.662 -0.0662 -0.5340  0.3031
  133TMC2    C8 2077   4.027   3.396   9.599 -0.6984  0.1584 -0.2883
  133TMC2    O1 2078   3.705   3.875   9.659 -0.3219  0.3539  0.3230
  133TMC2    O2 2079   3.935   3.316   9.580  0.1027  0.6403 -0.2016
  133TMC2    O5 2080   4.144   3.393   9.532 -0.2013  0.4995 -0.4291
  133TMC2    H5 2081   4.203   3.467   9.557 -1.0178  0.7647  0.7173
  134MPD2     C 2082   4.532   3.765   9.723  0.4391  0.3458  0.6030
  134MPD2    C1 2083   4.433   3.853   9.709 -0.3102 -0.8701 -0.6941
  134MPD2    C2 2084   4.449   3.991   9.702  0.7949 -0.2653 -0.3867
  134MPD2    C3 2085   4.581   4.038   9.693  0.3080  0.7079  0.2140
  134MPD2    C4 2086   4.682   3.949   9.673 -1.0763 -0.3920 -0.2983
  134MPD2    C5 2087   4.653   3.814   9.686  0.1918  0.6819  0.1804
  134MPD2     H 2088   4.364   4.056   9.719 -0.0050 -1.0360 -1.4135
  134MPD2    H1 2089   0.045   3.988   9.654 -0.5233 -1.6059  0.0970
  134MPD2    H2 2090   4.520   3.660   9.750  2.0268  0.0682  0.2657
  134MPD2    H3 2091   0.001   3.747   9.679  0.2353  0.8786 -1.2240
  134MPD2     N 2092   4.611   4.175   9.672 -0.1074 -0.3938  0.0042
  134MPD2    H5 2093   4.711   4.190   9.678 -0.0763  0.1098 -1.8459
  134MPD2    N1 2094   4.305   3.791   9.714 -0.1463  0.1782  0.2032
  134MPD2    H7 2095   4.295   3.690   9.720 -1.9129  0.3476 -0.0098
  135TMC2    C1 2096   2.303   1.610   9.535  0.4006 -0.2912  0.1040
  135TMC2    C2 2097   2.359   1.529   9.629 -0.8222  0.1003  0.1661
  135TMC2    C3 2098   2.329   1.558   9.760  0.1069 -0.1367  0.3013
  135TMC2    C4 2099   2.224   1.718   9.574  0.0390 -0.5686  0.7900
  135TMC2    C5 2100   2.216   1.759   9.705 -0.0327 -0.2051 -0.0060
  135TMC2    C6 2101   2.270   1.678   9.802 -0.3696 -0.1826  0.0053
  135TMC2     C 2102   2.314   1.571   9.394 -0.4170  0.0161  0.3265
  135TMC2     O 2103   2.216   1.585   9.321 -0.0814 -0.1277  0.3406
  135TMC2     H 2104   2.401   1.434   9.598 -0.6616  1.1359 -2.7773
  135TMC2    H1 2105   2.174   1.777   9.498  0.0468  0.7130  1.7874
  135TMC2    H2 2106   2.256   1.699   9.907  0.3371 -0.9903  0.2522
  135TMC2    C7 2107   2.115   1.852   9.723  0.2480  0.9820 -0.5119
  135TMC2    C8 2108   2.414   1.489   9.857 -1.0536  0.5029  0.2892
  135TMC2    O1 2109   2.073   1.914   9.629 -0.4078 -0.2263  0.0621
  135TMC2    O2 2110   2.498   1.414   9.819 -0.2193 -0.4141 -0.7852
  135TMC2    O5 2111   2.361   1.477   9.984 -0.0958  0.0298 -0.1884
  135TMC2    H5 2112   2.275   1.517  10.007  0.2088  1.4809 -1.5670
  136MPD2     C 2113   2.432   1.461   9.142  0.4218 -1.0976 -0.1126
  136MPD2    C1 2114   2.494   1.455   9.261  0.7559  0.1076  0.7441
  136MPD2    C2 2115   2.614   1.392   9.272  0.4161 -0.4152  0.0300
  136MPD2    C3 2116   2.674   1.332   9.159  0.6280  0.0240 -0.1396
  136MPD2    C4 2117   2.615   1.345   9.036  0.1093  0.0841  0.7822
  136MPD2    C5 2118   2.500   1.408   9.033 -0.4928 -0.2027 -0.0674
  136MPD2     H 2119   2.664   1.390   9.368  0.7264 -1.6125 -0.1551
  136MPD2    H1 2120   2.654   1.302   8.945 -0.2706 -1.6157  1.4319
  136MPD2    H2 2121   2.331   1.499   9.130  0.5391 -0.0683  2.2807
  136MPD2    H3 2122   2.447   1.416   8.939 -0.3088  2.6447  0.0633
  136MPD2     N 2123   2.790   1.251   9.164  0.2131  0.3748 -0.4993
  136MPD2    H5 2124   2.823   1.200   9.082 -0.5066 -0.8451 -0.0327
  136MPD2    N1 2125   2.438   1.515   9.375  0.0642  0.4299 -0.1793
  136MPD2    H7 2126   2.500   1.527   9.455  1.5138 -1.8715 -0.9800
  137TMC2    C1 2127   1.606   1.382   8.976 -0.0969  0.4312 -0.5623
  137TMC2    C2 2128   1.638   1.410   8.847  0.1237 -0.9400 -0.2054
  137TMC2    C3 2129   1.560   1.480   8.772 -0.8284  0.0133  0.6135
  137TMC2    C4 2130   1.497   1.439   9.031 -0.8653 -0.5948 -0.0592
  137TMC2    C5 2131   1.418   1.514   8.949  0.0002  0.4971  0.3080
  137TMC2    C6 2132   1.441   1.538   8.819 -0.5270 -0.4891 -0.7291
  137TMC2     C 2133   1.691   1.308   9.065  0.4755 -0.5733 -0.2070
  137TMC2     O 2134   1.729   1.373   9.160  0.5768  0.2102 -1.0385
  137TMC2     H 2135   1.731   1.370   8.810  0.3802  0.3706 -0.9421
  137TMC2    H1 2136   1.488   1.424   9.138  1.9684  3.6576  0.7448
  137TMC2    H2 2137   1.382   1.604   8.757  0.3659  1.5843  0.6191
  137TMC2    C7 2138   1.314   1.596   9.009 -0.9501 -0.4389 -0.2876
  137TMC2    C8 2139   1.595   1.515   8.635  0.3694 -1.0892 -0.4064
  137TMC2    O1 2140   1.257   1.681   8.944 -0.1456  0.2144  0.3777
  137TMC2    O2 2141   1.709   1.487   8.595  0.3697 -0.2005 -0.2057
  137TMC2    O5 2142   1.486   1.526   8.551  0.0450 -0.9180 -0.0337
  137TMC2    H5 2143   1.398   1.516   8.593  0.3631 -3.1813  0.0757
  138MPD2     C 2144   1.845   0.982   9.040  0.6820 -0.2251 -0.0211
  138MPD2    C1 2145   1.813   1.103   9.101  0.1555  0.2181 -0.1454
  138MPD2    C2 2146   1.842   1.114   9.238 -0.4738  0.2839  0.5817
  138MPD2    C3 2147   1.911   1.011   9.298  0.2617 -0.4291  0.2670
  138MPD2    C4 2148   1.959   0.904   9.224 -0.0790  0.1949 -0.1495
  138MPD2    C5 2149   1.917   0.883   9.099 -1.0104 -0.3182 -0.3666
  138MPD2     H 2150   1.800   1.202   9.285 -2.3376 -0.4284  0.2625
  138MPD2    H1 2151   2.033   0.835   9.262 -1.5661 -0.9359  0.6703
  138MPD2    H2 2152   1.814   0.960   8.939  0.9872  0.8627 -0.3486
  138MPD2    H3 2153   1.952   0.797   9.043 -1.0707 -0.3095 -0.4172
  138MPD2     N 2154   1.916   1.024   9.435  0.3642  0.2553 -0.0406
  138MPD2    H5 2155   1.865   1.103   9.474  0.0679  0.8456 -1.6316
  138MPD2    N1 2156   1.729   1.185   9.023 -0.5707  0.0417 -0.2359
  138MPD2    H7 2157   1.691   1.158   8.933 -2.4144  2.3819 -0.1671
  139TMC2    C1 2158   2.852   3.512  13.102 -0.0367  0.0358  0.6829
  139TMC2    C2 2159   2.887   3.544  12.972  0.0644  0.0762 -0.5709
  139TMC2    C3 2160   2.879   3.669  12.931  0.0794 -0.2878  0.0976
  139TMC2    C4 2161   2.800   3.609  13.182 -0.2087 -0.0150  0.3645
  139TMC2    C5 2162   2.771   3.728  13.123 -0.2551 -0.3963  0.5580
  139TMC2    C6 2163   2.814   3.763  12.997  0.1489 -0.4142  0.6015
  139TMC2     C 2164   2.875   3.378  13.147  0.2581  0.2801  0.1852
  139TMC2     O 2165   2.874   3.291  13.059  0.1708  0.0970  0.2127
  139TMC2     H 2166   2.929   3.470  12.904  2.1164  2.6457 -2.0858
  139TMC2    H1 2167   2.795   3.592  13.289  0.6100 -0.5497  0.3232
  139TMC2    H2 2168   2.791   3.856  12.947  1.2997 -1.3002 -1.5847
  139TMC2    C7 2169   2.734   3.839  13.209  0.0539 -1.0741 -0.8569
  139TMC2    C8 2170   2.915   3.701  12.791 -0.1327 -0.0781 -0.2747
  139TMC2    O1 2171   2.775   3.952  13.176 -0.2817 -0.1622  0.8672
  139TMC2    O2 2172   2.905   3.625  12.697 -0.0355 -0.6276 -0.6278
  139TMC2    O5 2173   2.989   3.812  12.796  0.3488 -0.3367 -0.3407
  139TMC2    H5 2174   2.997   3.853  12.884 -1.2285  0.8756 -0.7626
  140MPD2     C 2175   2.880   3.261  13.487 -0.0525  0.8661 -0.6390
  140MPD2    C1 2176   2.880   3.240  13.352  0.1644 -0.1911 -0.2741
  140MPD2    C2 2177   2.885   3.117  13.303  0.4815  0.4149 -1.0030
  140MPD2    C3 2178   2.900   3.010  13.390  0.6104  0.3675  0.1067
  140MPD2    C4 2179   2.892   3.035  13.524 -0.0847  0.4645  0.1579
  140MPD2    C5 2180   2.878   3.160  13.574  0.5361  0.3300  0.1874
  140MPD2     H 2181   2.869   3.092  13.199 -0.4112  1.4399 -1.1003
  140MPD2    H1 2182   2.905   2.956  13.597 -1.3868  0.7698  0.7118
  140MPD2    H2 2183   2.866   3.362  13.523  0.7660 -0.0904  2.3573
  140MPD2    H3 2184   2.876   3.170  13.682 -1.5630 -2.1704  0.3966
  140MPD2     N 2185   2.914   2.885  13.331 -0.0091 -0.3352  0.4043
  140MPD2    H5 2186   2.906   2.882  13.230 -0.3810  3.3033  0.3348
  140MPD2    N1 2187   2.879   3.361  13.284  0.1492 -0.0913 -0.0876
  140MPD2    H7 2188   2.902   3.445  13.337  0.9534 -1.6339  1.9788
  141TMC2    C1 2189   3.621   0.569  14.065 -0.3058  0.3451 -0.5716
  141TMC2    C2 2190   3.513   0.624  14.131  0.0765 -0.1251 -0.1838
  141TMC2    C3 2191   3.539   0.706  14.242 -0.1216 -0.3444 -0.2495
  141TMC2    C4 2192   3.750   0.596  14.104 -0.2502  0.0713  0.7172
  141TMC2    C5 2193   3.773   0.677  14.211  0.1851 -0.6477 -0.3514
  141TMC2    C6 2194   3.669   0.728  14.290  0.2705  0.4178 -0.1788
  141TMC2     C 2195   3.597   0.487  13.950  0.4899 -0.1007  0.5226
  141TMC2     O 2196   3.476   0.478  13.928  0.3316 -0.1955  0.1007
  141TMC2     H 2197   3.413   0.615  14.090 -0.3831  1.7052  0.5376
  141TMC2    H1 2198   3.836   0.564  14.045 -1.8151 -0.6639 -1.1490
  141TMC2    H2 2199   3.695   0.791  14.374  2.3522  1.6594 -1.7455
  141TMC2    C7 2200   3.915   0.706  14.235 -0.1000  0.0331  0.4090
  141TMC2    C8 2201   3.438   0.744  14.336  0.3239 -0.5011  0.0611
  141TMC2    O1 2202   3.991   0.729  14.142 -0.3523 -0.0398  0.4971
  141TMC2    O2 2203   3.456   0.717  14.452  0.2812  0.3670  0.2652
  141TMC2    O5 2204   3.320   0.703  14.281  0.0117  0.3064  0.1832
  141TMC2    H5 2205   3.302   0.746  14.195  1.1615  0.5486  0.0547
  142TMC2    C1 2206   0.847   4.023  10.275  0.1221  0.7241 -0.0216
  142TMC2    C2 2207   0.879   4.054  10.146 -0.0926 -0.1860  0.0123
  142TMC2    C3 2208   0.932   4.178  10.125 -0.2850  0.3617  0.2179
  142TMC2    C4 2209   0.833   4.121  10.369 -0.3208  0.2306  0.3288
  142TMC2    C5 2210   0.873   4.245  10.336  0.0910 -0.1671 -0.0715
  142TMC2    C6 2211   0.944   4.273  10.220  0.0126 -0.1020 -0.1452
  142TMC2     C 2212   0.766   3.910  10.282  0.1169  0.2201  0.1581
  142TMC2     O 2213   0.721   3.865  10.176 -0.0190  0.9738 -0.3281
  142TMC2     H 2214   0.873   3.982  10.066 -1.2055 -0.5800  0.4544
  142TMC2    H1 2215   0.787   4.105  10.466  0.8202 -0.6858  0.7157
  142TMC2    H2 2216   0.956   4.379  10.199  0.6179 -0.8047 -3.2811
  142TMC2    C7 2217   0.854   4.342  10.441 -0.0012  0.6103 -0.5074
  142TMC2    C8 2218   1.015   4.179  10.008  0.3650 -0.1178 -0.4728
  142TMC2    O1 2219   0.764   4.327  10.521  0.4327 -0.1752 -0.6214
  142TMC2    O2 2220   0.976   4.132   9.900 -0.3511  0.4285  0.4552
  142TMC2    O5 2221   1.118   4.265  10.032 -0.0336  0.2967  0.0863
  142TMC2    H5 2222   1.121   4.283  10.129  3.1418  0.5280 -0.0858
  143MPD2     C 2223   0.497   3.575  10.581  0.1535 -0.3531  0.4052
  143MPD2    C1 2224   0.504   3.587  10.437 -0.1805  0.1736 -0.2301
  143MPD2    C2 2225   0.588   3.680  10.377  0.0811 -0.0808 -0.4837
  143MPD2    C3 2226   0.663   3.764  10.461 -0.0569 -0.3995 -0.1411
  143MPD2    C4 2227   0.652   3.745  10.598 -0.1306 -0.5496 -0.3853
  143MPD2    C5 2228   0.566   3.663  10.661 -0.1712  0.0430 -0.3033
  143MPD2     H 2229   0.596   3.682  10.269  1.9907  0.3951 -0.3312
  143MPD2    H1 2230   0.706   3.817  10.659 -2.4361  0.6089  0.2767
  143MPD2    H2 2231   0.425   3.511  10.632 -1.3794  2.9384  2.4081
  143MPD2    H3 2232   0.556   3.669  10.768  1.7026 -0.1034 -0.1335
  143MPD2     N 2233   0.748   3.869  10.413 -0.1995 -0.1667  0.3220
  143MPD2    H5 2234   0.809   3.913  10.482 -0.1410 -1.2702  0.9730
  143MPD2    N1 2235   0.436   3.486  10.372 -0.1323  0.3004  0.6331
  143MPD2    H7 2236   0.403   3.410  10.430 -0.4360  0.6507  0.9215
  144TMC2    C1 2237   3.540   3.071   0.639 -0.6391 -0.0438  0.1163
  144TMC2    C2 2238   3.632   3.045   0.544  0.1878  0.4918  0.4261
  144TMC2    C3 2239   3.767   3.049   0.578 -0.1693  0.5759 -0.3303
  144TMC2    C4 2240   3.573   3.086   0.771  0.4368  0.7529  0.3170
  144TMC2    C5 2241   3.701   3.090   0.798 -0.4160  0.2030  0.0852
  144TMC2    C6 2242   3.809   3.070   0.706  0.3518 -0.2735 -0.0568
  144TMC2     C 2243   3.403   3.049   0.601  0.1174  0.5024 -0.4583
  144TMC2     O 2244   3.379   3.094   0.492  0.5941 -0.7306 -0.2703
  144TMC2     H 2245   3.592   3.001   0.453 -1.0922 -1.6570  2.0282
  144TMC2    H1 2246   3.503   3.098   0.852  0.7166 -2.7934  1.0756
  144TMC2    H2 2247   3.912   3.065   0.740  0.5363  2.5022 -0.2034
  144TMC2    C7 2248   3.745   3.095   0.932  1.2482 -0.0644  0.6311
  144TMC2    C8 2249   3.863   2.988   0.483  0.1829 -0.2100  0.5469
  144TMC2    O1 2250   3.848   3.043   0.962  0.0640  0.0782  0.5645
  144TMC2    O2 2251   3.824   2.893   0.413  0.5125  0.5176 -0.8701
  144TMC2    O5 2252   3.935   3.092   0.435  0.0417 -0.4891 -0.0065
  144TMC2    H5 2253   3.933   3.169   0.495 -1.3917 -1.3957  1.0854
  145MPD2     C 2254   3.007   2.745   0.549  0.8026 -0.8578 -0.0937
  145MPD2    C1 2255   3.056   2.852   0.474  0.7603 -0.0327  0.2992
  145MPD2    C2 2256   3.153   2.930   0.525  1.0966  0.2459  0.1309
  145MPD2    C3 2257   3.222   2.893   0.640  0.5580  1.6336 -0.0910
  145MPD2    C4 2258   3.175   2.791   0.715 -0.1215  0.2054 -0.6298
  145MPD2    C5 2259   3.056   2.726   0.676 -0.0975 -0.1423 -0.3082
  145MPD2     H 2260   3.181   3.009   0.457 -0.1293  1.6238  1.2164
  145MPD2    H1 2261   3.210   2.760   0.812 -2.7863 -0.1766  0.1751
  145MPD2    H2 2262   2.933   2.674   0.514  0.0504 -1.1817  2.1880
  145MPD2    H3 2263   3.016   2.641   0.729  1.7862 -1.6542 -1.3369
  145MPD2     N 2264   3.341   2.957   0.681  0.2957  0.2038  0.1520
  145MPD2    H5 2265   3.385   2.928   0.768  1.7799  0.0251 -0.6616
  145MPD2    N1 2266   3.023   2.872   0.338 -0.1184  0.5471  0.3404
  145MPD2    H7 2267   3.062   2.954   0.293  0.8625  0.3852  0.8828
  146TMC2    C1 2268   1.998   1.340  13.325 -0.4819  0.1441 -0.2972
  146TMC2    C2 2269   2.091   1.425  13.260 -0.5356  0.9813  0.3151
  146TMC2    C3 2270   2.222   1.405  13.285 -0.1972  0.9549  0.0539
  146TMC2    C4 2271   2.043   1.240  13.405 -0.3580  0.7207 -0.2977
  146TMC2    C5 2272   2.177   1.216  13.413 -0.0457 -0.5310  0.1623
  146TMC2    C6 2273   2.267   1.298  13.356  0.1676 -0.1356 -0.4717
  146TMC2     C 2274   1.868   1.338  13.262 -0.3412 -0.5485 -1.0118
  146TMC2     O 2275   1.862   1.411  13.164 -0.2160 -0.1474  0.1498
  146TMC2     H 2276   2.052   1.505  13.198  0.5124  2.2184  1.2497
  146TMC2    H1 2277   1.970   1.166  13.435  2.0773 -1.5679  0.0499
  146TMC2    H2 2278   2.371   1.273  13.370 -0.1725 -0.7695  0.9076
  146TMC2    C7 2279   2.218   1.109  13.502  0.2460 -0.2088  0.2559
  146TMC2    C8 2280   2.321   1.491  13.216 -0.2011  0.2723 -0.1451
  146TMC2    O1 2281   2.304   1.035  13.469 -0.4400 -0.2007  0.1414
  146TMC2    O2 2282   2.292   1.568  13.122 -0.1713 -0.3215  0.8186
  146TMC2    O5 2283   2.419   1.521  13.302 -0.0477  0.2670 -0.1209
  146TMC2    H5 2284   2.410   1.486  13.394  0.6554 -0.2931 -0.2664
  147MPD2     C 2285   2.064   0.739  13.813  0.5786  0.5338  0.4273
  147MPD2    C1 2286   1.964   0.833  13.805 -0.3907 -0.2643  0.3500
  147MPD2    C2 2287   1.997   0.953  13.737  0.2385 -0.2482  0.4720
  147MPD2    C3 2288   2.117   0.978  13.683 -0.1323  0.0166  0.3133
  147MPD2    C4 2289   2.213   0.887  13.700 -0.5408 -0.0376  0.0912
  147MPD2    C5 2290   2.184   0.776  13.761  0.0773 -0.7867  0.5330
  147MPD2     H 2291   1.928   1.033  13.714 -1.5442 -1.2924  2.1482
  147MPD2    H1 2292   2.313   0.890  13.658  0.0211  0.3039  1.4401
  147MPD2    H2 2293   2.045   0.644  13.861  0.5954 -0.8340 -2.2422
  147MPD2    H3 2294   2.267   0.707  13.769 -0.3305 -1.2389  0.8690
  147MPD2     N 2295   2.131   1.088  13.604 -0.0863  0.1874 -0.0280
  147MPD2    H5 2296   2.051   1.151  13.608  1.1134  1.6307  1.3069
  147MPD2    N1 2297   1.836   0.804  13.855 -0.0363 -0.1244 -0.5751
  147MPD2    H7 2298   1.811   0.707  13.871 -0.6695  0.5417  2.4862
  148TMC2    C1 2299   0.145   0.457  10.422 -0.5101 -0.9305 -0.1306
  148TMC2    C2 2300   0.258   0.519  10.450  0.1568  0.4319 -0.5564
  148TMC2    C3 2301   0.324   0.484  10.563  0.2111 -0.4420  0.7507
  148TMC2    C4 2302   0.094   0.369  10.516 -0.1126  0.2105  0.4042
  148TMC2    C5 2303   0.162   0.353  10.635  0.4487  0.1522 -0.0183
  148TMC2    C6 2304   0.283   0.405  10.661 -0.3865 -0.3622 -0.8586
  148TMC2     C 2305   0.060   0.496  10.311  0.3006 -1.0121 -0.4941
  148TMC2     O 2306   0.082   0.606  10.264  0.4366 -0.1657 -0.0704
  148TMC2     H 2307   0.292   0.592  10.376 -0.9029  0.0273 -1.4318
  148TMC2    H1 2308   0.001   0.316  10.502  0.8365 -1.2577 -0.4070
  148TMC2    H2 2309   0.340   0.388  10.752  0.3840 -0.8580 -1.4396
  148TMC2    C7 2310   0.126   0.231  10.709  0.6280  0.1568  0.6081
  148TMC2    C8 2311   0.461   0.536  10.582  0.7076 -0.2095 -0.2318
  148TMC2    O1 2312   0.033   0.158  10.673  0.1866 -0.1638  0.1290
  148TMC2    O2 2313   0.503   0.630  10.519  0.3240 -0.1761 -0.3827
  148TMC2    O5 2314   0.532   0.425  10.610  0.1354  0.1598 -0.5413
  148TMC2    H5 2315   0.475   0.345  10.605 -0.2606  0.3393  0.8469
  149MPD2     C 2316   4.580   0.520  10.113 -0.8390 -0.1723  0.0352
  149MPD2    C1 2317   4.614   0.403  10.166 -0.8155  0.4671 -0.1451
  149MPD2    C2 2318   4.552   0.291  10.119 -0.2306 -0.0045  0.4283
  149MPD2    C3 2319   4.467   0.287  10.010 -0.1787  0.2253  0.7948
  149MPD2    C4 2320   4.459   0.404   9.942 -0.7572  0.0788  0.8080
  149MPD2    C5 2321   4.502   0.525   9.999  0.3328 -0.7836  0.6235
  149MPD2     H 2322   4.574   0.195  10.165  0.0518 -0.0050  0.2944
  149MPD2    H1 2323   4.408   0.408   9.846  0.3153 -0.4639  0.2124
  149MPD2    H2 2324   4.621   0.618  10.136 -0.0907 -0.4939  0.0785
  149MPD2    H3 2325   4.490   0.614   9.938  1.1221  0.0464  1.6657
  149MPD2     N 2326   4.410   0.166   9.950  0.5374 -0.3014  0.3155
  149MPD2    H5 2327   4.347   0.174   9.871  1.0851  1.6063  0.0647
  149MPD2    N1 2328   4.710   0.396  10.272 -0.2372  0.0281 -0.0280
  149MPD2    H7 2329   4.727   0.306  10.317 -2.5640  0.7556  2.2595
  150TMC2    C1 2330   2.438   3.956  12.136  0.4121 -0.3597 -0.0692
  150TMC2    C2 2331   2.362   4.042  12.062 -0.5110 -0.5832  0.1990
  150TMC2    C3 2332   2.424   4.163  12.028 -0.5349  0.2177  0.3504
  150TMC2    C4 2333   2.568   3.980  12.164 -0.0290 -0.3866  0.5796
  150TMC2    C5 2334   2.629   4.092  12.114 -0.6796 -0.5968 -0.3223
  150TMC2    C6 2335   2.561   4.189  12.050 -1.1501 -0.4988  0.2475
  150TMC2     C 2336   2.368   3.860  12.219 -0.1558  1.1571  0.1131
  150TMC2     O 2337   2.425   3.752  12.230  0.4074 -0.2977 -0.1470
  150TMC2     H 2338   2.266   4.011  12.022  0.6256 -0.9853 -2.2506
  150TMC2    H1 2339   2.620   3.902  12.218 -0.6328 -2.5368 -1.9400
  150TMC2    H2 2340   2.620   4.276  12.021  1.1870 -1.8288  1.0197
  150TMC2    C7 2341   2.775   4.104  12.121  0.3096 -0.0144 -0.6995
  150TMC2    C8 2342   2.349   4.260  11.958  0.2064  0.6244 -0.0634
  150TMC2    O1 2343   2.820   4.217  12.126 -0.0590  0.2037 -0.1075
  150TMC2    O2 2344   2.267   4.233  11.873 -0.7387  0.2327 -0.2370
  150TMC2    O5 2345   2.396   4.381  11.990 -0.4205  0.5586  0.2250
  150TMC2    H5 2346   2.458   4.396  12.064 -0.1225  0.3347  0.0201
  151MPD2     C 2347   1.939   3.668  12.431 -0.3029  0.5889 -0.8121
  151MPD2    C1 2348   1.907   3.790  12.383  0.3394  0.0843  1.2261
  151MPD2    C2 2349   2.011   3.868  12.331 -0.0748 -0.2810  0.3064
  151MPD2    C3 2350   2.142   3.823  12.321 -0.5105 -0.6430  0.2593
  151MPD2    C4 2351   2.170   3.695  12.372 -0.1051 -0.1042 -0.0505
  151MPD2    C5 2352   2.065   3.622  12.417  0.0760  0.9436  0.2007
  151MPD2     H 2353   1.989   3.965  12.289  2.0240 -0.4646 -1.2453
  151MPD2    H1 2354   2.259   3.635  12.358  0.0727 -0.2461  1.7034
  151MPD2    H2 2355   1.865   3.603  12.476  2.3097 -2.5352 -1.0205
  151MPD2    H3 2356   2.078   3.517  12.440 -1.2835  0.6150 -0.5847
  151MPD2     N 2357   2.244   3.897  12.256  0.1376 -0.3324  0.3991
  151MPD2    H5 2358   2.222   3.995  12.243 -0.7750 -0.4996  0.6607
  151MPD2    N1 2359   1.771   3.836  12.402 -0.1398  0.2066  0.3759
  151MPD2    H7 2360   1.710   3.759  12.428 -1.1276  1.1474  0.8317
  152TMC2    C1 2361   2.938   4.031  12.461 -0.2759 -0.1456 -0.1885
  152TMC2    C2 2362   3.020   3.925  12.476  0.0728  0.0271 -0.0428
  152TMC2    C3 2363   3.156   3.941  12.494 -0.2102  0.4608 -0.7877
  152TMC2    C4 2364   2.991   4.158  12.457 -0.4505  1.0410  1.2393
  152TMC2    C5 2365   3.128   4.167  12.479 -0.7594  0.1907  0.5785
  152TMC2    C6 2366   3.209   4.063  12.508  0.0041  0.3511 -0.3006
  152TMC2     C 2367   2.806   4.034  12.515  0.3884 -0.1247 -0.1585
  152TMC2     O 2368   2.784   4.131  12.586 -0.2615 -0.2374 -0.1039
  152TMC2     H 2369   2.989   3.822  12.484  2.5561 -0.7604 -0.7301
  152TMC2    H1 2370   2.919   4.238  12.451 -1.3199 -0.0123 -2.6806
  152TMC2    H2 2371   3.317   4.077  12.516  0.2002 -0.6269 -1.2271
  152TMC2    C7 2372   3.173   4.304  12.438  0.2229  0.1868  0.1126
  152TMC2    C8 2373   3.210   3.823  12.561 -0.2894  0.4142  0.0650
  152TMC2    O1 2374   3.103   4.354  12.351  0.1060  0.3337 -0.2140
  152TMC2    O2 2375   3.243   3.719  12.503 -0.1014  0.6311  0.4146
  152TMC2    O5 2376   3.268   3.862  12.676 -0.6484  0.1614  0.1819
  152TMC2    H5 2377   3.241   3.947  12.717 -0.0476  0.4290  0.0236
  153MPD2     C 2378   2.545   3.773  12.541 -0.2135  0.8448  0.7348
  153MPD2    C1 2379   2.600   3.898  12.529 -0.7717 -0.2360 -0.2923
  153MPD2    C2 2380   2.515   4.006  12.548  0.1769 -0.5897 -0.0741
  153MPD2    C3 2381   2.377   4.002  12.576 -0.7917  0.7968  0.1305
  153MPD2    C4 2382   2.331   3.873  12.598 -0.0116 -0.1865  0.4886
  153MPD2    C5 2383   2.414   3.760  12.580  0.3485 -0.0604 -0.1405
  153MPD2     H 2384   2.557   4.105  12.535  0.3375 -0.7536 -0.7887
  153MPD2    H1 2385   2.227   3.853  12.622 -0.5317  1.3164 -0.5256
  153MPD2    H2 2386   2.598   3.687  12.501 -0.6110  0.0647  1.9216
  153MPD2    H3 2387   2.372   3.660  12.583 -1.0053  0.5735  1.6983
  153MPD2     N 2388   2.293   4.121  12.578  0.0905  0.1178 -0.1740
  153MPD2    H5 2389   2.332   4.205  12.537  1.4777 -0.3680  0.1571
  153MPD2    N1 2390   2.732   3.920  12.489  0.0218 -0.8947  0.7824
  153MPD2    H7 2391   2.788   3.844  12.450 -3.1720 -2.2827 -1.1011
  154TMC2    C1 2392   3.957   4.096   0.585  0.5417  0.6481 -0.0965
  154TMC2    C2 2393   3.907   4.027   0.697  0.0197 -0.1158  0.3845
  154TMC2    C3 2394   3.922   3.885   0.688  0.2250 -0.3622  0.3710
  154TMC2    C4 2395   4.026   4.036   0.485 -0.2551  0.8042 -0.3233
  154TMC2    C5 2396   4.044   3.901   0.497 -0.2459 -0.9036  1.2558
  154TMC2    C6 2397   3.999   3.821   0.598  0.8697 -0.3597 -0.1925
  154TMC2     C 2398   3.896   4.223   0.556  0.0110  0.1303  0.2257
  154TMC2     O 2399   3.858   4.295   0.646  0.5748 -0.6240  0.0091
  154TMC2     H 2400   3.861   4.080   0.780  0.7417  0.2442  0.5557
  154TMC2    H1 2401   4.072   4.105   0.416 -0.3848  1.1656 -0.0519
  154TMC2    H2 2402   4.008   3.714   0.610 -0.2243 -0.3460  0.7670
  154TMC2    C7 2403   4.166   3.840   0.438 -0.3525 -0.5843  0.1627
  154TMC2    C8 2404   3.904   3.804   0.806 -0.3708  0.2849  0.2511
  154TMC2    O1 2405   4.210   3.733   0.479 -0.3050 -0.6568  0.3300
  154TMC2    O2 2406   3.892   3.681   0.792  0.1399  0.6675 -0.0741
  154TMC2    O5 2407   3.957   3.868   0.911  0.2963  0.1238  0.1694
  154TMC2    H5 2408   3.971   3.964   0.904  0.8747  0.1118  1.0648
  155MPD2     C 2409   3.842   4.342   0.200  0.5353 -0.5253 -0.3853
  155MPD2    C1 2410   3.846   4.349   0.338 -0.3748 -0.0918 -0.2256
  155MPD2    C2 2411   3.843   4.474   0.402  0.1950 -0.7487 -0.4326
  155MPD2    C3 2412   3.845   4.585   0.330  0.0323 -0.0884  0.5790
  155MPD2    C4 2413   3.821   4.585   0.193  0.7778  0.6434 -0.3981
  155MPD2    C5 2414   3.821   4.461   0.131  0.3729  0.8944  0.3235
  155MPD2     H 2415   3.843   4.483   0.510 -1.8286  0.3757 -0.5342
  155MPD2    H1 2416   3.811   4.673   0.131  0.2751  1.4427  0.8333
  155MPD2    H2 2417   3.866   4.256   0.139 -0.7063 -1.6812  0.7399
  155MPD2    H3 2418   3.814   4.452   0.023  2.4227  3.4055 -0.0054
  155MPD2     N 2419   3.854   4.708   0.397  0.3994 -0.1759  0.0176
  155MPD2    H5 2420   3.843   4.704   0.498  1.7460 -2.7677  0.0679
  155MPD2    N1 2421   3.873   4.229   0.414  0.4200  0.2461 -0.0368
  155MPD2    H7 2422   3.879   4.138   0.369  2.0471  0.5873 -0.5188
  156TMC2    C1 2423   2.641   1.453  11.357 -0.1850 -0.1087 -0.2077
  156TMC2    C2 2424   2.594   1.365  11.269 -0.0725  1.2792 -0.5014
  156TMC2    C3 2425   2.553   1.414  11.151 -0.2683  0.0374 -0.3823
  156TMC2    C4 2426   2.645   1.589  11.339  0.6631  0.1522 -1.0514
  156TMC2    C5 2427   2.601   1.636  11.220  0.2580  0.0376  0.4062
  156TMC2    C6 2428   2.556   1.547  11.121 -0.5407  0.4415  0.6348
  156TMC2     C 2429   2.621   1.426  11.499  0.9321 -0.4793 -0.7266
  156TMC2     O 2430   2.602   1.532  11.564  0.5116 -0.6403  0.3117
  156TMC2     H 2431   2.584   1.262  11.299  0.3754  1.2844 -0.3385
  156TMC2    H1 2432   2.702   1.649  11.408  2.4946  0.4415 -2.8387
  156TMC2    H2 2433   2.534   1.580  11.020 -0.9534 -0.6896  0.3526
  156TMC2    C7 2434   2.528   1.763  11.223 -0.7650  0.7468  0.3655
  156TMC2    C8 2435   2.471   1.324  11.072  0.0098  0.3239  0.0071
  156TMC2    O1 2436   2.514   1.824  11.119  0.4769  0.0310  0.1488
  156TMC2    O2 2437   2.386   1.253  11.121  0.3269 -0.0709  0.4711
  156TMC2    O5 2438   2.477   1.356  10.941 -0.4869 -0.3031  0.0989
  156TMC2    H5 2439   2.543   1.426  10.920  0.1305 -1.6260 -2.3967
  157MPD2     C 2440   2.712   1.135  11.713 -0.9205  0.0786  0.1584
  157MPD2    C1 2441   2.675   1.265  11.683 -0.8599  0.6071  0.8102
  157MPD2    C2 2442   2.665   1.348  11.792 -0.3428  0.6032 -0.9527
  157MPD2    C3 2443   2.704   1.309  11.920 -0.1851  0.1126 -0.4438
  157MPD2    C4 2444   2.726   1.174  11.944 -0.0605 -0.4810  0.0030
  157MPD2    C5 2445   2.732   1.088  11.837  0.2572 -0.3531  0.0196
  157MPD2     H 2446   2.646   1.455  11.786 -2.9611  0.0188 -2.8152
  157MPD2    H1 2447   2.741   1.131  12.042  1.2322 -2.4112 -1.0564
  157MPD2    H2 2448   2.713   1.060  11.635 -2.0081  2.0876 -1.7851
  157MPD2    H3 2449   2.763   0.985  11.847 -3.4896 -1.4733  0.0785
  157MPD2     N 2450   2.708   1.413  12.014 -0.9821  0.2551 -0.2825
  157MPD2    H5 2451   2.698   1.508  11.980  0.2428  0.2482 -0.6596
  157MPD2    N1 2452   2.658   1.304  11.545  0.0458  0.4307  0.3345
  157MPD2    H7 2453   2.684   1.232  11.478 -3.3101 -0.4618 -0.0130
  158TMC2    C1 2454   3.867   4.674  13.969 -0.1634 -0.4961  0.2263
  158TMC2    C2 2455   3.973   4.593  13.989 -0.4274 -0.2270  0.1008
  158TMC2    C3 2456   3.981   4.477  13.920  0.3239 -0.1393 -0.1790
  158TMC2    C4 2457   3.766   4.650  13.870  0.1223  0.2743  0.4447
  158TMC2    C5 2458   3.791   4.540  13.790  0.5264  0.3574 -0.9977
  158TMC2    C6 2459   3.899   4.455  13.812 -0.1525 -0.2452 -0.1857
  158TMC2     C 2460   3.848   0.041  14.066  0.2227 -0.0930 -0.5696
  158TMC2     O 2461   3.946   0.103  14.092  0.3001  0.2013  0.0070
  158TMC2     H 2462   4.031   4.604  14.080 -0.8582 -2.5741  0.6663
  158TMC2    H1 2463   3.704   4.733  13.838  0.8140  0.0611 -1.4801
  158TMC2    H2 2464   3.902   4.366  13.750  0.8949 -2.0707  2.5391
  158TMC2    C7 2465   3.726   4.544  13.658 -0.1320 -0.4668 -0.1726
  158TMC2    C8 2466   4.069   4.369  13.960 -0.0026 -0.2573  0.5762
  158TMC2    O1 2467   3.785   4.508  13.559 -0.4220  0.4673  0.2270
  158TMC2    O2 2468   4.190   4.376  13.981 -0.2270 -0.2097 -0.3022
  158TMC2    O5 2469   4.001   4.252  13.956  0.6808  0.0295 -0.5871
  158TMC2    H5 2470   3.904   4.265  13.960  0.5725 -0.7551 -0.6543
  159MPD2     C 2471   3.583   0.369  14.353  0.0679 -0.5394 -0.7402
  159MPD2    C1 2472   3.496   0.282  14.294  0.0799  0.0510 -0.7772
  159MPD2    C2 2473   3.540   0.179  14.207  0.6885 -0.1994 -0.4547
  159MPD2    C3 2474   3.673   0.166  14.182  0.9636  0.1346 -0.3879
  159MPD2    C4 2475   3.759   0.241  14.260  0.3086 -0.3997  0.0095
  159MPD2    C5 2476   3.716   0.345  14.334 -0.1549 -0.5661 -0.4312
  159MPD2     H 2477   3.468   0.112  14.161 -1.5633 -0.7079  3.7865
  159MPD2    H1 2478   3.867   0.233  14.249  0.2997 -0.0941 -0.3205
  159MPD2    H2 2479   3.551   0.446  14.422  2.8046 -1.1874  1.2682
  159MPD2    H3 2480   3.791   0.402  14.388 -0.0521 -0.2857 -0.8724
  159MPD2     N 2481   3.719   0.065  14.089  0.1485  0.8703 -0.6101
  159MPD2    H5 2482   3.651   4.735  14.053 -0.7354  2.0237 -1.0820
  159MPD2    N1 2483   3.362   0.307  14.327 -0.3884 -0.0640 -0.6459
  159MPD2    H7 2484   3.339   0.350  14.416  0.2451 -2.2912  0.5907
  160TMC2    C1 2485   2.507   3.359   0.841  0.4793 -0.6456  0.4189
  160TMC2    C2 2486   2.559   3.244   0.877 -0.1982 -0.0427 -0.2144
  160TMC2    C3 2487   2.680   3.202   0.832 -0.3738 -0.7560 -0.1949
  160TMC2    C4 2488   2.571   3.448   0.757 -0.2122  0.3438  0.2461
  160TMC2    C5 2489   2.702   3.410   0.739 -0.8581 -0.3557 -0.9770
  160TMC2    C6 2490   2.763   3.292   0.773  0.4083  0.0039  0.3164
  160TMC2     C 2491   2.362   3.366   0.847 -0.2772 -0.6168  0.2440
  160TMC2     O 2492   2.301   3.257   0.858  0.1058  0.0594 -0.8091
  160TMC2     H 2493   2.495   3.170   0.924 -0.4332 -0.2225 -0.8151
  160TMC2    H1 2494   2.522   3.529   0.705 -1.7474 -1.4132 -1.0482
  160TMC2    H2 2495   2.867   3.281   0.743  0.4504  0.7231  0.1975
  160TMC2    C7 2496   2.788   3.501   0.663  0.1880  0.3575  0.0229
  160TMC2    C8 2497   2.734   3.082   0.897 -0.0873 -0.6542 -0.7111
  160TMC2    O1 2498   2.878   3.459   0.595  0.0029  0.1373  0.0748
  160TMC2    O2 2499   2.683   3.030   0.998 -0.0473  0.1393 -0.2488
  160TMC2    O5 2500   2.833   3.032   0.823 -0.0299  0.4056 -0.2393
  160TMC2    H5 2501   2.840   3.079   0.737 -2.5624  1.5627  0.1917
  161MPD2     C 2502   2.071   3.429   0.838  0.0682  0.0399  0.2151
  161MPD2    C1 2503   2.173   3.523   0.831 -0.1304 -0.0267  0.3970
  161MPD2    C2 2504   2.137   3.660   0.808  0.1153 -0.3600  0.2052
  161MPD2    C3 2505   2.002   3.698   0.793  0.1736 -0.3151  0.1478
  161MPD2    C4 2506   1.909   3.599   0.804  0.0943  0.2119  0.0062
  161MPD2    C5 2507   1.941   3.467   0.822  0.7445  0.0016 -0.1309
  161MPD2     H 2508   2.215   3.735   0.807  0.3126 -0.5315  3.5901
  161MPD2    H1 2509   1.804   3.622   0.792  0.9222  3.8204 -0.3573
  161MPD2    H2 2510   2.091   3.323   0.854 -0.2332 -0.1562 -0.7149
  161MPD2    H3 2511   1.859   3.396   0.824  0.9198 -0.1981  0.0435
  161MPD2     N 2512   1.959   3.829   0.761 -0.0781  0.2683 -0.2849
  161MPD2    H5 2513   1.858   3.844   0.759 -0.3521 -1.4785  1.0903
  161MPD2    N1 2514   2.312   3.494   0.844 -0.2241  0.3077 -0.6392
  161MPD2    H7 2515   2.372   3.575   0.838 -0.9830  0.8254 -1.2817
  162TMC2    C1 2516   0.342   0.769   1.299 -0.1004 -0.9847 -0.0194
  162TMC2    C2 2517   0.267   0.653   1.284  0.3135 -0.1106 -0.1290
  162TMC2    C3 2518   0.306   0.550   1.360 -0.5010 -0.4022 -0.6319
  162TMC2    C4 2519   0.443   0.783   1.392  0.5225 -0.5314  0.2840
  162TMC2    C5 2520   0.489   0.671   1.449  0.7871  0.5173  0.1585
  162TMC2    C6 2521   0.416   0.552   1.443  0.7005 -0.4913 -0.3283
  162TMC2     C 2522   0.358   0.845   1.173 -0.1138 -0.4138  0.4230
  162TMC2     O 2523   0.338   0.781   1.070  0.2842  0.0344 -0.9261
  162TMC2     H 2524   0.194   0.630   1.207 -0.5463  1.7063  0.1371
  162TMC2    H1 2525   0.507   0.870   1.399 -2.8462  1.9737  0.3330
  162TMC2    H2 2526   0.453   0.462   1.490 -1.4567 -0.8612  0.6520
  162TMC2    C7 2527   0.636   0.670   1.456  0.4865 -0.4730  0.5144
  162TMC2    C8 2528   0.244   0.424   1.321  0.0713 -0.2892 -0.6492
  162TMC2    O1 2529   0.694   0.777   1.477 -0.3307 -0.0325  0.3882
  162TMC2    O2 2530   0.247   0.403   1.199  0.2920  0.0406 -0.6625
  162TMC2    O5 2531   0.283   0.329   1.410  0.2257 -0.2911 -0.3521
  162TMC2    H5 2532   0.247   0.358   1.496  1.1705  1.3873 -0.5145
  163MPD2     C 2533   0.609   1.191   0.891  0.1459 -0.5961  0.2283
  163MPD2    C1 2534   0.580   1.060   0.868  0.0400  0.1218 -0.1662
  163MPD2    C2 2535   0.513   0.983   0.960 -0.0731 -0.2634  0.4281
  163MPD2    C3 2536   0.483   1.039   1.086  0.6066  0.0642 -0.0861
  163MPD2    C4 2537   0.521   1.172   1.111 -0.1725 -0.6503 -0.0901
  163MPD2    C5 2538   0.587   1.244   1.012  0.5999  0.1168  0.1187
  163MPD2     H 2539   0.480   0.883   0.937 -1.6513  0.1730  0.7778
  163MPD2    H1 2540   0.495   1.224   1.202  0.2933 -1.8587  0.7296
  163MPD2    H2 2541   0.646   1.263   0.819 -0.7627 -0.7370 -0.3714
  163MPD2    H3 2542   0.621   1.344   1.037 -0.9936  1.0792 -1.5849
  163MPD2     N 2543   0.423   0.962   1.188 -0.1128  0.0914  0.1359
  163MPD2    H5 2544   0.441   0.998   1.281 -1.0045 -1.9476  1.0869
  163MPD2    N1 2545   0.601   1.013   0.737  0.8450  0.0675 -0.4952
  163MPD2    H7 2546   0.626   1.082   0.667 -0.4726  0.0182 -1.0094
  164TMC2    C1 2547   0.912   0.641  10.719  0.4409 -0.6382  0.0486
  164TMC2    C2 2548   0.911   0.696  10.598 -0.3562  0.1627  0.3063
  164TMC2    C3 2549   0.808   0.779  10.569 -0.1060  0.0813  0.1766
  164TMC2    C4 2550   0.808   0.667  10.813 -0.0285 -0.5626 -0.4523
  164TMC2    C5 2551   0.713   0.757  10.778  0.7740  0.2488  0.2186
  164TMC2    C6 2552   0.716   0.822  10.661 -0.2362 -0.2319 -0.6756
  164TMC2     C 2553   0.981   0.516  10.749 -0.2422 -0.4226 -0.3937
  164TMC2     O 2554   0.961   0.458  10.856 -0.3440  0.0335 -0.1031
  164TMC2     H 2555   0.980   0.663  10.521 -0.4218  2.8942 -0.9095
  164TMC2    H1 2556   0.818   0.644  10.919  0.4185  1.7795  0.0015
  164TMC2    H2 2557   0.632   0.881  10.625 -0.1769 -0.4469 -1.1600
  164TMC2    C7 2558   0.580   0.752  10.843 -1.3790 -0.0184  0.7344
  164TMC2    C8 2559   0.785   0.820  10.430  0.1271  0.5354 -0.3955
  164TMC2    O1 2560   0.483   0.803  10.785  0.1712  0.1407  0.1884
  164TMC2    O2 2561   0.878   0.860  10.364 -0.0950 -0.0715  0.0548
  164TMC2    O5 2562   0.661   0.778  10.392 -0.2430  0.2314  0.2051
  164TMC2    H5 2563   0.612   0.726  10.459 -0.1696  0.3215  0.3288
  165TMC2    C1 2564   1.952   2.713   2.186 -0.8733  0.0025 -0.0308
  165TMC2    C2 2565   1.883   2.770   2.297  0.3409 -0.1935  0.8578
  165TMC2    C3 2566   1.910   2.898   2.323 -0.7823  0.6814  0.0571
  165TMC2    C4 2567   2.052   2.779   2.120  0.5734 -0.2845  0.2943
  165TMC2    C5 2568   2.082   2.903   2.161  0.3392 -0.0757 -0.6836
  165TMC2    C6 2569   2.007   2.968   2.259  0.0073  0.0752 -0.0477
  165TMC2     C 2570   1.904   2.576   2.146 -0.4363 -0.5933  0.0334
  165TMC2     O 2571   1.825   2.528   2.227 -0.3143  0.7013  0.2258
  165TMC2     H 2572   1.821   2.715   2.367  0.4615 -0.5501  0.6782
  165TMC2    H1 2573   2.102   2.733   2.036 -0.9392 -1.5783  0.1223
  165TMC2    H2 2574   2.003   3.074   2.281 -1.4571 -0.0622  0.3977
  165TMC2    C7 2575   2.163   2.973   2.060  0.4111 -0.0306  0.5536
  165TMC2    C8 2576   1.895   2.948   2.454  0.3220 -0.4349  0.1312
  165TMC2    O1 2577   2.256   2.907   2.016  0.2887  0.1830  0.3253
  165TMC2    O2 2578   1.980   2.994   2.530 -0.0281 -0.3605  0.0114
  165TMC2    O5 2579   1.762   2.966   2.471  0.0828  0.6315  0.4387
  165TMC2    H5 2580   1.714   2.935   2.392  0.3614 -0.2478  0.6117
  166MPD2     C 2581   1.881   2.144   1.876  1.0766  0.0046  0.2084
  166MPD2    C1 2582   1.852   2.165   2.011 -0.0821 -0.4416 -0.4420
  166MPD2    C2 2583   1.859   2.296   2.058  0.0306  0.4441 -0.5104
  166MPD2    C3 2584   1.907   2.399   1.971 -0.3198 -0.4690 -0.3799
  166MPD2    C4 2585   1.930   2.372   1.838  0.0336  0.6466  0.5073
  166MPD2    C5 2586   1.919   2.244   1.792 -0.1007  0.2160 -0.3189
  166MPD2     H 2587   1.826   2.312   2.160  0.4811  1.7899 -0.5745
  166MPD2    H1 2588   1.961   2.442   1.761  0.8237 -0.4018 -0.1238
  166MPD2    H2 2589   1.877   2.042   1.840  0.8218  0.5434 -1.2722
  166MPD2    H3 2590   1.931   2.215   1.688  1.9691  3.3623 -0.9436
  166MPD2     N 2591   1.933   2.528   2.015  0.0370  0.1117  1.5488
  166MPD2    H5 2592   1.987   2.583   1.948 -1.0205 -0.4614  0.2193
  166MPD2    N1 2593   1.827   2.044   2.083 -0.2155 -0.7579  0.2283
  166MPD2    H7 2594   1.832   1.957   2.031  2.3538  1.6447 -3.5123
  167TMC2    C1 2595   0.870   0.699  12.467 -0.7349  0.4852 -0.5079
  167TMC2    C2 2596   0.966   0.766  12.535 -0.5347  0.9328 -0.7061
  167TMC2    C3 2597   0.985   0.740  12.668  0.0432 -0.4247 -0.0254
  167TMC2    C4 2598   0.783   0.611  12.536  0.0331  0.4990  0.2749
  167TMC2    C5 2599   0.819   0.577  12.666 -0.3741 -0.6214  0.2979
  167TMC2    C6 2600   0.918   0.649  12.732 -0.1940  0.0401 -0.1767
  167TMC2     C 2601   0.847   0.738  12.326 -0.1606 -0.5651 -0.0910
  167TMC2     O 2602   0.920   0.820  12.288 -0.4431 -0.2588  0.3970
  167TMC2     H 2603   1.037   0.835  12.490  0.3512  1.9912  2.2906
  167TMC2    H1 2604   0.709   0.553  12.482  0.1178 -0.0594  0.7501
  167TMC2    H2 2605   0.933   0.636  12.838 -1.4360  0.0402  0.0031
  167TMC2    C7 2606   0.789   0.451  12.731  0.3716  0.2496 -0.3796
  167TMC2    C8 2607   1.064   0.825  12.754  0.6901  0.6671 -0.4387
  167TMC2    O1 2608   0.854   0.421  12.832  0.3012 -0.5302 -0.2270
  167TMC2    O2 2609   1.123   0.777  12.847 -0.2236 -0.3224  0.1586
  167TMC2    O5 2610   1.019   0.953  12.756  0.8232 -0.0089  0.2248
  167TMC2    H5 2611   0.968   0.983  12.677  0.6269  0.5363  0.5578
  168MPD2     C 2612   0.787   0.739  12.040  0.0193  0.6719 -0.3156
  168MPD2    C1 2613   0.717   0.666  12.132  0.5850  0.6322  0.2732
  168MPD2    C2 2614   0.602   0.596  12.080  0.7813  0.0984 -0.1412
  168MPD2    C3 2615   0.564   0.591  11.948 -0.3381  0.3899  0.9157
  168MPD2    C4 2616   0.646   0.668  11.866 -0.0839  0.1779  0.1369
  168MPD2    C5 2617   0.753   0.736  11.910 -0.3579  0.3301  0.5660
  168MPD2     H 2618   0.522   0.561  12.144  0.0192  1.6285 -0.2737
  168MPD2    H1 2619   0.625   0.668  11.760 -0.3790 -1.6594  0.1930
  168MPD2    H2 2620   0.871   0.800  12.071  0.7237 -0.4847  0.0784
  168MPD2    H3 2621   0.820   0.779  11.837 -0.8625 -0.7073 -0.5048
  168MPD2     N 2622   0.456   0.509  11.899 -0.1309  0.4634  0.3681
  168MPD2    H5 2623   0.416   0.443  11.965  2.9516 -2.3139 -0.5694
  168MPD2    N1 2624   0.749   0.658  12.267 -0.2258 -0.0653 -0.2002
  168MPD2    H7 2625   0.686   0.598  12.319  0.2874 -1.0620 -0.7369
  169MPD1     C 2626   1.405   0.105   9.972 -1.0316 -1.4368 -0.4348
  169MPD1    C1 2627   1.452   0.014  10.055  0.0408 -0.0339  0.6599
  169MPD1    C2 2628   1.575   4.692  10.022  0.3483  0.4476  1.2615
  169MPD1    C3 2629   1.632   4.709   9.895  0.1397  0.4777  0.3102
  169MPD1    C4 2630   1.572   0.062   9.803  0.2930  0.8957 -0.1497
  169MPD1    C5 2631   1.460   0.129   9.849 -0.0407 -0.1992  0.2045
  169MPD1     H 2632   1.613   4.615  10.088  0.3890 -1.0335 -0.4696
  169MPD1    H1 2633   1.616   0.079   9.705  1.3441  0.3807  0.2380
  169MPD1    H2 2634   1.315   0.161   9.993  0.3636  1.2434 -1.6842
  169MPD1    H3 2635   1.392   0.199   9.802  0.0931 -0.4903 -0.4242
  169MPD1     N 2636   1.747   4.632   9.857 -0.1292 -0.5304  0.2188
  169MPD1    H5 2637   1.793   4.570   9.923 -0.0787  3.0230  3.5270
  169MPD1    N1 2638   1.401   0.009  10.185 -0.0922 -0.2157 -0.0087
  169MPD1    H6 2639   1.300   0.016  10.188 -0.0618  0.5378 -0.6663
  169MPD1    H7 2640   1.429   4.666  10.241 -4.1791  0.5803  3.1760
  170MPD1     C 2641   1.603   2.413  13.213  0.1217 -0.1841  0.7822
  170MPD1    C1 2642   1.466   2.392  13.212 -0.0240 -0.7014 -0.3813
  170MPD1    C2 2643   1.401   2.383  13.337 -0.0996  0.2147  0.5023
  170MPD1    C3 2644   1.457   2.455  13.442  0.6249  0.7771 -0.7906
  170MPD1    C4 2645   1.586   2.503  13.431 -0.3704 -0.8124 -0.7809
  170MPD1    C5 2646   1.661   2.471  13.318 -0.5807  0.3625 -0.3517
  170MPD1     H 2647   1.297   2.356  13.347 -0.6755  0.3591 -4.9109
  170MPD1    H1 2648   1.627   2.554  13.517 -0.4999 -2.6110  0.3631
  170MPD1    H2 2649   1.660   2.400  13.121 -1.5482 -0.6895 -0.1769
  170MPD1    H3 2650   1.764   2.504  13.315 -0.5598  0.2977 -0.3455
  170MPD1     N 2651   1.386   2.456  13.565 -0.6028 -0.1996  0.2725
  170MPD1    H5 2652   1.288   2.428  13.565 -0.4888 -0.5875  0.6146
  170MPD1    N1 2653   1.409   2.325  13.102 -0.2660 -0.4589 -0.2455
  170MPD1    H6 2654   1.445   2.356  13.012  0.5719 -0.5478  0.0609
  170MPD1    H7 2655   1.308   2.342  13.101  0.2554  2.6740  1.3404
  171MPD1     C 2656   3.880   3.838  15.713 -0.1662  0.8473 -0.5529
  171MPD1    C1 2657   3.918   3.718  15.769 -0.4785 -0.2659  0.0870
  171MPD1    C2 2658   4.047   3.684  15.774  0.3492 -0.3290  0.4134
  171MPD1    C3 2659   4.151   3.767  15.725  0.0369 -0.5125  0.6308
  171MPD1    C4 2660   4.115   3.896  15.686  0.1797  0.0415 -0.3726
  171MPD1    C5 2661   3.978   3.927  15.681 -0.0673  0.5303 -0.9763
  171MPD1     H 2662   4.066   3.593  15.829  2.1056 -0.7926 -0.9522
  171MPD1    H1 2663   4.189   3.971  15.659 -0.2384  1.1438  1.5138
  171MPD1    H2 2664   3.777   3.864  15.688  0.3681  0.3614 -3.3199
  171MPD1    H3 2665   3.951   4.023  15.640 -0.6618  1.4997  1.7074
  171MPD1     N 2666   4.289   3.734  15.712 -0.1811  0.6446  0.0683
  171MPD1    H5 2667   4.354   3.806  15.682  0.4221  0.9666  2.1382
  171MPD1    N1 2668   3.812   3.624  15.790 -0.2827 -0.0493  0.2132
  171MPD1    H6 2669   3.726   3.672  15.812 -0.5507  0.1343 -1.2069
  171MPD1    H7 2670   3.840   3.569  15.871 -0.3798 -0.0143  0.2697
  172MPD1     C 2671   3.551   2.664   0.239 -0.1408  1.0694  0.3629
  172MPD1    C1 2672   3.424   2.717   0.263 -0.0099  0.2026 -0.1633
  172MPD1    C2 2673   3.405   2.849   0.234  0.5342 -0.0125  0.1777
  172MPD1    C3 2674   3.515   2.932   0.194 -0.2938  0.9530 -0.7128
  172MPD1    C4 2675   3.637   2.873   0.179  0.2766  0.6281 -0.0203
  172MPD1    C5 2676   3.651   2.740   0.202  0.2505  0.4481  0.0767
  172MPD1     H 2677   3.313   2.902   0.255  0.8206  0.0524  1.2855
  172MPD1    H1 2678   3.727   2.930   0.158  1.5113 -0.7682  1.4846
  172MPD1    H2 2679   3.575   2.560   0.256  0.9980  1.5051  1.4429
  172MPD1    H3 2680   3.749   2.695   0.191  0.5468  0.7469  1.4596
  172MPD1     N 2681   3.501   3.067   0.165 -0.3272  0.2528  0.0018
  172MPD1    H5 2682   3.590   3.105   0.136  0.2549 -2.0775 -1.2964
  172MPD1    N1 2683   3.316   2.636   0.292 -0.1755 -0.8444  0.5205
  172MPD1    H6 2684   3.354   2.553   0.338  1.5003 -0.2071  0.2597
  172MPD1    H7 2685   3.253   2.671   0.365 -0.3726  0.6201 -0.3567
  173MPD1     C 2686   0.121   1.884  14.187 -0.2789 -0.0726 -0.3680
  173MPD1    C1 2687   0.239   1.944  14.225  0.3709  0.4936  0.2787
  173MPD1    C2 2688   0.228   2.074  14.274  0.2568 -0.1603  0.2788
  173MPD1    C3 2689   0.106   2.138  14.297  0.7628 -0.5628 -0.3775
  173MPD1    C4 2690   4.724   2.076  14.260 -0.0927 -0.7313  0.6129
  173MPD1    C5 2691   0.002   1.947  14.204  0.0250  0.3743  0.1761
  173MPD1     H 2692   0.317   2.133  14.295  0.2029 -1.0832  3.1749
  173MPD1    H1 2693   4.632   2.132  14.252 -0.3157 -1.0071  1.2182
  173MPD1    H2 2694   0.111   1.781  14.158  0.6334 -0.2729  0.0252
  173MPD1    H3 2695   4.646   1.893  14.186 -0.1533  0.7851 -0.1261
  173MPD1     N 2696   0.097   2.270  14.346 -0.4092  0.6233 -0.0727
  173MPD1    H5 2697   0.179   2.329  14.338  0.7059 -1.0609 -1.0664
  173MPD1    N1 2698   0.361   1.884  14.202  1.0033 -0.0465  0.0253
  173MPD1    H6 2699   0.357   1.784  14.221  1.3184 -0.1831 -0.6318
  173MPD1    H7 2700   0.423   1.931  14.268  1.4676 -0.2787 -0.2496
  174MPD1     C 2701   0.436   3.148  14.075 -0.0604  0.1022 -1.1450
  174MPD1    C1 2702   0.459   3.015  14.082 -0.4966  0.2442 -0.3344
  174MPD1    C2 2703   0.375   2.931  14.159  0.1088  0.0525  0.2012
  174MPD1    C3 2704   0.262   2.976  14.225  0.2144  0.4085 -0.7414
  174MPD1    C4 2705   0.244   3.116  14.229 -0.2084  0.4195 -0.3968
  174MPD1    C5 2706   0.331   3.192  14.155  0.3919 -0.4329 -0.5321
  174MPD1     H 2707   0.404   2.827  14.165  1.9014  0.5877  1.0396
  174MPD1    H1 2708   0.167   3.165  14.288  1.7752 -0.1415  2.6471
  174MPD1    H2 2709   0.501   3.219  14.025  0.5816 -0.6189 -1.3230
  174MPD1    H3 2710   0.318   3.298  14.174 -1.1971 -0.8690  0.8679
  174MPD1     N 2711   0.172   2.885  14.296  0.4036 -0.1210  0.2734
  174MPD1    H5 2712   0.105   2.922  14.362  0.5626 -1.5443  1.2291
  174MPD1    N1 2713   0.580   2.968  14.035  0.5409 -0.5213  0.3645
  174MPD1    H6 2714   0.605   3.006  13.944  1.3657 -0.7832  0.4725
  174MPD1    H7 2715   0.571   2.866  14.035 -0.0495 -0.4639 -0.3613
  175MPD1     C 2716   2.865   3.593  15.165  0.0335 -0.0613 -0.1768
  175MPD1    C1 2717   2.962   3.507  15.220 -0.3226  0.1169 -0.1722
  175MPD1    C2 2718   3.003   3.532  15.350 -0.2791  0.0283 -0.6624
  175MPD1    C3 2719   2.937   3.628  15.430  0.0646  0.5555 -0.1735
  175MPD1    C4 2720   2.836   3.701  15.380 -0.0277  0.9679 -0.5216
  175MPD1    C5 2721   2.801   3.678  15.246 -0.1273  0.0943  0.2982
  175MPD1     H 2722   3.088   3.476  15.388 -1.0669 -0.7481 -0.0432
  175MPD1    H1 2723   2.783   3.779  15.434 -0.9587  0.3683 -0.5588
  175MPD1    H2 2724   2.833   3.587  15.061 -0.8214 -0.7295  0.1276
  175MPD1    H3 2725   2.724   3.748  15.213  0.5695  1.9799  2.6716
  175MPD1     N 2726   2.964   3.668  15.567 -0.0468  0.4444 -0.6069
  175MPD1    H5 2727   2.900   3.739  15.600  0.0018 -0.7579  2.1364
  175MPD1    N1 2728   3.039   3.429  15.129 -0.0952  0.0879  0.0945
  175MPD1    H6 2729   3.066   3.347  15.184  2.1561 -0.6965 -2.1735
  175MPD1    H7 2730   2.989   3.402  15.045 -1.0314 -0.4163  0.8270
  176MPD1     C 2731   4.720   1.393   0.352  0.1226 -0.3468  0.5534
  176MPD1    C1 2732   0.030   1.505   0.427 -0.5200 -0.4858  0.4632
  176MPD1    C2 2733   0.069   1.614   0.352 -0.5001 -0.2331  0.0653
  176MPD1    C3 2734   0.102   1.604   0.214  0.1000 -0.1472 -0.1395
  176MPD1    C4 2735   0.074   1.482   0.148  0.9550 -0.5439  1.2055
  176MPD1    C5 2736   0.009   1.379   0.217  0.4803  0.6601 -0.2177
  176MPD1     H 2737   0.088   1.706   0.406  3.1055 -1.8163  1.5051
  176MPD1    H1 2738   0.101   1.464   0.045 -2.4630  0.0585  0.1950
  176MPD1    H2 2739   4.661   1.317   0.402 -1.7754  2.0222  1.9729
  176MPD1    H3 2740   4.727   1.286   0.164  1.6528 -0.1275  0.7552
  176MPD1     N 2741   0.162   1.715   0.151  0.4663  0.4132  0.4624
  176MPD1    H5 2742   0.192   1.790   0.213  1.0487  0.5459  0.0226
  176MPD1    N1 2743   0.004   1.534   0.560  0.5256  0.0663  0.1900
  176MPD1    H6 2744   0.065   1.595   0.614  0.6826  2.0400 -2.2547
  176MPD1    H7 2745   4.724   1.452   0.619  0.3083 -1.3086 -1.7864
  177MPD1     C 2746   2.008   1.236   8.695  0.7296  0.2640  0.4461
  177MPD1    C1 2747   2.010   1.337   8.792  0.4534 -0.2439 -0.2627
  177MPD1    C2 2748   2.074   1.312   8.911  0.0766  0.0752  0.1655
  177MPD1    C3 2749   2.136   1.192   8.933  0.5480 -0.5106  0.5631
  177MPD1    C4 2750   2.126   1.093   8.838 -0.5479  0.1232 -0.7719
  177MPD1    C5 2751   2.061   1.113   8.720 -0.4527 -0.0406 -0.4289
  177MPD1     H 2752   2.073   1.388   8.988  1.0426 -0.2352  0.4940
  177MPD1    H1 2753   2.159   0.990   8.851 -0.9767 -0.1159 -1.5428
  177MPD1    H2 2754   1.961   1.262   8.601  0.0898 -2.2871  0.0592
  177MPD1    H3 2755   2.077   1.036   8.645  2.8051 -0.0308  0.2694
  177MPD1     N 2756   2.215   1.177   9.047 -1.1971 -0.3326 -0.2149
  177MPD1    H5 2757   2.202   1.251   9.114 -0.7514 -2.4324  2.1827
  177MPD1    N1 2758   1.963   1.465   8.754  0.1840  0.1395 -0.2972
  177MPD1    H6 2759   1.892   1.475   8.681 -1.1470  1.3348  1.1678
  177MPD1    H7 2760   1.944   1.521   8.836  1.3031  0.3091 -0.1488
  178MPD1     C 2761   1.044   2.756   0.187 -0.0802 -0.0385  0.1086
  178MPD1    C1 2762   1.080   2.645   0.258  0.3565 -0.5135 -0.2941
  178MPD1    C2 2763   1.102   2.527   0.183 -0.5093  1.1191  0.8453
  178MPD1    C3 2764   1.084   2.527   0.048  0.0413  0.1714  0.0149
  178MPD1    C4 2765   1.051   2.645  17.728 -0.3440  0.1210  0.3985
  178MPD1    C5 2766   1.035   2.756   0.057  0.0098 -0.3698 -0.7325
  178MPD1     H 2767   1.132   2.441   0.241  2.1856 -0.1893 -2.4512
  178MPD1    H1 2768   1.062   2.645  17.620 -0.0136 -3.7627  0.4113
  178MPD1    H2 2769   1.027   2.847   0.244 -0.5188  1.7043 -2.8083
  178MPD1    H3 2770   1.021   2.857   0.021 -1.0593  0.2149  1.3558
  178MPD1     N 2771   1.128   2.430  17.707 -0.1522 -0.3334 -0.7936
  178MPD1    H5 2772   1.106   2.438  17.609 -1.9860  3.3866 -0.0500
  178MPD1    N1 2773   1.101   2.635   0.394  0.4249 -0.1437  0.1712
  178MPD1    H6 2774   1.130   2.723   0.438  0.2447  0.2806 -0.5540
  178MPD1    H7 2775   1.162   2.561   0.428  0.2973  0.1568  1.0804
  179MPD1     C 2776   0.939   0.578  15.427  0.1018  0.0703  0.1358
  179MPD1    C1 2777   0.918   0.516  15.309  0.4037 -0.3433 -0.2636
  179MPD1    C2 2778   0.837   0.403  15.304 -0.2412 -0.4000  0.3808
  179MPD1    C3 2779   0.767   0.367  15.421  0.1104 -0.3728  0.5098
  179MPD1    C4 2780   0.790   0.440  15.541 -0.3047 -1.2428  0.1602
  179MPD1    C5 2781   0.870   0.541  15.539 -0.2069 -0.0760 -0.1743
  179MPD1     H 2782   0.825   0.353  15.208 -0.5742  0.4125  0.0029
  179MPD1    H1 2783   0.761   0.390  15.633  1.5777  0.5777  1.7247
  179MPD1    H2 2784   1.009   0.661  15.428 -1.3117  1.2717 -0.2736
  179MPD1    H3 2785   0.892   0.586  15.635  0.4913 -1.9931  0.5803
  179MPD1     N 2786   0.686   0.255  15.430  0.2206  0.1259  0.6275
  179MPD1    H5 2787   0.653   0.234  15.523  3.1774 -0.6248  1.5171
  179MPD1    N1 2788   0.993   0.554  15.195 -0.0032  0.3898 -0.2362
  179MPD1    H6 2789   1.007   0.654  15.187  2.2508  0.1348  0.5846
  179MPD1    H7 2790   0.956   0.511  15.111  0.6215 -1.5507  0.4770
  180MPD1     C 2791   1.163   1.941  15.332  0.1910 -0.3469  0.8946
  180MPD1    C1 2792   1.224   1.920  15.210  0.6441 -0.3768 -0.3949
  180MPD1    C2 2793   1.167   1.826  15.124  0.6885 -0.7618  0.2925
  180MPD1    C3 2794   1.052   1.753  15.148 -0.2840  0.4925 -0.4878
  180MPD1    C4 2795   1.001   1.772  15.273 -0.1758  0.1577  0.1487
  180MPD1    C5 2796   1.057   1.863  15.356  0.4300  0.1705 -0.1172
  180MPD1     H 2797   1.212   1.817  15.026 -1.8485 -1.6550 -0.7740
  180MPD1    H1 2798   0.921   1.709  15.310  0.3125  1.0344  2.7349
  180MPD1    H2 2799   1.200   2.010  15.408 -2.3862 -0.4111  2.2291
  180MPD1    H3 2800   1.009   1.870  15.453 -1.9376  1.4424 -1.3826
  180MPD1     N 2801   1.016   1.642  15.070  0.2090 -0.5708  0.4264
  180MPD1    H5 2802   1.083   1.619  14.997  1.3685  2.7647  0.4343
  180MPD1    N1 2803   1.321   2.010  15.157 -0.2267 -0.3498 -0.2049
  180MPD1    H6 2804   1.393   2.013  15.229  0.1341 -1.5664 -0.5106
  180MPD1    H7 2805   1.363   1.970  15.073 -1.7663 -2.2880 -0.0565
  181MPD1     C 2806   1.050   2.584   9.868  0.1636  0.5281 -0.3763
  181MPD1    C1 2807   1.161   2.596   9.790  0.2077  0.1319 -0.0042
  181MPD1    C2 2808   1.286   2.556   9.840 -0.2579 -0.4816 -0.0155
  181MPD1    C3 2809   1.298   2.515   9.972 -0.3392 -0.6765  0.2522
  181MPD1    C4 2810   1.186   2.514  10.053  1.4243 -0.2652 -0.1753
  181MPD1    C5 2811   1.064   2.547   9.998  0.0268  0.2420  0.0117
  181MPD1     H 2812   1.372   2.574   9.775  0.4963  1.0066  1.3924
  181MPD1    H1 2813   1.181   2.477  10.155 -1.8165 -0.7944 -0.5046
  181MPD1    H2 2814   0.950   2.587   9.827  0.5859  1.3329 -1.3518
  181MPD1    H3 2815   0.980   2.549  10.066 -1.8571 -3.7219 -2.2478
  181MPD1     N 2816   1.424   2.491  10.032  0.2115  0.2779  0.5776
  181MPD1    H5 2817   1.428   2.479  10.133 -2.0969  0.4509  0.6725
  181MPD1    N1 2818   1.146   2.636   9.655  0.0952  0.0565 -0.0934
  181MPD1    H6 2819   1.056   2.682   9.642 -0.0442 -0.6935 -1.7708
  181MPD1    H7 2820   1.217   2.697   9.616  0.2624 -0.0089  0.1082
  182MPD1     C 2821   2.854   1.036   0.968  0.4535 -0.3092 -0.1881
  182MPD1    C1 2822   2.728   1.078   0.917  0.4441  0.3082 -0.0015
  182MPD1    C2 2823   2.735   1.200   0.842  0.1492  0.3763  0.9188
  182MPD1    C3 2824   2.859   1.267   0.813  0.0995  0.6437  0.2218
  182MPD1    C4 2825   2.977   1.214   0.862  0.7338  0.1603  0.2131
  182MPD1    C5 2826   2.974   1.099   0.937  0.5276 -0.1849  0.6507
  182MPD1     H 2827   2.644   1.246   0.808 -1.1121 -1.0537  2.3679
  182MPD1    H1 2828   3.073   1.265   0.854  1.1783 -0.5755  0.8573
  182MPD1    H2 2829   2.845   0.954   1.039 -2.1237 -1.9001 -2.3231
  182MPD1    H3 2830   3.067   1.057   0.973 -0.1919 -0.4147  2.2250
  182MPD1     N 2831   2.877   1.395   0.745  0.1134 -0.1098 -0.7406
  182MPD1    H5 2832   2.967   1.441   0.739 -0.6401  1.4177 -0.4813
  182MPD1    N1 2833   2.609   1.021   0.971  0.7327  0.2016 -0.6617
  182MPD1    H6 2834   2.528   1.017   0.909 -0.7585 -2.3544  1.4142
  182MPD1    H7 2835   2.625   0.933   1.020 -0.6386  1.1024  1.4304
  183MPD1     C 2836   2.590   2.277   9.300 -0.0657 -0.2397 -0.6406
  183MPD1    C1 2837   2.607   2.379   9.390 -0.0634  0.3276  0.2433
  183MPD1    C2 2838   2.713   2.381   9.477  0.7403  0.0207 -0.6501
  183MPD1    C3 2839   2.803   2.281   9.473 -0.0228 -0.5740 -0.1157
  183MPD1    C4 2840   2.787   2.174   9.387  0.2723 -0.2216  1.0859
  183MPD1    C5 2841   2.673   2.167   9.308  0.5125  0.1740  0.4852
  183MPD1     H 2842   2.726   2.471   9.537  1.8402 -0.1531 -0.6211
  183MPD1    H1 2843   2.859   2.092   9.383  0.1166 -0.3420  0.7711
  183MPD1    H2 2844   2.507   2.273   9.231 -0.5185  0.9502 -0.1678
  183MPD1    H3 2845   2.670   2.093   9.229  0.3159 -1.8256  2.3595
  183MPD1     N 2846   2.917   2.305   9.555  0.2190  0.0609 -0.5325
  183MPD1    H5 2847   2.903   2.388   9.611  0.7504  1.5132 -2.5715
  183MPD1    N1 2848   2.525   2.489   9.390  0.4481 -0.3436 -0.5098
  183MPD1    H6 2849   2.440   2.459   9.344  0.6000 -1.4771 -0.0400
  183MPD1    H7 2850   2.509   2.531   9.482  3.5043  0.4708 -0.3180
  184MPD1     C 2851   2.315   0.536  10.981 -0.1515  0.2378  0.9151
  184MPD1    C1 2852   2.208   0.592  10.917 -0.3978  0.5055  0.0166
  184MPD1    C2 2853   2.224   0.606  10.778  0.0378  0.0357 -0.6569
  184MPD1    C3 2854   2.345   0.577  10.717 -0.4292 -1.0033 -0.8951
  184MPD1    C4 2855   2.454   0.552  10.793 -0.0238 -0.0858 -0.0685
  184MPD1    C5 2856   2.438   0.533  10.930 -0.1034  0.1652  0.0929
  184MPD1     H 2857   2.140   0.652  10.726 -0.8211  0.3588  1.0297
  184MPD1    H1 2858   2.551   0.531  10.752  0.1019 -1.7159  1.0500
  184MPD1    H2 2859   2.299   0.505  11.083  1.5385 -2.7903  0.2626
  184MPD1    H3 2860   2.519   0.496  10.991  1.4415  0.2375 -1.9125
  184MPD1     N 2861   2.361   0.578  10.573 -0.9304 -0.6748  0.0447
  184MPD1    H5 2862   2.437   0.523  10.534 -1.4202 -0.7494 -0.8228
  184MPD1    N1 2863   2.078   0.588  10.969 -0.1393  0.5967 -0.0163
  184MPD1    H6 2864   2.026   0.665  10.926 -2.8076 -1.3526 -0.2986
  184MPD1    H7 2865   2.069   0.597  11.070 -0.8969  1.0594 -0.1223
  185MPD1     C 2866   1.668   0.714   9.845 -0.7773 -0.6533 -0.1471
  185MPD1    C1 2867   1.776   0.662   9.783  0.4589  0.0183 -0.3048
  185MPD1    C2 2868   1.886   0.620   9.858  0.7366  0.3401 -0.4193
  185MPD1    C3 2869   1.891   0.651   9.990  0.3760  0.3799  0.6956
  185MPD1    C4 2870   1.774   0.692  10.053  0.8814  0.1257 -0.0295
  185MPD1    C5 2871   1.663   0.726   9.978  0.1632 -0.0893  0.1591
  185MPD1     H 2872   1.966   0.573   9.802  0.7484 -0.3249  0.1550
  185MPD1    H1 2873   1.762   0.704  10.160  0.6211  0.1208 -0.0586
  185MPD1    H2 2874   1.581   0.743   9.787  1.3029  0.1013 -2.8925
  185MPD1    H3 2875   1.580   0.782  10.020 -0.3313 -1.7405  1.3666
  185MPD1     N 2876   1.999   0.635  10.076  0.5114  0.8632  0.0900
  185MPD1    H5 2877   1.994   0.672  10.170  1.8370 -0.8787  0.8458
  185MPD1    N1 2878   1.768   0.657   9.642 -0.1716  0.4087 -0.5629
  185MPD1    H6 2879   1.718   0.737   9.604  0.2730  1.2021  0.5534
  185MPD1    H7 2880   1.859   0.644   9.599  0.5797  0.5904  0.9743
  186MPD1     C 2881   1.174   0.366  15.676 -0.2765  0.2603 -0.2977
  186MPD1    C1 2882   1.243   0.488  15.662 -0.2014  0.3339  0.1339
  186MPD1    C2 2883   1.211   0.593  15.751  0.3939 -0.1949  0.1420
  186MPD1    C3 2884   1.124   0.575  15.856  0.4077 -0.0160  0.3536
  186MPD1    C4 2885   1.052   0.458  15.855 -0.0919 -0.5035 -0.8013
  186MPD1    C5 2886   1.077   0.357  15.768  0.5660 -0.4290  0.3954
  186MPD1     H 2887   1.255   0.692  15.742 -0.6788  0.2503 -0.1983
  186MPD1    H1 2888   0.967   0.452  15.922  0.3011  0.2213 -0.2405
  186MPD1    H2 2889   1.206   0.279  15.620 -1.5994 -0.7558  0.5309
  186MPD1    H3 2890   1.024   0.263  15.779  0.6161 -0.5687 -0.6063
  186MPD1     N 2891   1.100   0.659  15.964  0.1852  0.5935 -0.4005
  186MPD1    H5 2892   1.034   0.628  16.035 -0.7569 -0.0234 -1.5412
  186MPD1    N1 2893   1.339   0.511  15.567  0.1078 -0.0906 -0.3100
  186MPD1    H6 2894   1.320   0.463  15.479  0.3192  0.6037 -0.7385
  186MPD1    H7 2895   1.364   0.610  15.556 -0.0364 -0.1910 -1.5356
  187MPD1     C 2896   0.340   3.046   0.372 -0.0078 -0.0066 -0.0902
  187MPD1    C1 2897   0.388   2.916   0.339 -0.3795 -0.5274  0.5289
  187MPD1    C2 2898   0.381   2.878   0.200 -0.4037  0.8512 -0.0201
  187MPD1    C3 2899   0.308   2.960   0.113 -0.4486  0.0773 -0.6786
  187MPD1    C4 2900   0.271   3.085   0.152  0.0534 -0.3926  0.1587
  187MPD1    C5 2901   0.277   3.133   0.281  0.5491 -0.4692  0.2444
  187MPD1     H 2902   0.426   2.784   0.169 -1.1544  0.4987 -0.0375
  187MPD1    H1 2903   0.223   3.148   0.077  1.2519  0.3499  0.0125
  187MPD1    H2 2904   0.346   3.089   0.472 -1.2563  0.7861 -0.3589
  187MPD1    H3 2905   0.234   3.226   0.317 -0.9273 -0.6297 -1.0959
  187MPD1     N 2906   0.292   2.913  17.724 -0.0381  0.3011  0.0025
  187MPD1    H5 2907   0.235   2.972  17.664  0.3523  0.9531  0.2753
  187MPD1    N1 2908   0.468   2.847   0.431  0.5027  0.7355  0.1962
  187MPD1    H6 2909   0.471   2.749   0.404 -0.2317 -0.1285  3.1792
  187MPD1    H7 2910   0.432   2.847   0.527 -1.3263 -1.1874 -0.4775
  188MPD1     C 2911   0.303   1.587   9.914 -0.0990  0.6067 -0.8613
  188MPD1    C1 2912   0.285   1.516   9.798 -0.7025 -0.1551  0.3719
  188MPD1    C2 2913   0.306   1.374   9.796  0.0175  0.2128  0.3186
  188MPD1    C3 2914   0.307   1.306   9.914  0.1447  0.2672  0.1016
  188MPD1    C4 2915   0.315   1.382  10.032 -0.1994 -0.2058  0.4813
  188MPD1    C5 2916   0.309   1.519  10.031  0.5779 -0.2724 -0.5773
  188MPD1     H 2917   0.313   1.333   9.696  0.4020 -0.5915  0.6755
  188MPD1    H1 2918   0.355   1.331  10.119 -1.9318 -0.5036  1.1006
  188MPD1    H2 2919   0.307   1.695   9.917 -0.4586  0.5715  1.3541
  188MPD1    H3 2920   0.330   1.563  10.127 -0.2764 -0.6533 -0.2179
  188MPD1     N 2921   0.298   1.172   9.927  0.7994  0.0568 -0.2511
  188MPD1    H5 2922   0.305   1.127  10.017  1.4341  1.5301  0.4341
  188MPD1    N1 2923   0.293   1.591   9.682  0.0498  0.3197 -0.0995
  188MPD1    H6 2924   0.254   1.682   9.708 -0.3395 -0.9410  3.6151
  188MPD1    H7 2925   0.241   1.548   9.605  1.0744  0.1720 -0.7134
  189MPD1     C 2926   1.490   3.179   0.153  0.0680 -0.1626  0.7505
  189MPD1    C1 2927   1.361   3.150   0.110  0.5770  0.0327  0.1102
  189MPD1    C2 2928   1.297   3.248   0.032 -0.8611 -0.2191  0.6366
  189MPD1    C3 2929   1.355   3.367   0.007  0.4890 -0.0053  0.0907
  189MPD1    C4 2930   1.481   3.398   0.055  0.0888  1.0687  0.3420
  189MPD1    C5 2931   1.543   3.302   0.131  0.3930 -0.5339 -0.6316
  189MPD1     H 2932   1.201   3.222  17.735 -1.1778 -0.6780  1.6500
  189MPD1    H1 2933   1.535   3.490   0.036  1.2223  0.2629 -0.3312
  189MPD1    H2 2934   1.547   3.114   0.219  0.1995 -0.7489  0.0629
  189MPD1    H3 2935   1.641   3.318   0.173  0.6610 -1.2140 -0.9977
  189MPD1     N 2936   1.275   3.463  17.679 -0.3373  0.6473 -0.3837
  189MPD1    H5 2937   1.184   3.434  17.646 -1.1286 -0.2493  2.5402
  189MPD1    N1 2938   1.299   3.028   0.150 -0.1805 -0.6579  0.4850
  189MPD1    H6 2939   1.226   2.990   0.090  0.7148  0.1635 -1.1198
  189MPD1    H7 2940   1.363   2.952   0.172 -2.7875 -2.3697  2.1958
  190MPD1     C 2941   0.756   1.265  15.517 -0.2644  0.5584  0.7021
  190MPD1    C1 2942   0.787   1.352  15.417 -0.3030  0.2940  0.0875
  190MPD1    C2 2943   0.875   1.449  15.441  0.6192  0.7312  0.0924
  190MPD1    C3 2944   0.922   1.474  15.568 -0.1474  0.8908 -0.4214
  190MPD1    C4 2945   0.885   1.389  15.673  0.2279 -0.4600  0.2154
  190MPD1    C5 2946   0.804   1.276  15.647  1.1991 -0.1679  0.7614
  190MPD1     H 2947   0.918   1.499  15.355 -0.5340  0.9011 -0.3885
  190MPD1    H1 2948   0.917   1.403  15.776  1.8866  0.0465 -0.3641
  190MPD1    H2 2949   0.703   1.172  15.496 -1.4580  1.5913 -0.8485
  190MPD1    H3 2950   0.783   1.207  15.727 -1.6910 -1.3406 -1.0080
  190MPD1     N 2951   1.013   1.585  15.589  0.0040 -0.1700 -0.2221
  190MPD1    H5 2952   1.032   1.650  15.513 -1.9055  1.0072  0.3056
  190MPD1    N1 2953   0.748   1.315  15.285  0.3180 -0.2608 -0.0579
  190MPD1    H6 2954   0.737   1.390  15.217  1.0285 -0.1880 -0.1012
  190MPD1    H7 2955   0.821   1.257  15.243  0.9043 -0.8446  1.7778
  191MPD1     C 2956   4.149   4.098  12.665  0.0276  0.6385  0.0688
  191MPD1    C1 2957   4.264   4.120  12.592  0.7609  0.0125  0.2582
  191MPD1    C2 2958   4.348   4.008  12.564 -0.2989  0.2050  0.6358
  191MPD1    C3 2959   4.327   3.890  12.633 -0.3379  0.1273 -0.5117
  191MPD1    C4 2960   4.211   3.876  12.703 -0.0456 -0.1884 -0.1653
  191MPD1    C5 2961   4.122   3.975  12.721 -0.2481  0.4886 -0.2866
  191MPD1     H 2962   4.436   4.018  12.502  0.3767 -0.8314  1.4428
  191MPD1    H1 2963   4.186   3.778  12.742  1.8991 -0.4080  0.5351
  191MPD1    H2 2964   4.073   4.175  12.666  0.3512  0.9641 -1.0376
  191MPD1    H3 2965   4.033   3.957  12.780  0.3745  1.7528  1.0290
  191MPD1     N 2966   4.424   3.783  12.636 -0.5243 -0.2360 -0.5058
  191MPD1    H5 2967   4.390   3.693  12.669  1.1177 -0.3305  0.8902
  191MPD1    N1 2968   4.286   4.242  12.525  0.6492  0.0944 -0.3638
  191MPD1    H6 2969   4.255   4.323  12.577 -2.8775 -0.9656 -0.7971
  191MPD1    H7 2970   4.370   4.266  12.472  0.1184  0.7048 -0.9234
  192MPD1     C 2971   0.427   3.581  11.962 -0.0093 -0.6569  0.6964
  192MPD1    C1 2972   0.482   3.571  12.086 -0.3220 -0.4307  1.0460
  192MPD1    C2 2973   0.388   3.567  12.191  0.1222 -0.6715 -0.0169
  192MPD1    C3 2974   0.250   3.563  12.171  0.0778  0.2137  0.1026
  192MPD1    C4 2975   0.211   3.562  12.040  0.2922 -0.1134 -0.2272
  192MPD1    C5 2976   0.295   3.555  11.937  0.4624 -0.7485 -0.3476
  192MPD1     H 2977   0.424   3.584  12.292  1.0972 -1.7632 -0.1859
  192MPD1    H1 2978   0.105   3.550  12.021  0.1160 -0.4657  0.9455
  192MPD1    H2 2979   0.489   3.585  11.873 -1.2896 -1.5685 -0.2597
  192MPD1    H3 2980   0.255   3.571  11.837 -2.7538  0.4554  1.1432
  192MPD1     N 2981   0.159   3.576  12.277  0.2278  0.0565  0.4761
  192MPD1    H5 2982   0.059   3.583  12.266  0.3181  0.2145 -0.2867
  192MPD1    N1 2983   0.619   3.604  12.106  0.0886 -0.2942  0.1050
  192MPD1    H6 2984   0.675   3.563  12.031 -0.0709  0.8375 -0.6401
  192MPD1    H7 2985   0.653   3.559  12.190  2.5310 -0.5465 -1.0173
  193MPD1     C 2986   4.389   3.458  16.062  0.1169 -0.4432  0.2829
  193MPD1    C1 2987   4.325   3.569  16.108 -0.1033 -0.5759 -0.3684
  193MPD1    C2 2988   4.405   3.671  16.159  0.3415 -0.7658 -0.1329
  193MPD1    C3 2989   4.537   3.655  16.181 -0.0758  0.2829  0.1705
  193MPD1    C4 2990   4.595   3.536  16.144  0.0583  0.8654  0.2092
  193MPD1    C5 2991   4.518   3.438  16.092  0.7598 -0.4344  0.0724
  193MPD1     H 2992   4.364   3.769  16.184  0.6015  0.3057 -3.9984
  193MPD1    H1 2993   4.696   3.514  16.176 -0.7049 -1.9274  0.7050
  193MPD1    H2 2994   4.345   3.382  15.998 -0.3075  1.3283 -1.5085
  193MPD1    H3 2995   4.559   3.339  16.073 -0.1871 -0.6553 -0.8053
  193MPD1     N 2996   4.622   3.745  16.253  0.4433  0.4044 -0.3404
  193MPD1    H5 2997   4.719   3.712  16.251 -0.4214 -2.2160  0.7569
  193MPD1    N1 2998   4.188   3.588  16.080 -0.0288  0.4790  0.2399
  193MPD1    H6 2999   4.155   3.664  16.139  2.5046  1.7095  0.0688
  193MPD1    H7 3000   4.167   3.616  15.984  0.9676 -1.0588 -0.4363
  194MPD1     C 3001   3.218   1.193  16.546  0.0757 -0.0056 -0.1620
  194MPD1    C1 3002   3.137   1.124  16.454 -0.4670  0.4514  0.1517
  194MPD1    C2 3003   3.073   1.006  16.490  0.5736 -0.1429  0.3683
  194MPD1    C3 3004   3.075   0.967  16.621  0.4484  0.1767  0.0331
  194MPD1    C4 3005   3.155   1.030  16.714  0.1214 -0.2912 -0.2109
  194MPD1    C5 3006   3.219   1.145  16.677  0.0351 -0.1400  0.1211
  194MPD1     H 3007   3.022   0.956  16.408 -1.5786  1.2336  0.8748
  194MPD1    H1 3008   3.142   1.002  16.818 -1.2499  0.0882 -0.2876
  194MPD1    H2 3009   3.280   1.279  16.527  0.1803  0.3348  1.7282
  194MPD1    H3 3010   3.273   1.209  16.745  0.2304  0.7691 -0.8982
  194MPD1     N 3011   3.009   0.848  16.672 -0.7100 -0.1982  0.3688
  194MPD1    H5 3012   3.024   0.821  16.769 -0.6584  1.1993  0.7532
  194MPD1    N1 3013   3.141   1.173  16.320 -0.0472  0.5433 -0.0429
  194MPD1    H6 3014   3.165   1.270  16.305 -3.5703  0.9744 -2.8056
  194MPD1    H7 3015   3.057   1.167  16.264 -0.0391  2.2693 -0.2481
  195MPD1     C 3016   4.232   3.253   0.737  0.3490  0.3496 -0.1484
  195MPD1    C1 3017   4.165   3.160   0.821 -0.3244  0.2628 -0.2511
  195MPD1    C2 3018   4.185   3.029   0.794 -0.5355  0.1271 -0.0458
  195MPD1    C3 3019   4.262   2.989   0.686  0.8880 -0.2787 -0.0173
  195MPD1    C4 3020   4.320   3.083   0.604  0.2567 -0.5624  0.0863
  195MPD1    C5 3021   4.302   3.214   0.625  0.3547 -0.0437  0.6394
  195MPD1     H 3022   4.143   2.949   0.855 -0.3758 -0.4923 -0.7570
  195MPD1    H1 3023   4.369   3.046   0.515  0.2219 -0.8133  0.1712
  195MPD1    H2 3024   4.213   3.358   0.754  0.7889  0.7312 -2.0489
  195MPD1    H3 3025   4.341   3.282   0.550  0.1643 -1.2651 -0.5715
  195MPD1     N 3026   4.282   2.853   0.642  0.2674  0.1723  0.0876
  195MPD1    H5 3027   4.336   2.831   0.559 -1.2865 -0.5688 -0.7332
  195MPD1    N1 3028   4.099   3.194   0.941 -0.2831 -0.0274 -0.3848
  195MPD1    H6 3029   4.038   3.118   0.971 -1.1180 -0.0694 -2.1434
  195MPD1    H7 3030   4.039   3.275   0.932  0.4253  0.4673 -0.6591
  196MPD1     C 3031   3.066   2.287   0.002  0.0325  0.5223  0.0652
  196MPD1    C1 3032   3.070   2.156   0.013 -0.0558  0.2922  0.5806
  196MPD1    C2 3033   3.162   2.103   0.095  0.0590  0.2165  0.5881
  196MPD1    C3 3034   3.236   2.181   0.185 -0.5822  1.1010  0.1350
  196MPD1    C4 3035   3.212   2.316   0.186 -0.3893 -0.2034  0.4902
  196MPD1    C5 3036   3.132   2.363   0.093 -0.2831 -0.6022  0.3872
  196MPD1     H 3037   3.166   1.995   0.089 -0.5641  0.2429 -0.3201
  196MPD1    H1 3038   3.263   2.379   0.258 -1.1706  0.7781  0.1804
  196MPD1    H2 3039   2.986   2.332  17.689 -0.6518  0.1545  0.7236
  196MPD1    H3 3040   3.124   2.470   0.077 -1.0518 -0.8045 -0.6211
  196MPD1     N 3041   3.329   2.128   0.277 -0.0575  0.1381 -0.5320
  196MPD1    H5 3042   3.380   2.185   0.344  1.1076 -2.2879  0.6398
  196MPD1    N1 3043   3.002   2.082  17.657 -0.1687  0.0545  0.2263
  196MPD1    H6 3044   2.985   1.990  17.695 -0.0230  0.2845  0.8467
  196MPD1    H7 3045   2.919   2.125  17.618  0.1267 -0.9148 -1.5034
  197MPD1     C 3046   2.643   4.419  17.067  0.4152  0.2396 -0.7660
  197MPD1    C1 3047   2.698   4.429  16.947  0.3075  0.0048 -0.0161
  197MPD1    C2 3048   2.811   4.353  16.924  0.3605  0.6224 -0.4785
  197MPD1    C3 3049   2.862   4.266  17.020 -0.3834  0.1120 -0.0759
  197MPD1    C4 3050   2.792   4.254  17.136  0.2347  0.3394 -0.0154
  197MPD1    C5 3051   2.683   4.328  17.159  0.2398  0.2892 -0.5178
  197MPD1     H 3052   2.864   4.347  16.830 -0.0712 -0.5041 -0.6533
  197MPD1    H1 3053   2.824   4.183  17.211 -1.1573 -0.6777 -0.3925
  197MPD1    H2 3054   2.558   4.478  17.097  0.4404 -0.8922  1.5149
  197MPD1    H3 3055   2.635   4.337  17.256  0.5724 -0.3440 -0.2974
  197MPD1     N 3056   2.981   4.191  17.007  1.0811  0.2883 -0.9377
  197MPD1    H5 3057   3.003   4.136  17.090 -0.9391 -0.0684 -0.6226
  197MPD1    N1 3058   2.645   4.503  16.839  0.1138 -0.4835 -0.2541
  197MPD1    H6 3059   2.717   4.551  16.785  0.3660 -0.1526  0.3895
  197MPD1    H7 3060   2.575   4.566  16.876 -0.9963 -0.0696 -3.0231
  198MPD1     C 3061   0.465   2.419  16.028  1.1719  0.1585 -1.0148
  198MPD1    C1 3062   0.400   2.524  16.091  0.2459  0.0997  0.0217
  198MPD1    C2 3063   0.428   2.654  16.055 -0.5931 -0.2902  0.3045
  198MPD1    C3 3064   0.546   2.683  15.981 -0.3330  0.4799 -0.8897
  198MPD1    C4 3065   0.619   2.578  15.940 -0.1662 -0.3886 -0.9421
  198MPD1    C5 3066   0.579   2.448  15.959  0.6538 -0.1306  0.1141
  198MPD1     H 3067   0.358   2.730  16.088 -0.3101  1.1339 -2.3085
  198MPD1    H1 3068   0.705   2.584  15.875 -0.0388  1.2720 -0.6284
  198MPD1    H2 3069   0.436   2.315  16.035 -1.3824  1.3220  5.8445
  198MPD1    H3 3070   0.639   2.374  15.907 -0.9325 -0.4647 -1.2233
  198MPD1     N 3071   0.589   2.814  15.957  0.5120  0.0894 -0.2352
  198MPD1    H5 3072   0.676   2.833  15.909  0.2409  0.1173 -0.7087
  198MPD1    N1 3073   0.284   2.493  16.164 -0.0834  0.1628 -0.9384
  198MPD1    H6 3074   0.291   2.398  16.200 -1.2807  0.4879  0.1375
  198MPD1    H7 3075   0.278   2.555  16.244 -0.7532  0.0601 -0.9084
  199MPD1     C 3076   3.016   4.041  10.734 -0.5804 -0.3189 -0.5126
  199MPD1    C1 3077   2.915   3.953  10.782 -0.9154 -0.0432 -0.4438
  199MPD1    C2 3078   2.837   3.880  10.690 -1.1710 -0.1150 -0.1195
  199MPD1    C3 3079   2.858   3.893  10.556  0.1164  0.2853 -0.5173
  199MPD1    C4 3080   2.950   3.988  10.515  0.5068  0.1992 -0.1236
  199MPD1    C5 3081   3.027   4.057  10.601  0.0708 -0.1288 -1.7290
  199MPD1     H 3082   2.752   3.827  10.731 -0.7146 -0.8693 -0.1417
  199MPD1    H1 3083   2.962   4.010  10.409 -0.5717  0.6128 -0.1662
  199MPD1    H2 3084   3.076   4.103  10.799 -1.6695 -0.3247  0.5205
  199MPD1    H3 3085   3.100   4.125  10.559  1.5167  0.6469  2.0679
  199MPD1     N 3086   2.772   3.827  10.462  0.2416  0.4690  0.1044
  199MPD1    H5 3087   2.778   3.849  10.363 -1.7303 -0.1685 -0.1504
  199MPD1    N1 3088   2.876   3.952  10.916  0.2863  0.1776 -0.3909
  199MPD1    H6 3089   2.951   3.964  10.984 -1.4570  1.7712  1.2650
  199MPD1    H7 3090   2.826   3.868  10.945 -2.2073  1.8285  0.0766
  200MPD1     C 3091   2.461   3.168  14.466 -0.4513 -0.6126 -0.9000
  200MPD1    C1 3092   2.559   3.237  14.403  0.0929 -0.0815 -0.3252
  200MPD1    C2 3093   2.533   3.306  14.279  0.2226 -0.1756 -0.0174
  200MPD1    C3 3094   2.414   3.291  14.211 -0.2975  0.6814 -1.2025
  200MPD1    C4 3095   2.317   3.220  14.280  0.1846 -0.2625 -0.0318
  200MPD1    C5 3096   2.338   3.165  14.399 -0.2601  1.1827 -0.6072
  200MPD1     H 3097   2.606   3.367  14.229  0.3691  0.1977  0.6440
  200MPD1    H1 3098   2.214   3.223  14.249 -0.0809 -0.4754  0.8332
  200MPD1    H2 3099   2.475   3.120  14.562 -1.7511 -0.5854 -0.6979
  200MPD1    H3 3100   2.255   3.115  14.447 -0.6874  2.7647  0.2796
  200MPD1     N 3101   2.393   3.365  14.091  0.0820 -0.2574  0.6410
  200MPD1    H5 3102   2.469   3.432  14.081  0.3340 -0.7730 -0.8713
  200MPD1    N1 3103   2.688   3.240  14.456 -0.1890  0.2120  0.1992
  200MPD1    H6 3104   2.747   3.269  14.378  0.8662 -0.7352  0.6463
  200MPD1    H7 3105   2.719   3.147  14.482 -0.8413 -0.0113  0.1749
  201MPD1     C 3106   3.880   2.747  13.479  0.6855  0.4387 -0.5952
  201MPD1    C1 3107   3.999   2.751  13.553 -0.2363 -0.6285  0.2208
  201MPD1    C2 3108   4.038   2.634  13.616 -0.3335  0.0163  0.1882
  201MPD1    C3 3109   3.951   2.527  13.635 -0.3790 -0.2762 -0.5405
  201MPD1    C4 3110   3.827   2.532  13.569 -0.1218 -0.4183 -0.2830
  201MPD1    C5 3111   3.799   2.641  13.483  0.2304  0.1897  0.0203
  201MPD1     H 3112   4.135   2.626  13.664  0.3188  0.9222 -0.9747
  201MPD1    H1 3113   3.752   2.455  13.582 -1.3195  0.7585 -0.1825
  201MPD1    H2 3114   3.846   2.829  13.417  3.9183  0.4353 -2.3951
  201MPD1    H3 3115   3.706   2.640  13.427  0.5724  1.0273 -0.5790
  201MPD1     N 3116   3.998   2.415  13.703 -0.6750  0.5239  0.1749
  201MPD1    H5 3117   4.097   2.417  13.724 -0.4108 -0.9269 -0.9629
  201MPD1    N1 3118   4.096   2.852  13.530  0.2472 -0.1610 -0.6889
  201MPD1    H6 3119   4.154   2.873  13.610 -0.6645  2.1749 -0.6254
  201MPD1    H7 3120   4.050   2.937  13.497 -1.4048 -0.3091  1.2543
  202MPD1     C 3121   2.880   1.537   9.004  0.4347 -0.0034 -0.6128
  202MPD1    C1 3122   2.964   1.468   8.917  0.0185 -0.5423 -0.9510
  202MPD1    C2 3123   3.087   1.433   8.970 -0.2399  0.2996 -0.2899
  202MPD1    C3 3124   3.140   1.484   9.092 -0.0642  0.0330  0.7097
  202MPD1    C4 3125   3.055   1.560   9.166  0.2923 -0.2433  0.1122
  202MPD1    C5 3126   2.926   1.590   9.120  1.0105 -0.0468 -0.4798
  202MPD1     H 3127   3.151   1.358   8.925  0.5307  0.5692  0.3598
  202MPD1    H1 3128   3.088   1.593   9.263 -0.2040 -0.7991  0.4700
  202MPD1    H2 3129   2.774   1.551   8.990  0.5575  0.6882 -0.8330
  202MPD1    H3 3130   2.853   1.646   9.178  0.8354 -1.7531  0.9503
  202MPD1     N 3131   3.263   1.443   9.147  0.5352  0.2966 -0.0116
  202MPD1    H5 3132   3.291   1.469   9.242 -1.0942  1.1975  0.2261
  202MPD1    N1 3133   2.902   1.379   8.829 -0.5147  0.6558 -0.7992
  202MPD1    H6 3134   2.975   1.340   8.769 -0.5208  1.1494 -1.1319
  202MPD1    H7 3135   2.834   1.418   8.764 -1.1656 -1.5895 -1.4787
  203MPD1     C 3136   3.136   2.727  12.345 -0.0089 -0.2644 -0.2237
  203MPD1    C1 3137   3.037   2.645  12.288 -0.1900  0.3248 -0.4745
  203MPD1    C2 3138   3.044   2.511  12.336 -0.9580  0.3035  0.9421
  203MPD1    C3 3139   3.120   2.472  12.445  0.5779 -0.4615  0.4966
  203MPD1    C4 3140   3.219   2.556  12.494  0.2212 -0.4331  0.2983
  203MPD1    C5 3141   3.225   2.685  12.438  0.2369 -0.2391  0.3564
  203MPD1     H 3142   2.977   2.444  12.283 -0.7336  0.3374  0.6171
  203MPD1    H1 3143   3.280   2.531  12.580  1.5680 -0.6047 -0.7059
  203MPD1    H2 3144   3.149   2.823  12.296  0.5057 -1.2182 -1.9498
  203MPD1    H3 3145   3.305   2.751  12.468  2.6597 -2.5575 -1.0151
  203MPD1     N 3146   3.098   2.341  12.498 -0.0502 -0.0725  0.1225
  203MPD1    H5 3147   3.034   2.289  12.439 -1.8325  0.9512  1.1812
  203MPD1    N1 3148   2.947   2.687  12.191  0.3800  0.1217 -0.8859
  203MPD1    H6 3149   2.983   2.761  12.131  0.8031 -0.6206 -1.5535
  203MPD1    H7 3150   2.902   2.619  12.130 -0.6273 -0.3224  0.3588
  204MPD1     C 3151   1.768   4.679  17.306  0.1831 -0.8707 -0.1131
  204MPD1    C1 3152   1.841   4.657  17.185  0.1564 -0.4379 -0.6636
  204MPD1    C2 3153   1.886   4.529  17.175 -1.1974  0.4103 -0.1191
  204MPD1    C3 3154   1.883   4.438  17.280  0.2501 -0.6067 -0.3561
  204MPD1    C4 3155   1.802   4.463  17.393 -0.2442 -0.7065  0.0404
  204MPD1    C5 3156   1.737   4.583  17.400  0.0534 -0.4165 -0.2385
  204MPD1     H 3157   1.961   4.497  17.102 -1.1037  4.6256 -1.8629
  204MPD1    H1 3158   1.789   4.387  17.469  1.2104  0.8439  1.8642
  204MPD1    H2 3159   1.717   0.038  17.321  0.1309 -0.8253 -0.6023
  204MPD1    H3 3160   1.667   4.589  17.483 -1.5097  3.8591 -1.8462
  204MPD1     N 3161   1.959   4.320  17.254  0.0616  0.1779 -0.4616
  204MPD1    H5 3162   1.993   4.306  17.159  1.5637 -2.4992  0.4795
  204MPD1    N1 3163   1.871   0.022  17.096  0.8069 -0.3002  0.4794
  204MPD1    H6 3164   1.804   0.099  17.095  1.4697  0.2485 -1.0013
  204MPD1    H7 3165   1.872   4.712  17.006  4.0251  1.4944 -0.4034
  205MPD1     C 3166   2.965   2.829  17.428  0.3486  0.1545 -0.1804
  205MPD1    C1 3167   2.897   2.756  17.514  0.5578 -0.3648 -0.4683
  205MPD1    C2 3168   2.759   2.769  17.510 -0.1629  0.5150 -0.8310
  205MPD1    C3 3169   2.707   2.871  17.430 -0.5492  0.2803 -0.0895
  205MPD1    C4 3170   2.781   2.955  17.352  0.1283  0.1333  0.9288
  205MPD1    C5 3171   2.915   2.924  17.346 -0.8145  0.0379  0.1800
  205MPD1     H 3172   2.694   2.710  17.573  1.7348 -1.7851 -0.9900
  205MPD1    H1 3173   2.746   3.039  17.293  2.8326  0.5619 -0.0622
  205MPD1    H2 3174   3.070   2.805  17.430  0.4340  0.5807  0.2131
  205MPD1    H3 3175   2.993   2.981  17.297  0.8129 -1.3164  1.2515
  205MPD1     N 3176   2.572   2.917  17.440 -0.2558 -0.1277  0.0358
  205MPD1    H5 3177   2.548   3.008  17.402 -0.3273  0.2108  0.8924
  205MPD1    N1 3178   2.950   2.648  17.590 -0.0566  0.6237  0.6366
  205MPD1    H6 3179   2.895   2.618  17.671 -0.9951  0.4433 -0.0657
  205MPD1    H7 3180   3.037   2.670  17.639 -0.8010  2.1014  1.2897
  206MPD1     C 3181   2.079   1.339  17.121  0.3635 -0.0670  0.1569
  206MPD1    C1 3182   2.098   1.213  17.069  0.4539  0.1988  0.4446
  206MPD1    C2 3183   2.196   1.205  16.972 -0.3194 -0.1301  0.6440
  206MPD1    C3 3184   2.263   1.315  16.924  0.5185 -0.1549  0.3782
  206MPD1    C4 3185   2.233   1.438  16.977 -0.3922  1.0255 -0.6898
  206MPD1    C5 3186   2.138   1.445  17.068 -0.1657  0.0152  0.2601
  206MPD1     H 3187   2.238   1.109  16.946 -1.8468 -0.8171  0.7073
  206MPD1    H1 3188   2.291   1.525  16.950 -0.7121  1.2901 -0.5261
  206MPD1    H2 3189   2.022   1.346  17.213  1.4325 -1.3781  0.9063
  206MPD1    H3 3190   2.119   1.546  17.103  1.7060  0.3349  0.4067
  206MPD1     N 3191   2.351   1.319  16.810 -0.8662 -0.2028  0.4192
  206MPD1    H5 3192   2.383   1.411  16.782 -0.9393  0.7370  3.4528
  206MPD1    N1 3193   2.040   1.095  17.122  0.3243 -0.0607  0.0659
  206MPD1    H6 3194   1.949   1.100  17.167  0.2863  0.8896 -0.1159
  206MPD1    H7 3195   2.024   1.023  17.052 -0.1015  0.9506 -0.8927
  207MPD1     C 3196   0.404   3.326   9.375  0.7997 -0.2215 -1.0728
  207MPD1    C1 3197   0.378   3.201   9.425 -0.5843  0.4394 -0.6298
  207MPD1    C2 3198   0.338   3.190   9.556  0.0928 -0.2691  0.4912
  207MPD1    C3 3199   0.354   3.296   9.639 -0.2572  0.4430 -0.8395
  207MPD1    C4 3200   0.407   3.418   9.593  0.6978 -0.0963  0.2926
  207MPD1    C5 3201   0.424   3.434   9.452  0.6110 -0.8270 -0.0828
  207MPD1     H 3202   0.299   3.096   9.592 -0.1567 -0.2939  0.1657
  207MPD1    H1 3203   0.419   3.507   9.654 -4.4544  0.2489  0.8178
  207MPD1    H2 3204   0.421   3.334   9.268 -0.1747  2.1581 -1.0284
  207MPD1    H3 3205   0.450   3.525   9.400 -0.4294 -0.4179  0.1142
  207MPD1     N 3206   0.340   3.285   9.775  0.3034  0.6632 -0.0091
  207MPD1    H5 3207   0.344   3.372   9.827 -0.3465  1.0734 -0.6548
  207MPD1    N1 3208   0.357   3.092   9.336 -0.7467  0.2288  0.9480
  207MPD1    H6 3209   0.373   3.007   9.389 -2.8734 -0.1119  1.0362
  207MPD1    H7 3210   0.413   3.104   9.252 -1.4519  2.7822  0.8466
  208MPD1     C 3211   1.785   1.862   0.897 -0.6727 -0.5127 -0.7213
  208MPD1    C1 3212   1.739   1.988   0.854 -0.5353 -0.2644 -0.6474
  208MPD1    C2 3213   1.757   2.007   0.713  0.0169  0.6447  0.2846
  208MPD1    C3 3214   1.784   1.901   0.629  0.5942 -0.3384 -0.1693
  208MPD1    C4 3215   1.826   1.782   0.680 -0.0841 -0.4262 -0.8048
  208MPD1    C5 3216   1.826   1.766   0.816 -0.6777  0.6105  0.1321
  208MPD1     H 3217   1.735   2.106   0.676 -0.5687  0.3098 -0.2642
  208MPD1    H1 3218   1.865   1.703   0.617  0.1720 -1.4037  0.5724
  208MPD1    H2 3219   1.777   1.834   1.002  1.6751  0.7647 -0.2028
  208MPD1    H3 3220   1.877   1.683   0.863 -1.7476 -0.9379 -1.4266
  208MPD1     N 3221   1.785   1.928   0.489 -0.0313 -0.0166  0.4618
  208MPD1    H5 3222   1.750   2.017   0.456 -0.1565 -0.3952 -0.4109
  208MPD1    N1 3223   1.724   2.088   0.951 -0.0685 -0.0851 -0.1979
  208MPD1    H6 3224   1.671   2.170   0.925  1.4845  0.9437 -0.0892
  208MPD1    H7 3225   1.694   2.051   1.041  0.4494  0.0710  0.0392
  209MPD1     C 3226   0.182   1.816  10.918 -0.2191 -0.0555 -0.9635
  209MPD1    C1 3227   0.185   1.877  10.795  0.3632 -0.1049 -0.1979
  209MPD1    C2 3228   0.282   1.979  10.766  0.4886 -0.3886 -0.1465
  209MPD1    C3 3229   0.383   2.007  10.859 -0.1089  0.1328 -0.0169
  209MPD1    C4 3230   0.383   1.944  10.985  0.7861 -0.7226 -0.0936
  209MPD1    C5 3231   0.280   1.856  11.008  0.0877 -0.0981  0.1068
  209MPD1     H 3232   0.269   2.043  10.679 -0.5919 -0.7957 -0.2804
  209MPD1    H1 3233   0.445   1.978  11.068 -0.5998  2.7414 -0.4862
  209MPD1    H2 3234   0.113   1.737  10.947  2.7372 -2.3698 -0.2599
  209MPD1    H3 3235   0.270   1.813  11.107  2.8092  1.3948  1.0307
  209MPD1     N 3236   0.468   2.113  10.832  0.0175  0.8310  0.6279
  209MPD1    H5 3237   0.457   2.161  10.743  1.0648  0.0626  0.0797
  209MPD1    N1 3238   0.107   1.831  10.689  0.0520  0.4842 -0.2412
  209MPD1    H6 3239   0.018   1.793  10.721  0.2905 -1.5022 -1.9447
  209MPD1    H7 3240   0.101   1.910  10.625  0.4091  0.6956 -0.0170
  210MPD1     C 3241   1.374   2.502  11.131 -0.3002  0.3473  0.0471
  210MPD1    C1 3242   1.342   2.495  10.998 -0.1041  0.1518 -0.4024
  210MPD1    C2 3243   1.206   2.483  10.954 -0.3695  0.4086 -0.2535
  210MPD1    C3 3244   1.110   2.457  11.052  0.7067 -0.5086  0.5782
  210MPD1    C4 3245   1.149   2.443  11.182 -0.6108 -0.3300  0.2195
  210MPD1    C5 3246   1.271   2.476  11.223 -0.6765  0.9026  0.0185
  210MPD1     H 3247   1.186   2.483  10.847  0.7909  1.4106 -0.4706
  210MPD1    H1 3248   1.072   2.404  11.249 -0.1632  0.5915  1.2596
  210MPD1    H2 3249   1.473   2.509  11.174  0.2539  0.5936 -1.3042
  210MPD1    H3 3250   1.296   2.454  11.326 -0.5002  1.9425  0.1987
  210MPD1     N 3251   0.969   2.457  11.019  0.0995  0.3855  0.1412
  210MPD1    H5 3252   0.913   2.420  11.094 -3.1840 -0.9196 -2.9869
  210MPD1    N1 3253   1.445   2.535  10.908  0.7660 -0.1586  0.1620
  210MPD1    H6 3254   1.417   2.512  10.813 -0.2694  0.8807  0.2117
  210MPD1    H7 3255   1.522   2.472  10.928  2.3073  1.7053  0.1674
  211MPD1     C 3256   3.181   2.934  16.929  0.0418 -0.2496  0.3974
  211MPD1    C1 3257   3.150   3.009  17.041 -0.2430 -0.3909  0.3500
  211MPD1    C2 3258   3.039   3.085  17.029  0.1161  0.0227 -0.0352
  211MPD1    C3 3259   2.965   3.097  16.910  0.0082  0.3835 -0.5451
  211MPD1    C4 3260   3.012   3.038  16.791 -0.5032 -0.0224 -0.1649
  211MPD1    C5 3261   3.108   2.945  16.813  0.6765 -0.1231 -0.3734
  211MPD1     H 3262   3.001   3.139  17.115  1.1654 -2.2541  1.8547
  211MPD1    H1 3263   2.980   3.054  16.689  0.4163  1.2720 -0.2496
  211MPD1    H2 3264   3.272   2.875  16.931  0.2362 -0.0091 -2.0297
  211MPD1    H3 3265   3.139   2.893  16.723  0.0381 -2.6918  0.8644
  211MPD1     N 3266   2.862   3.192  16.898 -0.3706 -0.1528 -0.6530
  211MPD1    H5 3267   2.825   3.229  16.984 -1.7940 -1.3239 -0.7569
  211MPD1    N1 3268   3.225   2.993  17.166 -0.3623  0.1285 -0.1648
  211MPD1    H6 3269   3.323   2.972  17.148 -0.9602  0.2783 -3.6251
  211MPD1    H7 3270   3.205   3.080  17.214 -1.4766 -1.1626  1.7170
  212MPD1     C 3271   2.163   1.455  16.471  0.3357 -0.0918  0.2776
  212MPD1    C1 3272   2.147   1.493  16.602 -0.1191  0.5359 -0.4244
  212MPD1    C2 3273   2.052   1.433  16.676 -0.1497 -0.0163 -0.5446
  212MPD1    C3 3274   2.009   1.311  16.635  0.2814 -0.0493  0.2941
  212MPD1    C4 3275   2.039   1.268  16.507  0.4562  0.3148  0.2084
  212MPD1    C5 3276   2.110   1.347  16.426 -0.8770  0.1122 -0.1924
  212MPD1     H 3277   2.018   1.473  16.770  0.5159 -3.7925  1.3095
  212MPD1    H1 3278   1.991   1.181  16.465  0.4763  1.3433 -1.9181
  212MPD1    H2 3279   2.206   1.514  16.391  0.1200 -0.6553 -0.2555
  212MPD1    H3 3280   2.123   1.320  16.322  1.1947  1.3384 -0.2592
  212MPD1     N 3281   1.934   1.223  16.715 -0.2435 -0.6338 -0.2772
  212MPD1    H5 3282   1.928   1.128  16.680  0.0778 -0.5661 -0.5192
  212MPD1    N1 3283   2.188   1.622  16.644 -0.0397  0.1261 -0.3948
  212MPD1    H6 3284   2.191   1.639  16.744 -2.0849 -1.5458 -0.0668
  212MPD1    H7 3285   2.271   1.655  16.594 -0.8123  0.1140 -1.6765
  213MPD1     C 3286   0.607   1.676  16.304  1.1748  0.0956 -0.1750
  213MPD1    C1 3287   0.572   1.547  16.267  0.3608 -0.3684 -0.6124
  213MPD1    C2 3288   0.482   1.537  16.159 -0.2892 -0.2118  0.0321
  213MPD1    C3 3289   0.423   1.653  16.107  0.7959 -0.0509  0.3008
  213MPD1    C4 3290   0.435   1.777  16.167  0.0408 -0.0300 -0.1797
  213MPD1    C5 3291   0.532   1.785  16.265  0.5368  0.7263  0.1505
  213MPD1     H 3292   0.473   1.443  16.106 -0.4439  0.4881 -1.1721
  213MPD1    H1 3293   0.380   1.868  16.142  1.0357  0.6356  0.0655
  213MPD1    H2 3294   0.684   1.692  16.379  0.0856 -2.1063  1.4226
  213MPD1    H3 3295   0.545   1.879  16.317  0.9152  0.0751  1.2265
  213MPD1     N 3296   0.328   1.639  15.994  0.3241 -0.3082  0.0532
  213MPD1    H5 3297   0.321   1.548  15.949 -0.2487 -0.7126  0.9554
  213MPD1    N1 3298   0.656   1.440  16.296 -0.0481  0.9681 -0.1202
  213MPD1    H6 3299   0.702   1.445  16.387  1.4642  1.9270 -0.9440
  213MPD1    H7 3300   0.596   1.357  16.300 -1.5338  1.9507 -2.1229
  214MPD1     C 3301   4.554   0.938  15.576  0.2346 -0.1454  0.2534
  214MPD1    C1 3302   4.559   0.990  15.706 -1.1773  0.3082 -0.3055
  214MPD1    C2 3303   4.610   1.118  15.733  0.4489  0.1568  0.4497
  214MPD1    C3 3304   4.666   1.189  15.627 -0.0950 -0.6549 -0.0524
  214MPD1    C4 3305   4.672   1.135  15.504 -0.3720 -0.5506 -1.0730
  214MPD1    C5 3306   4.618   1.012  15.478  0.0179 -0.6804  0.4256
  214MPD1     H 3307   4.608   1.169  15.828  0.1618  1.7855 -0.4367
  214MPD1    H1 3308   4.712   1.192  15.421 -0.4682  0.2820 -0.5542
  214MPD1    H2 3309   4.496   0.853  15.544  3.2699 -1.8883 -0.6394
  214MPD1    H3 3310   4.608   0.964  15.381  2.0948  1.1601 -0.6705
  214MPD1     N 3311   4.718   1.321  15.648 -0.0327  0.1284 -0.4004
  214MPD1    H5 3312   0.022   1.369  15.568 -1.4795  0.6287 -0.8299
  214MPD1    N1 3313   4.484   0.924  15.803  0.3289  0.0120 -0.1344
  214MPD1    H6 3314   4.472   0.827  15.774 -0.5517  0.6482 -1.9613
  214MPD1    H7 3315   4.526   0.918  15.895 -0.4942 -2.1037  0.1064
  215MPD1     C 3316   4.349   1.988  11.220  0.2972  0.5119  0.1090
  215MPD1    C1 3317   4.404   1.963  11.343 -0.4784 -0.5679  0.6830
  215MPD1    C2 3318   4.482   2.057  11.405 -0.1920 -0.0368  0.4872
  215MPD1    C3 3319   4.512   2.174  11.344 -0.3674 -0.4041  0.2692
  215MPD1    C4 3320   4.452   2.204  11.223  1.0207  0.0830 -0.6595
  215MPD1    C5 3321   4.371   2.113  11.168 -0.5814 -0.0005  0.5957
  215MPD1     H 3322   4.531   2.025  11.496 -1.1357 -1.9753  0.3062
  215MPD1    H1 3323   4.477   2.295  11.170  1.5868  0.4539  0.2316
  215MPD1    H2 3324   4.297   1.911  11.166  0.7893 -0.8731  1.6225
  215MPD1    H3 3325   4.333   2.143  11.071  0.6293 -1.7203 -0.4069
  215MPD1     N 3326   4.617   2.255  11.398 -0.4437 -0.2553 -0.9768
  215MPD1    H5 3327   4.647   2.216  11.487 -0.6404  0.2182 -0.7010
  215MPD1    N1 3328   4.385   1.840  11.405 -0.7032 -0.1704  0.5796
  215MPD1    H6 3329   4.395   1.763  11.340  1.7564  0.0906  0.6820
  215MPD1    H7 3330   4.438   1.823  11.490 -0.3848  0.3833  0.4938
  216MPD1     C 3331   2.212   0.881  16.367  0.0345  0.1682 -0.1192
  216MPD1    C1 3332   2.195   0.747  16.383 -0.3862  1.0033 -0.3960
  216MPD1    C2 3333   2.150   0.691  16.501  0.0126 -0.0109 -0.0007
  216MPD1    C3 3334   2.120   0.775  16.609  0.5541  0.3408  0.0666
  216MPD1    C4 3335   2.134   0.913  16.587 -0.0706 -0.0520 -0.0865
  216MPD1    C5 3336   2.195   0.965  16.474  0.4421 -0.3509  0.2875
  216MPD1     H 3337   2.119   0.589  16.518  0.5283  0.1748  2.0839
  216MPD1    H1 3338   2.106   0.982  16.666  1.5568  1.5611 -0.9084
  216MPD1    H2 3339   2.248   0.918  16.272 -1.0960  2.4033  0.3322
  216MPD1    H3 3340   2.219   1.070  16.460  1.7051 -0.3351  2.5693
  216MPD1     N 3341   2.074   0.717  16.731  0.0301 -0.5858 -0.8298
  216MPD1    H5 3342   2.080   0.615  16.733 -0.0601 -0.5627  0.3875
  216MPD1    N1 3343   2.239   0.667  16.275  0.2446 -0.2882  0.6604
  216MPD1    H6 3344   2.193   0.700  16.190  2.1847 -0.9586 -0.6465
  216MPD1    H7 3345   2.225   0.567  16.290 -0.4458 -0.2025  0.6115
  217MPD1     C 3346   3.142   0.341   9.190 -0.8904 -0.7573  0.2027
  217MPD1    C1 3347   3.115   0.417   9.083 -0.2528  0.1962 -0.1477
  217MPD1    C2 3348   3.138   0.558   9.095  0.2305  0.4790 -0.0709
  217MPD1    C3 3349   3.181   0.619   9.213 -0.2911  0.5662  0.2259
  217MPD1    C4 3350   3.216   0.529   9.317  0.6568  0.0571  0.4726
  217MPD1    C5 3351   3.190   0.395   9.307  0.0045 -0.4831  0.2805
  217MPD1     H 3352   3.119   0.629   9.016  0.3111  0.0920 -0.4363
  217MPD1    H1 3353   3.274   0.561   9.403  1.5354  0.9976 -0.4692
  217MPD1    H2 3354   3.125   0.235   9.177 -0.3845 -0.6627 -1.2533
  217MPD1    H3 3355   3.220   0.333   9.391 -0.5936  0.8633  1.5084
  217MPD1     N 3356   3.181   0.760   9.241 -0.1967 -0.0450  0.1065
  217MPD1    H5 3357   3.219   0.780   9.332  0.8712 -0.7961 -0.1717
  217MPD1    N1 3358   3.091   0.358   8.959 -0.1080 -0.7584  0.3660
  217MPD1    H6 3359   3.030   0.277   8.955  0.3801 -1.0520 -1.1910
  217MPD1    H7 3360   3.057   0.427   8.893 -0.4699 -0.8088  0.5022
  218MPD1     C 3361   4.676   2.803  12.499  0.4733  0.3111  0.1927
  218MPD1    C1 3362   0.048   2.777  12.415 -0.0738 -1.0437  0.1115
  218MPD1    C2 3363   0.100   2.651  12.415 -0.1388 -0.0829 -0.9116
  218MPD1    C3 3364   0.051   2.553  12.504  0.6573  0.5872 -0.4508
  218MPD1    C4 3365   4.681   2.578  12.587 -0.5135 -0.0680 -0.1124
  218MPD1    C5 3366   4.627   2.704  12.585  1.0479  0.5274  0.0043
  218MPD1     H 3367   0.181   2.617  12.352  1.4108 -0.9816  1.5892
  218MPD1    H1 3368   4.637   2.515  12.664  0.3967 -0.5631  0.0061
  218MPD1    H2 3369   4.624   2.898  12.493  1.9898  1.0287 -1.5032
  218MPD1    H3 3370   4.543   2.724  12.651  1.1223 -0.2212  0.3347
  218MPD1     N 3371   0.119   2.430  12.495  0.0193 -0.1615  0.1154
  218MPD1    H5 3372   0.174   2.428  12.410  0.0411 -0.2045  0.1305
  218MPD1    N1 3373   0.078   2.857  12.306  0.2635  0.4349  0.1087
  218MPD1    H6 3374   0.169   2.845  12.263  0.4223 -0.6305  0.7385
  218MPD1    H7 3375   0.071   2.957  12.322  1.3804  0.4193  0.6845
  219MPD1     C 3376   0.178   1.757  11.797 -0.4729  0.2727 -0.1923
  219MPD1    C1 3377   0.214   1.898  11.805  0.0460 -0.3993  0.9909
  219MPD1    C2 3378   0.219   1.953  11.931 -0.3872 -0.2246  0.6589
  219MPD1    C3 3379   0.181   1.876  12.045 -0.3841  0.3522  0.7400
  219MPD1    C4 3380   0.137   1.748  12.024 -0.1875  0.2039  0.6754
  219MPD1    C5 3381   0.126   1.686  11.903 -0.6859  0.4808  0.0074
  219MPD1     H 3382   0.255   2.054  11.948 -2.4711  0.4938  0.8206
  219MPD1    H1 3383   0.126   1.686  12.112 -0.1569 -0.4951  0.1786
  219MPD1    H2 3384   0.198   1.703  11.705 -5.0845 -1.1323 -0.3584
  219MPD1    H3 3385   0.107   1.580  11.901  0.6930  0.2356 -0.5065
  219MPD1     N 3386   0.188   1.920  12.176 -0.6848  0.5290 -0.0559
  219MPD1    H5 3387   0.185   1.853  12.252  0.6214  1.3181  0.6983
  219MPD1    N1 3388   0.262   1.970  11.691  0.0717 -0.0933 -0.7083
  219MPD1    H6 3389   0.260   2.072  11.694  0.3807 -0.0930 -0.5509
  219MPD1    H7 3390   0.224   1.935  11.603 -2.1863  0.1571  0.1535
  220MPD1     C 3391   4.712   3.021   9.685  0.0461  0.0187 -0.1014
  220MPD1    C1 3392   4.660   2.901   9.718 -0.3354  0.5223  0.0324
  220MPD1    C2 3393   4.658   2.869   9.856 -0.0216 -0.4749 -0.4823
  220MPD1    C3 3394   4.699   2.955   9.958 -0.2223 -0.8241 -0.2749
  220MPD1    C4 3395   0.012   3.074   9.921 -0.5970  0.3277 -0.0861
  220MPD1    C5 3396   0.017   3.105   9.787 -0.4254 -0.1194  0.5459
  220MPD1     H 3397   4.634   2.768   9.886 -0.6988  0.1919  1.1938
  220MPD1    H1 3398   0.046   3.155   9.984  0.6871  0.6509 -1.1830
  220MPD1    H2 3399   4.728   3.055   9.583 -0.6057 -0.7643 -0.4747
  220MPD1    H3 3400   0.053   3.205   9.765 -2.4200  0.3707 -0.4674
  220MPD1     N 3401   4.675   2.925  10.094 -0.1003  0.5847 -0.4490
  220MPD1    H5 3402   4.622   2.839  10.105  2.6701 -0.8783  1.4093
  220MPD1    N1 3403   4.629   2.804   9.621 -0.1813 -0.0191  0.8422
  220MPD1    H6 3404   4.624   2.848   9.529 -1.3920 -1.0725  0.3975
  220MPD1    H7 3405   4.551   2.743   9.645 -0.6816 -0.2357 -1.3195
  221MPD1     C 3406   3.392   1.399  16.225 -0.5458 -0.0847  0.1816
  221MPD1    C1 3407   3.375   1.495  16.320  0.2564  0.3494 -0.3922
  221MPD1    C2 3408   3.265   1.580  16.300 -0.3937 -0.0262 -0.5485
  221MPD1    C3 3409   3.192   1.593  16.187  0.3488 -0.2463 -0.0236
  221MPD1    C4 3410   3.211   1.494  16.092 -0.9388 -0.5021  0.2867
  221MPD1    C5 3411   3.315   1.402  16.106  0.2666 -0.0190  0.3936
  221MPD1     H 3412   3.251   1.660  16.372 -2.3073 -1.6980  0.9297
  221MPD1    H1 3413   3.148   1.507  16.004 -1.5296 -1.9448  0.5017
  221MPD1    H2 3414   3.477   1.332  16.224  0.0907  0.7261  0.2023
  221MPD1    H3 3415   3.346   1.330  16.031 -0.4214  0.1439 -0.0402
  221MPD1     N 3416   3.076   1.676  16.163 -0.4266 -0.0741  0.0042
  221MPD1    H5 3417   3.039   1.677  16.069  2.1209  1.4297 -0.9630
  221MPD1    N1 3418   3.452   1.508  16.434  0.2432  0.2287  0.5026
  221MPD1    H6 3419   3.405   1.544  16.516 -2.5608 -0.9618 -0.5924
  221MPD1    H7 3420   3.495   1.421  16.462 -3.6244 -2.4487 -1.9308
  222MPD1     C 3421   1.612   1.740  17.054  0.3776 -0.5841  0.2215
  222MPD1    C1 3422   1.692   1.632  17.035  0.4227 -0.1133  0.3178
  222MPD1    C2 3423   1.705   1.546  17.142  1.0663  0.5351 -0.0020
  222MPD1    C3 3424   1.635   1.563  17.264 -0.5799  0.6082  0.5334
  222MPD1    C4 3425   1.549   1.672  17.276 -0.3694  0.6919  0.0424
  222MPD1    C5 3426   1.542   1.758  17.169  0.4330 -0.6350 -0.0319
  222MPD1     H 3427   1.778   1.471  17.114 -0.1224  0.2575 -2.3262
  222MPD1    H1 3428   1.512   1.700  17.374 -1.5230 -0.9164  0.0622
  222MPD1    H2 3429   1.596   1.812  16.975 -0.7563 -0.0488  0.9457
  222MPD1    H3 3430   1.489   1.851  17.184  3.8458  0.9421  2.1122
  222MPD1     N 3431   1.639   1.473  17.377 -0.0122 -0.3429 -0.2682
  222MPD1    H5 3432   1.584   1.509  17.455  0.5216  2.4853 -1.1835
  222MPD1    N1 3433   1.784   1.632  16.929  0.0064  0.5633  0.0664
  222MPD1    H6 3434   1.744   1.679  16.848  1.0408  0.8524 -0.2883
  222MPD1    H7 3435   1.808   1.539  16.896  2.3461  1.4195 -0.6841
  223MPD1     C 3436   1.608   0.454  17.355  1.0119 -0.4347 -0.3766
  223MPD1    C1 3437   1.585   0.553  17.255  0.3378 -0.4965 -0.5402
  223MPD1    C2 3438   1.561   0.682  17.292  0.7767 -0.1455 -0.6698
  223MPD1    C3 3439   1.586   0.724  17.421  0.1161 -0.3777  0.2197
  223MPD1    C4 3440   1.635   0.628  17.513 -0.0251  0.4402  0.4466
  223MPD1    C5 3441   1.645   0.496  17.481  0.5788 -0.5700 -0.0575
  223MPD1     H 3442   1.519   0.755  17.224 -1.0649 -0.3313  0.2890
  223MPD1    H1 3443   1.671   0.659  17.610 -0.7879 -0.4808  1.0075
  223MPD1    H2 3444   1.632   0.354  17.322  1.7051 -0.6013  0.6309
  223MPD1    H3 3445   1.695   0.424  17.544 -1.2745 -1.5276  0.3252
  223MPD1     N 3446   1.573   0.860  17.448  0.1650  0.1415  0.3280
  223MPD1    H5 3447   1.563   0.923  17.368  0.2927  0.4839  0.5805
  223MPD1    N1 3448   1.546   0.513  17.123  0.3928  0.6891 -0.6003
  223MPD1    H6 3449   1.564   0.586  17.054 -2.7110  0.7206 -1.3647
  223MPD1    H7 3450   1.607   0.436  17.097 -0.1363  0.4871 -1.2146
  224MPD1     C 3451   2.289   1.898   8.950  0.3949  0.0583  0.4991
  224MPD1    C1 3452   2.370   1.798   9.009  1.0830 -0.1803 -0.0735
  224MPD1    C2 3453   2.419   1.809   9.140 -0.4130 -0.3953  0.2178
  224MPD1    C3 3454   2.386   1.918   9.216  0.1268  0.1172  0.3409
  224MPD1    C4 3455   2.309   2.013   9.155 -0.4207  0.0313 -0.1694
  224MPD1    C5 3456   2.259   2.010   9.026  0.0919 -0.2751 -1.1644
  224MPD1     H 3457   2.498   1.743   9.175 -2.6111 -1.6798  2.7077
  224MPD1    H1 3458   2.299   2.104   9.213  0.5947 -0.3303  0.5787
  224MPD1    H2 3459   2.249   1.889   8.849  2.9080 -0.0713 -0.4817
  224MPD1    H3 3460   2.193   2.084   8.982 -1.4207  1.0202  3.2855
  224MPD1     N 3461   2.437   1.948   9.343  0.5799  0.1775  0.0984
  224MPD1    H5 3462   2.404   2.025   9.400 -1.5552 -0.1074 -0.7423
  224MPD1    N1 3463   2.427   1.699   8.923 -0.6156  0.0633 -0.3159
  224MPD1    H6 3464   2.444   1.606   8.962  0.4163  0.8076  0.9993
  224MPD1    H7 3465   2.367   1.697   8.841 -0.0648 -0.7764 -0.6961
  225MPD1     C 3466   0.358   3.096  12.436  0.5838  0.1120 -0.8493
  225MPD1    C1 3467   0.321   3.158  12.318 -0.1193  1.0111  0.8717
  225MPD1    C2 3468   0.184   3.194  12.306  0.0379 -0.9200 -0.8344
  225MPD1    C3 3469   0.096   3.160  12.409  0.5411 -0.2911 -0.8026
  225MPD1    C4 3470   0.142   3.091  12.524  0.2782  0.3889  0.4625
  225MPD1    C5 3471   0.271   3.072  12.541  0.8391 -0.2504  1.5299
  225MPD1     H 3472   0.153   3.249  12.217 -0.2296  0.3020  0.0096
  225MPD1    H1 3473   0.074   3.082  12.608 -1.1177  1.3804 -0.5414
  225MPD1    H2 3474   0.462   3.081  12.463 -0.2255 -1.5598  1.3513
  225MPD1    H3 3475   0.311   3.050  12.639 -0.2605 -1.1043  1.7844
  225MPD1     N 3476   4.700   3.184  12.404  0.4097 -0.2380 -0.2760
  225MPD1    H5 3477   4.641   3.159  12.483 -0.0220  1.2961 -0.1137
  225MPD1    N1 3478   0.417   3.196  12.220 -0.3011  0.4378 -0.3648
  225MPD1    H6 3479   0.381   3.193  12.125 -0.0737 -0.7166 -0.4178
  225MPD1    H7 3480   0.510   3.154  12.220 -0.4546  0.1084  1.2037
  226MPD1     C 3481   3.359   3.989  10.195 -0.4832  0.3810 -0.7842
  226MPD1    C1 3482   3.396   3.904  10.100  0.7317 -0.0069 -0.2647
  226MPD1    C2 3483   3.337   3.784  10.098 -0.0293 -0.6143 -0.3070
  226MPD1    C3 3484   3.233   3.751  10.182 -0.1822  0.3843  0.4677
  226MPD1    C4 3485   3.190   3.841  10.280 -0.5977  0.6604 -0.2597
  226MPD1    C5 3486   3.259   3.960  10.286 -0.4796  0.3286 -0.3085
  226MPD1     H 3487   3.366   3.711  10.023  0.2047 -0.7245 -0.1076
  226MPD1    H1 3488   3.112   3.827  10.353 -0.7251  0.8520 -0.3604
  226MPD1    H2 3489   3.424   4.075  10.201  0.7014 -0.4444 -1.6874
  226MPD1    H3 3490   3.222   4.036  10.354  1.6965  2.1193 -1.1251
  226MPD1     N 3491   3.183   3.615  10.168  0.4966 -0.4646  0.0746
  226MPD1    H5 3492   3.230   3.551  10.105 -0.2168 -0.3914 -0.5285
  226MPD1    N1 3493   3.505   3.939  10.012  0.1473 -0.4317  0.2307
  226MPD1    H6 3494   3.511   3.881   9.928 -1.7275 -0.9629  0.4525
  226MPD1    H7 3495   3.503   4.037   9.985  0.2944 -0.1563  1.2172
  227MPD1     C 3496   2.345   3.247   9.831  0.2312  0.5417 -0.5422
  227MPD1    C1 3497   2.386   3.377   9.867  0.0326  0.3237 -0.1918
  227MPD1    C2 3498   2.503   3.388   9.936  0.1697 -0.0348  0.2232
  227MPD1    C3 3499   2.573   3.284   9.980  0.4511  0.0461 -0.1881
  227MPD1    C4 3500   2.527   3.155   9.951  0.1677 -0.7512  0.4543
  227MPD1    C5 3501   2.417   3.136   9.869  0.2503  0.1567 -0.2111
  227MPD1     H 3502   2.553   3.483   9.947 -0.8184  0.3112  1.7496
  227MPD1    H1 3503   2.573   3.061   9.978  0.7475 -0.7344 -0.4929
  227MPD1    H2 3504   2.261   3.233   9.765  3.1512 -1.1474 -3.8780
  227MPD1    H3 3505   2.389   3.038   9.834  0.4438 -0.2444  0.7534
  227MPD1     N 3506   2.695   3.300  10.053 -0.4130 -0.2338  0.0279
  227MPD1    H5 3507   2.728   3.395  10.070 -1.0187 -0.1143  0.5077
  227MPD1    N1 3508   2.312   3.489   9.835  0.0764  0.3863 -0.0364
  227MPD1    H6 3509   2.351   3.581   9.818 -3.4001  1.5058 -2.1002
  227MPD1    H7 3510   2.242   3.474   9.762  2.5819  0.0428 -2.3702
  228MPD1     C 3511   1.667   0.467  13.133 -0.7636 -0.1417 -0.3034
  228MPD1    C1 3512   1.747   0.427  13.240 -0.6394  0.0757  0.1129
  228MPD1    C2 3513   1.721   0.460  13.369 -0.5971 -0.3851 -0.0525
  228MPD1    C3 3514   1.609   0.526  13.396 -0.0214  0.8765  0.3466
  228MPD1    C4 3515   1.536   0.580  13.295 -0.2021  0.0142 -0.6903
  228MPD1    C5 3516   1.562   0.544  13.161 -0.4270 -0.3754  0.7822
  228MPD1     H 3517   1.789   0.452  13.454 -1.1414 -0.4947  0.3693
  228MPD1    H1 3518   1.444   0.636  13.309  0.7379  1.4509 -0.2893
  228MPD1    H2 3519   1.687   0.425  13.035  1.8418  1.7724 -0.5989
  228MPD1    H3 3520   1.485   0.567  13.088 -1.1397 -0.0239  1.6581
  228MPD1     N 3521   1.593   0.573  13.532 -0.5971 -0.5653  1.4752
  228MPD1    H5 3522   1.672   0.557  13.593 -0.7074  0.0842  1.7891
  228MPD1    N1 3523   1.877   0.382  13.214 -0.1922 -0.3042 -0.1761
  228MPD1    H6 3524   1.885   0.318  13.135 -2.5270 -0.0558 -0.6219
  228MPD1    H7 3525   1.926   0.335  13.290 -0.6198 -0.0633  0.2513
  229MPD1     C 3526   0.797   0.675  14.546 -0.6043  0.3585 -0.2369
  229MPD1    C1 3527   0.784   0.655  14.680  0.9271  0.0545  0.5396
  229MPD1    C2 3528   0.850   0.552  14.739  0.0488  0.4879  1.2782
  229MPD1    C3 3529   0.924   0.459  14.656  1.3951 -0.4385 -0.2466
  229MPD1    C4 3530   0.926   0.483  14.522 -0.2183 -0.3066  0.1810
  229MPD1    C5 3531   0.855   0.587  14.470 -0.0571  0.0408 -0.4870
  229MPD1     H 3532   0.832   0.544  14.845 -0.2882 -2.2571  1.0078
  229MPD1    H1 3533   0.980   0.416  14.457 -0.9023  0.3152 -1.0269
  229MPD1    H2 3534   0.752   0.763  14.501  1.8394  2.3546  1.1935
  229MPD1    H3 3535   0.848   0.610  14.365 -1.8882  0.3650 -0.2946
  229MPD1     N 3536   1.001   0.356  14.711  0.9456 -0.2385  0.7515
  229MPD1    H5 3537   1.074   0.324  14.648  0.2549  0.3353 -0.3306
  229MPD1    N1 3538   0.730   0.758  14.758 -0.3842  0.0406 -0.1837
  229MPD1    H6 3539   0.648   0.802  14.716  0.5272 -0.0435 -2.0601
  229MPD1    H7 3540   0.706   0.726  14.851  0.6630  0.9837  0.4125
  230MPD1     C 3541   1.497   4.620  15.585  0.0308  0.0172  0.4525
  230MPD1    C1 3542   1.513   4.536  15.479 -0.0671  0.3944  0.0823
  230MPD1    C2 3543   1.464   4.573  15.360  0.5347  0.2618 -1.3992
  230MPD1    C3 3544   1.372   4.674  15.350  0.1842 -0.1880 -0.0839
  230MPD1    C4 3545   1.334   0.010  15.459 -0.3983  0.0453  0.4499
  230MPD1    C5 3546   1.404   4.721  15.574  0.8360 -0.1644  0.1643
  230MPD1     H 3547   1.484   4.509  15.274 -1.8575 -0.0673 -1.7026
  230MPD1    H1 3548   1.271   0.098  15.466  1.0941  1.0702  1.0397
  230MPD1    H2 3549   1.541   4.593  15.680 -0.6216 -1.5273  0.3018
  230MPD1    H3 3550   1.381   0.051  15.656  0.3821 -0.4710  0.2886
  230MPD1     N 3551   1.331   4.703  15.218 -0.4557 -0.5118  0.5432
  230MPD1    H5 3552   1.364   4.633  15.152 -1.7248 -0.6201  0.0249
  230MPD1    N1 3553   1.609   4.432  15.478  0.1419  0.4742 -0.3198
  230MPD1    H6 3554   1.615   4.385  15.568  0.0447 -0.4996 -0.8218
  230MPD1    H7 3555   1.599   4.364  15.403 -1.1614  1.8823 -1.4099
  231MPD1     C 3556   3.480   2.093  15.321  0.3705  0.1110  0.8537
  231MPD1    C1 3557   3.560   1.984  15.289 -0.4569 -0.4818 -0.1243
  231MPD1    C2 3558   3.696   2.002  15.268 -0.2770 -0.2877  0.0866
  231MPD1    C3 3559   3.753   2.118  15.314  0.1298  0.4056  0.3106
  231MPD1    C4 3560   3.673   2.217  15.365 -0.5690 -0.5415 -0.2384
  231MPD1    C5 3561   3.539   2.206  15.366  0.2296  0.7579  0.0261
  231MPD1     H 3562   3.756   1.914  15.245  0.8270 -0.0136  1.8890
  231MPD1    H1 3563   3.709   2.314  15.399  0.0780 -1.5702  1.9732
  231MPD1    H2 3564   3.371   2.090  15.324  0.4853 -1.3220  3.4672
  231MPD1    H3 3565   3.474   2.279  15.413 -0.7047  0.1319 -0.2963
  231MPD1     N 3566   3.897   2.120  15.310 -0.5381 -0.6158 -0.5009
  231MPD1    H5 3567   3.942   2.040  15.265 -0.1579  0.1617 -1.4941
  231MPD1    N1 3568   3.499   1.869  15.238  0.5666  0.1243  0.1435
  231MPD1    H6 3569   3.413   1.857  15.291 -0.4744 -0.5268 -1.6767
  231MPD1    H7 3570   3.557   1.787  15.256  0.7255  0.4533  1.1363
  232MPD1     C 3571   1.082   0.113  17.728  0.1911  0.0880  0.2373
  232MPD1    C1 3572   1.065   4.718   0.011 -0.3310  0.3314 -0.0883
  232MPD1    C2 3573   0.957   4.652  17.716 -0.9127 -0.0277  0.2489
  232MPD1    C3 3574   0.870   4.712  17.630  0.3006  0.0548  0.7670
  232MPD1    C4 3575   0.901   0.103  17.581  0.0448 -0.1547  0.0517
  232MPD1    C5 3576   1.013   0.173  17.626 -1.0367  0.2443  0.1953
  232MPD1     H 3577   0.938   4.550   0.002  0.5700  0.0434  1.3480
  232MPD1    H1 3578   0.845   0.153  17.503  3.4168  2.1245 -0.9109
  232MPD1    H2 3579   1.161   0.168   0.033  1.3646 -0.4053 -1.0732
  232MPD1    H3 3580   1.022   0.275  17.590 -0.1976 -0.2160 -0.9018
  232MPD1     N 3581   0.758   4.635  17.592 -0.6156 -0.0757  0.4647
  232MPD1    H5 3582   0.736   4.551  17.643  1.5675 -0.8115  0.1724
  232MPD1    N1 3583   1.138   4.655   0.115  0.0027  0.1407 -0.6347
  232MPD1    H6 3584   1.127   4.553   0.119  0.6499  0.0381 -1.5005
  232MPD1    H7 3585   1.234   4.684   0.131 -0.0594 -1.0669  1.8945
  233MPD1     C 3586   2.439   2.923   1.414 -0.3833 -1.0099 -0.4794
  233MPD1    C1 3587   2.462   2.860   1.529 -0.4075 -0.2098  0.4530
  233MPD1    C2 3588   2.574   2.790   1.547  0.0251  0.1429  0.2672
  233MPD1    C3 3589   2.659   2.762   1.443 -0.6395 -0.2639 -0.0513
  233MPD1    C4 3590   2.629   2.831   1.319 -0.0448  0.3507 -0.6677
  233MPD1    C5 3591   2.527   2.918   1.312 -0.0839 -0.5035 -0.2943
  233MPD1     H 3592   2.590   2.742   1.643  1.4360  0.7038  0.3006
  233MPD1    H1 3593   2.681   2.816   1.225  1.7346 -1.1021  0.5302
  233MPD1    H2 3594   2.354   2.988   1.402 -0.3798 -1.1402 -1.2186
  233MPD1    H3 3595   2.510   2.974   1.220  2.3716 -0.0315 -0.4599
  233MPD1     N 3596   2.743   2.649   1.426 -0.8559 -0.6523 -0.2815
  233MPD1    H5 3597   2.788   2.636   1.336  0.3565 -1.7107  0.4985
  233MPD1    N1 3598   2.376   2.885   1.637 -0.0498  0.1236  0.1653
  233MPD1    H6 3599   2.281   2.917   1.621  0.7182  2.7775  1.0076
  233MPD1    H7 3600   2.393   2.826   1.718 -1.2268  0.6288  0.7630
  234MPD1     C 3601   4.408   1.676   9.928  0.2014 -0.0983  0.0138
  234MPD1    C1 3602   4.326   1.568   9.948 -0.2114  0.5131  0.6174
  234MPD1    C2 3603   4.190   1.581   9.943 -0.2430  0.6675  0.3287
  234MPD1    C3 3604   4.135   1.699   9.910  0.2692 -0.1038  0.1144
  234MPD1    C4 3605   4.213   1.808   9.879 -0.0065 -0.1156  0.8115
  234MPD1    C5 3606   4.349   1.795   9.894  0.0671 -0.2382  0.5981
  234MPD1     H 3607   4.122   1.499   9.965  1.0234 -0.4249  0.1837
  234MPD1    H1 3608   4.175   1.902   9.841 -2.5788 -1.9325 -1.1357
  234MPD1    H2 3609   4.513   1.673   9.953  0.6161 -1.5115 -1.8906
  234MPD1    H3 3610   4.417   1.878   9.884 -0.2854  0.0752  0.8351
  234MPD1     N 3611   3.996   1.710   9.918 -0.2892 -0.1533  0.4716
  234MPD1    H5 3612   3.941   1.626   9.936 -1.2892  0.9216  2.3859
  234MPD1    N1 3613   4.382   1.459  10.012 -0.3063  0.4861 -0.6988
  234MPD1    H6 3614   4.334   1.370  10.009 -0.1433  0.2986  2.2467
  234MPD1    H7 3615   4.482   1.450   9.997  0.3956  2.6100  2.5609
  235MPD1     C 3616   4.555   3.495  10.167  0.8375 -0.0683  0.1055
  235MPD1    C1 3617   4.665   3.509  10.082  0.2425 -0.4818  0.0928
  235MPD1    C2 3618   0.043   3.583  10.121  0.5393 -1.1344 -0.2664
  235MPD1    C3 3619   0.038   3.648  10.243 -0.3634  0.2971 -0.3237
  235MPD1    C4 3620   4.674   3.623  10.335 -0.6712 -0.2421 -0.3334
  235MPD1    C5 3621   4.562   3.546  10.298  0.1046  0.3325 -0.0190
  235MPD1     H 3622   0.135   3.587  10.063  0.6030 -1.7766 -0.2078
  235MPD1    H1 3623   4.666   3.648  10.440 -1.1523  3.1591 -1.1638
  235MPD1    H2 3624   4.463   3.447  10.137 -0.1713  2.7150 -1.3100
  235MPD1    H3 3625   4.481   3.533  10.368  0.8246  2.9018  1.2831
  235MPD1     N 3626   0.154   3.725  10.285  0.0173 -0.8741  0.4897
  235MPD1    H5 3627   0.235   3.741  10.226  0.1867 -0.3244  0.8709
  235MPD1    N1 3628   4.661   3.446   9.959 -0.7865 -0.3918  0.4886
  235MPD1    H6 3629   4.733   3.448   9.888 -2.5033  0.3040 -1.2209
  235MPD1    H7 3630   4.569   3.421   9.924 -0.6154  0.8010 -0.8143
  236MPD1     C 3631   4.067   4.392   9.160 -0.5656  0.1999  0.0724
  236MPD1    C1 3632   4.037   4.517   9.209  0.5699  0.3015  0.0344
  236MPD1    C2 3633   4.071   4.545   9.340  0.4082  0.2450  0.4139
  236MPD1    C3 3634   4.158   4.467   9.412  0.0511  0.9943  0.7530
  236MPD1    C4 3635   4.191   4.348   9.360  0.4797 -0.2203  0.5152
  236MPD1    C5 3636   4.147   4.310   9.239 -0.8470 -0.8064 -0.0431
  236MPD1     H 3637   4.027   4.634   9.383  0.1324  1.3256 -2.0864
  236MPD1    H1 3638   4.250   4.276   9.414 -0.9880 -2.0655 -0.3201
  236MPD1    H2 3639   4.028   4.362   9.064 -0.6480 -1.0266  0.4936
  236MPD1    H3 3640   4.177   4.216   9.192  1.0990  1.1405 -2.7013
  236MPD1     N 3641   4.195   4.486   9.548  0.2163 -0.7211 -0.1615
  236MPD1    H5 3642   4.242   4.402   9.580 -0.7425 -0.9388  0.6890
  236MPD1    N1 3643   3.935   4.586   9.143 -0.1638 -0.1328 -0.1861
  236MPD1    H6 3644   3.944   4.684   9.169 -2.1941 -0.1096  0.3777
  236MPD1    H7 3645   3.958   4.571   9.045  1.7922 -0.2126  0.2887
  237MPD1     C 3646   4.337   3.269  15.377 -0.4828 -1.0503  0.6048
  237MPD1    C1 3647   4.210   3.305  15.334 -0.0467  0.1110 -0.1247
  237MPD1    C2 3648   4.125   3.224  15.259  0.8634 -0.9040  0.0381
  237MPD1    C3 3649   4.169   3.102  15.222  0.2238 -0.0285  0.0430
  237MPD1    C4 3650   4.299   3.063  15.258 -0.0855  0.4593  0.2684
  237MPD1    C5 3651   4.375   3.139  15.348 -0.6709  0.4221  0.4835
  237MPD1     H 3652   4.028   3.261  15.230  0.0923 -1.9945  1.2175
  237MPD1    H1 3653   4.335   2.968  15.221  0.9710  0.0605  2.3235
  237MPD1    H2 3654   4.399   3.329  15.442  0.4672 -0.5772 -0.7509
  237MPD1    H3 3655   4.478   3.110  15.361 -0.0321  2.4135 -0.1205
  237MPD1     N 3656   4.100   3.012  15.129  0.3681  0.0266  0.5550
  237MPD1    H5 3657   4.154   2.935  15.091 -1.2819 -0.9511  0.1736
  237MPD1    N1 3658   4.149   3.423  15.379 -0.0326 -0.1583  0.0169
  237MPD1    H6 3659   4.220   3.492  15.404  1.7624 -1.6943 -0.8033
  237MPD1    H7 3660   4.091   3.465  15.307  1.7414  2.5162  0.1375
  238MPD1     C 3661   1.033   2.849  15.312  0.4299 -1.2578  0.3806
  238MPD1    C1 3662   0.932   2.789  15.385  0.3333 -0.4172  0.5432
  238MPD1    C2 3663   0.904   2.655  15.371 -0.7242 -0.1680  0.5326
  238MPD1    C3 3664   0.966   2.586  15.269  0.7637 -0.0397  0.0427
  238MPD1    C4 3665   1.063   2.641  15.190  0.4285  0.6113  0.3576
  238MPD1    C5 3666   1.095   2.772  15.217 -0.2669 -0.0528 -0.2203
  238MPD1     H 3667   0.816   2.617  15.423 -0.7216  0.2738  0.8665
  238MPD1    H1 3668   1.103   2.586  15.106  0.0825  2.3990 -0.9786
  238MPD1    H2 3669   1.067   2.949  15.337 -3.2249 -0.4464  2.0624
  238MPD1    H3 3670   1.158   2.824  15.146 -0.0577  1.2330  0.8901
  238MPD1     N 3671   0.936   2.452  15.242  0.3863 -0.0300 -0.6680
  238MPD1    H5 3672   0.995   2.407  15.174  1.7932 -0.0503  0.5651
  238MPD1    N1 3673   0.871   2.856  15.491  0.1594 -0.7658  0.3431
  238MPD1    H6 3674   0.866   2.958  15.482 -0.7745 -0.8309  0.0811
  238MPD1    H7 3675   0.775   2.823  15.501  0.2723 -1.3906 -0.6543
  239MPD1     C 3676   1.554   2.611  15.249  0.4905 -0.7172 -0.1301
  239MPD1    C1 3677   1.521   2.523  15.147  0.1433  0.4537 -0.5371
  239MPD1    C2 3678   1.440   2.572  15.042  0.0893 -0.4024  0.2218
  239MPD1    C3 3679   1.410   2.707  15.036  0.1879  0.6826  0.8539
  239MPD1    C4 3680   1.467   2.799  15.124 -0.0615 -0.4008 -0.5834
  239MPD1    C5 3681   1.533   2.746  15.226 -0.6312  0.7378 -0.0291
  239MPD1     H 3682   1.398   2.510  14.964  0.1662 -0.7501  0.4607
  239MPD1    H1 3683   1.455   2.907  15.126  1.0452 -0.2721 -0.6890
  239MPD1    H2 3684   1.604   2.587  15.342  1.4318 -0.0950 -0.4757
  239MPD1    H3 3685   1.537   2.817  15.308 -0.3256  0.5249  0.1397
  239MPD1     N 3686   1.325   2.767  14.931  0.0166 -0.3413  0.3689
  239MPD1    H5 3687   1.329   2.868  14.932  1.7124 -0.4258  2.0495
  239MPD1    N1 3688   1.531   2.387  15.173  0.1130 -0.1960 -0.3158
  239MPD1    H6 3689   1.615   2.368  15.228 -0.7917 -0.1684  1.0858
  239MPD1    H7 3690   1.540   2.342  15.082  1.6239  1.7882 -1.1373
  240MPD1     C 3691   0.887   2.331  14.116  0.1731  0.2634  0.3893
  240MPD1    C1 3692   0.755   2.305  14.126 -0.1234 -0.3646  0.1776
  240MPD1    C2 3693   0.697   2.300  14.257 -0.8591 -0.6504 -0.3351
  240MPD1    C3 3694   0.781   2.306  14.368 -0.1264 -0.0873  0.0934
  240MPD1    C4 3695   0.912   2.343  14.356  0.1799  0.0869 -0.5143
  240MPD1    C5 3696   0.961   2.356  14.231  0.0335  0.6522  0.1547
  240MPD1     H 3697   0.592   2.277  14.273 -1.1395  1.0675  0.2456
  240MPD1    H1 3698   0.983   2.357  14.437 -0.5175  1.2004 -0.0936
  240MPD1    H2 3699   0.939   2.344  14.022  0.4794  1.0298  0.6591
  240MPD1    H3 3700   1.067   2.379  14.219  0.4971 -1.1754  0.6644
  240MPD1     N 3701   0.721   2.287  14.496  0.4422 -0.7161  0.5067
  240MPD1    H5 3702   0.621   2.268  14.499  0.0030  1.7933  1.6383
  240MPD1    N1 3703   0.665   2.305  14.020  0.1787  0.3919  0.1318
  240MPD1    H6 3704   0.581   2.249  14.038  1.6270 -1.9173 -0.2769
  240MPD1    H7 3705   0.707   2.275  13.932  0.6701 -0.7552  0.7528
  241MPD1     C 3706   0.429   2.599  15.495 -0.0346 -0.1823  0.0207
  241MPD1    C1 3707   0.501   2.658  15.396  0.3978  0.5621  0.1700
  241MPD1    C2 3708   0.532   2.583  15.285  0.4670 -0.2466 -0.2110
  241MPD1    C3 3709   0.471   2.459  15.260 -0.4285 -0.4475 -0.3581
  241MPD1    C4 3710   0.403   2.404  15.365 -0.5541 -0.1691 -0.1343
  241MPD1    C5 3711   0.370   2.475  15.477 -0.1900 -0.7439 -0.1880
  241MPD1     H 3712   0.602   2.620  15.211 -2.3820  1.0500 -2.2654
  241MPD1    H1 3713   0.360   2.305  15.353  1.9790 -1.2922  0.1670
  241MPD1    H2 3714   0.409   2.641  15.593  1.1684 -0.5356  0.4186
  241MPD1    H3 3715   0.310   2.428  15.555  0.5947  1.7613  1.8951
  241MPD1     N 3716   0.497   2.382  15.147  0.1488  0.9397 -0.5382
  241MPD1    H5 3717   0.484   2.282  15.150  1.8576  0.7503  1.1887
  241MPD1    N1 3718   0.568   2.782  15.419 -0.0506 -0.4175  0.3939
  241MPD1    H6 3719   0.595   2.823  15.330  1.1880 -2.7124 -0.2843
  241MPD1    H7 3720   0.514   2.835  15.487  0.2343 -0.2622  0.4982
  242MPD1     C 3721   0.641   0.999  16.107 -0.8213 -0.0333 -0.3085
  242MPD1    C1 3722   0.554   1.041  16.001  0.1863  0.0226  0.0860
  242MPD1    C2 3723   0.583   1.006  15.871 -0.0733 -0.7893  0.6000
  242MPD1    C3 3724   0.702   0.942  15.844 -0.3005 -0.0256 -0.0836
  242MPD1    C4 3725   0.788   0.909  15.946  0.3833 -0.1985 -0.0557
  242MPD1    C5 3726   0.763   0.938  16.073 -0.2656 -1.1265  0.2575
  242MPD1     H 3727   0.515   1.039  15.793  1.6317 -1.6559 -1.2207
  242MPD1    H1 3728   0.886   0.866  15.924  1.2288  1.3476  0.6936
  242MPD1    H2 3729   0.632   1.033  16.210  1.6382 -1.0943  0.2604
  242MPD1    H3 3730   0.836   0.918  16.151 -0.2048 -1.8877 -0.0006
  242MPD1     N 3731   0.746   0.915  15.714 -0.4457 -0.2930 -0.0624
  242MPD1    H5 3732   0.842   0.888  15.694  0.1974 -0.0211  2.6064
  242MPD1    N1 3733   0.450   1.135  16.019  0.4627 -0.6135  0.0814
  242MPD1    H6 3734   0.424   1.151  16.116 -0.4980  2.6908 -0.7100
  242MPD1    H7 3735   0.371   1.100  15.965  1.6668 -0.0375 -2.0504
  243MPD1     C 3736   0.963   4.649  17.200  0.1245 -0.0343 -0.3058
  243MPD1    C1 3737   1.080   4.647  17.265 -0.2627  0.0494  0.3068
  243MPD1    C2 3738   1.181   4.562  17.223 -0.4731  0.4616  0.6329
  243MPD1    C3 3739   1.155   4.473  17.119 -0.0118  0.3814 -0.1582
  243MPD1    C4 3740   1.033   4.467  17.057 -0.2693  0.4055  0.1492
  243MPD1    C5 3741   0.935   4.555  17.102  0.3120  0.6292  0.8341
  243MPD1     H 3742   1.283   4.565  17.259 -0.1607  2.7843 -0.4703
  243MPD1    H1 3743   1.009   4.405  16.971 -1.7007  0.3022  0.6256
  243MPD1    H2 3744   0.885   4.716  17.235  0.7052 -0.2909  1.4815
  243MPD1    H3 3745   0.846   4.574  17.044  1.3778  1.7758 -0.4477
  243MPD1     N 3746   1.268   4.393  17.078 -0.0726 -0.0974 -0.3546
  243MPD1    H5 3747   1.353   4.406  17.132 -0.9148 -2.5060  1.5400
  243MPD1    N1 3748   1.114   0.026  17.342 -0.1620 -0.0783  0.2067
  243MPD1    H6 3749   1.039   0.063  17.399  1.1010  0.6160  1.3963
  243MPD1    H7 3750   1.186   0.008  17.411 -0.4248 -1.2082  0.1964
  244MPD1     C 3751   1.697   3.819  17.437 -0.0534  0.3985  0.0268
  244MPD1    C1 3752   1.658   3.940  17.483 -0.0246  0.5073 -0.2315
  244MPD1    C2 3753   1.649   4.038  17.393 -0.4706 -0.0613  0.2752
  244MPD1    C3 3754   1.700   4.026  17.263 -0.2203 -0.0300 -0.9141
  244MPD1    C4 3755   1.745   3.906  17.221 -0.2160 -0.1109 -0.2078
  244MPD1    C5 3756   1.748   3.802  17.311  0.3633  0.6529 -0.7780
  244MPD1     H 3757   1.593   4.126  17.423  0.1827  0.5977 -0.4444
  244MPD1    H1 3758   1.781   3.865  17.127  0.2926  0.7058 -0.3606
  244MPD1    H2 3759   1.715   3.739  17.508  1.2038 -1.4865 -2.3796
  244MPD1    H3 3760   1.802   3.710  17.290 -0.9980  0.2324 -2.4809
  244MPD1     N 3761   1.673   4.134  17.174 -0.1288  0.2095 -0.3240
  244MPD1    H5 3762   1.621   4.212  17.212  1.2445  0.6566  0.6296
  244MPD1    N1 3763   1.602   3.949  17.610  0.0504 -0.0669  0.5163
  244MPD1    H6 3764   1.625   4.044  17.641  1.3229 -0.4568  0.7734
  244MPD1    H7 3765   1.637   3.880  17.676  1.9955 -0.0595 -0.4994
  245MPD1     C 3766   4.670   4.329  13.400 -0.0810 -0.3140 -0.6942
  245MPD1    C1 3767   0.063   4.330  13.347 -0.0635 -0.0696  0.6905
  245MPD1    C2 3768   0.137   4.451  13.357  0.1344  0.2637  0.3151
  245MPD1    C3 3769   0.075   4.568  13.389 -0.1123  0.4412  1.0989
  245MPD1    C4 3770   4.688   4.567  13.442  0.3954  0.0403 -0.2492
  245MPD1    C5 3771   4.612   4.450  13.441  0.2421  0.1047  0.1498
  245MPD1     H 3772   0.242   4.453  13.332 -0.1083  0.7186 -0.6381
  245MPD1    H1 3773   4.632   4.657  13.461 -3.2787 -1.6973 -2.7881
  245MPD1    H2 3774   4.610   4.239  13.401  1.2988 -1.2834 -3.0211
  245MPD1    H3 3775   4.508   4.449  13.472  0.4531 -0.5087  0.8573
  245MPD1     N 3776   0.146   4.690  13.387  0.4334  0.8520  0.3474
  245MPD1    H5 3777   0.246   4.679  13.375  0.1719 -0.4810 -0.6108
  245MPD1    N1 3778   0.122   4.213  13.307  0.4098  0.0424  0.1791
  245MPD1    H6 3779   0.214   4.219  13.264  0.9404 -1.0260  1.1512
  245MPD1    H7 3780   0.052   4.144  13.281  1.6649 -1.0887 -0.2624
  246MPD1     C 3781   3.223   3.666   9.790  0.7120 -0.2213 -0.1444
  246MPD1    C1 3782   3.289   3.549   9.804 -0.1571 -0.7856 -0.1361
  246MPD1    C2 3783   3.425   3.552   9.782 -0.5567 -0.0139 -0.2688
  246MPD1    C3 3784   3.495   3.659   9.728 -0.1322 -0.2158 -0.2036
  246MPD1    C4 3785   3.416   3.773   9.699  0.1019  0.7163 -0.0383
  246MPD1    C5 3786   3.285   3.770   9.725  0.0556 -0.0030 -0.3896
  246MPD1     H 3787   3.480   3.461   9.804  0.3549  0.4330 -0.7169
  246MPD1    H1 3788   3.458   3.865   9.660  0.0558  0.7809  0.0647
  246MPD1    H2 3789   3.116   3.666   9.807  0.5971  3.8721 -0.8390
  246MPD1    H3 3790   3.220   3.854   9.704  0.3812  0.1299 -0.8370
  246MPD1     N 3791   3.638   3.656   9.710  0.6694 -0.3747 -0.2885
  246MPD1    H5 3792   3.683   3.568   9.735 -2.0136 -0.8067  3.0410
  246MPD1    N1 3793   3.229   3.443   9.870 -0.1724  0.1662 -0.4013
  246MPD1    H6 3794   3.129   3.430   9.864 -0.3260  0.2838  1.8456
  246MPD1    H7 3795   3.271   3.354   9.845 -2.1475 -0.7006 -0.5824
  247MPD1     C 3796   3.431   4.565  16.837 -0.2150  0.0399 -0.8555
  247MPD1    C1 3797   3.493   4.623  16.732  0.6018  0.7696 -0.4164
  247MPD1    C2 3798   3.463   4.561  16.612  0.1213  0.3868 -0.2598
  247MPD1    C3 3799   3.388   4.452  16.591  0.4485  0.0304  0.9269
  247MPD1    C4 3800   3.343   4.387  16.707  0.4066  0.0923  1.0487
  247MPD1    C5 3801   3.367   4.442  16.829 -0.4831  0.6188 -0.5585
  247MPD1     H 3802   3.482   4.622  16.524 -0.0590  0.2627 -0.3871
  247MPD1    H1 3803   3.291   4.292  16.705  0.8867 -0.1067 -1.7241
  247MPD1    H2 3804   3.433   4.611  16.935 -0.5050  2.7453 -2.1166
  247MPD1    H3 3805   3.333   4.387  16.916  4.1185 -1.0274  0.2064
  247MPD1     N 3806   3.331   4.411  16.464 -0.0741  0.4020  0.3468
  247MPD1    H5 3807   3.268   4.331  16.470  0.0628  0.4883  2.9522
  247MPD1    N1 3808   3.544   0.015  16.734  0.1717 -0.2526 -0.1933
  247MPD1    H6 3809   3.590   0.038  16.822 -1.0670  0.9524  0.1237
  247MPD1    H7 3810   3.604   0.035  16.654  1.0468 -2.0633  0.0057
  248MPD1     C 3811   4.576   3.953   0.168  0.6461  0.3277  0.1173
  248MPD1    C1 3812   4.471   4.005   0.096 -0.5796  0.2697 -0.3385
  248MPD1    C2 3813   4.339   3.975   0.138 -0.1232  1.4093  0.4360
  248MPD1    C3 3814   4.323   3.913   0.263 -0.1086 -1.1877  0.5060
  248MPD1    C4 3815   4.435   3.866   0.336 -0.1518 -0.7671  0.6101
  248MPD1    C5 3816   4.562   3.876   0.278  0.1577 -0.4244  0.3669
  248MPD1     H 3817   4.257   4.008   0.075  0.0397  1.3229  0.1796
  248MPD1    H1 3818   4.422   3.823   0.434 -1.8975 -0.9767  0.2888
  248MPD1    H2 3819   4.678   3.963   0.134  0.7242 -1.0004 -0.0359
  248MPD1    H3 3820   4.652   3.837   0.325 -2.0991 -1.8424  3.4807
  248MPD1     N 3821   4.193   3.907   0.322  0.5393  0.0653  0.1104
  248MPD1    H5 3822   4.119   3.948   0.267  0.1648 -1.8357 -0.8143
  248MPD1    N1 3823   4.493   4.073  17.718  0.0291  0.4477  0.4705
  248MPD1    H6 3824   4.415   4.125  17.680 -0.1568  1.1001  1.7359
  248MPD1    H7 3825   4.586   4.113  17.709 -0.3610  0.9498 -1.2883
  249MPD1     C 3826   1.690   3.523  10.872  0.5001  0.4092 -0.5940
  249MPD1    C1 3827   1.788   3.431  10.844 -0.4079 -0.1327  0.3109
  249MPD1    C2 3828   1.758   3.302  10.875 -0.2857  0.0169 -0.4539
  249MPD1    C3 3829   1.656   3.264  10.961 -0.4359  0.2698  0.4412
  249MPD1    C4 3830   1.569   3.367  11.003 -0.1991 -0.6839  0.5889
  249MPD1    C5 3831   1.596   3.493  10.967  0.2031 -0.1738  0.4052
  249MPD1     H 3832   1.812   3.226  10.820  2.2221  0.4965  1.3606
  249MPD1    H1 3833   1.494   3.356  11.080 -2.5195 -0.2026 -1.5769
  249MPD1    H2 3834   1.702   3.628  10.851  0.3294  0.5694  0.1027
  249MPD1    H3 3835   1.541   3.574  11.013 -1.8208 -1.6662  0.6361
  249MPD1     N 3836   1.660   3.134  11.010  0.3660 -0.0883 -0.1044
  249MPD1    H5 3837   1.745   3.084  10.986 -0.8485 -2.2864  0.1257
  249MPD1    N1 3838   1.881   3.465  10.747  0.4868  0.1101 -0.0360
  249MPD1    H6 3839   1.968   3.413  10.750 -0.1138 -0.8561  0.6522
  249MPD1    H7 3840   1.904   3.563  10.764 -0.2000  0.1887  0.4856
  250MPD2     C 3841   2.649   2.647  11.954  0.3471 -0.4879 -0.2848
  250MPD2    C1 3842   2.597   2.735  12.042  0.7873 -0.6564 -0.0439
  250MPD2    C2 3843   2.514   2.692  12.151  0.3141  0.2708  0.2726
  250MPD2    C3 3844   2.520   2.560  12.191 -0.7004 -0.3317  1.1816
  250MPD2    C4 3845   2.579   2.475  12.103 -0.3080 -0.1007 -0.7622
  250MPD2    C5 3846   2.632   2.516  11.981  0.3138  0.6200 -0.5918
  250MPD2     H 3847   2.460   2.762  12.213 -0.4632 -0.5797  0.5506
  250MPD2    H1 3848   2.587   2.371  12.132 -1.8537 -0.0354 -0.0865
  250MPD2    H2 3849   2.697   2.677  11.862 -0.2688  1.8391  0.1638
  250MPD2    H3 3850   2.671   2.441  11.913  0.8353 -1.8120  2.3816
  250MPD2     N 3851   2.465   2.508  12.311 -0.0825  0.1108  0.1950
  250MPD2    H5 3852   2.479   2.409  12.326  1.4714  0.4106  0.7461
  250MPD2    N1 3853   2.623   2.873  12.012 -0.3979 -0.0202 -0.0714
  250MPD2    H7 3854   2.662   2.873  11.918  0.9286 -0.9929  0.4847
  251TMC3    C1 3855   2.593   3.002  12.213 -0.3845 -0.0491 -0.0715
  251TMC3    C2 3856   2.550   3.129  12.258  0.4885 -0.0795 -0.5211
  251TMC3    C3 3857   2.591   3.164  12.383 -1.0094  0.0344 -0.4008
  251TMC3    C4 3858   2.683   2.920  12.280 -0.3066 -0.9931 -0.6945
  251TMC3    C5 3859   2.722   2.958  12.408  0.8119  0.8270 -0.6328
  251TMC3    C6 3860   2.667   3.079  12.458  0.3951  0.5258 -0.1958
  251TMC3     C 3861   2.580   2.989  12.066 -0.8793 -0.0293 -0.5486
  251TMC3     O 3862   2.564   3.098  12.008 -0.1353  0.0100 -0.4043
  251TMC3     H 3863   2.485   3.194  12.200  0.3785 -0.2089 -0.5413
  251TMC3    H1 3864   2.715   2.825  12.238  1.7840 -1.0835  1.0620
  251TMC3    H2 3865   2.703   3.115  12.554 -1.4436 -0.3943  0.8508
  251TMC3    C7 3866   2.759   2.856  12.508 -0.0160 -0.4771  0.1515
  251TMC3    C8 3867   2.536   3.288  12.443 -0.6153 -0.2299  0.1333
  251TMC3    O1 3868   2.758   2.894  12.621  0.6004  0.1404 -0.3384
  251TMC3    O2 3869   2.442   3.342  12.385 -0.1634  0.5314 -0.3851
  252TMC3    C1 3870   1.941   4.558   9.750 -1.2121 -0.0916  0.3586
  252TMC3    C2 3871   2.056   4.594   9.688  0.5127 -0.6646  0.6982
  252TMC3    C3 3872   2.162   4.512   9.700  0.3890 -0.1844 -0.1386
  252TMC3    C4 3873   1.920   4.430   9.791  0.2041 -0.0323  1.2511
  252TMC3    C5 3874   2.032   4.340   9.793  0.3105 -0.9490 -0.1497
  252TMC3    C6 3875   2.158   4.392   9.765 -0.0393 -0.7161 -0.0878
  252TMC3     C 3876   1.831   4.648   9.747 -0.0629  0.3937  0.0579
  252TMC3     O 3877   1.839   0.001   9.668 -0.2521  0.1856  0.6165
  252TMC3     H 3878   2.070   4.692   9.643  0.4787 -0.2775  1.5316
  252TMC3    H1 3879   1.821   4.390   9.808 -0.6688  1.5419 -0.2106
  252TMC3    H2 3880   2.235   4.316   9.754  0.1704 -0.7851  1.7773
  252TMC3    C7 3881   2.009   4.202   9.805  0.3976  0.1631 -0.3758
  252TMC3    C8 3882   2.282   4.580   9.663 -0.8149 -0.4107  0.1196
  252TMC3    O1 3883   1.891   4.168   9.790 -0.0516  0.7823 -0.1963
  252TMC3    O2 3884   2.280   4.673   9.584  0.0278 -0.5144 -0.4282
  253MPD2     C 3885   3.476   3.198  14.983  0.1393 -0.4820 -0.4345
  253MPD2    C1 3886   3.342   3.201  14.999 -1.0770 -0.2324 -0.4139
  253MPD2    C2 3887   3.287   3.196  15.126 -0.2311 -0.1104 -0.5294
  253MPD2    C3 3888   3.369   3.189  15.238 -0.1708 -0.1007 -0.0331
  253MPD2    C4 3889   3.508   3.195  15.221 -0.3246 -0.0940  0.0218
  253MPD2    C5 3890   3.558   3.196  15.095 -0.6481  0.5049  0.4746
  253MPD2     H 3891   3.180   3.184  15.133  0.0921 -1.6056  1.6122
  253MPD2    H1 3892   3.571   3.196  15.309  0.8487  0.8017 -0.8309
  253MPD2    H2 3893   3.526   3.216  14.888  0.0174 -1.3021 -0.6530
  253MPD2    H3 3894   3.666   3.202  15.082 -0.8516  1.4152 -0.8349
  253MPD2     N 3895   3.307   3.191  15.364  0.0053 -0.0640  0.0023
  253MPD2    H5 3896   3.369   3.194  15.444 -1.6095 -1.1988  1.2944
  253MPD2    N1 3897   3.252   3.205  14.890  0.1439  0.4152 -0.2120
  253MPD2    H7 3898   3.153   3.191  14.903  0.1585  1.0205  0.5092
  254TMC3    C1 3899   3.131   3.198  15.533 -0.0814  0.3810 -0.4404
  254TMC3    C2 3900   3.005   3.231  15.569  0.7102 -0.0036 -0.5830
  254TMC3    C3 3901   2.963   3.220  15.695  0.5007 -0.0956  0.4652
  254TMC3    C4 3902   3.233   3.186  15.632 -0.2193 -0.6663 -0.0926
  254TMC3    C5 3903   3.184   3.196  15.762  0.0792  0.1293  0.7530
  254TMC3    C6 3904   3.054   3.192  15.795  0.6338  1.1707  0.4132
  254TMC3     C 3905   3.170   3.195  15.394  0.1726  0.3217  0.0517
  254TMC3     O 3906   3.073   3.173  15.321  0.5560  0.6074  0.5512
  254TMC3     H 3907   2.940   3.269  15.491 -1.6309 -1.1016  0.8331
  254TMC3    H1 3908   3.335   3.157  15.609 -0.2578 -1.8354  1.2732
  254TMC3    H2 3909   3.026   3.198  15.900 -0.0008 -0.4277  0.3263
  254TMC3    C7 3910   3.276   3.212  15.869  0.7323  0.7000  0.5638
  254TMC3    C8 3911   2.851   3.301  15.747  0.7366 -0.3632 -0.9163
  254TMC3    O1 3912   3.225   3.190  15.982 -0.6975 -0.3552  0.3329
  254TMC3    O2 3913   2.852   3.328  15.869  0.6323  0.0042 -0.0507
  255MPD2     C 3914   1.366   1.262  10.217  0.2985 -0.2917  0.0253
  255MPD2    C1 3915   1.489   1.320  10.232 -0.2822  0.5166  0.6677
  255MPD2    C2 3916   1.604   1.265  10.164  0.1966 -0.0348 -0.0139
  255MPD2    C3 3917   1.583   1.163  10.070  0.6817  0.1948  0.1291
  255MPD2    C4 3918   1.452   1.114  10.047  0.0303 -0.5306 -0.0245
  255MPD2    C5 3919   1.350   1.166  10.121 -0.2987 -0.1493 -0.4972
  255MPD2     H 3920   1.705   1.305  10.174  0.7047 -0.8278 -2.0200
  255MPD2    H1 3921   1.428   1.042   9.970 -0.0796  0.0537 -0.5431
  255MPD2    H2 3922   1.277   1.289  10.272 -0.3516  1.2610 -1.7795
  255MPD2    H3 3923   1.252   1.130  10.092 -0.5337  1.0057 -1.1529
  255MPD2     N 3924   1.694   1.118   9.994  0.4387 -0.1043 -0.3218
  255MPD2    H5 3925   1.784   1.137  10.038 -0.2930 -0.3456  1.2690
  255MPD2    N1 3926   1.502   1.422  10.330  0.8644 -0.7744  0.5373
  255MPD2    H7 3927   1.413   1.452  10.370 -0.6838 -0.5357 -3.1249
  256TMC3    C1 3928   1.605   1.579  10.474  0.0110  0.5399  0.1508
  256TMC3    C2 3929   1.676   1.681  10.412  0.2534 -0.4190  0.4952
  256TMC3    C3 3930   1.606   1.796  10.375 -0.7062 -0.2871 -0.1498
  256TMC3    C4 3931   1.476   1.598  10.510 -0.4071  0.0945  0.8609
  256TMC3    C5 3932   1.410   1.706  10.470  0.0754  0.8324  0.2340
  256TMC3    C6 3933   1.472   1.808  10.407  0.2132 -0.2218  0.2227
  256TMC3     C 3934   1.617   1.464  10.383  0.0115  0.2133  0.2490
  256TMC3     O 3935   1.733   1.432  10.363  0.2352 -0.3098 -0.1318
  256TMC3     H 3936   1.775   1.654  10.375  0.2707  1.2121 -0.6100
  256TMC3    H1 3937   1.420   1.516  10.553  0.3994 -0.5452  0.6742
  256TMC3    H2 3938   1.416   1.889  10.364 -0.4885 -0.1405  1.2941
  256TMC3    C7 3939   1.278   1.681  10.413 -0.1642 -0.2114  0.0221
  256TMC3    C8 3940   1.657   1.887  10.281 -0.6852  0.7073  0.3945
  256TMC3    O1 3941   1.254   1.561  10.406  0.0927 -0.4053  0.3173
  256TMC3    O2 3942   1.595   1.995  10.277 -0.1461 -0.1453  0.0678
  257MPD2     C 3943   0.608   2.738  13.481  0.4396  0.2023  0.2057
  257MPD2    C1 3944   0.727   2.759  13.416 -0.0758 -0.0899  0.0464
  257MPD2    C2 3945   0.841   2.734  13.492  0.2902  0.9470  1.0395
  257MPD2    C3 3946   0.826   2.673  13.611 -0.6952 -0.8342  0.6240
  257MPD2    C4 3947   0.704   2.633  13.664 -0.3770  0.4185 -0.1569
  257MPD2    C5 3948   0.589   2.680  13.603 -0.3649 -0.2177 -0.5765
  257MPD2     H 3949   0.940   2.772  13.470 -0.1162  0.8066 -1.0045
  257MPD2    H1 3950   0.696   2.579  13.758 -1.4832 -1.3664 -1.2986
  257MPD2    H2 3951   0.521   2.782  13.434 -0.8177 -0.6672  1.7066
  257MPD2    H3 3952   0.488   2.669  13.640 -0.5191  1.1034 -0.6185
  257MPD2     N 3953   0.951   2.656  13.680 -0.0818 -0.8911  0.4596
  257MPD2    H5 3954   1.037   2.699  13.647 -2.2064  2.5343 -0.7088
  257MPD2    N1 3955   0.719   2.816  13.281  0.1614 -0.4201  0.0538
  257MPD2    H7 3956   0.632   2.804  13.229  0.3333  2.0880 -0.8286
  258TMC3    C1 3957   1.106   2.566  13.830 -0.3000 -0.2157  0.4594
  258TMC3    C2 3958   1.196   2.561  13.733 -0.4733  0.5601  1.1977
  258TMC3    C3 3959   1.317   2.513  13.776  0.0728  0.4881  0.3976
  258TMC3    C4 3960   1.130   2.523  13.959 -0.1922  0.0723  0.4039
  258TMC3    C5 3961   1.257   2.509  13.998  0.0519 -0.8222 -0.0011
  258TMC3    C6 3962   1.355   2.514  13.905 -0.2129 -0.0794 -0.0026
  258TMC3     C 3963   0.966   2.581  13.795 -0.7115 -0.1893 -0.1152
  258TMC3     O 3964   0.892   2.506  13.859  0.3523  0.1579 -0.3461
  258TMC3     H 3965   1.178   2.572  13.627  1.1770  0.4153  0.8983
  258TMC3    H1 3966   1.059   2.524  14.040 -0.8708  1.2456 -0.2061
  258TMC3    H2 3967   1.455   2.478  13.926 -1.1016 -2.7667 -0.3254
  258TMC3    C7 3968   1.284   2.576  14.126  0.1989  0.9765 -0.4747
  258TMC3    C8 3969   1.430   2.503  13.688  0.2951 -0.3257  0.3998
  258TMC3    O1 3970   1.198   2.651  14.175 -0.3762  0.2377  0.0336
  258TMC3    O2 3971   1.539   2.539  13.727  0.1878 -0.6388  0.1701
  259MPD2     C 3972   0.224   0.501   0.882 -0.6429 -0.1194  0.8436
  259MPD2    C1 3973   0.138   0.399   0.853 -0.2704 -0.9567  1.0042
  259MPD2    C2 3974   0.101   0.378   0.719 -0.1788 -0.3324  0.2189
  259MPD2    C3 3975   0.143   0.464   0.620 -0.2073 -0.0037  0.6384
  259MPD2    C4 3976   0.219   0.574   0.652 -0.3909 -0.6041 -0.9381
  259MPD2    C5 3977   0.263   0.588   0.785 -0.1023 -0.4028  0.5727
  259MPD2     H 3978   0.039   0.291   0.700 -0.0530 -0.2722 -0.4724
  259MPD2    H1 3979   0.264   0.646   0.584  1.4496 -0.7997  0.0742
  259MPD2    H2 3980   0.248   0.513   0.986  0.7242 -1.4756  0.6909
  259MPD2    H3 3981   0.318   0.679   0.808  0.8212 -0.7009 -0.4513
  259MPD2     N 3982   0.096   0.436   0.489  0.6902  0.4506 -0.2818
  259MPD2    H5 3983   0.025   0.363   0.483  1.8512 -0.6642 -0.3116
  259MPD2    N1 3984   0.108   0.310   0.954  0.1261  0.1665  0.9961
  259MPD2    H7 3985   0.156   0.327   1.042  0.7059 -0.9753  0.9086
  260TMC3    C1 3986   0.065   0.486   0.250  0.1035  0.3016  0.1270
  260TMC3    C2 3987   0.088   0.573   0.150  0.0876 -0.5953  0.5920
  260TMC3    C3 3988   0.018   0.568   0.034 -0.3316 -0.7334  0.4931
  260TMC3    C4 3989   4.717   0.384   0.237  0.1848 -0.2426 -0.0110
  260TMC3    C5 3990   4.649   0.379   0.117  0.6109  0.1140  0.5410
  260TMC3    C6 3991   4.657   0.475   0.021 -0.2986  1.1992  0.2332
  260TMC3     C 3992   0.132   0.511   0.375 -0.5915  0.4316  0.1282
  260TMC3     O 3993   0.197   0.617   0.372 -0.2575  0.3568  0.4593
  260TMC3     H 3994   0.177   0.635   0.147  0.0579 -0.5010  1.5220
  260TMC3    H1 3995   4.701   0.305   0.308  2.7881 -0.2114  0.6195
  260TMC3    H2 3996   4.596   0.485  17.677 -1.2887  0.3074  0.8149
  260TMC3    C7 3997   4.648   0.246   0.044 -0.1413  0.4260  0.7409
  260TMC3    C8 3998   0.112   0.584  17.669 -1.4847  0.2070  0.4199
  260TMC3    O1 3999   4.661   0.257  17.664 -0.1476  0.4611 -0.0244
  260TMC3    O2 4000   0.188   0.680  17.657  0.2386  0.1932  0.3002
  261MPD2     C 4001   1.744   2.575  12.737  0.0572 -0.5863  0.3916
  261MPD2    C1 4002   1.813   2.602  12.618  0.7139 -0.7446 -0.2130
  261MPD2    C2 4003   1.739   2.662  12.520 -0.2906  0.0315 -0.3701
  261MPD2    C3 4004   1.599   2.690  12.526  0.1040 -0.1903  0.9474
  261MPD2    C4 4005   1.535   2.663  12.646  0.2084 -0.1809  0.7791
  261MPD2    C5 4006   1.608   2.602  12.748 -0.0506  0.2528  0.0944
  261MPD2     H 4007   1.790   2.696  12.431 -0.0895 -1.3603 -0.7978
  261MPD2    H1 4008   1.431   2.667  12.675 -0.3783 -2.4739 -1.0695
  261MPD2    H2 4009   1.790   2.526  12.822  0.1734  0.1749  0.7665
  261MPD2    H3 4010   1.560   2.571  12.840 -2.8645  2.3957 -0.6460
  261MPD2     N 4011   1.537   2.757  12.419  0.2610  0.3800 -0.1514
  261MPD2    H5 4012   1.596   2.791  12.343  0.8584 -2.5299 -0.9894
  261MPD2    N1 4013   1.948   2.560  12.597 -0.0546 -0.5343  0.0356
  261MPD2    H7 4014   1.984   2.565  12.502 -0.3671  0.0468 -0.0466
  262TMC3    C1 4015   1.373   2.840  12.276 -0.0356 -0.2841 -0.1863
  262TMC3    C2 4016   1.290   2.947  12.276  0.0986 -0.2531 -0.1880
  262TMC3    C3 4017   1.282   3.013  12.151 -0.5035  0.4456  0.8841
  262TMC3    C4 4018   1.434   2.790  12.167  0.1302 -0.3004 -0.1850
  262TMC3    C5 4019   1.412   2.855  12.046 -0.6031  0.3399 -0.3013
  262TMC3    C6 4020   1.339   2.965  12.037  0.0298  0.2459 -0.3378
  262TMC3     C 4021   1.406   2.788  12.410 -0.3060  0.4863 -0.0465
  262TMC3     O 4022   1.323   2.802  12.500  0.2009 -0.4103 -0.1181
  262TMC3     H 4023   1.258   2.996  12.367 -1.1870 -0.5599 -0.4778
  262TMC3    H1 4024   1.508   2.711  12.170 -1.2432 -1.4691  2.5453
  262TMC3    H2 4025   1.305   3.020  11.950  0.7165 -1.8014 -1.9054
  262TMC3    C7 4026   1.531   2.860  11.969  0.0235  0.5691  0.3359
  262TMC3    C8 4027   1.254   3.153  12.152 -0.1512  0.4965  0.8102
  262TMC3    O1 4028   1.599   2.755  11.964 -0.5047  0.2530  0.5961
  262TMC3    O2 4029   1.341   3.217  12.095 -0.1912  0.1157 -0.4455
  263MPD2     C 4030   2.803   1.932  11.482 -0.5008  0.2727 -0.2264
  263MPD2    C1 4031   2.879   1.834  11.420  0.2401  0.2019  0.3013
  263MPD2    C2 4032   2.896   1.843  11.284 -0.2955  0.8643 -0.7223
  263MPD2    C3 4033   2.833   1.945  11.212  0.1010  0.1619  0.1284
  263MPD2    C4 4034   2.741   2.029  11.274 -0.1032 -0.1617 -0.0834
  263MPD2    C5 4035   2.736   2.030  11.416 -0.0978 -0.2829  0.1300
  263MPD2     H 4036   2.961   1.766  11.241  1.3327  1.7760  0.0888
  263MPD2    H1 4037   2.692   2.115  11.231 -0.4615 -1.2169 -1.7681
  263MPD2    H2 4038   2.786   1.924  11.589 -1.2239 -2.1023 -0.5213
  263MPD2    H3 4039   2.676   2.103  11.471  1.7074 -0.3277  2.1472
  263MPD2     N 4040   2.865   1.957  11.075 -0.3120  0.1149 -0.3085
  263MPD2    H5 4041   2.940   1.906  11.028 -0.6255 -0.9140  0.3046
  263MPD2    N1 4042   2.943   1.742  11.497 -0.1413  0.0800  0.6923
  263MPD2    H7 4043   2.922   1.737  11.596  2.0166  1.2691  1.2137
  264TMC3    C1 4044   2.845   2.035  10.849  0.0314  0.6371 -0.4531
  264TMC3    C2 4045   2.769   2.094  10.758  0.1868  0.2745 -0.4239
  264TMC3    C3 4046   2.796   2.088  10.628  0.4275 -0.4275 -0.4991
  264TMC3    C4 4047   2.969   1.985  10.821 -0.5281  0.0457  0.3480
  264TMC3    C5 4048   3.004   1.998  10.690 -0.5456 -0.1717 -0.5125
  264TMC3    C6 4049   2.914   2.043  10.597 -0.0778  0.0280 -1.4310
  264TMC3     C 4050   2.801   2.042  10.994 -0.2629 -0.1513 -1.0444
  264TMC3     O 4051   2.704   2.116  11.020 -0.1513  0.5357 -0.1912
  264TMC3     H 4052   2.676   2.141  10.790  0.2101  0.6812 -0.9539
  264TMC3    H1 4053   3.037   1.945  10.896  1.1983  0.8922 -0.7624
  264TMC3    H2 4054   2.934   2.032  10.491 -0.7461  1.5713 -1.7139
  264TMC3    C7 4055   3.140   2.026  10.663  0.5667 -0.2689  0.2190
  264TMC3    C8 4056   2.782   2.213  10.559 -0.1327  0.1904 -0.4831
  264TMC3    O1 4057   3.227   1.978  10.735 -0.3847 -0.0215  0.0974
  264TMC3    O2 4058   2.887   2.258  10.514 -0.6993 -0.1260 -0.1609
  265MPD2     C 4059   4.650   3.003  15.759  0.2273  0.2449  0.1226
  265MPD2    C1 4060   4.685   3.082  15.648 -0.3596  0.1245 -0.0396
  265MPD2    C2 4061   4.720   3.015  15.532 -0.6212 -0.3987 -0.9003
  265MPD2    C3 4062   0.001   2.879  15.522  0.1181 -0.5891  0.2225
  265MPD2    C4 4063   4.703   2.807  15.637  0.8389 -0.7508  0.8447
  265MPD2    C5 4064   4.667   2.868  15.755 -0.5846  0.6934 -0.1538
  265MPD2     H 4065   0.012   3.076  15.447  1.1847 -1.9058 -1.3861
  265MPD2    H1 4066   4.722   2.700  15.637  2.1183 -0.5103 -0.5336
  265MPD2    H2 4067   4.605   3.050  15.846 -1.5805 -1.2135 -0.0279
  265MPD2    H3 4068   4.651   2.811  15.846  1.0290  4.4427  2.4902
  265MPD2     N 4069   0.050   2.801  15.416  0.1376  0.3989 -0.2734
  265MPD2    H5 4070   0.065   2.701  15.424  0.2404  0.4975  0.7357
  265MPD2    N1 4071   4.688   3.222  15.659 -0.6531 -0.2004  0.0215
  265MPD2    H7 4072   4.715   3.278  15.579  0.9283 -1.4296 -0.3117
  266TMC3    C1 4073   4.647   3.436  15.764 -0.8769 -0.3316  0.4568
  266TMC3    C2 4074   4.709   3.527  15.842 -0.0675 -0.1623  0.1857
  266TMC3    C3 4075   4.657   3.655  15.858  0.0297  0.3717 -0.3476
  266TMC3    C4 4076   4.533   3.475  15.702  0.5321  0.2616 -0.7182
  266TMC3    C5 4077   4.478   3.597  15.732  0.6979  0.4478  0.1481
  266TMC3    C6 4078   4.539   3.697  15.801 -0.0649  0.1099 -0.0489
  266TMC3     C 4079   4.693   3.295  15.775 -0.0666  0.3342  0.2494
  266TMC3     O 4080   4.691   3.251  15.891 -0.2022 -0.2142  0.0813
  266TMC3     H 4081   0.058   3.493  15.899 -0.1684 -1.3043 -0.3410
  266TMC3    H1 4082   4.473   3.408  15.641 -0.0723 -0.4507  0.6764
  266TMC3    H2 4083   4.489   3.791  15.822 -0.1414  0.1016 -0.1917
  266TMC3    C7 4084   4.338   3.608  15.710 -0.1865  0.6178  0.7918
  266TMC3    C8 4085   0.013   3.755  15.913 -0.5759 -0.2741  0.2143
  266TMC3    O1 4086   4.271   3.503  15.705  0.4377  0.7363 -0.3467
  266TMC3    O2 4087   0.127   3.717  15.917  0.0619 -0.1056  0.0050
  267MPD2     C 4088   2.080   0.583   0.043 -0.6519 -0.5348  0.0631
  267MPD2    C1 4089   2.128   0.480  17.706 -1.2465  0.6310 -0.5383
  267MPD2    C2 4090   2.078   0.487  17.576  0.0295  0.0531 -0.1055
  267MPD2    C3 4091   1.998   0.587  17.530  0.1873 -0.4437  0.1948
  267MPD2    C4 4092   1.947   0.684  17.611  0.8376 -0.4439 -0.0310
  267MPD2    C5 4093   2.000   0.676  17.735 -0.5098  0.5463  0.3109
  267MPD2     H 4094   2.109   0.419  17.497 -0.1823  1.2162 -1.1905
  267MPD2    H1 4095   1.880   0.766  17.589  0.1400 -0.4216  2.2108
  267MPD2    H2 4096   2.117   0.597   0.144 -0.7827  1.1406 -0.1128
  267MPD2    H3 4097   1.968   0.760   0.051 -1.6736 -0.2818  0.8560
  267MPD2     N 4098   1.963   0.589  17.392 -0.2304 -0.0301  0.2724
  267MPD2    H5 4099   1.980   0.500  17.346 -0.7113  1.7815 -3.4268
  267MPD2    N1 4100   2.230   0.393   0.002 -0.3403  0.4922  0.4765
  267MPD2    H7 4101   2.233   0.390   0.103  1.4738 -1.0491  0.3811
  268TMC3    C1 4102   2.428   0.279  17.722  0.3969 -0.5559 -0.1962
  268TMC3    C2 4103   2.533   0.252  17.636 -0.0527 -0.1392 -0.3092
  268TMC3    C3 4104   2.611   0.144  17.658  0.1303  0.0656  1.5443
  268TMC3    C4 4105   2.397   0.193   0.082 -0.7587 -0.1007  0.1218
  268TMC3    C5 4106   2.493   0.092   0.104  0.1794  0.6341 -0.2277
  268TMC3    C6 4107   2.592   0.063   0.015 -0.0923 -0.4683  0.1763
  268TMC3     C 4108   2.326   0.359  17.663  0.4495  0.2620 -0.5436
  268TMC3     O 4109   2.349   0.396  17.545 -0.0842  0.0639  0.4297
  268TMC3     H 4110   2.558   0.330  17.566 -0.0980 -1.6579 -2.0121
  268TMC3    H1 4111   2.303   0.191   0.136 -0.7189  1.3749  0.2325
  268TMC3    H2 4112   2.671   4.728   0.033  1.3692  0.4876 -2.3429
  268TMC3    C7 4113   2.515   0.048   0.237  0.3192  0.8254  0.3949
  268TMC3    C8 4114   2.723   0.117  17.572  0.1291 -0.9341  0.5502
  268TMC3    O1 4115   2.593   4.696   0.254 -0.2141  0.4892 -0.1872
  268TMC3    O2 4116   2.818   0.054  17.620  0.0820 -0.2155  0.4480
  269MPD2     C 4117   2.367   3.870  15.080  0.4340  1.0295  0.2993
  269MPD2    C1 4118   2.286   3.854  15.198 -0.0048  0.9765  0.2677
  269MPD2    C2 4119   2.264   3.958  15.283 -0.5031  0.0082  0.7235
  269MPD2    C3 4120   2.339   4.073  15.270 -0.2960  0.8624  0.4569
  269MPD2    C4 4121   2.430   4.086  15.172  0.3689 -0.0048  0.2939
  269MPD2    C5 4122   2.435   3.992  15.072  0.0744  0.5667 -0.3896
  269MPD2     H 4123   2.186   3.946  15.357  1.5153 -1.1177  2.6635
  269MPD2    H1 4124   2.485   4.178  15.156  0.8158  0.3973  4.1071
  269MPD2    H2 4125   2.384   3.789  15.010 -2.9882  1.1310 -0.6838
  269MPD2    H3 4126   2.501   4.007  14.988  0.4004  0.5100 -0.1428
  269MPD2     N 4127   2.321   4.178  15.362 -0.4587 -0.0427  0.0692
  269MPD2    H5 4128   2.251   4.177  15.436 -1.3065 -0.9130 -0.7396
  269MPD2    N1 4129   2.231   3.725  15.231  0.0958 -0.3316 -0.4385
  269MPD2    H7 4130   2.230   3.660  15.153 -0.7391 -1.6684  0.6780
  270TMC3    C1 4131   2.160   3.539  15.360  0.0014 -0.4791 -0.0919
  270TMC3    C2 4132   2.119   3.487  15.241  0.2019 -0.6190 -0.6988
  270TMC3    C3 4133   2.152   3.354  15.219  0.6746 -0.1083  0.1506
  270TMC3    C4 4134   2.219   3.461  15.459 -0.8860  0.1479  0.6913
  270TMC3    C5 4135   2.254   3.328  15.429  0.4505 -0.5763  0.6467
  270TMC3    C6 4136   2.223   3.272  15.307  0.7788 -0.1755 -0.2502
  270TMC3     C 4137   2.212   3.679  15.361  0.0575 -0.2828  0.1292
  270TMC3     O 4138   2.234   3.736  15.467 -0.1142  0.4129 -0.3291
  270TMC3     H 4139   2.060   3.548  15.174 -0.4300 -1.7577 -1.1919
  270TMC3    H1 4140   2.272   3.507  15.542 -0.3538  0.6357  0.0874
  270TMC3    H2 4141   2.234   3.168  15.278  1.2318 -0.0303 -0.5920
  270TMC3    C7 4142   2.357   3.251  15.499 -0.3401 -0.0215 -0.5502
  270TMC3    C8 4143   2.125   3.307  15.082  0.0321  0.2660 -1.0684
  270TMC3    O1 4144   2.422   3.178  15.430 -0.0510 -0.2892  0.1857
  270TMC3    O2 4145   2.030   3.360  15.023 -0.0986 -0.2020 -0.3664
  271MPD2     C 4146   2.303   3.012  13.588 -0.5493 -0.2242  0.0696
  271MPD2    C1 4147   2.245   3.050  13.713  0.4167  0.7127 -0.2715
  271MPD2    C2 4148   2.129   3.122  13.708 -0.3617 -0.3862 -0.2247
  271MPD2    C3 4149   2.057   3.140  13.594  0.5760  0.3825 -0.9234
  271MPD2    C4 4150   2.108   3.095  13.471  0.3907 -0.2037 -0.1654
  271MPD2    C5 4151   2.235   3.044  13.470  0.0964 -0.0263  0.1873
  271MPD2     H 4152   2.083   3.152  13.802 -0.9181  0.1752 -0.6762
  271MPD2    H1 4153   2.053   3.101  13.378 -0.1972  0.5737  0.2348
  271MPD2    H2 4154   2.405   2.976  13.581 -0.2056  0.6767  0.6319
  271MPD2    H3 4155   2.282   3.025  13.375 -0.3689 -0.8711  0.1230
  271MPD2     N 4156   1.926   3.194  13.589  0.7010 -0.1086 -0.1775
  271MPD2    H5 4157   1.880   3.196  13.498  0.3317 -1.5884 -0.0378
  271MPD2    N1 4158   2.302   3.034  13.842 -0.1198  0.2560 -0.0218
  271MPD2    H7 4159   2.240   3.077  13.909  0.6663  1.6043 -0.1518
  272TMC3    C1 4160   2.389   2.910  14.026  0.6229 -0.6540 -0.2114
  272TMC3    C2 4161   2.486   2.821  14.073  0.1516  0.1467  0.2476
  272TMC3    C3 4162   2.472   2.759  14.197 -0.1958  0.8281  0.6339
  272TMC3    C4 4163   2.267   2.926  14.093 -0.2661  0.4921  0.3170
  272TMC3    C5 4164   2.247   2.849  14.208 -0.8036  0.4320 -0.2081
  272TMC3    C6 4165   2.347   2.770  14.260 -0.2934 -0.0447 -0.0291
  272TMC3     C 4166   2.401   2.945  13.882  0.6062 -0.2401  1.0134
  272TMC3     O 4167   2.481   2.884  13.810 -0.0304  0.0665  0.0668
  272TMC3     H 4168   2.582   2.818  14.023  1.7180 -0.6404  3.3650
  272TMC3    H1 4169   2.181   2.982  14.057  0.2780  0.1521 -1.5234
  272TMC3    H2 4170   2.323   2.719  14.353 -0.7573 -1.7845 -1.1096
  272TMC3    C7 4171   2.115   2.837  14.265 -0.8080  0.1369  0.2287
  272TMC3    C8 4172   2.586   2.691  14.257  0.8557 -0.8238 -0.8346
  272TMC3    O1 4173   2.095   2.739  14.340 -0.1964 -0.4494  0.3191
  272TMC3    O2 4174   2.689   2.736  14.211  0.2126 -0.5863 -0.1092
  273MPD2     C 4175   3.197   0.719  11.558  0.1684  0.3576 -1.0733
  273MPD2    C1 4176   3.296   0.814  11.538  0.3725  0.0595 -0.4236
  273MPD2    C2 4177   3.350   0.824  11.418  0.5405  0.0092 -1.0809
  273MPD2    C3 4178   3.320   0.742  11.307 -0.9118 -0.1058 -0.1169
  273MPD2    C4 4179   3.226   0.649  11.336 -0.0629 -0.7100 -0.1389
  273MPD2    C5 4180   3.153   0.643  11.458 -0.2052  0.1952 -0.6213
  273MPD2     H 4181   3.437   0.888  11.411  1.7913 -1.7719 -1.7767
  273MPD2    H1 4182   3.192   0.575  11.263  0.7765 -0.6329 -0.6063
  273MPD2    H2 4183   3.146   0.709  11.653  1.1487  2.3107 -0.3538
  273MPD2    H3 4184   3.078   0.565  11.470 -1.4023  1.5833  0.7691
  273MPD2     N 4185   3.380   0.756  11.179 -0.0381  0.4909  0.1734
  273MPD2    H5 4186   3.368   0.684  11.109  1.7132  0.3237  0.0387
  273MPD2    N1 4187   3.338   0.890  11.653  0.5541  0.4558  0.0322
  273MPD2    H7 4188   3.296   0.868  11.743 -0.3950 -1.7942 -0.9661
  274TMC3    C1 4189   3.522   0.857  11.020 -0.9466  0.1498 -0.7235
  274TMC3    C2 4190   3.445   0.892  10.916 -0.3343 -0.6308  0.3673
  274TMC3    C3 4191   3.483   1.006  10.845 -0.6471  0.1705  0.2211
  274TMC3    C4 4192   3.628   0.928  11.053 -0.2081 -0.1475  0.4836
  274TMC3    C5 4193   3.668   1.039  10.983  0.1792  0.0175 -0.2676
  274TMC3    C6 4194   3.589   1.088  10.886 -0.2206  0.6038 -0.1624
  274TMC3     C 4195   3.442   0.868  11.138 -0.3856 -0.1179  0.2944
  274TMC3     O 4196   3.462   0.975  11.204  0.4005  0.1996  0.1896
  274TMC3     H 4197   3.354   0.839  10.891 -0.2193 -1.1320  1.0102
  274TMC3    H1 4198   3.704   0.900  11.125  0.2402 -0.7789 -0.2336
  274TMC3    H2 4199   3.623   1.174  10.830  0.3938  0.5353  0.1143
  274TMC3    C7 4200   3.728   1.144  11.066  0.8267  0.1837 -0.0518
  274TMC3    C8 4201   3.391   1.059  10.745 -0.4890 -0.2017 -0.0367
  274TMC3    O1 4202   3.771   1.236  11.004  0.2026  0.4761 -0.1752
  274TMC3    O2 4203   3.293   0.990  10.740 -0.2091 -0.3560 -0.1883
  275MPD2     C 4204   3.601   3.987  14.163 -0.5062  0.0786 -0.3585
  275MPD2    C1 4205   3.477   4.057  14.171  0.1743  0.4754  0.3913
  275MPD2    C2 4206   3.360   3.991  14.142  0.7111  0.2932 -0.8807
  275MPD2    C3 4207   3.365   3.855  14.118  0.3804  0.3497  0.1224
  275MPD2    C4 4208   3.485   3.783  14.114  1.1690  0.0268  0.1853
  275MPD2    C5 4209   3.600   3.857  14.129  0.5233  0.5999 -0.1005
  275MPD2     H 4210   3.269   4.045  14.165  1.2205  1.1624 -0.8793
  275MPD2    H1 4211   3.482   3.678  14.085  0.2545 -0.0283  0.4707
  275MPD2    H2 4212   3.699   4.033  14.176 -0.3761  0.2598 -1.9979
  275MPD2    H3 4213   3.697   3.814  14.107  1.3478  0.5301  3.5999
  275MPD2     N 4214   3.257   3.768  14.114 -0.0669 -0.0692  0.0770
  275MPD2    H5 4215   3.271   3.667  14.109  0.6723  0.0244  0.3739
  275MPD2    N1 4216   3.468   4.186  14.228 -0.2512 -0.6790 -0.1195
  275MPD2    H7 4217   3.376   4.229  14.223  0.8283  1.6241 -0.2335
  276TMC3    C1 4218   3.489   4.271  14.440 -0.2238  0.1121  0.0855
  276TMC3    C2 4219   3.363   4.217  14.466  0.0391 -1.0539  0.6896
  276TMC3    C3 4220   3.300   4.245  14.585  0.0618  0.0587 -0.2070
  276TMC3    C4 4221   3.551   4.343  14.532  0.2755 -0.2124 -0.5492
  276TMC3    C5 4222   3.480   4.380  14.649 -0.2448  0.1451 -0.5107
  276TMC3    C6 4223   3.354   4.332  14.671 -0.2737  0.3902  0.5096
  276TMC3     C 4224   3.552   4.229  14.324  0.3082  1.0945 -0.2859
  276TMC3     O 4225   3.674   4.205  14.332  0.9393 -0.0096 -0.2640
  276TMC3     H 4226   3.320   4.140  14.403 -0.5949 -0.7222  0.7110
  276TMC3    H1 4227   3.657   4.365  14.526 -0.1370  2.0519  0.3650
  276TMC3    H2 4228   3.312   4.347  14.770  0.2572 -1.4049  1.0072
  276TMC3    C7 4229   3.533   4.475  14.741  0.6294 -0.0283  0.2429
  276TMC3    C8 4230   3.167   4.195  14.604  0.0651 -0.0540  0.6374
  276TMC3    O1 4231   3.465   4.512  14.836 -0.0292  0.5871  0.5359
  276TMC3    O2 4232   3.077   4.269  14.643  0.0725  0.2364 -0.2248
  277MPD2     C 4233   0.386   3.176  13.276 -0.8410  0.5410 -0.6898
  277MPD2    C1 4234   0.271   3.246  13.312  0.5641 -0.6355  0.3080
  277MPD2    C2 4235   0.213   3.214  13.439  0.5637  0.0453  0.1205
  277MPD2    C3 4236   0.263   3.113  13.522 -0.0908  0.5202 -0.5948
  277MPD2    C4 4237   0.368   3.044  13.480  0.7704  0.6669  0.2653
  277MPD2    C5 4238   0.435   3.083  13.363  0.3337 -0.0003 -0.3169
  277MPD2     H 4239   0.116   3.254  13.467  0.1188 -0.5080 -0.6403
  277MPD2    H1 4240   0.410   2.961  13.535 -0.2146 -0.3510 -0.5036
  277MPD2    H2 4241   0.435   3.191  13.180  0.1608  1.7276 -0.0021
  277MPD2    H3 4242   0.526   3.029  13.337  1.4360  1.1778  1.0811
  277MPD2     N 4243   0.203   3.085  13.644 -0.5483 -0.0037 -0.4492
  277MPD2    H5 4244   0.116   3.135  13.653 -1.1632 -1.1884  0.1430
  277MPD2    N1 4245   0.219   3.342  13.221  0.1783 -0.1791 -0.6612
  277MPD2    H7 4246   0.271   3.347  13.134  0.6497 -1.7909 -0.4865
  278TMC3    C1 4247   0.135   2.984  13.848 -0.6066  0.0574  0.0511
  278TMC3    C2 4248   0.114   2.861  13.908 -0.1769  0.5480 -0.3676
  278TMC3    C3 4249   0.002   2.837  13.983 -0.0793 -0.4969 -0.0913
  278TMC3    C4 4250   0.040   3.083  13.859  0.8205  0.1218 -0.2817
  278TMC3    C5 4251   4.670   3.052  13.932  0.1743 -0.2696 -0.6497
  278TMC3    C6 4252   4.641   2.928  13.989  0.3752  0.0240 -0.1783
  278TMC3     C 4253   0.240   2.991  13.741 -0.0084 -0.3717 -0.5159
  278TMC3     O 4254   0.319   2.897  13.735  0.6294  0.1887  0.7342
  278TMC3     H 4255   0.191   2.786  13.892 -1.3134 -0.7825  0.5149
  278TMC3    H1 4256   0.052   3.184  13.822  1.0408  0.0968 -0.2771
  278TMC3    H2 4257   4.558   2.915  14.056 -0.0879  0.8772 -0.5770
  278TMC3    C7 4258   4.550   3.129  13.895 -0.1331  0.0271 -0.3763
  278TMC3    C8 4259   4.683   2.702  13.985  0.2073 -0.1559 -0.9566
  278TMC3    O1 4260   4.567   3.242  13.845  0.2922  0.4567  1.1075
  278TMC3    O2 4261   4.567   2.700  14.027  0.2884  0.3112  0.4135
  279MPD2     C 4262   4.023   3.278   0.093  0.3679  0.4379  0.0885
  279MPD2    C1 4263   3.953   3.345  17.740 -0.4252  0.7143 -0.1418
  279MPD2    C2 4264   4.025   3.389  17.625 -0.2012  0.6430 -0.1715
  279MPD2    C3 4265   4.164   3.366  17.627  0.0329 -1.2776 -0.0064
  279MPD2    C4 4266   4.224   3.302  17.732  0.4560  0.1008 -0.2978
  279MPD2    C5 4267   4.156   3.262   0.093 -0.7316  0.1574  0.4183
  279MPD2     H 4268   3.972   3.455  17.557 -2.2402 -0.4843  0.3141
  279MPD2    H1 4269   4.330   3.279  17.733 -0.0966 -2.4346 -1.7193
  279MPD2    H2 4270   3.958   3.233   0.168 -1.9092  1.5225 -1.2471
  279MPD2    H3 4271   4.210   3.215   0.175  0.6274 -1.1938 -1.2578
  279MPD2     N 4272   4.236   3.419  17.514  0.3816 -0.1532 -0.1023
  279MPD2    H5 4273   4.175   3.466  17.447 -2.5556 -1.6050  1.5344
  279MPD2    N1 4274   3.818   3.370   0.016  0.6399  0.3995  0.3525
  279MPD2    H7 4275   3.780   3.373   0.110 -0.2846  0.2297 -0.0113
  280TMC3    C1 4276   3.593   3.411  17.727 -0.2157  0.3277  0.2650
  280TMC3    C2 4277   3.557   3.312   0.076  0.0876  0.6608  0.9280
  280TMC3    C3 4278   3.425   3.272   0.089 -0.1150 -0.6208 -0.2552
  280TMC3    C4 4279   3.493   3.468  17.658  0.3027  0.8040 -1.0331
  280TMC3    C5 4280   3.364   3.436  17.676  0.6644  0.3178  0.0858
  280TMC3    C6 4281   3.326   3.337   0.021  0.1339  0.2622  0.2149
  280TMC3     C 4282   3.725   3.423  17.675 -1.4121 -0.6862 -0.4463
  280TMC3     O 4283   3.739   3.474  17.563 -0.1298  0.3924  0.7474
  280TMC3     H 4284   3.635   3.260   0.132  0.1062 -0.8251 -0.4562
  280TMC3    H1 4285   3.518   3.534  17.576  0.9841  2.8993  0.8463
  280TMC3    H2 4286   3.223   3.305   0.032  0.0159  0.7664  0.5438
  280TMC3    C7 4287   3.251   3.496  17.600  0.2096  0.7140  0.1720
  280TMC3    C8 4288   3.390   3.149   0.168 -0.0146  0.9174  0.6033
  280TMC3    O1 4289   3.143   3.447  17.630  0.7635  0.2278 -0.1392
  280TMC3    O2 4290   3.275   3.131   0.206  0.8800  0.0852 -0.0726
  281TMC3    C1 4291   2.885   2.648  13.320 -0.2274  0.4992  0.2599
  281TMC3    C2 4292   2.898   2.669  13.180  0.5902  0.2160  0.2983
  281TMC3    C3 4293   2.845   2.571  13.102  0.1506  0.2818 -0.0693
  281TMC3    C4 4294   2.842   2.532  13.378 -0.2981  0.2151  0.2777
  281TMC3    C5 4295   2.789   2.436  13.295 -0.0201  0.0778  0.1407
  281TMC3    C6 4296   2.784   2.459  13.160 -0.4966  0.7453  0.0266
  281TMC3     C 4297   2.912   2.765  13.404 -0.5047 -0.1421 -0.0080
  281TMC3     O 4298   2.924   2.744  13.523  0.3216 -0.1691  0.0950
  281TMC3     H 4299   2.976   2.732  13.140  0.3548  0.9773  1.0418
  281TMC3    H1 4300   2.845   2.510  13.484 -1.2754  2.2140  0.7308
  281TMC3    H2 4301   2.724   2.399  13.093 -0.4283 -2.0247  2.4472
  281TMC3    C7 4302   2.794   2.299  13.334  1.0257  0.1936  0.2173
  281TMC3    C8 4303   2.856   2.592  12.956  0.4515  0.1671 -0.1072
  281TMC3    O1 4304   2.789   2.215  13.243 -0.4535  0.0005  0.1267
  281TMC3    O2 4305   2.871   2.709  12.923  0.3968  0.1949 -0.6987
  282MPD2     C 4306   0.218   0.172  15.101  0.2394 -0.0431 -0.3592
  282MPD2    C1 4307   0.080   0.197  15.113 -0.0572 -0.1647  0.0371
  282MPD2    C2 4308   0.008   0.204  14.992 -0.7213 -0.5154 -0.3292
  282MPD2    C3 4309   0.070   0.176  14.876  0.2919  0.5254 -0.7123
  282MPD2    C4 4310   0.211   0.154  14.872 -0.0257  0.4591  1.6895
  282MPD2    C5 4311   0.281   0.140  14.990  0.4320 -0.5612  0.3819
  282MPD2     H 4312   4.638   0.219  14.989 -0.5287  0.7076 -1.3040
  282MPD2    H1 4313   0.267   0.140  14.780  0.1155  0.5301  1.7657
  282MPD2    H2 4314   0.278   0.176  15.191  0.6733  0.3928 -0.6652
  282MPD2    H3 4315   0.389   0.128  14.992  0.5693  0.4101 -0.9162
  282MPD2     N 4316   0.002   0.188  14.752 -0.0703  0.1767  0.2338
  282MPD2    H5 4317   4.640   0.206  14.765 -0.1940 -0.7582  0.6017
  282MPD2    N1 4318   0.034   0.233  15.240  0.1208 -0.0129  0.4209
  282MPD2    H7 4319   0.097   0.223  15.319 -0.3540  0.5155  0.8641
  283TMC3    C1 4320   4.617   0.219  15.414  0.0084 -1.1619  0.0177
  283TMC3    C2 4321   4.701   0.273  15.500 -0.0648 -0.0684 -0.4266
  283TMC3    C3 4322   4.688   0.238  15.635  0.0655  0.0626 -0.2383
  283TMC3    C4 4323   4.507   0.154  15.454  0.7453 -0.7795  0.7225
  283TMC3    C5 4324   4.492   0.132  15.587 -0.1942 -0.7053 -0.5392
  283TMC3    C6 4325   4.584   0.168  15.683  0.3792  0.2657 -0.4838
  283TMC3     C 4326   4.637   0.236  15.272  0.7875  0.0909 -0.4698
  283TMC3     O 4327   4.533   0.232  15.206 -0.1605  0.2245 -0.2499
  283TMC3     H 4328   0.058   0.313  15.462 -1.0656  1.7273 -0.9870
  283TMC3    H1 4329   4.442   0.105  15.381 -0.6019  1.7414  0.2265
  283TMC3    H2 4330   4.581   0.132  15.785  1.2450 -1.4523 -1.0666
  283TMC3    C7 4331   4.359   0.100  15.638 -0.1948  0.3256  0.0732
  283TMC3    C8 4332   0.010   0.316  15.744  0.0686 -0.2965 -0.2575
  283TMC3    O1 4333   4.338   0.141  15.752 -0.5125  0.2690 -0.4923
  283TMC3    O2 4334   0.002   0.261  15.852  0.0126 -0.6055 -0.1193
  284MPD2     C 4335   2.492   2.970  11.629  0.1683 -0.0004  0.3463
  284MPD2    C1 4336   2.607   2.961  11.546 -0.4140  0.4528  0.1045
  284MPD2    C2 4337   2.644   2.840  11.492  0.4250  0.1426 -0.2713
  284MPD2    C3 4338   2.574   2.729  11.537  0.2446 -0.3329 -0.1327
  284MPD2    C4 4339   2.476   2.734  11.633 -0.6701  0.0103  0.5836
  284MPD2    C5 4340   2.438   2.855  11.678 -0.5262 -0.6580  0.0402
  284MPD2     H 4341   2.733   2.833  11.430 -0.3543  1.5634 -1.5391
  284MPD2    H1 4342   2.421   2.650  11.674 -0.5901 -0.6926 -0.7613
  284MPD2    H2 4343   2.464   3.065  11.673  0.4307  0.3140 -0.1760
  284MPD2    H3 4344   2.357   2.858  11.751 -2.6699  3.5837 -2.5240
  284MPD2     N 4345   2.616   2.599  11.490  0.3947  0.0968  0.4591
  284MPD2    H5 4346   2.554   2.527  11.526 -0.2140 -0.2040 -1.1902
  284MPD2    N1 4347   2.671   3.071  11.487 -0.2541  0.1985 -0.4676
  284MPD2    H7 4348   2.756   3.064  11.433  0.3861 -0.1299  0.5853
  285TMC3    C1 4349   2.705   3.294  11.445  0.0289  0.0730  0.5406
  285TMC3    C2 4350   2.780   3.277  11.339 -0.6483  0.1636  0.5803
  285TMC3    C3 4351   2.855   3.381  11.286  0.3484  0.3162  0.2803
  285TMC3    C4 4352   2.703   3.416  11.511  0.0645  0.1527 -0.0331
  285TMC3    C5 4353   2.783   3.515  11.457  0.3301  0.7163  0.4712
  285TMC3    C6 4354   2.860   3.502  11.346  0.2072 -0.0896 -0.3916
  285TMC3     C 4355   2.620   3.199  11.498 -0.6402  0.1977  0.0910
  285TMC3     O 4356   2.517   3.239  11.547 -0.1711 -0.0692  0.7240
  285TMC3     H 4357   2.765   3.190  11.277 -1.9470  0.4756  0.4543
  285TMC3    H1 4358   2.657   3.421  11.610 -1.5067 -0.1346 -0.7381
  285TMC3    H2 4359   2.930   3.579  11.316  0.5426 -0.6678 -1.1146
  285TMC3    C7 4360   2.800   3.635  11.533 -0.0407  0.2256  0.1247
  285TMC3    C8 4361   2.894   3.360  11.146  0.0373 -0.5546  0.3506
  285TMC3    O1 4362   2.904   3.698  11.511 -0.5998  0.6649  0.0290
  285TMC3    O2 4363   2.905   3.249  11.103 -0.0251 -0.2209 -0.3528
  286MPD2     C 4364   3.088   2.762   1.660  0.1120  0.3154 -0.5965
  286MPD2    C1 4365   3.062   2.803   1.533 -0.2874  0.5031 -0.6056
  286MPD2    C2 4366   3.126   2.730   1.432 -0.0133 -0.3754  0.3758
  286MPD2    C3 4367   3.218   2.629   1.468  0.2608 -0.5184  0.5857
  286MPD2    C4 4368   3.251   2.597   1.597  0.4411 -0.0155  0.7216
  286MPD2    C5 4369   3.188   2.671   1.689 -0.3117  0.1008  0.0937
  286MPD2     H 4370   3.115   2.751   1.326  0.5122  0.2015  0.4341
  286MPD2    H1 4371   3.326   2.526   1.631  2.4742  1.9026  0.2079
  286MPD2    H2 4372   3.032   2.802   1.743  0.2366 -1.0262  0.1436
  286MPD2    H3 4373   3.196   2.643   1.793 -0.0865  0.4165  0.1572
  286MPD2     N 4374   3.291   2.552   1.368  0.3117  0.1395 -0.4760
  286MPD2    H5 4375   3.360   2.488   1.407  1.3119  2.3682  1.4419
  286MPD2    N1 4376   2.968   2.904   1.493  0.0748  0.5022  0.4711
  286MPD2    H7 4377   2.953   2.927   1.395 -1.2604  1.4722  0.8971
  287TMC3    C1 4378   3.363   2.469   1.179  0.3354  0.1250 -0.7380
  287TMC3    C2 4379   3.319   2.394   1.080  0.4140 -0.2810 -0.9485
  287TMC3    C3 4380   3.394   2.287   1.042  0.3243 -0.4203  0.3254
  287TMC3    C4 4381   3.480   2.447   1.240 -0.2796 -0.1520 -0.3827
  287TMC3    C5 4382   3.554   2.338   1.199 -0.0040  0.1748  0.5903
  287TMC3    C6 4383   3.517   2.264   1.093  0.1260  0.0593 -0.1509
  287TMC3     C 4384   3.270   2.561   1.236 -0.6510 -0.4660  0.2506
  287TMC3     O 4385   3.173   2.597   1.169 -0.3621 -0.4948  0.0057
  287TMC3     H 4386   3.218   2.400   1.041  0.9246  2.5148 -1.7948
  287TMC3    H1 4387   3.516   2.514   1.317  0.4971 -0.4479 -0.4794
  287TMC3    H2 4388   3.572   2.181   1.051 -0.9252 -0.6320 -0.1640
  287TMC3    C7 4389   3.684   2.314   1.261 -0.1576 -0.2708  0.4064
  287TMC3    C8 4390   3.359   2.217   0.920  1.0104 -0.1417 -1.2256
  287TMC3    O1 4391   3.713   2.409   1.335  0.4319  0.0222 -0.3738
  287TMC3    O2 4392   3.380   2.096   0.921  0.4401  0.1607 -0.4436
  288TMC3    C1 4393   0.072   2.677  14.353 -0.2315 -0.2557 -0.1198
  288TMC3    C2 4394   0.042   2.729  14.476 -0.2191 -0.1663 -0.0939
  288TMC3    C3 4395   4.709   2.646  14.570 -0.1802  0.5100 -0.2520
  288TMC3    C4 4396   0.043   2.546  14.317 -0.7725  0.0547  0.1154
  288TMC3    C5 4397   4.735   2.470  14.421 -0.2732  0.3105  0.3279
  288TMC3    C6 4398   4.687   2.516  14.543  0.1696 -0.4446 -0.3424
  288TMC3     C 4399   0.161   2.751  14.263  0.3467  0.0676 -0.4702
  288TMC3     O 4400   0.219   2.691  14.175  0.1025 -0.3469 -0.5182
  288TMC3     H 4401   0.083   2.822  14.515 -0.8153  0.6321 -1.3965
  288TMC3    H1 4402   0.076   2.503  14.223  2.1308  1.3524  0.5186
  288TMC3    H2 4403   4.636   2.451  14.612  1.5723 -2.3278 -1.0787
  288TMC3    C7 4404   4.721   2.332  14.397 -0.1163 -0.0339 -0.1446
  288TMC3    C8 4405   4.689   2.692  14.702 -0.6407  0.2827 -0.5786
  288TMC3    O1 4406   4.621   2.278  14.445  0.7346 -0.2751 -0.3010
  288TMC3    O2 4407   4.686   2.811  14.718 -0.0459  0.5000 -0.2338
  289MPD2     C 4408   0.247   1.774  15.007 -0.0708  0.4240  0.0303
  289MPD2    C1 4409   0.276   1.862  14.901  0.0939  0.3671  0.5459
  289MPD2    C2 4410   0.194   1.855  14.784  0.5376  0.0229  0.5642
  289MPD2    C3 4411   0.082   1.774  14.781 -0.4350 -0.4811  0.5209
  289MPD2    C4 4412   0.065   1.688  14.886  0.6350 -0.4216  0.2138
  289MPD2    C5 4413   0.143   1.688  14.996 -0.5174 -0.4004  0.5721
  289MPD2     H 4414   0.203   1.919  14.698 -0.1178  0.4993  0.8494
  289MPD2    H1 4415   4.719   1.619  14.869 -0.5703  0.7682  1.2678
  289MPD2    H2 4416   0.298   1.789  15.101 -1.9116  1.4070  0.8923
  289MPD2    H3 4417   0.122   1.615  15.073 -0.6100  0.9231  1.8112
  289MPD2     N 4418   4.724   1.778  14.681 -0.4497  0.1511 -0.1812
  289MPD2    H5 4419   4.659   1.700  14.678 -0.6145  0.2893 -0.1859
  289MPD2    N1 4420   0.382   1.969  14.901 -0.1690 -0.1851 -0.1261
  289MPD2    H7 4421   0.431   1.976  14.989  1.4399  1.1797 -1.1464
  290TMC3    C1 4422   4.591   1.862  14.514 -0.7245 -0.4082  0.7771
  290TMC3    C2 4423   4.517   1.967  14.475 -0.0794 -0.5403  0.2456
  290TMC3    C3 4424   4.414   1.943  14.392 -0.0195  0.2950  0.5792
  290TMC3    C4 4425   4.561   1.730  14.469  0.7569  0.8278  0.1167
  290TMC3    C5 4426   4.448   1.711  14.396  0.5383 -0.0504  0.1596
  290TMC3    C6 4427   4.378   1.822  14.356  0.2801 -0.3456  0.1906
  290TMC3     C 4428   4.691   1.890  14.614  0.9118 -0.3526 -0.4115
  290TMC3     O 4429   4.724   2.006  14.634  0.1132  0.1197  0.6006
  290TMC3     H 4430   4.537   2.068  14.508 -0.3007  0.2201 -1.9528
  290TMC3    H1 4431   4.629   1.646  14.480  1.3847  1.2412 -0.6176
  290TMC3    H2 4432   4.301   1.812  14.280  1.9935 -2.6267 -1.2785
  290TMC3    C7 4433   4.429   1.593  14.319 -0.0744  0.7394 -0.0412
  290TMC3    C8 4434   4.319   2.051  14.347 -0.5141  0.5430 -0.5910
  290TMC3    O1 4435   4.356   1.601  14.223  0.2454  0.0646  0.3941
  290TMC3    O2 4436   4.200   2.020  14.332  0.8238 -0.0177  0.3361
  291MPD2     C 4437   3.751   2.108   0.252 -0.1758 -0.3987  0.1103
  291MPD2    C1 4438   3.873   2.057   0.278  0.1667  0.8483 -0.0868
  291MPD2    C2 4439   3.968   2.143   0.337 -0.4819 -0.3859  0.2361
  291MPD2    C3 4440   3.940   2.277   0.365  0.2296  0.2387 -0.9636
  291MPD2    C4 4441   3.809   2.321   0.337 -0.6204 -0.4734 -0.2380
  291MPD2    C5 4442   3.721   2.237   0.278 -0.1979 -0.2816  0.6827
  291MPD2     H 4443   4.058   2.103   0.381  0.1353  0.5371 -0.1848
  291MPD2    H1 4444   3.779   2.424   0.350  1.0395 -0.4482  3.5549
  291MPD2    H2 4445   3.688   2.043   0.192 -0.0502 -0.0912 -0.3521
  291MPD2    H3 4446   3.625   2.274   0.246 -0.1286  1.5556  2.6103
  291MPD2     N 4447   4.028   2.372   0.420  0.0184  0.1963 -0.3870
  291MPD2    H5 4448   3.996   2.467   0.426 -0.3126  0.0160  0.7569
  291MPD2    N1 4449   3.925   1.925   0.251 -0.2759 -0.1765  0.4978
  291MPD2    H7 4450   4.026   1.916   0.262 -0.1613  0.5964  0.0859
  292TMC3    C1 4451   3.933   1.686   0.238  0.1471 -0.2048 -0.0445
  292TMC3    C2 4452   4.038   1.694   0.323  0.6119  0.5850  0.2826
  292TMC3    C3 4453   4.098   1.577   0.376 -0.6292 -0.1990 -0.2828
  292TMC3    C4 4454   3.889   1.563   0.192 -0.0577 -0.4161 -0.1369
  292TMC3    C5 4455   3.953   1.447   0.240 -0.3970  0.4776 -0.1225
  292TMC3    C6 4456   4.060   1.453   0.329  0.1780  0.3983  0.0150
  292TMC3     C 4457   3.854   1.808   0.219 -0.4879 -0.1061  0.1791
  292TMC3     O 4458   3.735   1.807   0.185  0.8721  0.4039  0.0167
  292TMC3     H 4459   4.068   1.790   0.362  1.2100 -0.8493  3.3571
  292TMC3    H1 4460   3.801   1.565   0.129 -0.7771  2.4528  0.9469
  292TMC3    H2 4461   4.110   1.361   0.358  1.1420  0.8904 -0.0877
  292TMC3    C7 4462   3.923   1.315   0.182  0.0605  0.1368  0.4026
  292TMC3    C8 4463   4.196   1.597   0.482 -0.1685 -0.6705 -0.0353
  292TMC3    O1 4464   4.012   1.236   0.199 -0.0084  0.2080  0.8721
  292TMC3    O2 4465   4.193   1.708   0.532  0.4016 -0.1039  0.2400
  293MPD2     C 4466   0.987   2.462  13.118 -0.1052  0.0661  0.3353
  293MPD2    C1 4467   1.087   2.508  13.037  0.3010 -0.9865 -0.9914
  293MPD2    C2 4468   1.187   2.584  13.091 -0.0035 -0.1065 -0.5907
  293MPD2    C3 4469   1.188   2.611  13.227  0.0307 -0.6652  0.0668
  293MPD2    C4 4470   1.079   2.569  13.307 -0.0407  0.0933  0.0171
  293MPD2    C5 4471   0.978   2.497  13.252 -0.3454  0.6635 -0.9616
  293MPD2     H 4472   1.274   2.618  13.037  0.3804 -0.0136  0.0819
  293MPD2    H1 4473   1.075   2.594  13.413 -3.0602  3.5685 -0.8963
  293MPD2    H2 4474   0.905   2.412  13.067 -0.0894 -0.9773  1.3138
  293MPD2    H3 4475   0.895   2.451  13.304  0.1900  0.4993 -0.2654
  293MPD2     N 4476   1.286   2.699  13.279  0.4955  0.5267 -0.2462
  293MPD2    H5 4477   1.358   2.722  13.210  0.9356 -0.7277 -0.1982
  293MPD2    N1 4478   1.074   2.475  12.902 -0.0218 -0.6097 -0.7309
  293MPD2    H7 4479   0.984   2.445  12.867  0.5164  0.8886 -3.4729
  294TMC3    C1 4480   1.135   2.415  12.692 -0.4920  0.1278 -0.0586
  294TMC3    C2 4481   1.084   2.289  12.684 -0.9648  0.5463 -0.2790
  294TMC3    C3 4482   1.085   2.227  12.566  0.1709  0.3514 -0.6476
  294TMC3    C4 4483   1.168   2.482  12.582  0.2765 -0.3384  0.3327
  294TMC3    C5 4484   1.151   2.409  12.462  0.6431 -0.0931  0.2945
  294TMC3    C6 4485   1.112   2.279  12.449  0.0041  0.3039  0.0554
  294TMC3     C 4486   1.172   2.482  12.812  0.7042  0.6572  0.3841
  294TMC3     O 4487   1.289   2.515  12.825  0.4290  0.2815  0.0007
  294TMC3     H 4488   1.040   2.242  12.771  0.0398 -2.1937 -1.2340
  294TMC3    H1 4489   1.210   2.581  12.589  0.7236 -0.4362 -0.9962
  294TMC3    H2 4490   1.094   2.231  12.354 -2.0576 -0.5534  0.8767
  294TMC3    C7 4491   1.192   2.489  12.342  0.7071  0.2636  0.2712
  294TMC3    C8 4492   0.985   2.120  12.559  0.9446 -0.3000  0.2455
  294TMC3    O1 4493   1.148   2.606  12.333 -0.3960 -0.3609  0.4123
  294TMC3    O2 4494   0.889   2.123  12.636  0.8199  0.3185  0.1063
  295MPD2     C 4495   1.333   1.832   1.202  0.6462 -0.1761  0.3086
  295MPD2    C1 4496   1.416   1.764   1.114 -0.0056  0.3445 -0.2263
  295MPD2    C2 4497   1.495   1.667   1.169  0.1564 -0.1132  0.5175
  295MPD2    C3 4498   1.479   1.616   1.298 -0.7878  0.2657  0.9229
  295MPD2    C4 4499   1.392   1.685   1.379 -0.0325 -0.1087 -0.1674
  295MPD2    C5 4500   1.324   1.795   1.329  0.2903 -0.2189 -0.0688
  295MPD2     H 4501   1.548   1.600   1.102 -1.3276  0.8738 -1.6418
  295MPD2    H1 4502   1.380   1.655   1.482  1.0776 -0.6657 -0.2034
  295MPD2    H2 4503   1.255   1.903   1.175 -0.3521 -1.2472  0.3767
  295MPD2    H3 4504   1.247   1.845   1.386  1.2493  2.4561 -1.1405
  295MPD2     N 4505   1.550   1.506   1.344 -0.2378 -0.1503  0.0262
  295MPD2    H5 4506   1.542   1.489   1.444 -0.1927  1.2032  0.2578
  295MPD2    N1 4507   1.425   1.786   0.977  0.5641  0.0671  0.5332
  295MPD2    H7 4508   1.469   1.707   0.930  2.6733 -0.6439  3.7281
  296TMC3    C1 4509   1.677   1.304   1.361  0.1461  0.3935 -0.0387
  296TMC3    C2 4510   1.601   1.268   1.471  0.1459  0.4152 -0.0405
  296TMC3    C3 4511   1.622   1.147   1.524 -0.3598  0.7054  0.0540
  296TMC3    C4 4512   1.764   1.220   1.302 -0.0273  0.8497  0.2634
  296TMC3    C5 4513   1.770   1.095   1.356 -0.0592  0.4464 -0.6026
  296TMC3    C6 4514   1.702   1.052   1.469  0.5393 -0.2148  0.0639
  296TMC3     C 4515   1.644   1.426   1.278  0.7933  0.0881  0.5261
  296TMC3     O 4516   1.685   1.430   1.162  0.3801  0.7662 -0.3863
  296TMC3     H 4517   1.520   1.327   1.513  0.3378  0.9540 -0.4205
  296TMC3    H1 4518   1.809   1.248   1.207 -3.7186 -0.6074 -1.9336
  296TMC3    H2 4519   1.742   0.969   1.527  3.3876  2.3280  1.7982
  296TMC3    C7 4520   1.893   1.024   1.322 -0.1644 -0.1099  0.1621
  296TMC3    C8 4521   1.581   1.131   1.667  0.3710  0.1278 -0.3332
  296TMC3    O1 4522   1.969   1.098   1.261  0.1520 -0.2758 -0.2314
  296TMC3    O2 4523   1.566   1.018   1.704  0.0250 -0.9407 -0.5723
  297MPD2     C 4524   3.549   3.608  16.189  0.3108 -0.3611 -0.0369
  297MPD2    C1 4525   3.527   3.704  16.093 -0.3549  0.3876  0.0336
  297MPD2    C2 4526   3.633   3.788  16.065  0.7038 -0.5096  0.3015
  297MPD2    C3 4527   3.755   3.776  16.131 -0.2041  0.6825  0.2712
  297MPD2    C4 4528   3.776   3.672  16.217 -0.6923  0.0907 -1.0198
  297MPD2    C5 4529   3.673   3.593  16.247 -0.1988 -0.0602  1.2528
  297MPD2     H 4530   3.618   3.875  16.003 -1.1122 -1.3002 -0.3731
  297MPD2    H1 4531   3.868   3.668  16.275 -0.7227 -0.6130 -1.0182
  297MPD2    H2 4532   3.474   3.533  16.215  1.1839 -1.1407  0.2120
  297MPD2    H3 4533   3.673   3.524  16.331  1.2739 -0.0611  1.2575
  297MPD2     N 4534   3.845   3.880  16.113 -0.4374 -0.0409 -0.5319
  297MPD2    H5 4535   3.809   3.961  16.063 -0.0767  0.6546  0.3392
  297MPD2    N1 4536   3.402   3.718  16.025 -0.2872 -0.3169 -0.0895
  297MPD2    H7 4537   3.400   3.762  15.933  0.4277  0.0155  0.0536
  298TMC3    C1 4538   3.174   3.710  15.981 -0.4215  0.3052  0.0148
  298TMC3    C2 4539   3.180   3.666  15.850  0.3747  0.1191 -0.0324
  298TMC3    C3 4540   3.063   3.678  15.785  0.9211  0.4636 -0.1201
  298TMC3    C4 4541   3.057   3.744  16.040 -0.0216  0.1071 -0.2475
  298TMC3    C5 4542   2.938   3.747  15.966 -0.9398  0.0044 -1.0913
  298TMC3    C6 4543   2.944   3.713  15.834 -0.2687  0.7895  0.9943
  298TMC3     C 4544   3.278   3.668  16.069  0.3686  0.3469  0.1695
  298TMC3     O 4545   3.247   3.616  16.178 -0.0206  0.2667 -0.1967
  298TMC3     H 4546   3.274   3.634  15.807  0.3916  0.6840 -0.4176
  298TMC3    H1 4547   3.062   3.778  16.142 -1.1640  1.4214 -0.6182
  298TMC3    H2 4548   2.852   3.702  15.777  3.0409  0.9263 -4.4071
  298TMC3    C7 4549   2.828   3.823  16.026  0.9130  0.7371 -0.5331
  298TMC3    C8 4550   3.059   3.615  15.650 -0.0306  0.2580  0.0230
  298TMC3    O1 4551   2.825   3.825  16.151  0.0349 -0.0530 -0.3771
  298TMC3    O2 4552   3.148   3.533  15.616  0.7483  0.9970  0.1174
  299MPD2     C 4553   4.686   3.290  10.694 -0.3325 -0.2359 -0.1634
  299MPD2    C1 4554   4.647   3.198  10.791 -0.3564  0.0925  0.3295
  299MPD2    C2 4555   4.550   3.103  10.755  0.0568 -0.5214 -0.4074
  299MPD2    C3 4556   4.497   3.094  10.623 -0.0878 -0.4254  0.1216
  299MPD2    C4 4557   4.537   3.187  10.530  0.8017 -0.5540 -0.5125
  299MPD2    C5 4558   4.637   3.274  10.566  0.3069  0.6543 -0.2444
  299MPD2     H 4559   4.499   3.041  10.827 -0.8999  1.0301  0.2479
  299MPD2    H1 4560   4.500   3.183  10.428 -1.2547  1.5727  0.1196
  299MPD2    H2 4561   0.020   3.369  10.716  0.0333 -0.9006  1.0925
  299MPD2    H3 4562   4.673   3.351  10.498 -0.1642  1.1720  0.0914
  299MPD2     N 4563   4.386   3.010  10.588  0.2801 -0.1278 -0.2240
  299MPD2    H5 4564   4.357   3.016  10.491 -1.0432 -1.7255  0.0726
  299MPD2    N1 4565   4.683   3.218  10.925  0.0257  0.1383  0.4657
  299MPD2    H7 4566   0.000   3.302  10.945  0.8291 -0.4758  0.8616
  300TMC3    C1 4567   4.205   2.865  10.597  0.5412 -0.2123  0.3041
  300TMC3    C2 4568   4.184   2.902  10.467  0.6593  0.9193 -0.1981
  300TMC3    C3 4569   4.111   2.813  10.391 -0.1208 -0.0608 -0.2867
  300TMC3    C4 4570   4.156   2.747  10.649  0.6015  0.1470  0.9317
  300TMC3    C5 4571   4.075   2.666  10.563 -0.2000 -0.5645 -0.4732
  300TMC3    C6 4572   4.060   2.698  10.437  0.5958  0.1222 -0.0225
  300TMC3     C 4573   4.317   2.917  10.666  0.1179 -0.2210 -0.5387
  300TMC3     O 4574   4.351   2.876  10.771  0.0537 -0.0267 -0.0281
  300TMC3     H 4575   4.216   2.994  10.421  2.6311 -0.1819 -1.0138
  300TMC3    H1 4576   4.163   2.730  10.756  2.7726  0.3583  0.8279
  300TMC3    H2 4577   3.996   2.641  10.371 -0.9543  2.4459 -0.5387
  300TMC3    C7 4578   3.960   2.606  10.626 -0.1879 -0.2931  0.9475
  300TMC3    C8 4579   4.083   2.849  10.259  0.2664 -0.1543 -0.2830
  300TMC3    O1 4580   3.972   2.552  10.734  0.1889  0.3235  0.4461
  300TMC3    O2 4581   4.080   2.766  10.171 -0.3569 -0.1328 -0.2627
  301MPD2     C 4582   2.120   0.074   0.995 -0.3184 -0.2042 -0.0275
  301MPD2    C1 4583   2.000   0.063   0.926 -0.0501  0.4500 -0.0316
  301MPD2    C2 4584   1.973   4.681   0.862  0.0028 -0.6106 -0.0261
  301MPD2    C3 4585   2.066   4.575   0.868 -0.4489  0.5409  0.6307
  301MPD2    C4 4586   2.185   4.592   0.932  0.2306  0.1505 -0.0612
  301MPD2    C5 4587   2.211   4.711   0.995 -0.3826 -0.0056  0.7414
  301MPD2     H 4588   1.878   4.650   0.820 -0.7700  0.8705  0.6317
  301MPD2    H1 4589   2.261   4.515   0.934 -0.4247 -0.5094 -1.0916
  301MPD2    H2 4590   2.142   0.172   1.035  0.7646 -0.6673  0.4972
  301MPD2    H3 4591   2.303   4.721   1.052  0.3864  0.1620 -0.5428
  301MPD2     N 4592   2.039   4.447   0.806  0.2426 -0.3657 -0.7104
  301MPD2    H5 4593   2.106   4.375   0.830  0.2244  0.2975  1.3391
  301MPD2    N1 4594   1.906   0.159   0.920 -0.9662  0.1072  0.6219
  301MPD2    H7 4595   1.828   0.138   0.858 -0.7649 -0.8928  0.7154
  302TMC3    C1 4596   1.938   4.278   0.660 -0.2540  0.5445 -0.1561
  302TMC3    C2 4597   2.007   4.177   0.721 -0.0063 -0.5521 -0.5648
  302TMC3    C3 4598   1.956   4.049   0.703  0.3042 -0.3312  0.1241
  302TMC3    C4 4599   1.835   4.259   0.571  0.8877 -0.3687 -0.0845
  302TMC3    C5 4600   1.787   4.131   0.557  0.0289  0.8613  0.0346
  302TMC3    C6 4601   1.843   4.024   0.622 -0.1687  0.6919 -0.0429
  302TMC3     C 4602   1.946   4.420   0.706  0.6784  0.0320  0.2409
  302TMC3     O 4603   1.881   4.501   0.640  0.1505 -0.2898 -0.4109
  302TMC3     H 4604   2.092   4.180   0.789 -1.3794 -2.0490  1.2242
  302TMC3    H1 4605   1.787   4.339   0.517  1.9314 -0.0686 -0.5686
  302TMC3    H2 4606   1.810   3.924   0.596  1.4024 -0.2504  1.6187
  302TMC3    C7 4607   1.676   4.108   0.464  1.1348 -0.5601 -0.3560
  302TMC3    C8 4608   2.040   3.940   0.737 -0.0557 -0.6315  0.5933
  302TMC3    O1 4609   1.663   3.997   0.416 -0.1380  0.0241  0.8170
  302TMC3    O2 4610   2.157   3.953   0.767  0.2295  0.5175 -0.2154
  303MPD2     C 4611   1.474   3.358  10.566  0.6664 -0.1304  0.2011
  303MPD2    C1 4612   1.390   3.266  10.518  0.6669  0.4338  0.7848
  303MPD2    C2 4613   1.439   3.194  10.414 -0.2792  0.0453 -0.0654
  303MPD2    C3 4614   1.561   3.218  10.350  0.5401  0.2691 -0.3772
  303MPD2    C4 4615   1.647   3.310  10.413  0.3906  0.1426 -0.4656
  303MPD2    C5 4616   1.606   3.373  10.527  0.6605  0.6330  0.4693
  303MPD2     H 4617   1.379   3.107  10.389 -1.0248  0.8985 -1.2316
  303MPD2    H1 4618   1.744   3.329  10.367  0.7083  0.0945  0.1810
  303MPD2    H2 4619   1.450   3.431  10.642  0.0856  0.1138 -0.2228
  303MPD2    H3 4620   1.673   3.442  10.576  0.7803 -0.2360  1.5275
  303MPD2     N 4621   1.603   3.157  10.229  0.2023 -0.1312 -0.1780
  303MPD2    H5 4622   1.690   3.180  10.181 -0.2892  1.1689 -0.4451
  303MPD2    N1 4623   1.250   3.278  10.551 -0.3435 -0.4800 -0.3101
  303MPD2    H7 4624   1.230   3.340  10.628  0.2930 -0.3796 -0.2241
  304TMC3    C1 4625   1.019   3.253  10.530  0.1822  0.1070  0.5491
  304TMC3    C2 4626   1.002   3.391  10.544  0.2060  0.0801  0.9092
  304TMC3    C3 4627   0.888   3.448  10.492  0.3137  0.6390  0.2813
  304TMC3    C4 4628   0.923   3.176  10.476 -0.0485  0.4444  0.3551
  304TMC3    C5 4629   0.802   3.238  10.437 -1.0062 -0.8047 -0.1022
  304TMC3    C6 4630   0.784   3.377  10.443 -0.3519  0.4090  0.2635
  304TMC3     C 4631   1.149   3.213  10.490 -0.0003  0.3018  0.0031
  304TMC3     O 4632   1.156   3.114  10.420  0.5587 -0.7191 -0.0399
  304TMC3     H 4633   1.086   3.454  10.570  0.4659 -0.3020  0.9987
  304TMC3    H1 4634   0.944   3.072  10.452  2.7868  1.2880 -0.8074
  304TMC3    H2 4635   0.690   3.423  10.414 -1.1192 -1.1270  0.3189
  304TMC3    C7 4636   0.740   3.187  10.320 -0.2230 -0.0947  0.2499
  304TMC3    C8 4637   0.931   3.544  10.398  0.2745  0.3357  0.6581
  304TMC3    O1 4638   0.716   3.274  10.237  0.1477  0.0910  0.1922
  304TMC3    O2 4639   1.044   3.594  10.411  0.2455 -0.5732  0.1069
  305MPD2     C 4640   0.537   0.587  14.067 -0.2106 -0.1129 -0.6576
  305MPD2    C1 4641   0.572   0.459  14.081  0.2492  0.1428  0.1738
  305MPD2    C2 4642   0.595   0.376  13.969  0.3467  0.2497  0.3572
  305MPD2    C3 4643   0.579   0.422  13.844 -0.4804 -0.2062 -1.2367
  305MPD2    C4 4644   0.541   0.556  13.828 -0.5943 -0.2261  0.0026
  305MPD2    C5 4645   0.520   0.637  13.937  0.8098  0.4068  0.0040
  305MPD2     H 4646   0.625   0.272  13.979 -1.2583 -0.1072  1.4834
  305MPD2    H1 4647   0.518   0.604  13.734 -0.1562 -1.5855 -0.7944
  305MPD2    H2 4648   0.522   0.641  14.159 -2.0050 -0.4246 -0.7634
  305MPD2    H3 4649   0.490   0.740  13.917 -0.3459  0.5433  2.3554
  305MPD2     N 4650   0.610   0.348  13.726 -0.6880 -0.0698 -0.8163
  305MPD2    H5 4651   0.594   0.393  13.636  0.3887  0.7471 -0.5876
  305MPD2    N1 4652   0.572   0.408  14.218  0.4123  0.1400 -0.5489
  305MPD2    H7 4653   0.528   0.460  14.293 -0.2597  0.0494 -0.8806
  306TMC3    C1 4654   0.631   0.275  14.401 -0.2437  0.6683  0.2442
  306TMC3    C2 4655   0.702   0.177  14.460  0.2219 -0.2163 -0.8885
  306TMC3    C3 4656   0.684   0.150  14.595 -0.5840  0.4955  1.4378
  306TMC3    C4 4657   0.523   0.325  14.469 -0.0046 -0.4613 -0.2417
  306TMC3    C5 4658   0.499   0.288  14.599 -0.2045  0.0564  0.3027
  306TMC3    C6 4659   0.580   0.203  14.665 -0.8482 -0.6725 -0.1213
  306TMC3     C 4660   0.652   0.303  14.259 -0.0307  0.6260 -0.1096
  306TMC3     O 4661   0.722   0.225  14.195 -0.3468  0.3905 -0.1215
  306TMC3     H 4662   0.790   0.138  14.411 -0.0070 -1.6661 -0.1581
  306TMC3    H1 4663   0.453   0.396  14.425 -1.9451 -2.0557  0.2782
  306TMC3    H2 4664   0.563   0.168  14.766  0.9872 -0.8393  0.1243
  306TMC3    C7 4665   0.405   0.375  14.672 -0.5493 -0.3378 -0.2711
  306TMC3    C8 4666   0.773   0.052  14.650  0.3387 -0.5113  0.3208
  306TMC3    O1 4667   0.305   0.398  14.610 -0.2379  0.1285 -0.1415
  306TMC3    O2 4668   0.853   4.735  14.576 -0.2615  0.9011 -0.2466
  307MPD2     C 4669   2.942   3.837  17.698 -0.0686 -0.2025 -0.2173
  307MPD2    C1 4670   2.864   3.942  17.743  0.8052  0.3415  0.1956
  307MPD2    C2 4671   2.785   3.915   0.110  0.7586 -0.0375  0.0971
  307MPD2    C3 4672   2.779   3.790   0.162 -0.3136  0.4095 -0.1532
  307MPD2    C4 4673   2.848   3.682   0.098  0.4054  0.4156 -0.4822
  307MPD2    C5 4674   2.936   3.710  17.743 -0.2144  0.7992  0.1374
  307MPD2     H 4675   2.725   3.993   0.158 -2.3510 -1.9187 -0.7122
  307MPD2    H1 4676   2.847   3.582   0.141 -0.7116 -0.7580 -3.2212
  307MPD2    H2 4677   3.009   3.838  17.613  0.6603 -0.0473  0.3656
  307MPD2    H3 4678   3.000   3.641  17.689 -0.5585 -0.8835  1.8619
  307MPD2     N 4679   2.671   3.770   0.252  0.4396 -0.5510  0.6261
  307MPD2    H5 4680   2.604   3.845   0.266 -0.1204 -0.7313 -1.0675
  307MPD2    N1 4681   2.852   4.067  17.679 -0.0076 -0.4767 -0.4008
  307MPD2    H7 4682   2.788   4.123  17.734  2.1995  0.9334  0.7531
  308TMC3    C1 4683   2.310   3.670   0.437  0.3426 -0.1060 -0.3451
  308TMC3    C2 4684   2.294   3.791   0.494  0.2649 -0.4525  0.3564
  308TMC3    C3 4685   2.403   3.866   0.523 -0.5868  0.2836 -0.7155
  308TMC3    C4 4686   2.438   3.614   0.423  0.1757  0.2367 -0.0452
  308TMC3    C5 4687   2.545   3.693   0.430  0.0786  1.0004  0.9669
  308TMC3    C6 4688   2.528   3.830   0.475  0.0819 -0.2958 -0.6409
  308TMC3     C 4689   2.198   3.577   0.431  0.4898 -0.6199  0.2261
  308TMC3     O 4690   2.216   3.458   0.437 -0.0844 -0.0789  0.5844
  308TMC3     H 4691   2.196   3.821   0.531  0.9461  1.4399  0.5979
  308TMC3    H1 4692   2.446   3.511   0.391 -1.2638  0.4170 -0.9938
  308TMC3    H2 4693   2.621   3.884   0.484  1.0619 -2.0781 -0.1749
  308TMC3    C7 4694   2.648   3.659   0.335  0.2487 -0.5689  0.2723
  308TMC3    C8 4695   2.399   4.004   0.565 -0.0444  0.5774  0.0755
  308TMC3    O1 4696   2.690   3.543   0.335  0.0953 -0.1583  0.3581
  308TMC3    O2 4697   2.497   4.042   0.630 -0.0062 -0.1132 -0.5243
  309MPD2     C 4698   1.406   3.876  17.057 -0.7824 -0.7790 -0.2401
  309MPD2    C1 4699   1.336   3.920  16.950 -0.0833 -0.0268 -0.5308
  309MPD2    C2 4700   1.214   3.980  16.970  0.5705  0.2155  0.3413
  309MPD2    C3 4701   1.180   4.014  17.101 -0.1182  0.0638 -0.0287
  309MPD2    C4 4702   1.266   3.989  17.203 -0.4757  1.0278 -0.7164
  309MPD2    C5 4703   1.373   3.914  17.186  0.0683  0.7150 -0.2006
  309MPD2     H 4704   1.152   4.014  16.887 -1.5062  2.6802  2.8759
  309MPD2    H1 4705   1.236   4.012  17.304  0.5797 -0.1638 -0.1500
  309MPD2    H2 4706   1.506   3.834  17.058 -0.1151  0.9109  2.6966
  309MPD2    H3 4707   1.445   3.892  17.264 -0.3192 -0.4797 -0.1643
  309MPD2     N 4708   1.055   4.073  17.132  0.2128 -0.6960  0.2987
  309MPD2    H5 4709   1.041   4.098  17.230 -1.4322 -0.4717 -0.0025
  309MPD2    N1 4710   1.387   3.905  16.817 -0.1903  0.0508  0.7835
  309MPD2    H7 4711   1.335   3.949  16.741  0.8227  1.4543  0.9112
  310TMC3    C1 4712   1.565   3.858  16.663 -0.0220 -0.1363 -0.6332
  310TMC3    C2 4713   1.498   3.902  16.554  0.5794  0.0994  0.0873
  310TMC3    C3 4714   1.560   3.903  16.431  0.1653  0.1580  0.2877
  310TMC3    C4 4715   1.689   3.800  16.649 -0.2920 -0.1799  0.0737
  310TMC3    C5 4716   1.750   3.799  16.526  0.0554  0.5672  0.1123
  310TMC3    C6 4717   1.689   3.858  16.417  0.3821  0.1474 -0.6485
  310TMC3     C 4718   1.497   3.827  16.789  0.4178 -0.4408  0.0571
  310TMC3     O 4719   1.550   3.740  16.859 -0.3338  0.3322  0.1027
  310TMC3     H 4720   1.393   3.929  16.568 -0.0367 -1.3512 -1.7724
  310TMC3    H1 4721   1.745   3.767  16.736 -1.2754  2.1771  1.5837
  310TMC3    H2 4722   1.760   3.900  16.346  0.4027 -0.2398 -0.8575
  310TMC3    C7 4723   1.879   3.730  16.519 -0.3357  0.6700 -0.2343
  310TMC3    C8 4724   1.504   3.988  16.334 -0.0009  0.0657 -0.4543
  310TMC3    O1 4725   1.922   3.705  16.630 -0.5949  0.0714  0.2729
  310TMC3    O2 4726   1.551   3.976  16.225 -0.0480 -0.2956 -0.2438
  311MPD2     C 4727   4.583   4.588  13.115  0.5292  0.2442  0.1343
  311MPD2    C1 4728   4.562   4.709  13.050 -0.2689  0.2845 -0.1686
  311MPD2    C2 4729   4.436   0.010  13.011 -0.3025  1.1033  0.0189
  311MPD2    C3 4730   4.331   4.657  13.025 -0.2681 -0.4580  0.3100
  311MPD2    C4 4731   4.352   4.533  13.088 -0.3130 -0.2211 -0.0444
  311MPD2    C5 4732   4.476   4.501  13.132 -0.2848 -0.8988 -0.9685
  311MPD2     H 4733   4.418   0.113  12.982  2.2094  1.0872 -1.6161
  311MPD2    H1 4734   4.274   4.463  13.115  0.2304 -1.8005 -2.5338
  311MPD2    H2 4735   4.685   4.560  13.139  0.6911  2.5159  2.0460
  311MPD2    H3 4736   4.489   4.407  13.184  2.8390 -0.7394 -1.4269
  311MPD2     N 4737   4.203   4.695  12.977  0.2395 -0.2664  0.4592
  311MPD2    H5 4738   4.199   0.052  12.938 -4.5420 -0.6678  0.0817
  311MPD2    N1 4739   4.662   0.066  13.028 -0.3054  0.1136  0.1980
  311MPD2    H7 4740   4.630   0.153  12.987  2.6687  1.5324  0.8942
  312TMC3    C1 4741   3.976   4.690  12.926  0.3241  0.1039 -0.2277
  312TMC3    C2 4742   3.877   4.616  12.858 -0.2646  0.3724  0.5111
  312TMC3    C3 4743   3.786   4.687  12.787 -0.1604  0.3677 -0.0991
  312TMC3    C4 4744   3.977   0.090  12.917  1.0809 -0.6033 -0.4783
  312TMC3    C5 4745   3.871   0.154  12.855  0.1767  0.6243 -0.4216
  312TMC3    C6 4746   3.785   0.089  12.781  0.1103  0.0013 -0.2075
  312TMC3     C 4747   4.090   4.620  12.982  0.4121  0.3444  0.1636
  312TMC3     O 4748   4.082   4.505  13.010  0.4538  0.4151  0.4932
  312TMC3     H 4749   3.877   4.507  12.856  2.9364  0.3825 -0.1547
  312TMC3    H1 4750   4.046   0.143  12.982  0.7527  0.1765 -0.7773
  312TMC3    H2 4751   3.715   0.150  12.723 -1.0374  0.3577  1.5396
  312TMC3    C7 4752   3.880   0.296  12.835 -0.9471  0.9446 -0.4194
  312TMC3    C8 4753   3.687   4.609  12.708 -0.2938 -0.0421  0.4013
  312TMC3    O1 4754   3.840   0.341  12.729  0.6567  0.0409  0.1048
  312TMC3    O2 4755   3.691   4.488  12.719  0.5224  0.0678 -0.3264
  313MPD2     C 4756   2.425   3.578  11.343 -0.0426  0.8023  0.5486
  313MPD2    C1 4757   2.529   3.633  11.267  0.7729 -0.0885 -0.0962
  313MPD2    C2 4758   2.575   3.553  11.159  0.1458 -0.0775 -0.0146
  313MPD2    C3 4759   2.530   3.423  11.128 -0.1924  0.1473 -0.1350
  313MPD2    C4 4760   2.432   3.375  11.207 -0.1551  0.2544  1.0626
  313MPD2    C5 4761   2.380   3.449  11.313  0.0015  0.0592  0.6149
  313MPD2     H 4762   2.635   3.591  11.077  2.1921 -2.3811  0.4195
  313MPD2    H1 4763   2.390   3.275  11.208  3.4920 -1.3312 -2.9982
  313MPD2    H2 4764   2.389   3.630  11.431  0.6220 -0.4257  1.5459
  313MPD2    H3 4765   2.293   3.416  11.368 -2.3263  0.8818 -2.5788
  313MPD2     N 4766   2.566   3.357  11.008  0.3409  0.0609 -0.2220
  313MPD2    H5 4767   2.623   3.412  10.945 -0.6875  1.9833  0.5197
  313MPD2    N1 4768   2.580   3.766  11.293 -0.0772  0.3435 -0.5076
  313MPD2    H7 4769   2.510   3.828  11.331 -1.1228 -0.6362 -0.8440
  314TMC3    C1 4770   2.717   3.943  11.267 -0.4021  0.4193 -0.0271
  314TMC3    C2 4771   2.843   3.982  11.295  0.0965 -0.1071 -0.1862
  314TMC3    C3 4772   2.870   4.114  11.267 -0.0158 -0.0354 -0.3566
  314TMC3    C4 4773   2.619   4.025  11.216 -0.6204  0.5152  1.1934
  314TMC3    C5 4774   2.651   4.156  11.192 -0.8171  0.2013 -0.1422
  314TMC3    C6 4775   2.777   4.202  11.215 -0.2024  0.1913 -0.1631
  314TMC3     C 4776   2.701   3.808  11.238 -0.6068  0.1252 -0.5962
  314TMC3     O 4777   2.788   3.743  11.188  0.2334 -0.2554  0.2518
  314TMC3     H 4778   2.919   3.917  11.337  0.5778 -1.2285 -2.8418
  314TMC3    H1 4779   2.524   3.982  11.186  0.0866  1.6177 -2.6227
  314TMC3    H2 4780   2.810   4.303  11.193 -1.8869  0.9607  0.9275
  314TMC3    C7 4781   2.567   4.209  11.087 -0.2546 -0.7132 -0.1500
  314TMC3    C8 4782   3.006   4.151  11.247  0.0566  0.4980  0.1354
  314TMC3    O1 4783   2.443   4.196  11.093  0.1286  0.2101 -0.2322
  314TMC3    O2 4784   3.028   4.231  11.156 -0.1747  0.1480  0.1238
  315MPD2     C 4785   2.453   3.319   0.119 -0.2818  0.0603 -0.7423
  315MPD2    C1 4786   2.567   3.324   0.038  0.0850  0.1564 -0.4777
  315MPD2    C2 4787   2.602   3.440  17.717  0.7606 -0.1230 -0.2622
  315MPD2    C3 4788   2.527   3.550  17.733 -0.0812 -0.3732  0.3775
  315MPD2    C4 4789   2.424   3.547   0.076 -1.1002 -0.4149  0.6338
  315MPD2    C5 4790   2.388   3.434   0.146 -0.3563 -1.3021  0.6682
  315MPD2     H 4791   2.700   3.444  17.671 -0.0318 -0.9612 -2.0195
  315MPD2    H1 4792   2.365   3.636   0.091  0.8867  1.3735 -2.0744
  315MPD2    H2 4793   2.415   3.225   0.158 -3.1874  1.1281 -1.0309
  315MPD2    H3 4794   2.296   3.428   0.203 -0.5011  1.0139  0.6596
  315MPD2     N 4795   2.553   3.667  17.662  0.3294  0.5920  0.2685
  315MPD2    H5 4796   2.640   3.659  17.610 -0.2276 -0.5148 -0.4829
  315MPD2    N1 4797   2.656   3.221   0.026  0.2868  0.0065 -0.0094
  315MPD2    H7 4798   2.747   3.242  17.730  0.6974 -1.2301  0.2565
  316TMC3    C1 4799   2.542   3.878  17.568 -0.3263 -0.4227 -0.1288
  316TMC3    C2 4800   2.651   3.832  17.496  0.1499 -0.3276  0.1746
  316TMC3    C3 4801   2.675   3.895  17.370 -0.5380 -0.0304  0.1184
  316TMC3    C4 4802   2.456   3.979  17.516  0.4733  0.7398  0.3407
  316TMC3    C5 4803   2.474   4.022  17.392  0.3796 -0.2566 -0.6338
  316TMC3    C6 4804   2.594   3.995  17.324  0.5101 -0.0214 -0.1196
  316TMC3     C 4805   2.485   3.790  17.667 -0.0195 -0.3018 -0.3196
  316TMC3     O 4806   2.390   3.820  17.730  0.1228 -0.2042 -0.5664
  316TMC3     H 4807   2.720   3.762  17.543  0.1061 -0.8243 -0.5009
  316TMC3    H1 4808   2.368   4.006  17.573 -0.1134 -2.7238  1.0881
  316TMC3    H2 4809   2.615   4.031  17.224 -0.0757 -0.6761 -0.4726
  316TMC3    C7 4810   2.395   4.125  17.349 -0.3945  0.9504  0.1413
  316TMC3    C8 4811   2.800   3.871  17.299 -0.2411 -0.2202  0.3230
  316TMC3    O1 4812   2.323   4.178  17.430  0.0721  0.0221  0.1360
  316TMC3    O2 4813   2.839   3.934  17.202  0.1812 -0.4410  0.0841
  317MPD2     C 4814   1.579   1.332  13.201 -0.5223  0.3367 -0.1708
  317MPD2    C1 4815   1.631   1.327  13.332  0.4218  0.0535 -0.5687
  317MPD2    C2 4816   1.542   1.307  13.432 -0.9776  0.2572  0.2240
  317MPD2    C3 4817   1.404   1.314  13.418  0.0325  0.2840 -0.0861
  317MPD2    C4 4818   1.356   1.341  13.291 -0.0189 -0.0881  0.6747
  317MPD2    C5 4819   1.442   1.350  13.187  0.2387 -0.4222  0.1097
  317MPD2     H 4820   1.575   1.285  13.533  2.0298  0.2664 -0.7671
  317MPD2    H1 4821   1.251   1.358  13.271  0.3399  1.7829  0.3052
  317MPD2    H2 4822   1.636   1.354  13.111 -0.4927 -0.4043 -0.3347
  317MPD2    H3 4823   1.405   1.376  13.088 -1.7610  1.1635  1.2708
  317MPD2     N 4824   1.328   1.296  13.533 -0.7143 -0.0046 -0.3776
  317MPD2    H5 4825   1.376   1.286  13.623  0.3171 -2.3165 -1.1994
  317MPD2    N1 4826   1.772   1.316  13.355 -0.5811 -0.0058  0.9158
  317MPD2    H7 4827   1.798   1.299  13.451  0.7767 -0.7737  0.3949
  318TMC3    C1 4828   1.128   1.268  13.658  0.4523 -0.6143  0.2889
  318TMC3    C2 4829   0.993   1.239  13.643 -1.0095 -0.1814 -0.5548
  318TMC3    C3 4830   0.915   1.221  13.753  0.4492 -0.3734  0.3645
  318TMC3    C4 4831   1.183   1.309  13.777 -0.4438  0.3221  0.5157
  318TMC3    C5 4832   1.095   1.300  13.886 -0.0072 -0.1173 -0.1843
  318TMC3    C6 4833   0.967   1.252  13.873 -0.0228 -0.4706 -0.2410
  318TMC3     C 4834   1.189   1.299  13.530 -0.3455 -0.1180 -0.2855
  318TMC3     O 4835   1.111   1.292  13.436  0.4667 -0.5114  0.6530
  318TMC3     H 4836   0.951   1.202  13.550  1.2955 -2.6768 -0.6088
  318TMC3    H1 4837   1.280   1.357  13.787 -1.6189  2.4869  1.3466
  318TMC3    H2 4838   0.913   1.224  13.963 -0.2103  0.6019 -0.0126
  318TMC3    C7 4839   1.155   1.290  14.015  0.0326  0.5699 -0.3480
  318TMC3    C8 4840   0.812   1.118  13.754  0.7736 -0.3091 -0.0607
  318TMC3    O1 4841   1.075   1.285  14.108 -0.3925  0.4239 -0.0804
  318TMC3    O2 4842   0.817   1.033  13.843 -0.2645 -0.1002  0.1635
  319MPD2     C 4843   1.121   3.509  16.553 -0.6139 -0.2131 -0.4658
  319MPD2    C1 4844   1.041   3.449  16.657  0.0720 -0.2569  0.1160
  319MPD2    C2 4845   0.914   3.390  16.623 -0.2625 -0.2904  0.1064
  319MPD2    C3 4846   0.865   3.400  16.489  0.1899  0.8468  0.2373
  319MPD2    C4 4847   0.945   3.465  16.394  0.9050  0.0878 -0.2030
  319MPD2    C5 4848   1.077   3.495  16.423 -0.2963 -0.1136  0.0756
  319MPD2     H 4849   0.849   3.358  16.703  0.0323 -0.0151  0.4583
  319MPD2    H1 4850   0.918   3.462  16.289 -0.4622  1.1981  0.1190
  319MPD2    H2 4851   1.220   3.552  16.567 -0.4304 -1.6129  2.5189
  319MPD2    H3 4852   1.146   3.510  16.341  0.5307  2.0979  1.1755
  319MPD2     N 4853   0.734   3.362  16.450  0.4820 -1.0987  0.2122
  319MPD2    H5 4854   0.711   3.382  16.353  1.2056 -0.2121  0.2199
  319MPD2    N1 4855   1.075   3.453  16.796  0.4886 -0.4551 -0.0215
  319MPD2    H7 4856   1.004   3.409  16.854 -1.0620  1.1380 -0.7253
  320TMC3    C1 4857   0.530   3.250  16.451  0.3561  0.0004 -0.1470
  320TMC3    C2 4858   0.479   3.330  16.350 -0.4411 -0.2466 -0.4550
  320TMC3    C3 4859   0.377   3.292  16.270 -0.0138  0.1819  0.1831
  320TMC3    C4 4860   0.483   3.123  16.469 -0.4000 -0.7074  0.3372
  320TMC3    C5 4861   0.375   3.084  16.384 -0.2334  0.5876  0.1859
  320TMC3    C6 4862   0.319   3.169  16.290 -0.0506  0.0847 -0.5995
  320TMC3     C 4863   0.644   3.296  16.526  0.5489 -0.2486 -0.3420
  320TMC3     O 4864   0.642   3.250  16.642  0.1168 -0.1382  0.1638
  320TMC3     H 4865   0.518   3.431  16.348 -0.8460 -0.0783  0.3035
  320TMC3    H1 4866   0.520   3.065  16.553  0.7950  0.8069  0.8658
  320TMC3    H2 4867   0.230   3.137  16.236  0.9078  1.0799 -2.7570
  320TMC3    C7 4868   0.330   2.944  16.392  0.3853 -0.4381  0.2578
  320TMC3    C8 4869   0.361   3.367  16.153 -0.0162  0.8250 -0.0904
  320TMC3    O1 4870   0.220   2.921  16.348 -0.2405  0.7175 -0.3300
  320TMC3    O2 4871   0.401   3.479  16.148 -0.0987  0.1495 -0.2849
  321TMC3    C1 4872   1.207   3.486  16.990  0.4625  0.7808 -0.2879
  321TMC3    C2 4873   1.152   3.382  17.055  0.2621 -0.0923  0.2742
  321TMC3    C3 4874   1.163   3.350  17.187 -0.5322  0.2155  0.2859
  321TMC3    C4 4875   1.308   3.555  17.059  0.1297 -0.2829 -0.5237
  321TMC3    C5 4876   1.330   3.519  17.193 -0.2301  0.2199 -0.2042
  321TMC3    C6 4877   1.250   3.423  17.255  0.2499  0.1056 -0.2141
  321TMC3     C 4878   1.188   3.512  16.850 -0.1512 -0.0843  1.1702
  321TMC3     O 4879   1.283   3.574  16.802 -0.0551 -0.2636  0.4892
  321TMC3     H 4880   1.100   3.309  16.994  0.3180  2.2233 -2.5559
  321TMC3    H1 4881   1.368   3.633  17.014  0.8418  0.0055  0.9230
  321TMC3    H2 4882   1.259   3.411  17.362 -0.7591  0.5389 -0.0870
  321TMC3    C7 4883   1.469   3.505  17.229 -0.2667 -0.1621 -0.2426
  321TMC3    C8 4884   1.188   3.212  17.219  0.2789  0.5716  0.3096
  321TMC3    O1 4885   1.552   3.594  17.202 -0.1560 -0.3119 -0.2595
  321TMC3    O2 4886   1.289   3.194  17.285  0.1528 -0.0522 -0.1013
  322MPD2     C 4887   0.439   4.200  13.202 -1.0760 -0.2498  0.1891
  322MPD2    C1 4888   0.449   4.168  13.336 -0.2818 -0.2446 -0.4940
  322MPD2    C2 4889   0.433   4.035  13.373 -0.2570  0.3754 -0.2442
  322MPD2    C3 4890   0.416   3.929  13.286 -0.3507  0.0440  0.2821
  322MPD2    C4 4891   0.391   3.959  13.153 -0.2496  0.2797  0.1345
  322MPD2    C5 4892   0.412   4.091  13.116 -0.4537 -0.2923  0.3785
  322MPD2     H 4893   0.469   4.009  13.472  2.5894  0.1318 -1.3484
  322MPD2    H1 4894   0.352   3.890  13.079 -0.6086  1.0365 -0.3810
  322MPD2    H2 4895   0.472   4.297  13.167  0.5718 -1.0124 -0.3768
  322MPD2    H3 4896   0.416   4.111  13.009 -1.8979  0.7591  0.5107
  322MPD2     N 4897   0.421   3.795  13.340 -0.0211 -0.6178  0.3299
  322MPD2    H5 4898   0.441   3.788  13.439 -0.8455 -0.5222  0.5044
  322MPD2    N1 4899   0.483   4.270  13.422  0.6355  0.6037 -0.2679
  322MPD2    H7 4900   0.508   4.359  13.380 -1.1849  1.7372  1.0419
  323TMC3    C1 4901   0.524   4.382  13.626 -0.7857 -0.5245  0.3038
  323TMC3    C2 4902   0.643   4.440  13.594  0.0688  0.2431 -0.5250
  323TMC3    C3 4903   0.715   4.510  13.687 -0.0544 -0.0106  0.4147
  323TMC3    C4 4904   0.472   4.395  13.753 -0.1969  0.2682  0.3741
  323TMC3    C5 4905   0.553   4.440  13.850  0.6955 -0.5509 -0.0740
  323TMC3    C6 4906   0.673   4.505  13.818  0.3773  0.3523  0.9149
  323TMC3     C 4907   0.474   4.258  13.559  0.4081  0.4556  0.4323
  323TMC3     O 4908   0.404   4.181  13.623 -0.0793  0.6016  0.0614
  323TMC3     H 4909   0.680   4.424  13.493 -0.9654  1.5190 -1.1006
  323TMC3    H1 4910   0.372   4.362  13.776  1.6169 -2.0445  4.8419
  323TMC3    H2 4911   0.738   4.528  13.901 -1.0552 -0.9891  2.4096
  323TMC3    C7 4912   0.517   4.400  13.983 -0.0424  0.4712  0.0938
  323TMC3    C8 4913   0.836   4.575  13.644  0.4865 -0.5691 -0.6010
  323TMC3    O1 4914   0.436   4.307  13.987  0.0206 -0.3482 -0.2617
  323TMC3    O2 4915   0.885   4.552  13.534 -0.3028  0.4746 -0.6104
  324MPD2     C 4916   2.349   0.322  14.409  0.2117 -0.3209  0.6642
  324MPD2    C1 4917   2.347   0.438  14.483  0.9197  0.5522 -0.6287
  324MPD2    C2 4918   2.229   0.484  14.541  0.4715  0.2322  0.1980
  324MPD2    C3 4919   2.115   0.408  14.529  0.9220  0.1226 -0.1725
  324MPD2    C4 4920   2.118   0.287  14.461 -0.1281  0.4249  0.4514
  324MPD2    C5 4921   2.234   0.249  14.401 -0.2260  0.1107 -0.0967
  324MPD2     H 4922   2.229   0.582  14.588 -0.2636  0.0486  0.5757
  324MPD2    H1 4923   2.035   0.218  14.449  0.9446 -0.6123 -0.9742
  324MPD2    H2 4924   2.435   0.279  14.359 -0.2572 -0.2746 -0.1814
  324MPD2    H3 4925   2.232   0.159  14.341  0.1829  0.7487 -1.0583
  324MPD2     N 4926   1.991   0.451  14.578  0.3025  0.0442  0.9613
  324MPD2    H5 4927   1.914   0.387  14.558 -0.1125  0.9602 -0.3922
  324MPD2    N1 4928   2.467   0.506  14.526  0.0120  0.1104  0.2553
  324MPD2    H7 4929   2.446   0.584  14.588 -0.8916  0.5226 -0.5532
  325TMC3    C1 4930   1.820   0.578  14.665 -0.8717  0.4936  0.1854
  325TMC3    C2 4931   1.719   0.517  14.589  0.6440 -0.1833  0.1364
  325TMC3    C3 4932   1.600   0.577  14.571  0.9429  0.0418  0.4670
  325TMC3    C4 4933   1.789   0.699  14.725 -0.0251  0.0382  0.0688
  325TMC3    C5 4934   1.664   0.759  14.696  0.4871 -0.2282  0.4063
  325TMC3    C6 4935   1.572   0.704  14.619 -0.2231  0.1877 -0.5310
  325TMC3     C 4936   1.965   0.565  14.643  0.2500 -0.9411 -0.2177
  325TMC3     O 4937   2.038   0.660  14.662 -0.0814 -0.4411  0.3067
  325TMC3     H 4938   1.741   0.423  14.539  2.0323 -0.0368  0.4642
  325TMC3    H1 4939   1.860   0.747  14.791 -2.3346 -0.1499  2.6870
  325TMC3    H2 4940   1.480   0.749  14.585 -1.4627 -0.4015  2.0017
  325TMC3    C7 4941   1.659   0.902  14.717  0.0661  0.3215 -0.2975
  325TMC3    C8 4942   1.535   0.533  14.446  0.4412 -0.2938 -0.2581
  325TMC3    O1 4943   1.764   0.955  14.743 -0.3494 -0.2951 -0.1397
  325TMC3    O2 4944   1.603   0.461  14.369  0.2361 -0.0808 -0.5552
  326MPD2     C 4945   2.878   0.966  10.893  0.9244 -0.8197  0.5412
  326MPD2    C1 4946   2.878   1.090  10.842 -0.5676 -0.1569  1.2846
  326MPD2    C2 4947   2.983   1.174  10.883  0.0903  0.0241 -0.4343
  326MPD2    C3 4948   3.068   1.134  10.983  0.5228 -0.3637 -0.2648
  326MPD2    C4 4949   3.058   1.012  11.040  0.2189  0.0503 -0.0093
  326MPD2    C5 4950   2.969   0.925  10.987 -0.5388  0.3137  0.1183
  326MPD2     H 4951   2.995   1.278  10.854  0.0496  0.1101 -0.1460
  326MPD2    H1 4952   3.126   0.967  11.112 -0.2968  0.5203  0.7713
  326MPD2    H2 4953   2.800   0.897  10.863  0.6202 -0.8564  1.4306
  326MPD2    H3 4954   2.964   0.827  11.033 -2.9939 -0.7610 -2.4241
  326MPD2     N 4955   3.171   1.221  11.036 -0.1322 -0.8088 -0.5329
  326MPD2    H5 4956   3.209   1.194  11.126 -1.4511  1.3538  0.6701
  326MPD2    N1 4957   2.787   1.129  10.746 -0.0241  0.3853 -0.1047
  326MPD2    H7 4958   2.795   1.227  10.721 -2.1498  0.5717 -0.0050
  327TMC3    C1 4959   2.655   1.132  10.557 -0.3567 -0.8201  0.3708
  327TMC3    C2 4960   2.561   1.231  10.578 -0.2615 -0.4390  0.6391
  327TMC3    C3 4961   2.566   1.340  10.497 -0.4464 -0.1689 -0.7298
  327TMC3    C4 4962   2.758   1.152  10.473 -0.4699  0.4539 -0.9449
  327TMC3    C5 4963   2.766   1.265  10.400 -0.2602 -0.3351  0.2750
  327TMC3    C6 4964   2.665   1.359  10.398 -0.5802 -0.2029 -0.3620
  327TMC3     C 4965   2.693   1.052  10.674  0.0633 -0.5994 -0.6206
  327TMC3     O 4966   2.650   0.939  10.699  0.4769  0.1127  0.1461
  327TMC3     H 4967   2.488   1.203  10.654 -2.9630  1.1365 -1.4078
  327TMC3    H1 4968   2.844   1.086  10.478 -0.0317  1.0273 -0.8601
  327TMC3    H2 4969   2.681   1.452  10.345 -1.7661  0.8859  1.1892
  327TMC3    C7 4970   2.893   1.319  10.376  0.4663 -0.4582  0.6255
  327TMC3    C8 4971   2.453   1.426  10.500 -0.3055 -0.8338  0.4699
  327TMC3    O1 4972   2.903   1.416  10.304  0.9855 -0.2396 -0.7836
  327TMC3    O2 4973   2.431   1.491  10.403 -0.8380  0.3448 -0.1987
  328MPD2     C 4974   0.583   2.208  17.189  0.2966 -0.4299  0.5333
  328MPD2    C1 4975   0.491   2.111  17.228 -0.2850  0.6046  0.2531
  328MPD2    C2 4976   0.414   2.055  17.125  0.5830  0.0245 -0.1677
  328MPD2    C3 4977   0.412   2.114  17.000 -0.8691 -0.3162  0.3223
  328MPD2    C4 4978   0.496   2.218  16.965 -0.0174 -0.1349  0.4808
  328MPD2    C5 4979   0.582   2.258  17.063 -0.2310  0.0376 -0.0337
  328MPD2     H 4980   0.354   1.967  17.146  0.9422 -0.8904 -2.9766
  328MPD2    H1 4981   0.496   2.276  16.874  2.1825  0.8832  1.1230
  328MPD2    H2 4982   0.650   2.247  17.265  1.3786  0.0384 -0.6479
  328MPD2    H3 4983   0.652   2.339  17.045 -1.5640  0.7200 -2.1168
  328MPD2     N 4984   0.316   2.077  16.896  0.0607  0.2765 -0.0134
  328MPD2    H5 4985   0.305   2.135  16.814  0.4224 -1.7485 -1.4961
  328MPD2    N1 4986   0.489   2.073  17.366  0.1456 -0.2602 -0.1723
  328MPD2    H7 4987   0.554   2.116  17.431 -0.5357  0.0732  0.2938
  329TMC3    C1 4988   0.406   1.952  17.557 -0.2476 -0.1662 -0.3311
  329TMC3    C2 4989   0.415   2.066  17.638  0.5223 -0.2828 -0.6211
  329TMC3    C3 4990   0.344   2.064   0.006 -0.9631 -0.3474 -0.0403
  329TMC3    C4 4991   0.339   1.840  17.602 -0.0137  0.5616  0.4793
  329TMC3    C5 4992   0.279   1.838  17.727  0.8675 -0.2497 -0.2219
  329TMC3    C6 4993   0.282   1.952   0.063 -0.3068  0.5126  0.7292
  329TMC3     C 4994   0.422   1.964  17.413 -1.1441  1.3920 -1.1594
  329TMC3     O 4995   0.383   1.870  17.343  0.1715  1.0984 -0.4043
  329TMC3     H 4996   0.459   2.155  17.595  2.4688 -1.0704 -0.2383
  329TMC3    H1 4997   0.333   1.748  17.544 -0.6103 -0.3957  2.0672
  329TMC3    H2 4998   0.229   1.950   0.157 -1.1155  1.0635  0.2878
  329TMC3    C7 4999   0.205   1.718   0.018  0.4607 -0.2565 -0.1921
  329TMC3    C8 5000   0.347   2.198   0.074  0.1132 -0.0442 -0.0636
  329TMC3    O1 5001   0.183   1.627  17.681 -0.2448  0.0714  0.7552
  329TMC3    O2 5002   0.426   2.285   0.037 -0.2778 -0.3860  0.0352
  330TMC3    C1 5003   2.361   1.103   9.418 -0.4702  0.5743  0.7151
  330TMC3    C2 5004   2.484   1.047   9.434 -0.0966 -0.2187 -0.0913
  330TMC3    C3 5005   2.554   1.020   9.324 -0.3364  0.9341 -0.1723
  330TMC3    C4 5006   2.293   1.101   9.298  0.6488 -0.0201 -0.1353
  330TMC3    C5 5007   2.379   1.082   9.193  0.2753  0.3231 -0.1421
  330TMC3    C6 5008   2.505   1.039   9.198 -0.6584  0.0929  0.0076
  330TMC3     C 5009   2.299   1.138   9.544 -0.0094 -0.6654 -0.3879
  330TMC3     O 5010   2.329   1.075   9.645  0.2600 -0.0559  0.2366
  330TMC3     H 5011   2.534   1.030   9.529  0.9983  3.1856 -0.0435
  330TMC3    H1 5012   2.186   1.118   9.296  0.8190  1.1721  0.8251
  330TMC3    H2 5013   2.564   1.027   9.107 -0.5351  1.6054 -0.1114
  330TMC3    C7 5014   2.313   1.075   9.064 -0.3423  0.1690 -0.8009
  330TMC3    C8 5015   2.670   0.924   9.328 -0.4349  0.4675  0.2243
  330TMC3    O1 5016   2.374   1.023   8.973 -0.5278 -0.1008  0.2273
  330TMC3    O2 5017   2.754   0.924   9.239 -0.5848 -0.2830  0.3450
  331MPD2     C 5018   2.158   0.299  12.268 -0.6418  0.5428  0.3414
  331MPD2    C1 5019   2.034   0.280  12.318 -0.2323  0.8846  0.4180
  331MPD2    C2 5020   1.997   0.161  12.379 -0.1982  0.0218 -0.0327
  331MPD2    C3 5021   2.093   0.054  12.386  0.1363 -0.0479 -0.6771
  331MPD2    C4 5022   2.224   0.083  12.341 -0.1870  0.7352 -0.5279
  331MPD2    C5 5023   2.256   0.204  12.283 -0.5763 -0.7940 -0.0879
  331MPD2     H 5024   1.905   0.151  12.434 -0.7196 -0.9235 -1.0674
  331MPD2    H1 5025   2.301   0.007  12.343 -1.5289 -0.6232 -0.3465
  331MPD2    H2 5026   2.186   0.388  12.213  0.8973 -0.3169 -0.2802
  331MPD2    H3 5027   2.357   0.216  12.246 -1.3812  3.9649 -0.6721
  331MPD2     N 5028   2.058   4.675  12.454  0.0108 -1.0113  0.1665
  331MPD2    H5 5029   1.962   4.669  12.488 -0.4003 -0.9023 -0.9747
  331MPD2    N1 5030   1.946   0.388  12.302 -0.1278 -0.8623 -0.1120
  331MPD2    H7 5031   1.977   0.466  12.244  3.2655 -2.5388 -0.5942
  332TMC3    C1 5032   2.079   4.452  12.512 -0.0493 -0.5900 -0.6806
  332TMC3    C2 5033   1.950   4.441  12.486  0.1805 -0.8175 -0.2254
  332TMC3    C3 5034   1.881   4.329  12.515  0.4828  0.0075 -0.5841
  332TMC3    C4 5035   2.151   4.345  12.567  0.1813 -0.6098  0.2384
  332TMC3    C5 5036   2.080   4.231  12.591 -0.1560  0.5344 -0.0915
  332TMC3    C6 5037   1.946   4.220  12.571 -0.2222  0.7300  0.2345
  332TMC3     C 5038   2.138   4.569  12.461  0.0301 -0.1779  0.8680
  332TMC3     O 5039   2.261   4.570  12.464  0.7111 -0.5376  0.2198
  332TMC3     H 5040   1.894   4.511  12.425 -1.0782  0.9703  2.9536
  332TMC3    H1 5041   2.251   4.361  12.603  0.0262  1.6541 -0.3176
  332TMC3    H2 5042   1.901   4.122  12.582 -0.8841  0.8416 -1.4763
  332TMC3    C7 5043   2.158   4.116  12.618  0.1074  0.7944 -0.4232
  332TMC3    C8 5044   1.739   4.326  12.486  0.6838 -0.6455  0.2322
  332TMC3    O1 5045   2.089   4.025  12.658  0.3607  0.0251  0.0650
  332TMC3    O2 5046   1.708   4.398  12.392 -0.2130 -0.7091  0.2776
  333MPD2     C 5047   1.164   0.256  11.321  0.3259 -0.0455 -0.4801
  333MPD2    C1 5048   1.242   0.163  11.260  0.5072 -0.0571  0.4582
  333MPD2    C2 5049   1.208   0.031  11.277 -0.4136  0.2402 -0.4165
  333MPD2    C3 5050   1.102   4.725  11.352  0.2927  0.5501 -0.3268
  333MPD2    C4 5051   1.019   0.083  11.412 -0.7144 -0.1717  0.4060
  333MPD2    C5 5052   1.049   0.218  11.388 -0.1442 -0.1720  0.1797
  333MPD2     H 5053   1.268   4.685  11.239  1.2624  1.1005  0.3615
  333MPD2    H1 5054   0.930   0.065  11.472  0.6298  0.7546  2.6783
  333MPD2    H2 5055   1.186   0.360  11.301  1.0060 -0.1484 -0.2850
  333MPD2    H3 5056   0.971   0.285  11.422 -1.2343 -1.6781  0.6470
  333MPD2     N 5057   1.084   4.590  11.367  0.0758 -0.5947 -0.1779
  333MPD2    H5 5058   1.137   4.526  11.308  0.0628  0.2639 -1.1007
  333MPD2    N1 5059   1.350   0.205  11.171  0.2423  0.6644  0.4592
  333MPD2    H7 5060   1.352   0.307  11.166 -0.9218  0.5906 -1.8820
  334TMC3    C1 5061   1.519   0.178  11.006  0.8208 -0.2251 -0.0444
  334TMC3    C2 5062   1.630   0.111  10.948 -0.9921 -0.3488 -0.2868
  334TMC3    C3 5063   1.691   0.172  10.843 -0.2518  0.8072 -0.4384
  334TMC3    C4 5064   1.484   0.302  10.968  0.6913  0.8176 -0.2908
  334TMC3    C5 5065   1.565   0.359  10.868  0.7492 -0.6772 -0.5431
  334TMC3    C6 5066   1.671   0.297  10.806  0.4212 -0.2396 -0.5797
  334TMC3     C 5067   1.443   0.120  11.122 -0.1210 -0.6138  0.2651
  334TMC3     O 5068   1.458   4.736  11.146  0.4214  0.0882 -0.0981
  334TMC3     H 5069   1.671   0.020  10.989 -1.4122 -0.2456  0.3498
  334TMC3    H1 5070   1.405   0.355  11.020 -2.6516 -1.4890 -2.9994
  334TMC3    H2 5071   1.728   0.323  10.718  0.0937 -1.9394 -1.2948
  334TMC3    C7 5072   1.545   0.497  10.823  0.5440 -0.3654  0.6581
  334TMC3    C8 5073   1.755   0.068  10.759  0.4017 -0.5268 -1.3151
  334TMC3    O1 5074   1.639   0.546  10.766  0.0264  0.1300 -0.0968
  334TMC3    O2 5075   1.725   4.684  10.770 -1.0298  0.5321 -0.2386
  335TMC3    C1 5076   1.247   2.242  17.629 -0.1471 -0.3549 -0.3699
  335TMC3    C2 5077   1.164   2.250  17.508  0.1743  0.3520 -0.5888
  335TMC3    C3 5078   1.209   2.182  17.406 -0.5618 -0.3638 -1.0881
  335TMC3    C4 5079   1.359   2.168  17.642  0.1215 -0.1143 -0.4757
  335TMC3    C5 5080   1.401   2.116  17.530 -0.1139 -0.3883 -0.1215
  335TMC3    C6 5081   1.334   2.122  17.408 -0.3469 -0.1911  0.8681
  335TMC3     C 5082   1.214   2.328  17.738 -0.5787  0.6412  0.3618
  335TMC3     O 5083   1.264   2.299   0.103 -0.9366 -0.1615 -0.6731
  335TMC3     H 5084   1.066   2.297  17.512 -0.3892 -0.7494 -1.5752
  335TMC3    H1 5085   1.419   2.177  17.732  1.5752  2.1882 -1.6809
  335TMC3    H2 5086   1.372   2.074  17.319  0.8512  2.6204 -0.1427
  335TMC3    C7 5087   1.508   2.021  17.529  0.4018  0.0238 -0.5554
  335TMC3    C8 5088   1.114   2.116  17.315  0.3626 -0.7225 -0.1896
  335TMC3    O1 5089   1.574   2.010  17.427 -0.4845 -0.2156  0.5056
  335TMC3    O2 5090   1.013   2.186  17.309  0.2948 -0.0428  0.4438
  336MPD2     C 5091   0.818   4.385  15.839  0.1924 -0.6623 -0.1566
  336MPD2    C1 5092   0.773   4.335  15.717 -0.4262  0.4185 -0.2919
  336MPD2    C2 5093   0.809   4.213  15.675  0.3471 -0.3834 -0.7497
  336MPD2    C3 5094   0.882   4.126  15.755 -0.1036 -0.0286 -0.0873
  336MPD2    C4 5095   0.931   4.172  15.876  0.5803  0.6101 -0.2490
  336MPD2    C5 5096   0.892   4.298  15.918 -0.1844  0.0393 -0.2186
  336MPD2     H 5097   0.775   4.178  15.578  0.4164  2.0131 -1.6314
  336MPD2    H1 5098   0.993   4.104  15.933 -0.1365 -0.7443 -1.0871
  336MPD2    H2 5099   0.805   4.489  15.868 -0.1978 -0.6364 -0.4247
  336MPD2    H3 5100   0.929   4.330  16.015 -0.4354 -0.2599 -0.0226
  336MPD2     N 5101   0.900   3.992  15.731  0.1058  0.1094 -0.7865
  336MPD2    H5 5102   0.926   3.938  15.813 -0.1658  1.6611  0.3181
  336MPD2    N1 5103   0.684   4.413  15.631 -0.0939  0.0032 -0.2956
  336MPD2    H7 5104   0.631   4.373  15.554  0.6844 -0.6313 -0.5043
  337TMC3    C1 5105   0.601   4.606  15.534 -0.0623  0.4868  0.5882
  337TMC3    C2 5106   0.485   4.551  15.481 -0.9196 -0.4376  0.2011
  337TMC3    C3 5107   0.435   4.614  15.369  0.5708  0.2917  0.2594
  337TMC3    C4 5108   0.665   4.721  15.487 -0.1967 -0.1861  0.4933
  337TMC3    C5 5109   0.597   0.039  15.381 -0.6590 -0.8741 -0.7789
  337TMC3    C6 5110   0.497   4.719  15.316  0.0775 -0.4191  0.1614
  337TMC3     C 5111   0.664   4.549  15.645 -0.2525 -0.1836  0.3584
  337TMC3     O 5112   0.696   4.629  15.735 -0.3198 -0.2114 -0.6195
  337TMC3     H 5113   0.429   4.468  15.522  0.3751 -1.5114 -0.2323
  337TMC3    H1 5114   0.749   0.036  15.533 -0.8095 -0.7265  2.2117
  337TMC3    H2 5115   0.455   0.031  15.229 -0.1296  0.1396  0.5766
  337TMC3    C7 5116   0.633   0.178  15.330  0.0237  0.1554  0.3054
  337TMC3    C8 5117   0.308   4.574  15.324  0.0393  0.6043 -0.3976
  337TMC3    O1 5118   0.647   0.198  15.209  0.0666 -0.4490 -0.2150
  337TMC3    O2 5119   0.229   4.532  15.407 -0.4431 -0.3278  0.3117
  338MPD2     C 5120   1.251   4.308   0.806 -0.4955 -0.2364 -0.7328
  338MPD2    C1 5121   1.145   4.238   0.737  0.4887 -0.3704 -0.5316
  338MPD2    C2 5122   1.019   4.287   0.743  0.5340 -0.7436 -0.2560
  338MPD2    C3 5123   0.994   4.396   0.822 -0.6542 -0.7191  0.2046
  338MPD2    C4 5124   1.093   4.461   0.892  0.8000 -0.1401 -0.3322
  338MPD2    C5 5125   1.221   4.416   0.882  0.3117 -0.8383  0.0896
  338MPD2     H 5126   0.945   4.220   0.701  0.1094 -1.3835  1.5539
  338MPD2    H1 5127   1.077   4.554   0.946 -1.0086 -0.8925  0.4258
  338MPD2    H2 5128   1.351   4.266   0.812 -1.2557 -2.1988 -1.6945
  338MPD2    H3 5129   1.296   4.474   0.935  0.1016 -0.4484 -0.0321
  338MPD2     N 5130   0.858   4.434   0.838  0.3903  0.0599 -0.1764
  338MPD2    H5 5131   0.796   4.372   0.788 -0.0499  0.5243 -0.2117
  338MPD2    N1 5132   1.166   4.127   0.657 -0.2151  0.2800 -0.0667
  338MPD2    H7 5133   1.085   4.100   0.602 -0.2170  1.7485 -0.7963
  339TMC3    C1 5134   0.665   4.525   0.909 -0.0362  0.9508 -0.2080
  339TMC3    C2 5135   0.607   4.454   1.012  0.0319  0.3479  0.0912
  339TMC3    C3 5136   0.498   4.376   0.984  0.1258 -0.5932  0.4409
  339TMC3    C4 5137   0.615   4.522   0.785  0.1196 -0.4438 -0.2047
  339TMC3    C5 5138   0.494   4.455   0.771  0.2588  0.4525 -0.1309
  339TMC3    C6 5139   0.436   4.373   0.863  0.2083 -0.5631 -0.0784
  339TMC3     C 5140   0.806   4.529   0.920  0.2634  0.3497 -0.8518
  339TMC3     O 5141   0.855   4.577   1.024 -0.2532 -0.4114 -0.0245
  339TMC3     H 5142   0.647   4.466   1.112 -0.6565 -0.1551  0.4270
  339TMC3    H1 5143   0.667   4.566   0.701 -1.1204  1.8381  0.2002
  339TMC3    H2 5144   0.336   4.339   0.838  0.1358  2.5361 -3.9728
  339TMC3    C7 5145   0.457   4.455   0.629  0.0611  0.1664  0.5829
  339TMC3    C8 5146   0.453   4.286   1.086  0.2918 -0.0315 -0.1848
  339TMC3    O1 5147   0.491   4.551   0.559  0.7430 -0.1287  0.3815
  339TMC3    O2 5148   0.476   4.305   1.207 -0.0427 -0.0987  0.1966
  340MPD2     C 5149   0.931   1.790  10.058  0.2982 -0.8335  0.2991
  340MPD2    C1 5150   0.995   1.672  10.086  0.7277  0.6103  1.1667
  340MPD2    C2 5151   1.082   1.674  10.194  0.0978  0.1847  0.0037
  340MPD2    C3 5152   1.107   1.790  10.275 -0.0422 -0.1788  0.1973
  340MPD2    C4 5153   1.050   1.909  10.240 -0.1861 -0.0915  0.1300
  340MPD2    C5 5154   0.964   1.907  10.129  0.0497  0.3343  0.5875
  340MPD2     H 5155   1.142   1.587  10.216 -2.9776 -2.2713 -1.3677
  340MPD2    H1 5156   1.066   2.004  10.289  3.9916 -1.4013  1.3400
  340MPD2    H2 5157   0.859   1.801   9.978  0.2808  1.4586  0.6340
  340MPD2    H3 5158   0.906   1.993  10.100  1.6270  1.5236  0.9598
  340MPD2     N 5159   1.208   1.791  10.367  0.0409 -0.6071  0.0264
  340MPD2    H5 5160   1.226   1.884  10.404  1.4128 -0.3478 -1.2916
  340MPD2    N1 5161   0.989   1.567   9.993  0.6125  0.2411  0.6622
  340MPD2    H7 5162   0.935   1.583   9.909  1.7786  2.8914  0.4155
  341TMC3    C1 5163   0.996   1.350   9.904 -0.9492  0.0489 -1.0846
  341TMC3    C2 5164   0.963   1.220   9.931 -0.0653 -0.1659  0.0772
  341TMC3    C3 5165   0.965   1.139   9.817  0.6157  0.5381  0.2243
  341TMC3    C4 5166   1.005   1.405   9.777  0.3889 -0.8624  0.0543
  341TMC3    C5 5167   0.982   1.324   9.673  0.0216 -0.1796  0.1338
  341TMC3    C6 5168   0.966   1.192   9.689  0.1037  0.0918 -0.3715
  341TMC3     C 5169   1.024   1.435  10.017  0.3272  0.2180 -0.5207
  341TMC3     O 5170   1.078   1.390  10.115 -0.3542 -0.2510  0.5306
  341TMC3     H 5171   0.954   1.178  10.030  1.4640  0.2836  0.4013
  341TMC3    H1 5172   1.027   1.509   9.758 -0.8675 -0.7857 -0.9537
  341TMC3    H2 5173   0.946   1.128   9.604  0.3448  0.8063 -0.9601
  341TMC3    C7 5174   1.018   1.370   9.542 -0.3510 -0.0182 -0.6528
  341TMC3    C8 5175   0.938   1.003   9.839 -0.0565  0.4484  0.0904
  341TMC3    O1 5176   1.021   1.290   9.449 -0.0812 -1.0306  0.0021
  341TMC3    O2 5177   0.884   0.968   9.944  0.2264  0.3324  0.6173
  342MPD2     C 5178   3.777   4.594  17.549  0.8280  0.0737 -0.1727
  342MPD2    C1 5179   3.858   4.633  17.449 -0.0522 -0.5053 -0.6278
  342MPD2    C2 5180   3.897   0.029  17.442  0.7506 -0.8644 -0.2112
  342MPD2    C3 5181   3.853   0.118  17.530  0.2551  0.3137  0.4193
  342MPD2    C4 5182   3.762   0.078  17.627 -0.4250 -0.1812  0.0712
  342MPD2    C5 5183   3.721   4.684  17.633 -0.3013 -0.0711 -0.8089
  342MPD2     H 5184   3.981   0.054  17.377  1.0644 -1.4464 -0.0298
  342MPD2    H1 5185   3.734   0.147  17.706  1.9562  2.0592 -1.0667
  342MPD2    H2 5186   3.755   4.489  17.563 -3.8097  1.0639  0.2733
  342MPD2    H3 5187   3.642   4.657  17.703  1.3293 -0.6014  0.8348
  342MPD2     N 5188   3.886   0.257  17.546  0.5792  0.3026 -0.0541
  342MPD2    H5 5189   3.839   0.306  17.622  0.1838  0.1523 -0.2023
  342MPD2    N1 5190   3.915   4.545  17.354 -0.4587 -0.2884 -0.0503
  342MPD2    H7 5191   3.989   4.582  17.296  0.4903  0.4944  1.6376
  343TMC3    C1 5192   3.950   4.352  17.220  0.2282  0.2846 -0.5757
  343TMC3    C2 5193   4.054   4.410  17.145 -0.8406  0.1441  0.0364
  343TMC3    C3 5194   4.078   4.365  17.016  0.4090 -0.1424  0.4585
  343TMC3    C4 5195   3.876   4.252  17.163  0.1781 -0.4700  0.3110
  343TMC3    C5 5196   3.905   4.212  17.039 -0.5623  0.0438 -0.3222
  343TMC3    C6 5197   4.018   4.255  16.969 -0.2080  0.0452 -0.6179
  343TMC3     C 5198   3.885   4.414  17.333 -0.2865  1.1150  0.5733
  343TMC3     O 5199   3.796   4.344  17.385  0.0507 -0.2084  0.3139
  343TMC3     H 5200   4.120   4.488  17.183  0.3571 -0.7776 -0.1427
  343TMC3    H1 5201   3.791   4.207  17.214 -0.7442  1.7083  0.7128
  343TMC3    H2 5202   4.041   4.217  16.870 -1.8319 -0.8444 -0.6628
  343TMC3    C7 5203   3.830   4.092  16.997  0.4907 -0.4296 -0.4811
  343TMC3    C8 5204   4.170   4.442  16.932 -0.4332 -0.0356 -0.4093
  343TMC3    O1 5205   3.778   4.025  17.084 -0.6805  0.0379 -0.1160
  343TMC3    O2 5206   4.199   4.555  16.978 -0.2695 -0.2927  0.4436
  344MPD2     C 5207   0.065   3.783  11.393  0.3982 -0.0215  1.2302
  344MPD2    C1 5208   0.057   3.721  11.267  0.2792  0.0801  0.3403
  344MPD2    C2 5209   0.053   3.804  11.156  0.1708 -0.5036  0.0948
  344MPD2    C3 5210   0.039   3.938  11.157  0.1012  0.1625 -0.2822
  344MPD2    C4 5211   0.048   3.994  11.273  0.1935  0.9549  0.3368
  344MPD2    C5 5212   0.046   3.920  11.391 -0.1408 -0.2869  0.1840
  344MPD2     H 5213   0.029   3.762  11.059  2.5053 -1.8503  0.1032
  344MPD2    H1 5214   0.046   4.101  11.291  1.5310  0.5691  2.7002
  344MPD2    H2 5215   0.062   3.734  11.489 -1.0230 -0.0583  1.1711
  344MPD2    H3 5216   0.057   3.967  11.488  0.1475 -1.3805  0.6751
  344MPD2     N 5217   0.032   4.017  11.044 -0.0805  0.3539 -0.1772
  344MPD2    H5 5218   0.037   4.115  11.070  1.6780 -0.3741  2.1830
  344MPD2    N1 5219   0.047   3.586  11.252  0.4450  0.2572  0.8877
  344MPD2    H7 5220   0.032   3.543  11.162  1.0973 -1.6670  1.6850
  345TMC3    C1 5221   0.045   4.098  10.827  0.5279  0.1771  0.5041
  345TMC3    C2 5222   0.098   4.216  10.878 -0.4146  0.3453 -0.1030
  345TMC3    C3 5223   0.141   4.301  10.781 -0.1691  0.0342  0.1699
  345TMC3    C4 5224   0.017   4.075  10.692 -0.5517  0.3577 -0.1910
  345TMC3    C5 5225   0.060   4.169  10.607  0.3921  0.7838 -1.0495
  345TMC3    C6 5226   0.136   4.273  10.649  0.7079 -0.0550 -1.1452
  345TMC3     C 5227   0.038   3.978  10.917 -0.3308  0.5948  0.5227
  345TMC3     O 5228   0.014   3.872  10.859  0.3610 -0.0784  0.0825
  345TMC3     H 5229   0.109   4.246  10.982  0.8854  1.4777 -0.5703
  345TMC3    H1 5230   4.714   3.980  10.659  0.9188 -0.5923  0.7409
  345TMC3    H2 5231   0.185   4.328  10.570  1.9511 -0.7295 -0.8493
  345TMC3    C7 5232   0.007   4.197  10.481  0.1477 -0.2324  0.2284
  345TMC3    C8 5233   0.167   4.441  10.808  0.0992  0.6464 -0.7812
  345TMC3    O1 5234   4.730   4.312  10.445  0.3730 -0.0014 -0.3480
  345TMC3    O2 5235   0.214   4.507  10.713  0.3402  0.1268 -0.3469
  346MPD2     C 5236   0.216   1.240  14.475  0.0233 -0.2679  0.3993
  346MPD2    C1 5237   0.323   1.156  14.460 -0.5913  0.5091 -0.0075
  346MPD2    C2 5238   0.444   1.181  14.517 -0.4324 -0.5675 -0.1949
  346MPD2    C3 5239   0.461   1.287  14.601  0.1055  0.2656  0.6703
  346MPD2    C4 5240   0.346   1.366  14.633 -0.0731  0.2250  0.2777
  346MPD2    C5 5241   0.225   1.348  14.564  0.8695 -0.1657  0.3496
  346MPD2     H 5242   0.529   1.124  14.482  1.8305  3.0737 -0.5353
  346MPD2    H1 5243   0.345   1.439  14.713 -1.4743 -1.7105  2.0489
  346MPD2    H2 5244   0.123   1.224  14.421 -0.2124  0.8013  0.4717
  346MPD2    H3 5245   0.139   1.412  14.584  0.3762 -0.7538  0.1083
  346MPD2     N 5246   0.594   1.313  14.651 -0.6109 -0.5643  0.0935
  346MPD2    H5 5247   0.663   1.246  14.620  0.7785  0.8014  0.2436
  346MPD2    N1 5248   0.327   1.056  14.357  0.5263  0.0008 -0.2263
  346MPD2    H7 5249   0.419   1.016  14.366  0.3801  0.2026  2.0584
  347TMC3    C1 5250   0.766   1.414  14.788 -0.5987 -1.1465 -0.1215
  347TMC3    C2 5251   0.872   1.359  14.715  0.3829 -0.4631 -0.4406
  347TMC3    C3 5252   0.992   1.366  14.792 -0.3265 -0.3173  0.1703
  347TMC3    C4 5253   0.772   1.458  14.919 -0.0124 -0.4086 -0.1378
  347TMC3    C5 5254   0.892   1.460  14.982 -0.4555  0.3144 -0.0379
  347TMC3    C6 5255   1.008   1.417  14.920 -0.9051 -0.0178 -0.3818
  347TMC3     C 5256   0.628   1.410  14.741 -0.7361  0.0112 -0.3045
  347TMC3     O 5257   0.558   1.505  14.777 -0.1173 -0.1665  0.0195
  347TMC3     H 5258   0.873   1.331  14.610  1.2418  1.2499 -0.8825
  347TMC3    H1 5259   0.682   1.497  14.966 -0.5122 -2.7606  0.8766
  347TMC3    H2 5260   1.103   1.409  14.971 -1.5244  1.0173  0.9423
  347TMC3    C7 5261   0.902   1.565  15.078 -0.2365  0.6829 -0.2526
  347TMC3    C8 5262   1.096   1.277  14.745 -1.4570  1.0049  0.4683
  347TMC3    O1 5263   0.801   1.589  15.146  0.3807  0.0340 -0.0528
  347TMC3    O2 5264   1.069   1.182  14.678  0.1649 -0.5532 -0.0038
  348MPD2     C 5265   3.723   0.684  12.122  0.1734 -0.0416  0.4160
  348MPD2    C1 5266   3.703   0.574  12.051  0.4398 -0.6661 -0.0034
  348MPD2    C2 5267   3.685   0.592  11.912 -0.0441 -0.0167 -0.0835
  348MPD2    C3 5268   3.707   0.712  11.852  0.7837 -0.6306 -0.3008
  348MPD2    C4 5269   3.721   0.821  11.933  0.9100 -0.2099 -0.2666
  348MPD2    C5 5270   3.726   0.808  12.067 -0.0699 -0.1343  0.1987
  348MPD2     H 5271   3.684   0.505  11.849 -1.4670  0.2621 -0.4462
  348MPD2    H1 5272   3.728   0.924  11.899 -0.8299  0.7555  2.3476
  348MPD2    H2 5273   3.737   0.681  12.230  0.4603  2.6038  0.4475
  348MPD2    H3 5274   3.723   0.891  12.136  1.1219 -0.5302  0.7182
  348MPD2     N 5275   3.712   0.717  11.708  0.3950 -0.2116 -0.0488
  348MPD2    H5 5276   3.705   0.625  11.665 -1.1206 -0.8613  1.5898
  348MPD2    N1 5277   3.709   0.445  12.109  0.3957 -0.3752  0.3304
  348MPD2    H7 5278   3.697   0.370  12.043 -2.2064 -0.0678  0.4452
  349TMC3    C1 5279   3.764   0.263  12.256 -0.0391  0.0180 -0.3363
  349TMC3    C2 5280   3.860   0.232  12.344  0.0853 -0.0727  0.2651
  349TMC3    C3 5281   3.864   0.104  12.392  0.0801  0.2964  0.2271
  349TMC3    C4 5282   3.666   0.179  12.213 -0.5270  0.5041 -0.1480
  349TMC3    C5 5283   3.669   0.048  12.259  0.4552 -0.1180  0.5668
  349TMC3    C6 5284   3.772   0.015  12.345 -0.2276 -0.4073  0.3669
  349TMC3     C 5285   3.751   0.410  12.235 -0.3534  0.0581 -0.1232
  349TMC3     O 5286   3.805   0.479  12.319  0.0779 -0.4865 -0.1680
  349TMC3     H 5287   3.943   0.298  12.363 -1.7434  2.5961 -0.9622
  349TMC3    H1 5288   3.593   0.210  12.139 -0.4570  1.2749  0.0980
  349TMC3    H2 5289   3.765   4.656  12.396  0.8963 -0.4249  0.4849
  349TMC3    C7 5290   3.580   4.683  12.207 -0.9501 -0.0407  0.8053
  349TMC3    C8 5291   3.968   0.063  12.475 -0.1456 -0.2686 -0.2431
  349TMC3    O1 5292   3.485   4.726  12.144 -0.1030 -0.0240 -0.3014
  349TMC3    O2 5293   4.005   4.684  12.470 -0.1073  0.3931 -0.5254
  350MPD2     C 5294   1.833   2.987  10.462  0.4450 -0.4273  0.2466
  350MPD2    C1 5295   1.937   2.909  10.399 -0.4639  0.2819 -0.4367
  350MPD2    C2 5296   2.071   2.935  10.429 -0.1441  0.0363  0.0609
  350MPD2    C3 5297   2.107   3.037  10.514  0.5022 -0.0403  0.0014
  350MPD2    C4 5298   2.006   3.114  10.568 -0.4979 -0.1390 -0.0543
  350MPD2    C5 5299   1.876   3.092  10.536  0.0534  0.5245 -0.1717
  350MPD2     H 5300   2.153   2.881  10.383 -1.3174 -1.5393 -0.1799
  350MPD2    H1 5301   2.024   3.194  10.639 -1.7448 -1.8634  2.1802
  350MPD2    H2 5302   1.726   2.975  10.454  0.1491  1.8160  0.8028
  350MPD2    H3 5303   1.798   3.153  10.579 -2.2303 -1.5749 -1.3756
  350MPD2     N 5304   2.245   3.055  10.538 -0.4911  0.6405 -0.0028
  350MPD2    H5 5305   2.305   2.986  10.494 -0.5954 -0.5431  1.6960
  350MPD2    N1 5306   1.911   2.793  10.318  0.0261 -0.0383  0.0388
  350MPD2    H7 5307   1.987   2.752  10.265 -1.3095 -0.2849 -1.7209
  351TMC3    C1 5308   1.790   2.640  10.186 -0.8464 -0.1913 -0.2403
  351TMC3    C2 5309   1.907   2.602  10.123 -0.3000  0.1099  0.1136
  351TMC3    C3 5310   1.894   2.501  10.025  0.5001  0.3837  0.3352
  351TMC3    C4 5311   1.673   2.595  10.138 -0.1821 -0.0465  0.3843
  351TMC3    C5 5312   1.668   2.496  10.044 -0.4379 -0.6824  0.0144
  351TMC3    C6 5313   1.780   2.438   9.994 -0.3405 -0.0390 -0.2561
  351TMC3     C 5314   1.786   2.747  10.288 -0.4039  0.4846 -0.2016
  351TMC3     O 5315   1.678   2.789  10.331 -0.0217 -0.4544  0.4413
  351TMC3     H 5316   2.006   2.630  10.155  0.2223 -1.3465 -0.2427
  351TMC3    H1 5317   1.575   2.631  10.166 -0.3641  0.6520 -1.1644
  351TMC3    H2 5318   1.770   2.365   9.914  0.8376 -0.9717  0.4564
  351TMC3    C7 5319   1.546   2.468   9.965  0.1646  0.7966 -0.1174
  351TMC3    C8 5320   2.012   2.459   9.954 -0.0420  0.6302 -0.3952
  351TMC3    O1 5321   1.551   2.450   9.846 -0.8704 -0.4270  0.0450
  351TMC3    O2 5322   2.015   2.343   9.921 -0.2577 -0.2270  0.3758
  352MPD2     C 5323   1.736   1.141   0.988  0.2737  0.7611 -0.1246
  352MPD2    C1 5324   1.625   1.086   1.047 -0.5679  0.8143 -0.5851
  352MPD2    C2 5325   1.619   0.952   1.080  0.0376 -0.6757  0.8033
  352MPD2    C3 5326   1.724   0.870   1.034 -0.0565 -0.1739  0.7603
  352MPD2    C4 5327   1.834   0.926   0.977  0.4847  0.1669 -0.3082
  352MPD2    C5 5328   1.840   1.059   0.957  0.3726  0.4622  0.2893
  352MPD2     H 5329   1.529   0.914   1.128 -0.5266  0.3593  0.5584
  352MPD2    H1 5330   1.915   0.866   0.938  0.8250  1.1492 -1.1120
  352MPD2    H2 5331   1.750   1.245   0.962 -0.1318  0.8837  0.1511
  352MPD2    H3 5332   1.911   1.121   0.904  1.2489  1.2505  2.3666
  352MPD2     N 5333   1.727   0.731   1.039 -0.2331 -0.0441 -0.5086
  352MPD2    H5 5334   1.809   0.685   1.001  1.4146  2.4576  0.0532
  352MPD2    N1 5335   1.517   1.174   1.073 -0.1549 -0.6865 -0.0351
  352MPD2    H7 5336   1.518   1.262   1.023  0.3113  0.0821  1.3024
  353TMC3    C1 5337   1.643   0.512   1.037  0.5419  0.5909 -0.0152
  353TMC3    C2 5338   1.767   0.469   1.018  0.1185  0.7584  0.7288
  353TMC3    C3 5339   1.793   0.362   0.939 -0.3719 -0.0840 -0.0283
  353TMC3    C4 5340   1.538   0.456   0.982  0.1688  0.0766 -0.0138
  353TMC3    C5 5341   1.563   0.344   0.909 -0.5488 -0.5520 -0.4796
  353TMC3    C6 5342   1.689   0.292   0.887 -0.3985 -0.4155  0.1207
  353TMC3     C 5343   1.620   0.654   1.079 -0.2317  0.0035 -0.3276
  353TMC3     O 5344   1.516   0.693   1.132 -0.6398  0.1070 -0.2462
  353TMC3     H 5345   1.844   0.523   1.072  0.1320 -0.1470  1.6046
  353TMC3    H1 5346   1.438   0.491   1.002 -0.3617 -1.1735 -0.4721
  353TMC3    H2 5347   1.694   0.204   0.824  1.0454  0.2563 -0.6920
  353TMC3    C7 5348   1.452   0.269   0.849 -0.5488  0.8459 -0.1651
  353TMC3    C8 5349   1.904   0.281   0.982 -0.0904 -0.1143  0.3682
  353TMC3    O1 5350   1.469   0.201   0.745  0.8272  0.4920  0.9277
  353TMC3    O2 5351   1.977   0.330   1.064 -0.1999 -0.6720 -0.9926
  354TMC3    C1 5352   3.001   1.311  13.561  0.5416  0.6119 -0.3387
  354TMC3    C2 5353   3.071   1.413  13.504  0.4967  0.2743  0.2372
  354TMC3    C3 5354   3.136   1.391  13.393 -0.1179 -0.1137  0.4076
  354TMC3    C4 5355   2.981   1.190  13.505 -0.2615 -0.2943  0.3144
  354TMC3    C5 5356   3.033   1.182  13.380  0.2534 -1.2590  0.1121
  354TMC3    C6 5357   3.121   1.273  13.322  0.0412  0.2666  0.5616
  354TMC3     C 5358   2.962   1.327  13.701  0.0592 -0.3531 -0.1019
  354TMC3     O 5359   2.950   1.440  13.741  0.4823 -0.0559  0.1232
  354TMC3     H 5360   3.087   1.506  13.558 -0.0931  1.1137 -1.0174
  354TMC3    H1 5361   2.898   1.125  13.528 -1.4548  1.7512  1.8603
  354TMC3    H2 5362   3.158   1.266  13.220  0.4895  0.6774  0.6984
  354TMC3    C7 5363   2.965   1.089  13.287 -0.5562  0.7028 -0.1632
  354TMC3    C8 5364   3.152   1.508  13.305  0.1701 -0.1001 -0.0133
  354TMC3    O1 5365   2.933   0.977  13.323 -0.4007  0.1535 -0.8416
  354TMC3    O2 5366   3.136   1.486  13.186  0.6401 -0.5321  0.2262
  355MPD2     C 5367   3.665   1.916  11.881  0.6798  0.5613 -0.2618
  355MPD2    C1 5368   3.684   2.042  11.923 -0.6115 -0.2267  0.0470
  355MPD2    C2 5369   3.778   2.068  12.016 -0.0471  0.0895  0.1901
  355MPD2    C3 5370   3.846   1.967  12.081  0.1535  0.3801 -0.1566
  355MPD2    C4 5371   3.824   1.835  12.044  0.3287  0.1336  0.1433
  355MPD2    C5 5372   3.733   1.812  11.941  0.3029 -0.5548  0.0412
  355MPD2     H 5373   3.785   2.165  12.063  1.9808  1.0632 -2.1731
  355MPD2    H1 5374   3.877   1.751  12.088  0.6502  0.3984  0.2640
  355MPD2    H2 5375   3.593   1.892  11.803 -0.4336 -1.3698  1.3438
  355MPD2    H3 5376   3.712   1.708  11.918  0.4530 -1.2852  3.2969
  355MPD2     N 5377   3.939   1.993  12.184  0.2246 -0.0619  0.2772
  355MPD2    H5 5378   3.954   2.092  12.202 -2.6352  0.1807  1.2091
  355MPD2    N1 5379   3.604   2.141  11.853  0.4486 -0.3448 -0.4474
  355MPD2    H7 5380   3.553   2.107  11.773  0.5138 -0.6730 -0.3506
  356TMC3    C1 5381   4.140   1.992  12.292 -0.3531  0.3075  0.0301
  356TMC3    C2 5382   4.225   2.030  12.190  0.2937  0.3503  0.1721
  356TMC3    C3 5383   4.279   2.155  12.181 -0.9930 -0.1681 -0.2064
  356TMC3    C4 5384   4.098   2.082  12.380  0.5381  0.0832 -0.7093
  356TMC3    C5 5385   4.152   2.208  12.376 -0.0132  0.1848  0.8710
  356TMC3    C6 5386   4.243   2.251  12.276  0.4735 -0.4149 -0.6691
  356TMC3     C 5387   4.037   1.908  12.231 -0.0581  0.1452  0.1575
  356TMC3     O 5388   4.061   1.788  12.207  0.2532 -0.7047 -0.1940
  356TMC3     H 5389   4.255   1.965  12.109  1.2698 -0.5820  1.2777
  356TMC3    H1 5390   4.034   2.046  12.460 -0.5969  0.8256 -1.2840
  356TMC3    H2 5391   4.289   2.349  12.284 -1.7511  0.7117 -1.7599
  356TMC3    C7 5392   4.127   2.304  12.488 -0.3724  0.0789  0.0409
  356TMC3    C8 5393   4.306   2.191  12.044 -0.6603 -0.1859  0.3612
  356TMC3    O1 5394   4.089   2.250  12.593 -0.2407 -0.2657  0.5530
  356TMC3    O2 5395   4.355   2.109  11.974 -0.3462 -0.3074  0.4398
  357MPD2     C 5396   2.830   2.255   0.709 -0.3262 -0.6568 -0.5468
  357MPD2    C1 5397   2.844   2.142   0.785  0.2663  0.2938 -0.0903
  357MPD2    C2 5398   2.838   2.152   0.928  0.2092 -0.3739 -0.0333
  357MPD2    C3 5399   2.834   2.272   0.992  0.0000  0.2364 -0.5158
  357MPD2    C4 5400   2.825   2.380   0.912 -0.2465  0.6655  0.0130
  357MPD2    C5 5401   2.823   2.378   0.774  0.2654  0.5587  0.1881
  357MPD2     H 5402   2.838   2.058   0.982 -0.7592 -1.5490 -2.0620
  357MPD2    H1 5403   2.809   2.476   0.960  0.2733  0.1246  1.2717
  357MPD2    H2 5404   2.823   2.255   0.601 -1.4020  2.7315 -0.4828
  357MPD2    H3 5405   2.808   2.467   0.715 -0.9471 -0.0464 -0.4374
  357MPD2     N 5406   2.834   2.293   1.132 -0.2353 -0.6012  0.3753
  357MPD2    H5 5407   2.821   2.390   1.159  0.5898 -0.0122 -1.3659
  357MPD2    N1 5408   2.842   2.016   0.714 -0.1930  0.7228  0.5141
  357MPD2    H7 5409   2.846   2.023   0.613 -0.4872 -0.9986  0.3716
  358TMC3    C1 5410   2.815   1.798   0.666 -0.1046  1.3873  0.3450
  358TMC3    C2 5411   2.733   1.834   0.561  0.4183  0.3503  0.2651
  358TMC3    C3 5412   2.708   1.737   0.464 -0.4297  0.1691  0.0862
  358TMC3    C4 5413   2.840   1.668   0.687 -0.5852 -0.6150  0.3984
  358TMC3    C5 5414   2.802   1.577   0.597 -0.4962  0.3718  0.5674
  358TMC3    C6 5415   2.751   1.607   0.477 -0.3371  1.0835 -0.2014
  358TMC3     C 5416   2.848   1.892   0.770 -0.9228  0.1771 -0.0344
  358TMC3     O 5417   2.874   1.858   0.884  0.6129 -0.5879 -0.1558
  358TMC3     H 5418   2.689   1.932   0.548  0.1399  0.0600 -1.0242
  358TMC3    H1 5419   2.865   1.636   0.788  1.4764  0.1358  0.1260
  358TMC3    H2 5420   2.703   1.518   0.440  2.3858 -1.4471  2.3133
  358TMC3    C7 5421   2.780   1.440   0.646  0.0344 -0.6756 -0.0380
  358TMC3    C8 5422   2.592   1.771   0.382 -0.3270  0.6349 -0.3764
  358TMC3    O1 5423   2.672   1.386   0.620 -0.6788  0.0034 -0.6667
  358TMC3    O2 5424   2.525   1.870   0.403  0.4601 -0.2042 -0.5062
  359MPD2     C 5425   3.132   1.006  12.337 -0.8073  0.1166 -0.0137
  359MPD2    C1 5426   3.115   0.986  12.199 -0.0200 -0.0604 -0.5671
  359MPD2    C2 5427   2.993   0.946  12.156 -1.2381 -0.1323 -0.7307
  359MPD2    C3 5428   2.886   0.907  12.243 -0.5426  0.3346  0.2130
  359MPD2    C4 5429   2.910   0.929  12.377 -0.3025  0.1247  0.4373
  359MPD2    C5 5430   3.028   0.977  12.420 -0.1137  0.0344 -0.5102
  359MPD2     H 5431   2.989   0.937  12.048  0.2984 -1.3714 -0.6760
  359MPD2    H1 5432   2.839   0.892  12.450 -1.7002 -0.8476 -1.4375
  359MPD2    H2 5433   3.226   1.040  12.377 -0.5679 -1.3458  0.6435
  359MPD2    H3 5434   3.047   0.968  12.527 -1.0957 -1.5692 -0.4720
  359MPD2     N 5435   2.767   0.851  12.197  0.5204  0.7381  0.8753
  359MPD2    H5 5436   2.691   0.846  12.265  0.6174 -1.7365  0.7924
  359MPD2    N1 5437   3.219   1.006  12.105  0.6409  0.1456  0.5776
  359MPD2    H7 5438   3.188   0.997  12.008  1.4616 -1.4957  0.4629
  360TMC3    C1 5439   3.422   1.090  12.000 -0.7119  0.0355  0.2808
  360TMC3    C2 5440   3.508   1.196  12.002 -0.3928  0.9057  0.1896
  360TMC3    C3 5441   3.575   1.219  11.890  0.1565  0.7842 -0.3944
  360TMC3    C4 5442   3.400   1.012  11.892  0.0934  0.6375  0.0194
  360TMC3    C5 5443   3.466   1.046  11.779 -0.4531  0.1363  0.6238
  360TMC3    C6 5444   3.564   1.143  11.777 -0.9580 -0.3583  0.6452
  360TMC3     C 5445   3.350   1.055  12.124  0.5140  0.1924 -0.4662
  360TMC3     O 5446   3.404   1.073  12.231 -0.1054 -0.1309 -0.0760
  360TMC3     H 5447   3.524   1.247  12.096  0.1145 -2.3867  1.8596
  360TMC3    H1 5448   3.341   0.921  11.897  0.6753  0.3230  1.1794
  360TMC3    H2 5449   3.618   1.161  11.685  0.4395 -1.1961  1.3145
  360TMC3    C7 5450   3.444   0.977  11.658 -0.0652  0.6195 -0.0908
  360TMC3    C8 5451   3.705   1.258  11.937 -0.1915  0.1181  0.6603
  360TMC3    O1 5452   3.510   1.021  11.568  0.3565  0.3174 -0.3059
  360TMC3    O2 5453   3.713   1.334  12.033  0.6713  0.2603 -0.0835
  361MPD2     C 5454   0.146   1.091  17.307  0.0468  0.1293 -0.7294
  361MPD2    C1 5455   0.116   1.002  17.210 -0.1795 -0.2094 -0.1024
  361MPD2    C2 5456   0.216   0.933  17.147  0.6766  0.6024  0.2027
  361MPD2    C3 5457   0.342   0.928  17.203 -0.1099  0.0609  0.2369
  361MPD2    C4 5458   0.374   1.025  17.295 -0.0804 -0.3497 -0.3122
  361MPD2    C5 5459   0.277   1.108  17.342 -0.2097  0.9780 -0.4040
  361MPD2     H 5460   0.187   0.863  17.070  1.3274 -0.3660  0.8254
  361MPD2    H1 5461   0.478   1.030  17.326 -0.2649 -2.4292  0.6361
  361MPD2    H2 5462   0.063   1.146  17.351 -1.3280  0.0912 -3.2977
  361MPD2    H3 5463   0.301   1.183  17.416  0.0048  0.7348 -0.2263
  361MPD2     N 5464   0.451   0.851  17.158 -0.2165  0.3238  0.2468
  361MPD2    H5 5465   0.533   0.857  17.219  0.3441  2.8175 -0.7763
  361MPD2    N1 5466   4.724   0.992  17.152  0.2449  0.4404  0.1419
  361MPD2    H7 5467   4.717   0.959  17.057 -0.3442  0.6517  0.1049
  362TMC3    C1 5468   4.497   0.977  17.123  0.5780  0.5618  0.0292
  362TMC3    C2 5469   4.379   0.948  17.179  0.1904  0.1371  0.2559
  362TMC3    C3 5470   4.286   0.887  17.105  1.0288 -0.8305 -0.1682
  362TMC3    C4 5471   4.524   0.935  16.999 -0.0611 -0.2834 -0.6275
  362TMC3    C5 5472   4.438   0.856  16.936  0.4247 -0.1267 -0.4546
  362TMC3    C6 5473   4.313   0.824  16.989  0.1405  0.8084  0.6664
  362TMC3     C 5474   4.604   1.018  17.213 -0.3297 -0.2292 -0.7453
  362TMC3     O 5475   4.573   1.048  17.326 -0.0422  0.6835  0.5585
  362TMC3     H 5476   4.349   0.994  17.272 -0.1185  0.8132 -0.1772
  362TMC3    H1 5477   4.610   0.970  16.942  0.5214 -0.6791  0.0192
  362TMC3    H2 5478   4.236   0.786  16.922  0.7948 -0.2281  0.5010
  362TMC3    C7 5479   4.437   0.854  16.790 -0.2808  0.3852  0.3420
  362TMC3    C8 5480   4.144   0.883  17.140 -0.0066  0.0136 -0.3456
  362TMC3    O1 5481   4.482   0.946  16.721  0.0154 -0.3492  0.2994
  362TMC3    O2 5482   4.068   0.809  17.085 -0.3204 -0.2493  0.2549
  363TMC3    C1 5483   3.130   2.271   9.646 -0.3394  0.6126  0.3799
  363TMC3    C2 5484   3.244   2.194   9.649 -0.1376  0.5159  0.7676
  363TMC3    C3 5485   3.364   2.232   9.706  0.5826  0.1484  0.0093
  363TMC3    C4 5486   3.132   2.389   9.709 -0.1314  0.2389  0.0241
  363TMC3    C5 5487   3.249   2.426   9.768 -0.4680 -0.6332 -0.1658
  363TMC3    C6 5488   3.364   2.350   9.769  0.0623 -0.2687 -0.3185
  363TMC3     C 5489   3.025   2.224   9.561  0.1203 -0.2026  0.5834
  363TMC3     O 5490   3.055   2.121   9.501 -0.1130 -0.0822 -0.0318
  363TMC3     H 5491   3.238   2.092   9.612  2.0830  0.4000  0.7342
  363TMC3    H1 5492   3.039   2.442   9.723  0.5837  1.8923 -1.5240
  363TMC3    H2 5493   3.457   2.379   9.816 -0.5478  0.3974  0.4700
  363TMC3    C7 5494   3.230   2.539   9.850  0.3419  0.7442  0.3665
  363TMC3    C8 5495   3.490   2.161   9.686  0.0997 -0.1417  0.0816
  363TMC3    O1 5496   3.131   2.604   9.829  0.2965  0.1855  0.1797
  363TMC3    O2 5497   3.595   2.213   9.726  0.8802 -0.0621  0.1646
  364MPD2     C 5498   2.041   1.655  10.731  0.2070 -0.5049 -0.0999
  364MPD2    C1 5499   2.104   1.686  10.609 -0.1220 -0.5301 -0.8737
  364MPD2    C2 5500   2.219   1.606  10.571  0.0769 -0.3443  0.1159
  364MPD2    C3 5501   2.271   1.508  10.650 -0.1999  0.1620  0.3143
  364MPD2    C4 5502   2.208   1.492  10.769 -0.2883 -0.0889 -0.0471
  364MPD2    C5 5503   2.092   1.555  10.804 -0.1253 -0.0100 -0.1174
  364MPD2     H 5504   2.264   1.634  10.476 -2.7512 -0.5323 -1.2687
  364MPD2    H1 5505   2.249   1.416  10.835 -3.5427 -1.1262  0.8215
  364MPD2    H2 5506   1.955   1.705  10.773  0.0053  0.9437 -2.1979
  364MPD2    H3 5507   2.047   1.534  10.901 -5.0261  0.0615 -2.3440
  364MPD2     N 5508   2.379   1.424  10.617  0.8715  0.4149 -0.1754
  364MPD2    H5 5509   2.419   1.363  10.687 -1.3342  1.1052  1.7050
  364MPD2    N1 5510   2.052   1.793  10.537 -0.2244 -0.0946  0.0739
  364MPD2    H7 5511   1.995   1.861  10.587  1.2913  2.6776 -1.9639
  365TMC3    C1 5512   2.041   1.935  10.356 -0.9006  0.0525 -0.2167
  365TMC3    C2 5513   2.110   1.966  10.246 -0.1693  0.1342 -0.2647
  365TMC3    C3 5514   2.091   2.091  10.191 -0.6326  0.3300  0.2791
  365TMC3    C4 5515   1.951   2.015  10.417  0.4889 -0.1475 -0.6353
  365TMC3    C5 5516   1.925   2.139  10.355 -0.3477 -0.2551 -0.2038
  365TMC3    C6 5517   1.998   2.177  10.246 -0.4162  0.2518 -0.2937
  365TMC3     C 5518   2.076   1.809  10.407 -0.2046  0.1133 -0.8123
  365TMC3     O 5519   2.124   1.726  10.328 -0.2151  0.4843  0.1898
  365TMC3     H 5520   2.183   1.895  10.208 -0.4982 -0.2819 -0.1246
  365TMC3    H1 5521   1.904   1.987  10.511  1.8756  0.2388  0.1613
  365TMC3    H2 5522   1.983   2.278  10.211 -1.2696  1.2248  2.8580
  365TMC3    C7 5523   1.857   2.244  10.419  0.3710  0.1865 -0.4816
  365TMC3    C8 5524   2.215   2.156  10.157 -0.2074  0.0463 -0.2273
  365TMC3    O1 5525   1.766   2.305  10.358 -0.2133 -0.5128 -0.1657
  365TMC3    O2 5526   2.224   2.273  10.186 -0.9666  0.0972 -0.3426
  366MPD2     C 5527   0.822   3.213  14.964 -0.3304  0.5931 -0.7077
  366MPD2    C1 5528   0.886   3.335  14.981  0.2136 -0.8821 -0.2457
  366MPD2    C2 5529   1.025   3.331  15.003  0.0672 -0.3654  0.1700
  366MPD2    C3 5530   1.096   3.213  14.992  0.0557 -0.0040 -0.2497
  366MPD2    C4 5531   1.039   3.099  14.966  0.5890  0.7696  0.4123
  366MPD2    C5 5532   0.905   3.099  14.953 -0.4652  0.3784  0.5610
  366MPD2     H 5533   1.077   3.422  15.030 -0.2986  0.2223 -1.0895
  366MPD2    H1 5534   1.101   3.010  14.970 -1.3586 -0.5914  0.0766
  366MPD2    H2 5535   0.715   3.204  14.947 -0.6163 -0.1187  1.4403
  366MPD2    H3 5536   0.857   3.002  14.945  0.6334  0.1623 -3.5175
  366MPD2     N 5537   1.235   3.236  14.987  0.0477  0.1486 -0.3353
  366MPD2    H5 5538   1.268   3.330  15.005 -0.1212  0.3404 -1.0159
  366MPD2    N1 5539   0.820   3.457  14.978 -0.0621  0.1279 -0.1705
  366MPD2    H7 5540   0.883   3.535  14.992  1.4715 -1.0417 -0.4340
  367TMC3    C1 5541   0.646   3.629  14.945 -0.3357  1.1085 -0.4776
  367TMC3    C2 5542   0.720   3.718  15.020  0.1035 -0.6179 -0.3596
  367TMC3    C3 5543   0.661   3.840  15.040 -0.2214 -0.0327  0.3428
  367TMC3    C4 5544   0.515   3.654  14.916  0.4027 -0.7517  0.3850
  367TMC3    C5 5545   0.466   3.776  14.945  0.5425 -0.7868  0.1611
  367TMC3    C6 5546   0.531   3.869  15.012  0.8227 -0.4988 -0.4262
  367TMC3     C 5547   0.687   3.486  14.943  0.1956 -0.0348  0.3084
  367TMC3     O 5548   0.595   3.419  14.903  0.0447  0.0552  0.0989
  367TMC3     H 5549   0.822   3.702  15.055  0.6224  0.7556 -1.2638
  367TMC3    H1 5550   0.455   3.580  14.864  1.2034 -0.7394 -0.5606
  367TMC3    H2 5551   0.490   3.961  15.053 -2.7473 -2.3890  0.2314
  367TMC3    C7 5552   0.373   3.843  14.849  0.1874  0.5414  0.6458
  367TMC3    C8 5553   0.738   3.947  15.106  0.7560 -0.1442  0.5157
  367TMC3    O1 5554   0.367   3.962  14.858 -0.5320 -0.1408 -0.2978
  367TMC3    O2 5555   0.830   3.905  15.174 -0.2059  0.3877  0.5072
  368MPD2     C 5556   2.297   4.377  12.872  0.7244 -1.1606 -0.0758
  368MPD2    C1 5557   2.340   4.492  12.817 -0.5415 -0.2565 -0.1703
  368MPD2    C2 5558   2.455   4.487  12.741 -0.6318  0.7229  0.6475
  368MPD2    C3 5559   2.522   4.372  12.721 -0.3430  0.0370 -0.2667
  368MPD2    C4 5560   2.481   4.258  12.781  0.6316  0.0503 -0.1311
  368MPD2    C5 5561   2.377   4.260  12.873  0.6698 -0.7963  0.3419
  368MPD2     H 5562   2.486   4.581  12.696 -0.0925 -0.3605 -1.2283
  368MPD2    H1 5563   2.529   4.164  12.755  0.0719  0.2984 -2.0218
  368MPD2    H2 5564   2.208   4.372  12.933  0.5874  1.2439 -0.1054
  368MPD2    H3 5565   2.345   4.166  12.916 -1.2292 -0.9269 -1.3399
  368MPD2     N 5566   2.633   4.361  12.636 -0.2380 -0.7635 -0.4452
  368MPD2    H5 5567   2.671   4.275  12.598 -0.4939 -0.9762 -0.2161
  368MPD2    N1 5568   2.263   4.608  12.833  0.0018 -0.6392 -0.8379
  368MPD2    H7 5569   2.182   4.601  12.894 -1.9010  2.6951 -2.9364
  369TMC3    C1 5570   2.168   0.089  12.784  0.1275 -0.4245  0.2347
  369TMC3    C2 5571   2.174   0.210  12.711 -0.2629 -0.2237  0.1484
  369TMC3    C3 5572   2.069   0.292  12.725  0.0503  0.4761  0.2524
  369TMC3    C4 5573   2.054   0.049  12.846 -0.1284 -0.9837 -0.1917
  369TMC3    C5 5574   1.952   0.137  12.850 -0.1076 -0.2662 -0.2274
  369TMC3    C6 5575   1.961   0.261  12.798 -0.0439  0.5108  0.4582
  369TMC3     C 5576   2.279   4.732  12.766 -0.0861 -0.1588 -0.2445
  369TMC3     O 5577   2.367   0.029  12.693 -0.1122  0.2973  0.2912
  369TMC3     H 5578   2.261   0.240  12.654 -1.1651  2.1490 -0.0023
  369TMC3    H1 5579   2.065   4.703  12.916  0.4054  1.4459  2.5944
  369TMC3    H2 5580   1.880   0.332  12.812 -1.4905 -1.4749  2.1310
  369TMC3    C7 5581   1.855   0.126  12.953 -0.2532  0.0772 -0.1698
  369TMC3    C8 5582   2.078   0.415  12.646 -0.2116 -0.1698  0.6908
  369TMC3    O1 5583   1.890   0.076  13.061  0.0368  0.0719 -0.3061
  369TMC3    O2 5584   2.185   0.444  12.594  0.9705 -0.0003 -0.2382
  370TMC3    C1 5585   1.477   1.754  16.207  0.1590 -0.0063 -0.4427
  370TMC3    C2 5586   1.381   1.716  16.298 -0.5725  0.5489 -0.0067
  370TMC3    C3 5587   1.293   1.614  16.274  0.3057  0.3156  0.5375
  370TMC3    C4 5588   1.487   1.690  16.086  0.3419 -0.4479 -0.1784
  370TMC3    C5 5589   1.404   1.582  16.065 -0.3055 -0.0259 -0.0689
  370TMC3    C6 5590   1.306   1.550  16.152  0.6764 -0.1492  0.0047
  370TMC3     C 5591   1.579   1.846  16.255 -0.0540  0.0568 -0.5978
  370TMC3     O 5592   1.591   1.857  16.375 -0.6762  0.5705  0.4076
  370TMC3     H 5593   1.390   1.758  16.398 -1.4606  1.8097 -0.4520
  370TMC3    H1 5594   1.563   1.720  16.016  1.0895 -1.6546  0.1204
  370TMC3    H2 5595   1.249   1.459  16.143  0.7826 -0.2886  0.7123
  370TMC3    C7 5596   1.430   1.516  15.936 -0.2125  0.0842  0.1763
  370TMC3    C8 5597   1.225   1.553  16.387 -0.3242 -0.8304  0.7067
  370TMC3    O1 5598   1.480   1.586  15.848 -0.3675 -1.0253  0.3695
  370TMC3    O2 5599   1.182   1.440  16.370 -0.3212  0.3341 -0.4914
  371TMC3    C1 5600   2.343   4.399  15.454 -0.7461  0.2084 -0.2258
  371TMC3    C2 5601   2.214   4.439  15.443 -0.3568  0.6219 -0.1183
  371TMC3    C3 5602   2.177   4.549  15.515  0.0441 -0.5222 -0.8746
  371TMC3    C4 5603   2.432   4.455  15.536 -0.4609  0.8971 -0.7969
  371TMC3    C5 5604   2.389   4.554  15.613 -0.6969  0.3103 -0.6201
  371TMC3    C6 5605   2.259   4.602  15.604 -0.5166 -0.2744 -0.2291
  371TMC3     C 5606   2.394   4.296  15.365  0.9098  0.2105  0.3112
  371TMC3     O 5607   2.500   4.331  15.312 -0.3204 -0.2304 -0.2423
  371TMC3     H 5608   2.139   4.380  15.391  0.2850  0.1478 -0.5050
  371TMC3    H1 5609   2.537   4.427  15.528 -0.2013  1.5858  0.3062
  371TMC3    H2 5610   2.235   4.699  15.647 -0.1861  0.1107 -0.9096
  371TMC3    C7 5611   2.484   4.656  15.632  0.2111  0.1710 -0.0965
  371TMC3    C8 5612   2.040   4.598  15.501  0.1707 -0.0252  0.2342
  371TMC3    O1 5613   2.462   0.026  15.578  0.3646  0.4627  0.4012
  371TMC3    O2 5614   1.954   4.515  15.471  0.3291 -0.1492  0.4480
  372MPD2     C 5615   3.554   4.586  13.421 -0.1448  0.4620  0.3162
  372MPD2    C1 5616   3.510   4.595  13.550  0.3118  0.2840 -0.4648
  372MPD2    C2 5617   3.376   4.619  13.581  0.7613  0.7714 -0.1358
  372MPD2    C3 5618   3.278   4.601  13.490 -0.2894 -0.4473  0.1043
  372MPD2    C4 5619   3.323   4.585  13.359  0.1583  0.1952  0.7378
  372MPD2    C5 5620   3.458   4.580  13.328  0.2612 -0.5089  0.3377
  372MPD2     H 5621   3.352   4.638  13.685  2.9479  0.9046  0.3474
  372MPD2    H1 5622   3.259   4.578  13.272  1.6034 -1.8223 -0.1880
  372MPD2    H2 5623   3.654   4.569  13.385  0.0363  3.3532 -0.5631
  372MPD2    H3 5624   3.486   4.556  13.226  1.3455  1.2175  0.2323
  372MPD2     N 5625   3.138   4.603  13.526 -0.1177  0.0698  0.3633
  372MPD2    H5 5626   3.115   4.627  13.622  1.9545 -1.0122  1.1267
  372MPD2    N1 5627   3.599   4.587  13.664 -0.3889  0.1211 -0.2774
  372MPD2    H7 5628   3.561   4.612  13.755  1.8843  0.1891  0.6353
  373TMC3    C1 5629   2.908   4.544  13.524 -0.6227  0.6111  0.0061
  373TMC3    C2 5630   2.901   4.558  13.659 -0.4922 -0.5097  1.0933
  373TMC3    C3 5631   2.790   4.513  13.726 -0.7058  0.3026 -0.2510
  373TMC3    C4 5632   2.797   4.501  13.449 -0.0682 -0.5018 -0.1660
  373TMC3    C5 5633   2.700   4.430  13.523 -0.4868 -0.1933  0.2299
  373TMC3    C6 5634   2.697   4.436  13.661  0.4529 -0.5541  0.3749
  373TMC3     C 5635   3.037   4.548  13.452  0.5503  0.2246 -0.8398
  373TMC3     O 5636   3.043   4.509  13.337 -0.1843 -0.7200 -0.0771
  373TMC3     H 5637   2.984   4.608  13.710  1.6208 -0.2285 -2.6369
  373TMC3    H1 5638   2.808   4.483  13.343 -2.2709  0.3394 -0.5378
  373TMC3    H2 5639   2.614   4.401  13.721  0.5168 -0.9912  0.2070
  373TMC3    C7 5640   2.669   4.300  13.460 -0.7637  0.5782  0.0156
  373TMC3    C8 5641   2.773   4.546  13.867 -0.0923  0.5417 -0.1688
  373TMC3    O1 5642   2.740   4.261  13.369 -0.0546 -0.2962 -0.1775
  373TMC3    O2 5643   2.858   4.625  13.905 -0.0394  0.0130  0.0677
  374TMC3    C1 5644   2.299   0.595  10.343 -0.9229 -0.4802  0.0893
  374TMC3    C2 5645   2.426   0.569  10.302  0.8820  0.9580  0.2013
  374TMC3    C3 5646   2.443   0.548  10.168 -0.6555  0.2070 -0.0761
  374TMC3    C4 5647   2.198   0.613  10.257  0.1727 -0.1026  0.0031
  374TMC3    C5 5648   2.223   0.590  10.124  0.7519  0.2716  0.4190
  374TMC3    C6 5649   2.345   0.560  10.076 -0.6862  0.3142 -0.3981
  374TMC3     C 5650   2.262   0.617  10.483 -0.5316  0.6958  0.5715
  374TMC3     O 5651   2.151   0.663  10.510  0.4004 -0.0238  0.7092
  374TMC3     H 5652   2.514   0.565  10.365 -0.0589 -1.4805  1.3583
  374TMC3    H1 5653   2.097   0.638  10.289 -0.2983 -0.7899 -0.9189
  374TMC3    H2 5654   2.369   0.556   9.970 -0.1289  0.4199 -0.2722
  374TMC3    C7 5655   2.118   0.584  10.029 -0.0833  0.0233  0.1238
  374TMC3    C8 5656   2.575   0.580  10.106 -0.3769  0.2182 -0.1853
  374TMC3    O1 5657   2.150   0.517   9.927  0.2858 -0.0147  0.7159
  374TMC3    O2 5658   2.566   0.617   9.988 -0.4960  0.3131  0.0300
  375MPD2     C 5659   2.629   1.234  17.326  0.7152  0.2739  0.5589
  375MPD2    C1 5660   2.568   1.307  17.222  0.0436 -0.4410  0.8535
  375MPD2    C2 5661   2.623   1.325  17.099  0.3939 -0.3699 -0.2648
  375MPD2    C3 5662   2.743   1.250  17.083  0.3120 -1.4619  0.3170
  375MPD2    C4 5663   2.801   1.176  17.179  0.3057 -0.3102  0.2072
  375MPD2    C5 5664   2.740   1.170  17.308  0.4348  0.6417  0.0030
  375MPD2     H 5665   2.571   1.383  17.024  1.7489  1.1004 -0.0892
  375MPD2    H1 5666   2.900   1.133  17.171  0.5549  0.3910 -0.5577
  375MPD2    H2 5667   2.596   1.252  17.428 -1.7631  1.0808 -0.3673
  375MPD2    H3 5668   2.784   1.111  17.388  2.2546  2.2504  0.1999
  375MPD2     N 5669   2.818   1.251  16.960 -0.4014  0.2811  0.4601
  375MPD2    H5 5670   2.914   1.217  16.964 -0.2334  0.6811 -0.2733
  375MPD2    N1 5671   2.454   1.385  17.256  0.1852 -0.4377  0.1751
  375MPD2    H7 5672   2.433   1.459  17.189  1.2447 -0.3239 -0.0196
  376TMC3    C1 5673   2.884   1.316  16.752  0.1815  0.4027 -0.4741
  376TMC3    C2 5674   2.991   1.398  16.786  0.1681  1.2214  0.1242
  376TMC3    C3 5675   3.021   1.502  16.698  0.0296  0.6524 -0.2616
  376TMC3    C4 5676   2.841   1.313  16.621  0.5346  0.3807  0.6155
  376TMC3    C5 5677   2.876   1.410  16.536 -0.4143 -0.0999  0.6955
  376TMC3    C6 5678   2.972   1.507  16.568 -0.3513 -0.1084  0.4738
  376TMC3     C 5679   2.773   1.305  16.842 -0.2262  0.7762 -0.8808
  376TMC3     O 5680   2.664   1.343  16.804  0.7641 -0.4125 -0.2913
  376TMC3     H 5681   2.995   1.422  16.892  0.6806 -1.3602  0.6953
  376TMC3    H1 5682   2.748   1.261  16.603  1.0127  0.3488 -1.7157
  376TMC3    H2 5683   3.002   1.583  16.496 -1.5056 -1.0139 -0.9540
  376TMC3    C7 5684   2.847   1.396  16.394  0.2008  0.4639  0.1762
  376TMC3    C8 5685   3.159   1.538  16.706 -0.6442  0.0303  0.3049
  376TMC3    O1 5686   2.857   1.501  16.330  0.1495  0.8376  0.4808
  376TMC3    O2 5687   3.188   1.638  16.643 -0.1630 -0.6716  0.0254
  377MPD2     C 5688   1.863   1.239  12.690  0.1405  0.0649  0.5397
  377MPD2    C1 5689   1.741   1.184  12.668  0.2158 -0.5074  0.5562
  377MPD2    C2 5690   1.670   1.131  12.772 -0.3366  0.3447 -0.0109
  377MPD2    C3 5691   1.736   1.121  12.900  0.2692 -0.8768  0.5467
  377MPD2    C4 5692   1.864   1.171  12.919 -0.1275  0.6446  0.3433
  377MPD2    C5 5693   1.921   1.238  12.814 -1.0818 -0.1159 -0.5310
  377MPD2     H 5694   1.568   1.097  12.761 -0.1079 -0.2311 -0.3547
  377MPD2    H1 5695   1.918   1.159  13.012  2.1015  0.7266 -0.9339
  377MPD2    H2 5696   1.927   1.285  12.615  0.1970 -0.4219  0.2882
  377MPD2    H3 5697   2.022   1.272  12.830 -1.6794  1.9916 -1.2802
  377MPD2     N 5698   1.677   1.062  13.014 -0.5316  0.8119  0.3267
  377MPD2    H5 5699   1.741   1.061  13.093 -0.1236 -0.3573 -0.0178
  377MPD2    N1 5700   1.693   1.167  12.538 -0.0957  0.7984 -0.3149
  377MPD2    H7 5701   1.753   1.208  12.466  0.7668  1.1861  0.6242
  378TMC3    C1 5702   1.415   1.084  12.168  0.8685 -0.3842  0.2168
  378TMC3    C2 5703   1.432   1.109  12.298 -0.6539  0.2874 -0.2900
  378TMC3    C3 5704   1.557   1.087  12.352 -0.1864 -0.7454  0.8882
  378TMC3    C4 5705   1.513   1.037  12.090  0.3162  0.3872 -0.0287
  378TMC3    C5 5706   1.636   1.012  12.154 -0.3397 -0.0490 -0.4923
  378TMC3    C6 5707   1.664   1.037  12.288 -0.5836  0.5504  0.4924
  378TMC3     C 5708   1.283   1.135  12.120  0.5123 -0.2134  0.5972
  378TMC3     O 5709   1.198   1.170  12.196  0.2193  0.4859  0.3185
  378TMC3     H 5710   1.354   1.137  12.368  1.8228 -0.2389  2.6880
  378TMC3    H1 5711   1.497   1.017  11.985 -0.8262  0.7748  0.0697
  378TMC3    H2 5712   1.751   1.016  12.348 -0.4885 -1.3186 -0.2959
  378TMC3    C7 5713   1.750   1.014  12.069 -0.4479 -0.7155  0.2717
  378TMC3    C8 5714   1.569   1.109  12.493 -0.0068 -0.3126  0.4135
  378TMC3    O1 5715   1.848   1.070  12.118 -0.2166 -0.9378 -0.6927
  378TMC3    O2 5716   1.478   1.059  12.559  0.3605 -0.5606 -0.4854
  379MPD2     C 5717   1.180   4.324  16.139  0.0595 -0.4831 -0.2271
  379MPD2    C1 5718   1.271   4.258  16.075  0.0870  0.3936 -0.0470
  379MPD2    C2 5719   1.349   4.171  16.150 -0.8176 -0.8904  1.0150
  379MPD2    C3 5720   1.336   4.159  16.292 -0.0911 -0.0579  1.4172
  379MPD2    C4 5721   1.241   4.238  16.349 -0.9221  0.0209 -0.4163
  379MPD2    C5 5722   1.172   4.326  16.276 -0.2027 -0.0508 -0.9650
  379MPD2     H 5723   1.426   4.115  16.097  0.9324  3.0004 -0.4953
  379MPD2    H1 5724   1.233   4.241  16.457  2.1085  0.5002 -0.2233
  379MPD2    H2 5725   1.113   4.388  16.083  1.2334  2.0048  1.2446
  379MPD2    H3 5726   1.090   4.378  16.324 -0.1693  0.7934 -1.8006
  379MPD2     N 5727   1.400   4.071  16.376 -0.1157 -0.7355 -0.8978
  379MPD2    H5 5728   1.368   4.066  16.472 -1.0116 -0.4657 -1.1804
  379MPD2    N1 5729   1.274   4.279  15.939  0.5560 -0.1056  0.0885
  379MPD2    H7 5730   1.205   4.343  15.899  1.5207  0.1086 -1.2543
  380TMC3    C1 5731   1.329   4.228  15.715 -1.1465 -0.5656  0.3580
  380TMC3    C2 5732   1.411   4.152  15.634  0.0787  0.1973 -0.2565
  380TMC3    C3 5733   1.386   4.142  15.496  0.2932 -0.8047  0.7922
  380TMC3    C4 5734   1.229   4.303  15.659  0.4230  0.1072 -0.3581
  380TMC3    C5 5735   1.206   4.284  15.525  0.1983 -0.4080 -0.2776
  380TMC3    C6 5736   1.285   4.209  15.439  0.0800 -0.1875  0.5545
  380TMC3     C 5737   1.355   4.210  15.858 -0.0204 -0.0028 -0.0562
  380TMC3     O 5738   1.455   4.144  15.881 -1.0885 -0.7748 -0.1111
  380TMC3     H 5739   1.497   4.099  15.671  0.4291 -0.8470 -2.5896
  380TMC3    H1 5740   1.154   4.346  15.724 -0.7009 -1.7285 -0.4767
  380TMC3    H2 5741   1.278   4.208  15.330  2.5852 -1.8382  0.4268
  380TMC3    C7 5742   1.089   4.354  15.473 -0.6585  0.6706 -0.3973
  380TMC3    C8 5743   1.498   4.124  15.404  0.1111  0.4891 -0.8183
  380TMC3    O1 5744   1.059   4.464  15.520 -0.3064 -0.0885  0.0226
  380TMC3    O2 5745   1.515   4.208  15.316 -0.1713 -0.4761 -0.3210
  381TMC3    C1 5746   1.126   0.862  16.102 -0.0588 -0.0266 -0.0889
  381TMC3    C2 5747   1.190   0.983  16.109  0.1530 -0.6429  0.7337
  381TMC3    C3 5748   1.214   1.034  16.232  0.4508  0.5232 -0.5942
  381TMC3    C4 5749   1.078   0.796  16.215 -0.0585  0.5206  0.0981
  381TMC3    C5 5750   1.071   0.872  16.331  0.5245  0.1556 -0.5705
  381TMC3    C6 5751   1.158   0.982  16.344  0.3389  0.0795  0.0463
  381TMC3     C 5752   1.156   0.787  15.981  0.0610 -0.7537  0.4646
  381TMC3     O 5753   1.229   0.845  15.899  0.3487  0.2889  0.3383
  381TMC3     H 5754   1.229   1.032  16.021  0.2463 -0.8605  0.6526
  381TMC3    H1 5755   1.033   0.697  16.206 -2.0223  1.5188 -1.2289
  381TMC3    H2 5756   1.186   1.012  16.444  1.1050  0.5573 -0.3158
  381TMC3    C7 5757   1.040   0.790  16.444  0.0793 -0.3446  0.6838
  381TMC3    C8 5758   1.331   1.132  16.236 -0.7350  0.3909 -0.3022
  381TMC3    O1 5759   1.033   0.670  16.420 -0.3568 -0.4310 -0.5840
  381TMC3    O2 5760   1.378   1.167  16.129  0.3001  0.3838 -0.3206
  382MPD2     C 5761   0.315   3.282  16.808  0.6790 -0.2068  0.0532
  382MPD2    C1 5762   0.309   3.329  16.933 -0.8547 -0.4098 -0.3757
  382MPD2    C2 5763   0.283   3.240  17.043  0.2431  0.6307  0.4009
  382MPD2    C3 5764   0.262   3.107  17.024  0.3354  0.1184 -0.7943
  382MPD2    C4 5765   0.268   3.064  16.897 -0.1708 -0.5402 -0.6555
  382MPD2    C5 5766   0.306   3.148  16.794 -0.1900  0.1130  0.2343
  382MPD2     H 5767   0.291   3.296  17.136 -0.3506  2.4524 -0.6564
  382MPD2    H1 5768   0.242   2.961  16.876 -1.1412 -0.3044 -0.5956
  382MPD2    H2 5769   0.330   3.341  16.718  0.1205  1.3115  0.9570
  382MPD2    H3 5770   0.310   3.108  16.694 -3.7677 -0.3782  0.3051
  382MPD2     N 5771   0.257   3.012  17.129  0.4303 -0.3620 -0.6678
  382MPD2    H5 5772   0.263   2.915  17.099  0.4223 -0.2149 -1.1428
  382MPD2    N1 5773   0.324   3.462  16.965 -0.3327  0.1109  0.5130
  382MPD2    H7 5774   0.308   3.489  17.061 -0.0210  2.1362 -0.0005
  383TMC3    C1 5775   0.230   2.915  17.344  0.0752 -0.3620  0.5017
  383TMC3    C2 5776   0.147   2.816  17.298 -0.4123  0.9545 -0.2758
  383TMC3    C3 5777   0.138   2.698  17.368  0.6470 -0.1856  0.1048
  383TMC3    C4 5778   0.287   2.905  17.468 -0.2350  0.8018 -0.5964
  383TMC3    C5 5779   0.285   2.783  17.535  0.4187  1.3415 -0.4374
  383TMC3    C6 5780   0.216   2.678  17.482  1.1940  0.2660  0.0835
  383TMC3     C 5781   0.249   3.036  17.261 -0.4875  0.2825  0.3038
  383TMC3     O 5782   0.285   3.134  17.322  0.2072  0.4436  0.0855
  383TMC3     H 5783   0.086   2.836  17.211 -0.6237  1.1282 -0.0859
  383TMC3    H1 5784   0.349   2.992  17.489 -0.0879  0.7400 -0.7705
  383TMC3    H2 5785   0.198   2.588  17.540 -1.7419  0.8278  0.0815
  383TMC3    C7 5786   0.314   2.786  17.675  0.0299  0.3336 -0.6229
  383TMC3    C8 5787   0.069   2.591  17.304 -0.2514 -0.1716  0.9113
  383TMC3    O1 5788   0.351   2.680  17.720 -0.1189 -0.4449  0.2614
  383TMC3    O2 5789   4.707   2.624  17.245  0.2505 -0.2196  0.0374
  384MPD2     C 5790   1.740   3.729  12.084  0.3693  0.0568  0.7432
  384MPD2    C1 5791   1.775   3.598  12.118  0.1368 -0.8715  0.9522
  384MPD2    C2 5792   1.912   3.561  12.095  0.2354 -0.6478  0.2221
  384MPD2    C3 5793   2.001   3.651  12.038 -0.0744 -0.1990  0.4204
  384MPD2    C4 5794   1.965   3.783  12.025  0.3066 -0.2610  0.1405
  384MPD2    C5 5795   1.835   3.819  12.049  0.2392  0.3021  0.1222
  384MPD2     H 5796   1.938   3.456  12.103  2.4844 -0.0759  0.2111
  384MPD2    H1 5797   2.039   3.850  11.983  0.0923  1.4682  2.5562
  384MPD2    H2 5798   1.641   3.763  12.115  0.2388 -0.4935  0.9282
  384MPD2    H3 5799   1.800   3.918  12.020  0.2226  0.2045 -0.1840
  384MPD2     N 5800   2.127   3.607  11.998 -0.2750 -0.3732  0.7803
  384MPD2    H5 5801   2.145   3.510  12.023 -1.9368 -0.7681  0.4468
  384MPD2    N1 5802   1.679   3.510  12.160 -0.2395  0.1547 -0.7318
  384MPD2    H7 5803   1.583   3.540  12.165 -0.2198 -0.2358  2.0940
  385TMC3    C1 5804   2.320   3.581  11.878 -1.5499 -0.0798 -0.1100
  385TMC3    C2 5805   2.305   3.533  11.757 -0.7548  0.2818 -0.4342
  385TMC3    C3 5806   2.329   3.407  11.724 -1.1197  0.3279  0.1232
  385TMC3    C4 5807   2.360   3.488  11.976 -0.2583  0.1451  0.3137
  385TMC3    C5 5808   2.360   3.358  11.948 -0.3265  1.4237  0.0579
  385TMC3    C6 5809   2.370   3.316  11.819 -0.1888 -0.9546  0.4102
  385TMC3     C 5810   2.219   3.670  11.918  0.4253  0.5272  0.8792
  385TMC3     O 5811   2.212   3.775  11.855 -0.4944  0.2801 -0.1609
  385TMC3     H 5812   2.240   3.585  11.687 -1.0564 -0.9332 -1.0482
  385TMC3    H1 5813   2.366   3.521  12.079  1.4025  0.5529  0.0789
  385TMC3    H2 5814   2.355   3.213  11.791 -0.1629 -0.9666  0.4395
  385TMC3    C7 5815   2.271   3.289  12.033 -0.2717 -0.4981  0.5211
  385TMC3    C8 5816   2.213   3.353  11.648 -0.6163 -0.3741  0.1240
  385TMC3    O1 5817   2.197   3.367  12.098  0.2242 -0.4872  0.7433
  385TMC3    O2 5818   2.101   3.379  11.689 -0.4836  0.1675 -0.5489
  386TMC3    C1 5819   2.614   0.802  11.110  0.2627  0.6495 -0.7053
  386TMC3    C2 5820   2.548   0.852  11.001 -0.1303 -0.3467 -0.6359
  386TMC3    C3 5821   2.436   0.923  11.030  0.8548 -0.9326 -0.0238
  386TMC3    C4 5822   2.578   0.829  11.240  0.4999 -0.3701 -0.2454
  386TMC3    C5 5823   2.468   0.909  11.255 -0.3951 -0.1295  0.0679
  386TMC3    C6 5824   2.394   0.950  11.154 -0.2924  0.1918  0.1730
  386TMC3     C 5825   2.699   0.685  11.088 -0.2597 -0.5202 -0.0675
  386TMC3     O 5826   2.759   0.677  10.983  0.0444 -0.4048  0.3128
  386TMC3     H 5827   2.562   0.796  10.909  0.3073  0.7837 -1.2598
  386TMC3    H1 5828   2.646   0.807  11.321 -0.8167  1.5330  1.3905
  386TMC3    H2 5829   2.314   1.022  11.165 -0.3573  0.5158 -2.3722
  386TMC3    C7 5830   2.450   0.970  11.387  0.5575  0.6462  0.0921
  386TMC3    C8 5831   2.332   0.936  10.928  0.1834  0.2175  0.4590
  386TMC3    O1 5832   2.488   0.898  11.477 -0.0788 -0.0945  0.6531
  386TMC3    O2 5833   2.221   0.968  10.970 -0.4582  0.4110  0.1083
  387MPD2     C 5834   4.589   0.503   9.562  0.3848  0.1879  0.9819
  387MPD2    C1 5835   4.698   0.507   9.638  0.0089 -0.2396 -0.6810
  387MPD2    C2 5836   0.015   0.390   9.690  0.2843 -0.0801 -1.4358
  387MPD2    C3 5837   4.694   0.273   9.666  0.7186  0.6891 -0.0071
  387MPD2    C4 5838   4.577   0.267   9.591 -0.2275  1.2721 -0.5540
  387MPD2    C5 5839   4.528   0.378   9.538 -0.4825 -0.4570  0.5011
  387MPD2     H 5840   0.096   0.386   9.762 -0.6816 -0.0054 -0.3415
  387MPD2    H1 5841   4.524   0.173   9.577  4.2448 -1.2259 -0.5415
  387MPD2    H2 5842   4.540   0.591   9.522  1.4214 -0.0026 -0.7262
  387MPD2    H3 5843   4.441   0.371   9.472  0.9124 -0.4769 -1.3426
  387MPD2     N 5844   0.025   0.163   9.729 -0.4959  0.6593  0.2493
  387MPD2    H5 5845   0.106   0.193   9.784 -1.2093 -0.3270  1.8420
  387MPD2    N1 5846   0.005   0.636   9.686  0.1337  0.1934  0.2080
  387MPD2    H7 5847   4.674   0.708   9.663  0.8569  0.8239  0.0216
  388TMC3    C1 5848   0.113   0.768   9.852  0.2787 -0.3322  0.4983
  388TMC3    C2 5849   0.152   0.884   9.792 -0.4706  0.3284 -0.1575
  388TMC3    C3 5850   0.247   0.959   9.860 -0.6538 -0.8855 -0.2512
  388TMC3    C4 5851   0.168   0.723   9.970 -0.1909  0.2079 -0.0227
  388TMC3    C5 5852   0.271   0.787  10.027  0.7400 -0.4907  0.4368
  388TMC3    C6 5853   0.305   0.907   9.973 -0.0133  0.0198 -0.3566
  388TMC3     C 5854   0.123   0.653   9.760  0.3822 -0.2586  0.2150
  388TMC3     O 5855   0.215   0.573   9.781  0.2553  0.4095  0.5786
  388TMC3     H 5856   0.120   0.895   9.689 -1.2846  1.1669  0.1864
  388TMC3    H1 5857   0.138   0.626  10.007 -0.4456  0.8563  1.4723
  388TMC3    H2 5858   0.398   0.943  10.016  0.1757 -1.4494  0.4595
  388TMC3    C7 5859   0.368   0.706  10.089  0.2112 -0.1356  0.7139
  388TMC3    C8 5860   0.282   1.092   9.814  0.0990  0.2288 -0.3277
  388TMC3    O1 5861   0.430   0.752  10.180  0.4150  0.3453  0.0575
  388TMC3    O2 5862   0.283   1.111   9.693 -0.2795  0.5828 -0.2973
  389MPD2     C 5863   3.469   3.878  10.615  0.2474 -0.1779  0.1825
  389MPD2    C1 5864   3.499   3.755  10.553 -0.4606 -0.0876 -0.2058
  389MPD2    C2 5865   3.480   3.638  10.633  0.6782  0.0996 -0.6802
  389MPD2    C3 5866   3.429   3.646  10.766 -0.5771  0.1725 -0.3489
  389MPD2    C4 5867   3.414   3.769  10.821  1.0934  0.1294  0.5286
  389MPD2    C5 5868   3.430   3.878  10.744  0.6475  0.6721  0.8682
  389MPD2     H 5869   3.503   3.542  10.589  1.3801 -0.9613  2.0161
  389MPD2    H1 5870   3.379   3.776  10.924 -1.2164  1.4627 -0.3552
  389MPD2    H2 5871   3.481   3.970  10.559  1.9809 -0.9693 -0.7563
  389MPD2    H3 5872   3.408   3.970  10.797 -0.6767  0.9951 -0.2337
  389MPD2     N 5873   3.399   3.534  10.847  0.2615  0.3819  0.4670
  389MPD2    H5 5874   3.367   3.549  10.942  0.8125 -1.6334  0.9850
  389MPD2    N1 5875   3.537   3.756  10.417 -0.1949  0.5165 -0.2671
  389MPD2    H7 5876   3.533   3.843  10.365  0.5584  1.8646  1.9027
  390TMC3    C1 5877   3.355   3.297  10.894  0.3181 -0.2878  0.5422
  390TMC3    C2 5878   3.336   3.336  11.026  0.6027  0.4099  0.3316
  390TMC3    C3 5879   3.261   3.250  11.103  0.4073 -0.0010 -0.1032
  390TMC3    C4 5880   3.291   3.189  10.837 -0.3727 -0.1039  0.4495
  390TMC3    C5 5881   3.211   3.110  10.922 -0.8903  0.3040 -0.3172
  390TMC3    C6 5882   3.200   3.136  11.057 -0.0435 -0.3384  0.6494
  390TMC3     C 5883   3.400   3.401  10.802  0.4962  0.1659 -0.0502
  390TMC3     O 5884   3.424   3.361  10.690 -0.3522  0.1254 -0.2007
  390TMC3     H 5885   3.405   3.408  11.069  0.2791  0.6079  0.5194
  390TMC3    H1 5886   3.307   3.160  10.734  1.1581  1.0520  0.3624
  390TMC3    H2 5887   3.124   3.083  11.114 -2.0625  3.0158  1.0247
  390TMC3    C7 5888   3.196   2.972  10.872  0.0162 -0.2666  0.5577
  390TMC3    C8 5889   3.276   3.248  11.242  0.0728  0.3928  0.3132
  390TMC3    O1 5890   3.248   2.948  10.765 -0.0676 -0.1665 -0.0880
  390TMC3    O2 5891   3.296   3.354  11.308  0.2008 -0.0194 -0.3084
  391MPD2     C 5892   3.410   0.343  11.287  0.2427 -0.7275 -0.4671
  391MPD2    C1 5893   3.516   0.412  11.228 -0.6482  0.6140 -0.2340
  391MPD2    C2 5894   3.527   0.406  11.084  0.3411  0.1304 -0.2207
  391MPD2    C3 5895   3.432   0.341  11.012  0.2770 -0.2129 -0.2300
  391MPD2    C4 5896   3.331   0.274  11.077  0.0312 -0.3114 -0.5965
  391MPD2    C5 5897   3.317   0.275  11.210  0.2264 -0.2757  0.3368
  391MPD2     H 5898   3.607   0.453  11.028  1.1978  1.1638  1.8568
  391MPD2    H1 5899   3.248   0.227  11.025  0.2957 -0.7761 -0.6050
  391MPD2    H2 5900   3.393   0.355  11.393 -0.1176 -2.0683 -0.3719
  391MPD2    H3 5901   3.235   0.224  11.259 -0.1162  1.0931  1.1727
  391MPD2     N 5902   3.444   0.346  10.866  0.6215  0.1494  0.0890
  391MPD2    H5 5903   3.516   0.411  10.837  3.2429 -2.9285 -0.3981
  391MPD2    N1 5904   3.612   0.481  11.307  0.1793 -0.4525 -0.1499
  391MPD2    H7 5905   3.606   0.485  11.408  2.5092 -0.5141 -0.0081
  392TMC3    C1 5906   3.387   0.327  10.631 -0.2711 -0.7982  0.0641
  392TMC3    C2 5907   3.280   0.309  10.544 -0.4117  0.7974  0.3184
  392TMC3    C3 5908   3.288   0.370  10.420 -0.0283  0.0447 -0.4856
  392TMC3    C4 5909   3.496   0.396  10.594  0.3117 -0.1685  0.6435
  392TMC3    C5 5910   3.504   0.453  10.467  0.6203  0.1242  0.0361
  392TMC3    C6 5911   3.394   0.446  10.385  0.0106 -0.6015 -0.5706
  392TMC3     C 5912   3.354   0.291  10.777  0.1802  0.1513  0.5449
  392TMC3     O 5913   3.253   0.223  10.796 -0.0094  0.3484  0.0723
  392TMC3     H 5914   3.196   0.248  10.572  0.4489  0.4019  2.0589
  392TMC3    H1 5915   3.586   0.385  10.654  1.3917 -1.9902 -1.3074
  392TMC3    H2 5916   3.395   0.514  10.301  1.2987 -2.2882 -1.9060
  392TMC3    C7 5917   3.635   0.509  10.432  1.0067 -0.9460 -0.3264
  392TMC3    C8 5918   3.162   0.369  10.350  0.3432  0.3308  0.7801
  392TMC3    O1 5919   3.693   0.558  10.525 -0.0973 -0.0569  0.3697
  392TMC3    O2 5920   3.062   0.328  10.401 -0.1801  0.2560 -0.4786
  393TMC3    C1 5921   2.183   3.448  11.021  0.3444  0.4117  0.4898
  393TMC3    C2 5922   2.076   3.490  11.089  0.0132  0.0163 -0.6441
  393TMC3    C3 5923   1.975   3.408  11.137 -0.1713  0.4165  0.5119
  393TMC3    C4 5924   2.175   3.318  10.981 -0.3105 -0.0768 -0.1748
  393TMC3    C5 5925   2.072   3.239  11.023 -0.0217 -0.3928 -0.4265
  393TMC3    C6 5926   1.973   3.276  11.113 -0.3056  0.1620 -0.0227
  393TMC3     C 5927   2.227   3.530  10.920  0.3255  0.7040  0.4686
  393TMC3     O 5928   2.180   3.502  10.810  0.0454 -0.9172  0.6348
  393TMC3     H 5929   2.061   3.597  11.091  0.9403  0.1465 -0.8954
  393TMC3    H1 5930   2.249   3.289  10.908  0.6185 -0.1084  0.7836
  393TMC3    H2 5931   1.891   3.215  11.150  1.8765 -0.9863  2.9546
  393TMC3    C7 5932   2.063   3.104  10.967 -0.2699  0.6606 -0.1426
  393TMC3    C8 5933   1.862   3.455  11.214  0.2069 -0.6742  0.2253
  393TMC3    O1 5934   1.950   3.055  10.963 -0.3941 -0.3640 -0.2554
  393TMC3    O2 5935   1.797   3.368  11.278 -0.3763  0.0252 -0.3307
  394TMC3    C1 5936   3.617   3.661  10.217 -0.4422  0.2818 -0.7781
  394TMC3    C2 5937   3.637   3.545  10.140 -0.1893  0.3546  0.4666
  394TMC3    C3 5938   3.710   3.559  10.024  0.2733  0.3715 -0.6090
  394TMC3    C4 5939   3.688   3.774  10.201  0.1326 -0.3413 -0.2412
  394TMC3    C5 5940   3.771   3.766  10.095  0.0732 -0.4344 -0.4491
  394TMC3    C6 5941   3.786   3.668   9.999 -0.0631  0.3349 -0.0484
  394TMC3     C 5942   3.565   3.644  10.346  0.3282  0.2886 -0.2662
  394TMC3     O 5943   3.519   3.530  10.374  0.0240  0.7801  0.0521
  394TMC3     H 5944   3.583   3.454  10.163 -0.6111  0.3843 -0.4157
  394TMC3    H1 5945   3.711   3.848  10.276  1.2626  0.8223 -1.7514
  394TMC3    H2 5946   3.850   3.675   9.912  1.7262 -0.7839  1.2034
  394TMC3    C7 5947   3.875   3.867  10.092  0.0455  0.2897  0.0976
  394TMC3    C8 5948   3.756   3.441   9.961  0.7375 -0.0243 -0.2413
  394TMC3    O1 5949   3.847   3.982  10.122 -0.0396 -0.2202  0.5564
  394TMC3    O2 5950   3.749   3.428   9.841 -0.2059  0.0469  0.2321
  395TMC3    C1 5951   3.896   1.072  15.054 -0.0760  0.3707 -0.2514
  395TMC3    C2 5952   3.990   0.986  14.994  0.3000 -0.4434  0.7671
  395TMC3    C3 5953   4.109   1.040  14.958 -0.4899  0.2587 -0.1096
  395TMC3    C4 5954   3.927   1.201  15.093  0.0432  0.0409  0.1546
  395TMC3    C5 5955   4.050   1.245  15.055  0.1508  0.0409 -0.1309
  395TMC3    C6 5956   4.139   1.173  14.978 -0.1507 -0.4885  0.1211
  395TMC3     C 5957   3.787   1.011  15.134  0.1201 -0.2813  0.1057
  395TMC3     O 5958   3.768   1.059  15.242 -0.0480 -0.2563  0.1761
  395TMC3     H 5959   3.967   0.881  14.990 -2.7965  0.2012  1.7338
  395TMC3    H1 5960   3.863   1.264  15.154 -0.7679  0.7612 -1.4455
  395TMC3    H2 5961   4.213   1.232  14.925  0.8606 -0.8479  1.1333
  395TMC3    C7 5962   4.101   1.370  15.102  0.1907  0.2748 -0.3147
  395TMC3    C8 5963   4.186   0.986  14.848 -0.1886 -0.8748 -0.1233
  395TMC3    O1 5964   4.024   1.465  15.116  0.4495  0.1012  0.3580
  395TMC3    O2 5965   4.293   1.040  14.829 -0.4063 -0.2389  0.6223
  396MPD2     C 5966   3.155   2.495  16.858  0.0591  0.4948  0.1846
  396MPD2    C1 5967   3.269   2.529  16.930  0.2538 -0.4367 -0.8871
  396MPD2    C2 5968   3.358   2.626  16.882 -0.0861 -0.1702  0.2273
  396MPD2    C3 5969   3.342   2.679  16.755 -0.6611 -0.6005  0.2244
  396MPD2    C4 5970   3.230   2.637  16.680  0.5763  0.6248  0.4617
  396MPD2    C5 5971   3.140   2.548  16.734 -0.2413 -0.4481 -0.4570
  396MPD2     H 5972   3.448   2.645  16.939  0.8357  0.1867 -1.3414
  396MPD2    H1 5973   3.200   2.660  16.579  1.2122 -1.8228 -0.2648
  396MPD2    H2 5974   3.080   2.422  16.889  1.2904  0.0520  2.1545
  396MPD2    H3 5975   3.059   2.521  16.667  0.5798  0.7462 -1.9142
  396MPD2     N 5976   3.431   2.772  16.697 -0.2499  0.2200 -0.2344
  396MPD2    H5 5977   3.397   2.805  16.607 -1.7417  0.3478  0.3942
  396MPD2    N1 5978   3.282   2.465  17.054 -0.6803  0.1531  0.3977
  396MPD2    H7 5979   3.212   2.400  17.088 -0.4639 -0.3956 -0.2069
  397TMC3    C1 5980   3.402   2.372  17.240  0.3652 -0.0303  0.2589
  397TMC3    C2 5981   3.512   2.394  17.312  0.6061  0.6848  0.0560
  397TMC3    C3 5982   3.591   2.291  17.351 -0.2067  0.3899 -0.4206
  397TMC3    C4 5983   3.372   2.243  17.199 -0.1903 -0.2344 -0.2433
  397TMC3    C5 5984   3.451   2.144  17.241  0.4768  0.5534 -0.4475
  397TMC3    C6 5985   3.557   2.162  17.321  0.0656 -0.2067 -0.0875
  397TMC3     C 5986   3.392   2.468  17.132  0.1794  0.3072  0.3442
  397TMC3     O 5987   3.500   2.526  17.128  0.0784 -0.5960 -0.8501
  397TMC3     H 5988   3.537   2.492  17.351 -1.3880  1.1572  0.1204
  397TMC3    H1 5989   3.283   2.220  17.141 -0.5871  0.3111  0.1423
  397TMC3    H2 5990   3.623   2.082  17.353  3.4141  1.1389 -3.7487
  397TMC3    C7 5991   3.379   2.015  17.256  0.2918  0.2901  0.8965
  397TMC3    C8 5992   3.729   2.312  17.311  0.1737  0.0092 -0.5081
  397TMC3    O1 5993   3.330   1.970  17.155  0.0281 -0.1399 -0.6384
  397TMC3    O2 5994   3.820   2.251  17.360  0.2745 -0.5260 -0.2799
  398MPD2     C 5995   1.195   4.311  17.538  0.2135 -0.3692  0.5298
  398MPD2    C1 5996   1.289   4.220  17.578  0.0259 -0.1224 -0.0267
  398MPD2    C2 5997   1.411   4.254  17.630  0.2260 -0.2903 -0.2505
  398MPD2    C3 5998   1.435   4.391  17.647 -0.2959  0.0447 -0.5293
  398MPD2    C4 5999   1.343   4.487  17.604  0.9281 -0.1595  0.6668
  398MPD2    C5 6000   1.221   4.443  17.551 -0.1076  0.0843  0.8598
  398MPD2     H 6001   1.472   4.180  17.680 -0.7176 -2.0941 -1.7812
  398MPD2    H1 6002   1.354   4.594  17.612 -0.8972  0.1229 -0.6849
  398MPD2    H2 6003   1.095   4.288  17.504  0.3400  1.2333 -0.9814
  398MPD2    H3 6004   1.146   4.518  17.530  0.0994  0.6446  2.1077
  398MPD2     N 6005   1.558   4.428  17.712  0.4300 -0.2648  0.6216
  398MPD2    H5 6006   1.634   4.361  17.719  2.2199  1.6772 -0.1913
  398MPD2    N1 6007   1.259   4.081  17.566  0.0050 -0.2421 -0.2785
  398MPD2    H7 6008   1.343   4.032  17.595 -1.0329 -1.9216 -0.0978
  399TMC3    C1 6009   1.147   3.872  17.515  0.2341 -0.2618  1.1010
  399TMC3    C2 6010   1.229   3.798  17.596 -0.2438  0.8728  0.0855
  399TMC3    C3 6011   1.214   3.666  17.581 -0.1812 -0.7542 -0.5192
  399TMC3    C4 6012   1.057   3.814  17.431 -0.2149 -0.2028  0.3566
  399TMC3    C5 6013   1.054   3.680  17.409  0.3222  0.1378  0.5791
  399TMC3    C6 6014   1.122   3.604  17.497 -0.7281 -0.2507 -0.1735
  399TMC3     C 6015   1.146   4.021  17.519  0.0730 -0.7753  0.3833
  399TMC3     O 6016   1.063   4.067  17.445  0.2987 -0.1877 -0.0011
  399TMC3     H 6017   1.302   3.837  17.666 -1.0611 -0.5395  1.7479
  399TMC3    H1 6018   0.989   3.875  17.373 -1.3931 -0.0033  1.9700
  399TMC3    H2 6019   1.113   3.497  17.483 -0.6764 -0.2594 -0.1388
  399TMC3    C7 6020   0.968   3.626  17.302 -0.0440  0.3537 -0.4397
  399TMC3    C8 6021   1.315   3.589  17.657  0.2876  0.8468 -0.7357
  399TMC3    O1 6022   0.955   3.504  17.313  0.4533 -0.4955 -0.7730
  399TMC3    O2 6023   1.412   3.649  17.695 -0.6059  0.3658  0.3149
  400TMC3    C1 6024   0.130   1.972  16.799  0.2101  0.5921  0.5653
  400TMC3    C2 6025   0.049   1.871  16.794 -0.2907  0.1574  0.0792
  400TMC3    C3 6026   4.682   1.873  16.704 -0.3842  0.5202  0.5462
  400TMC3    C4 6027   0.112   2.092  16.725  0.8070 -0.3724 -0.0805
  400TMC3    C5 6028   0.015   2.090  16.624 -0.5617 -0.4068 -0.3172
  400TMC3    C6 6029   4.663   1.982  16.618 -0.5548 -0.1628  0.0080
  400TMC3     C 6030   0.238   1.972  16.901  0.2890  0.2569  0.3063
  400TMC3     O 6031   0.242   1.872  16.979  0.0316 -0.3777 -0.1719
  400TMC3     H 6032   0.072   1.776  16.842  2.0819  2.1275  2.8885
  400TMC3    H1 6033   0.188   2.168  16.716  0.9970 -0.6438 -0.7780
  400TMC3    H2 6034   4.579   1.988  16.550 -1.0296 -0.4339  0.5694
  400TMC3    C7 6035   4.719   2.211  16.541 -0.6088 -0.5751 -0.2002
  400TMC3    C8 6036   4.571   1.788  16.739  0.1412 -0.2498 -0.3027
  400TMC3    O1 6037   4.646   2.193  16.445 -0.3462  0.1144 -0.3959
  400TMC3    O2 6038   4.563   1.744  16.854 -0.1008  0.2405 -0.2169
  401MPD2     C 6039   4.546   0.686   0.348 -0.1861 -0.4604 -0.1561
  401MPD2    C1 6040   4.508   0.664   0.484 -0.1237 -0.0250  0.4258
  401MPD2    C2 6041   4.407   0.581   0.513 -0.2524  1.4192 -0.5640
  401MPD2    C3 6042   4.329   0.528   0.410 -0.0380 -0.2001 -0.3252
  401MPD2    C4 6043   4.359   0.555   0.278  0.1123  0.4019 -0.4377
  401MPD2    C5 6044   4.471   0.629   0.250  0.2773  0.3897  0.3224
  401MPD2     H 6045   4.386   0.569   0.619  1.6774 -0.5598 -0.4088
  401MPD2    H1 6046   4.303   0.513   0.196 -0.6045 -1.1268  0.8277
  401MPD2    H2 6047   4.622   0.758   0.317  0.4528 -1.0957 -0.0724
  401MPD2    H3 6048   4.492   0.653   0.147 -1.1496  1.5669  0.3080
  401MPD2     N 6049   4.204   0.454   0.424  0.9191 -0.2102 -0.2832
  401MPD2    H5 6050   4.152   0.430   0.340  1.1791 -2.1939  0.1072
  401MPD2    N1 6051   4.576   0.723   0.591  0.2743 -0.2561  0.4299
  401MPD2    H7 6052   4.537   0.695   0.680 -0.5307  0.7857  0.4007
  402TMC3    C1 6053   4.041   0.342   0.542  0.3917 -0.0791  0.7444
  402TMC3    C2 6054   3.992   0.296   0.657  0.2810  0.1236 -0.4005
  402TMC3    C3 6055   3.882   0.225   0.664  0.4435 -0.1120  0.6172
  402TMC3    C4 6056   4.003   0.276   0.427  0.2793 -1.3484  0.3194
  402TMC3    C5 6057   3.898   0.194   0.439 -0.0642 -0.3408  0.5104
  402TMC3    C6 6058   3.834   0.172   0.556 -0.3631 -0.7449 -0.2841
  402TMC3     C 6059   4.162   0.417   0.549 -0.2156  1.0993 -0.2324
  402TMC3     O 6060   4.200   0.464   0.655  0.4051 -0.6967 -1.1438
  402TMC3     H 6061   4.035   0.337   0.748 -2.1570 -0.5692  1.0566
  402TMC3    H1 6062   4.051   0.288   0.330 -0.3504 -2.2921 -0.0978
  402TMC3    H2 6063   3.741   0.116   0.554 -0.5877 -0.3692 -0.2744
  402TMC3    C7 6064   3.878   0.095   0.341 -0.5772 -1.0678 -0.0087
  402TMC3    C8 6065   3.838   0.183   0.794 -0.9153 -1.6161  0.4496
  402TMC3    O1 6066   3.915   0.123   0.230 -0.3155  0.9512 -0.2052
  402TMC3    O2 6067   3.912   0.163   0.887  0.0924  0.1321  0.5381
  403MPD2     C 6068   1.756   2.939  12.938  0.6952 -0.1834  0.0064
  403MPD2    C1 6069   1.774   2.996  13.061  0.2694 -0.1896 -0.2363
  403MPD2    C2 6070   1.883   3.081  13.081  0.1694 -0.1061  0.0445
  403MPD2    C3 6071   1.957   3.111  12.967 -0.2500 -0.8300 -0.0536
  403MPD2    C4 6072   1.927   3.058  12.837  0.4167  0.1360 -0.1599
  403MPD2    C5 6073   1.825   2.971  12.833 -0.2009  0.2034  0.6508
  403MPD2     H 6074   1.911   3.115  13.180  0.1542 -1.8952  0.6488
  403MPD2    H1 6075   1.990   3.065  12.749  0.7364 -2.7154 -0.1512
  403MPD2    H2 6076   1.685   2.860  12.921  0.0699  0.4658 -0.4021
  403MPD2    H3 6077   1.815   2.910  12.744 -0.7778  1.1991  0.0367
  403MPD2     N 6078   2.090   3.160  12.967 -0.0676  0.4562 -0.2012
  403MPD2    H5 6079   2.151   3.139  12.888  0.8347  0.1469  0.5815
  403MPD2    N1 6080   1.688   2.952  13.164 -0.5036 -0.4967 -0.0699
  403MPD2    H7 6081   1.612   2.895  13.130 -0.0493 -1.1404  0.0004
  404TMC3    C1 6082   1.622   2.910  13.386  0.1597 -0.7780 -0.4292
  404TMC3    C2 6083   1.654   2.912  13.518  0.5590  0.6478  0.9885
  404TMC3    C3 6084   1.562   2.874  13.610  0.1308  0.1218  0.0866
  404TMC3    C4 6085   1.492   2.877  13.347 -0.4334 -0.1959  0.7002
  404TMC3    C5 6086   1.402   2.832  13.438  0.3133  0.1191 -0.4054
  404TMC3    C6 6087   1.435   2.837  13.570 -0.1113  0.0332  0.5231
  404TMC3     C 6088   1.721   2.967  13.297  0.4348 -0.0572 -0.6071
  404TMC3     O 6089   1.801   3.036  13.355 -0.1060 -0.7351  0.3061
  404TMC3     H 6090   1.754   2.945  13.546  0.7840 -0.1457  1.1202
  404TMC3    H1 6091   1.458   2.900  13.247  1.3178 -2.2061 -0.3704
  404TMC3    H2 6092   1.363   2.805  13.645  0.9380 -3.2008  0.1447
  404TMC3    C7 6093   1.281   2.757  13.402 -0.1142 -0.6643 -0.1197
  404TMC3    C8 6094   1.606   2.888  13.745 -0.4066 -0.1437  0.4241
  404TMC3    O1 6095   1.195   2.749  13.490  0.3860 -0.2403 -0.1818
  404TMC3    O2 6096   1.723   2.921  13.762 -0.2467  0.9472  0.2868
  405MPD2     C 6097   2.226   4.095  13.942  0.2776 -0.5022  0.0876
  405MPD2    C1 6098   2.150   3.989  13.891  0.0674  0.0340 -0.2447
  405MPD2    C2 6099   2.019   4.010  13.871  1.1331  0.4013  0.4408
  405MPD2    C3 6100   1.958   4.134  13.886  0.3756  0.6675 -1.0052
  405MPD2    C4 6101   2.038   4.237  13.938  0.1395  0.1376  0.6354
  405MPD2    C5 6102   2.169   4.215  13.971 -0.8857  0.1134 -1.1959
  405MPD2     H 6103   1.960   3.927  13.833  0.7730  0.9627 -0.2393
  405MPD2    H1 6104   2.003   4.337  13.961 -0.8815  0.2559 -1.4652
  405MPD2    H2 6105   2.329   4.076  13.972 -0.4124 -3.5349  0.4800
  405MPD2    H3 6106   2.235   4.288  14.017  0.8451 -1.7836 -0.6807
  405MPD2     N 6107   1.819   4.146  13.854  0.7190  0.3881  0.2232
  405MPD2    H5 6108   1.775   4.063  13.814 -0.7257  2.0221 -1.5857
  405MPD2    N1 6109   2.196   3.856  13.871  0.1489  0.0249 -0.3325
  405MPD2    H7 6110   2.130   3.789  13.832  1.0666 -1.0348 -0.0696
  406TMC3    C1 6111   1.398   4.263  13.756 -0.1737 -0.2387 -0.3095
  406TMC3    C2 6112   1.385   4.150  13.682  0.1950 -0.3006 -0.2479
  406TMC3    C3 6113   1.508   4.090  13.648  0.9337 -0.2703 -0.4038
  406TMC3    C4 6114   1.519   4.316  13.798  0.3542 -0.5443 -0.4297
  406TMC3    C5 6115   1.630   4.248  13.768 -0.0784  0.7258  0.1924
  406TMC3    C6 6116   1.627   4.134  13.691  0.7754 -0.0401  0.6792
  406TMC3     C 6117   1.275   4.299  13.823 -0.2262  0.2386 -0.3526
  406TMC3     O 6118   1.188   4.341  13.750  0.1118 -0.0360 -0.0457
  406TMC3     H 6119   1.293   4.098  13.659 -0.0510 -0.4981  1.1755
  406TMC3    H1 6120   1.508   4.400  13.865  1.4207 -0.2972 -0.5614
  406TMC3    H2 6121   1.712   4.073  13.662 -0.1420 -0.4721 -1.1246
  406TMC3    C7 6122   1.749   4.270  13.846 -0.3848  0.0048  0.0064
  406TMC3    C8 6123   1.496   3.957  13.586  0.3039  0.0991 -0.1618
  406TMC3    O1 6124   1.783   4.381  13.887  0.2389  0.5058  0.6420
  406TMC3    O2 6125   1.419   3.942  13.495 -0.4810 -0.1618 -0.2544
  407MPD2     C 6126   4.310   0.098   9.276  0.1995  1.2568  0.1004
  407MPD2    C1 6127   4.346   0.086   9.403 -0.2407  0.3440  0.2338
  407MPD2    C2 6128   4.285   0.161   9.504 -0.7151  0.3934  0.0085
  407MPD2    C3 6129   4.178   0.244   9.471 -0.6424 -0.1361  0.0630
  407MPD2    C4 6130   4.135   0.256   9.341  0.3587 -0.0467  0.9186
  407MPD2    C5 6131   4.207   0.188   9.246  0.0984 -0.2335  0.2518
  407MPD2     H 6132   4.320   0.156   9.606 -0.0592 -0.6225 -0.2732
  407MPD2    H1 6133   4.059   0.327   9.311  1.2627 -0.0476 -1.3694
  407MPD2    H2 6134   4.335   0.027   9.198 -1.3956  0.3039  0.4494
  407MPD2    H3 6135   4.158   0.198   9.150 -0.6206  2.6875  0.9299
  407MPD2     N 6136   4.114   0.333   9.562 -0.0877 -0.0812  0.3504
  407MPD2    H5 6137   4.055   0.403   9.519 -0.2854 -0.6679 -0.3390
  407MPD2    N1 6138   4.447   4.730   9.434 -0.0729  0.7197  0.4221
  407MPD2    H7 6139   4.461   4.717   9.534  0.4485 -1.6866  0.0272
  408TMC3    C1 6140   4.612   4.564   9.412 -0.4880 -0.1442 -0.2064
  408TMC3    C2 6141   0.007   4.562   9.408  0.0184  0.2422  0.2030
  408TMC3    C3 6142   0.068   4.446   9.447 -0.3969  0.4898  0.5667
  408TMC3    C4 6143   4.532   4.467   9.466 -0.0079  0.2777 -0.1245
  408TMC3    C5 6144   4.603   4.358   9.518 -0.4070 -0.0225 -0.3202
  408TMC3    C6 6145   0.002   4.341   9.504  0.0951  0.1984 -0.0242
  408TMC3     C 6146   4.537   4.674   9.349 -0.1824 -0.5392  0.1567
  408TMC3     O 6147   4.576   4.697   9.236  0.2769  0.2065  0.3616
  408TMC3     H 6148   0.059   4.639   9.351  0.5000  1.0426  1.7074
  408TMC3    H1 6149   4.424   4.478   9.473 -0.1129 -1.2431  0.7236
  408TMC3    H2 6150   0.045   4.243   9.523  1.0132  0.5137 -0.4683
  408TMC3    C7 6151   4.527   4.262   9.598  0.0813 -0.4999  0.6130
  408TMC3    C8 6152   0.214   4.446   9.480 -0.1005 -0.0370 -0.5083
  408TMC3    O1 6153   4.409   4.259   9.574 -0.0021  0.0552  0.1170
  408TMC3    O2 6154   0.258   4.335   9.510  0.6907  0.0984  0.4612
  409MPD2     C 6155   3.659   1.958  17.029 -0.3866 -0.1453 -0.6873
  409MPD2    C1 6156   3.775   1.914  17.084 -0.0601  0.2760  0.7568
  409MPD2    C2 6157   3.894   1.948  17.024 -0.0553  0.3402 -0.2200
  409MPD2    C3 6158   3.900   2.048  16.934 -0.8897 -0.1002 -0.5346
  409MPD2    C4 6159   3.785   2.104  16.874  0.3870 -0.9116  0.7517
  409MPD2    C5 6160   3.667   2.047  16.923  0.3117  1.0539  0.3557
  409MPD2     H 6161   3.983   1.906  17.069 -0.1931 -1.2177 -1.4057
  409MPD2    H1 6162   3.785   2.180  16.798  2.3902 -2.2959 -0.6446
  409MPD2    H2 6163   3.560   1.918  17.048  0.0982  0.1042  2.3925
  409MPD2    H3 6164   3.577   2.083  16.875 -1.6529 -3.4145  0.6995
  409MPD2     N 6165   4.021   2.095  16.881 -0.5699 -0.1706 -0.0273
  409MPD2    H5 6166   4.015   2.154  16.799 -0.7274  0.4634  0.4424
  409MPD2    N1 6167   3.780   1.820  17.195  0.0244  0.6206 -0.0798
  409MPD2    H7 6168   3.862   1.821  17.255 -0.3209 -0.8199  0.4190
  410TMC3    C1 6169   4.247   2.105  16.855  0.6266 -0.6965 -0.2845
  410TMC3    C2 6170   4.348   2.150  16.935  0.5838  0.4292  0.2420
  410TMC3    C3 6171   4.446   2.230  16.873 -0.7923 -0.3295  0.2142
  410TMC3    C4 6172   4.242   2.124  16.718 -0.3837  0.6676  0.0095
  410TMC3    C5 6173   4.337   2.196  16.671 -0.7768 -0.3036  0.1897
  410TMC3    C6 6174   4.433   2.261  16.743 -0.2088  0.1269 -0.1533
  410TMC3     C 6175   4.138   2.061  16.929  0.5075  0.1731 -0.1482
  410TMC3     O 6176   4.164   2.028  17.045  0.5749  0.0732  0.5806
  410TMC3     H 6177   4.339   2.145  17.043  2.8123  1.8973  0.4968
  410TMC3    H1 6178   4.163   2.080  16.657 -0.7310 -0.1820  1.0780
  410TMC3    H2 6179   4.516   2.311  16.695 -0.5602  1.1684  0.3319
  410TMC3    C7 6180   4.341   2.189  16.526  0.3289 -0.1644 -0.0481
  410TMC3    C8 6181   4.556   2.278  16.951  0.1040  0.6617 -0.0737
  410TMC3    O1 6182   4.297   2.085  16.482  0.3829  0.0681 -0.1566
  410TMC3    O2 6183   4.602   2.389  16.931  0.1447  0.4457  0.6421
  411MPD2     C 6184   4.418   1.854  14.864  0.1546  0.2201 -0.3155
  411MPD2    C1 6185   4.316   1.906  14.786  0.1224  0.0248  0.0306
  411MPD2    C2 6186   4.242   1.819  14.703 -0.7188  0.7640  0.4236
  411MPD2    C3 6187   4.256   1.677  14.713 -0.2859  0.0506  0.1865
  411MPD2    C4 6188   4.347   1.631  14.804  0.2569  0.1296 -0.0535
  411MPD2    C5 6189   4.425   1.718  14.876 -0.2002 -0.6855 -0.0837
  411MPD2     H 6190   4.164   1.842  14.631 -1.6173  0.7775  1.4065
  411MPD2    H1 6191   4.374   1.527  14.822 -0.7056  0.2128  1.8124
  411MPD2    H2 6192   4.487   1.914  14.921 -0.0523  0.1996 -0.0457
  411MPD2    H3 6193   4.516   1.680  14.922 -0.0755  1.2817  1.3338
  411MPD2     N 6194   4.179   1.593  14.623  0.1421 -0.4628 -0.1565
  411MPD2    H5 6195   4.110   1.642  14.567  1.3070  2.2076  0.7087
  411MPD2    N1 6196   4.285   2.045  14.765 -0.5934 -0.4262 -0.2059
  411MPD2    H7 6197   4.217   2.072  14.695 -0.8325 -3.1955 -1.0124
  412TMC3    C1 6198   4.086   1.409  14.537  0.1315 -0.1515  0.4890
  412TMC3    C2 6199   4.049   1.290  14.576  0.5321 -1.0616 -1.1653
  412TMC3    C3 6200   4.027   1.192  14.492 -0.1107  0.2375  0.4963
  412TMC3    C4 6201   4.122   1.431  14.405  0.2846  0.5572 -0.7303
  412TMC3    C5 6202   4.109   1.328  14.317  0.0209  0.3436 -0.4707
  412TMC3    C6 6203   4.061   1.209  14.361  1.0833 -0.4991  0.0120
  412TMC3     C 6204   4.176   1.458  14.633 -0.0907 -0.6897 -0.1383
  412TMC3     O 6205   4.225   1.377  14.710 -0.1706 -0.7137  0.0924
  412TMC3     H 6206   4.012   1.271  14.677 -0.0439  0.9908 -0.9908
  412TMC3    H1 6207   4.192   1.513  14.392 -0.0409  0.7961 -0.9850
  412TMC3    H2 6208   4.063   1.123  14.295 -0.1664 -1.0831  0.7491
  412TMC3    C7 6209   4.039   1.360  14.203  0.1887  0.0124  0.0010
  412TMC3    C8 6210   3.896   1.123  14.516  0.3070 -0.5416 -0.0018
  412TMC3    O1 6211   3.961   1.266  14.175  0.2476  0.6313  0.4043
  412TMC3    O2 6212   3.862   1.076  14.628  0.0236 -0.4234 -0.2786
  413MPD2     C 6213   1.309   0.904  15.538  0.2613 -1.0451 -0.1680
  413MPD2    C1 6214   1.255   0.870  15.414 -0.1563 -0.1403  0.1751
  413MPD2    C2 6215   1.318   0.789  15.322  0.3956 -0.4290  0.5927
  413MPD2    C3 6216   1.439   0.737  15.363  0.4147 -0.7413 -0.2784
  413MPD2    C4 6217   1.499   0.767  15.490  0.2575 -0.1559 -0.5999
  413MPD2    C5 6218   1.432   0.855  15.571 -0.0069  0.4203  0.2782
  413MPD2     H 6219   1.267   0.772  15.228  0.7125  1.3840  0.1052
  413MPD2    H1 6220   1.598   0.733  15.519 -1.1608 -3.2444  0.5680
  413MPD2    H2 6221   1.252   0.967  15.606  2.7698  1.0698 -0.0070
  413MPD2    H3 6222   1.486   0.885  15.661  0.9331  0.7615 -0.4001
  413MPD2     N 6223   1.501   0.651  15.264  0.2877 -0.1977 -0.0912
  413MPD2    H5 6224   1.446   0.633  15.180  1.7939 -2.3336 -0.6170
  413MPD2    N1 6225   1.124   0.911  15.400 -0.9762  0.1637 -0.0067
  413MPD2    H7 6226   1.086   0.957  15.482 -0.4865  1.1408 -0.3199
  414TMC3    C1 6227   1.625   0.476  15.179 -0.2758 -0.4555  0.2593
  414TMC3    C2 6228   1.683   0.363  15.229  0.4291  0.0839  0.0643
  414TMC3    C3 6229   1.641   0.245  15.176 -0.1476  0.6977 -0.3086
  414TMC3    C4 6230   1.535   0.473  15.074 -0.2245 -0.5430  0.9610
  414TMC3    C5 6231   1.518   0.354  15.006  0.1863 -0.0099  0.3060
  414TMC3    C6 6232   1.571   0.234  15.057 -0.9882  0.1893  0.0435
  414TMC3     C 6233   1.614   0.578  15.280 -0.4211 -1.1058  0.0346
  414TMC3     O 6234   1.696   0.578  15.369 -0.2830 -0.7034 -0.9196
  414TMC3     H 6235   1.717   0.364  15.332  3.6405 -1.1289 -0.9776
  414TMC3    H1 6236   1.490   0.563  15.033  0.3495 -0.2241  1.0291
  414TMC3    H2 6237   1.556   0.138  15.010  0.6358  0.8139 -1.7380
  414TMC3    C7 6238   1.497   0.366  14.864 -0.1313  0.0005  0.2556
  414TMC3    C8 6239   1.739   0.141  15.186 -0.3023  0.0844  0.1013
  414TMC3    O1 6240   1.400   0.427  14.832 -0.3177 -0.0117 -0.0437
  414TMC3    O2 6241   1.698   0.032  15.156 -0.0360 -0.2542 -0.1247
  415TMC3    C1 6242   1.622   3.008  10.055  0.1078  0.2842  0.0624
  415TMC3    C2 6243   1.758   3.009  10.074  0.3282 -0.2220  0.6508
  415TMC3    C3 6244   1.830   2.940   9.981  0.1157  0.3204  0.5816
  415TMC3    C4 6245   1.552   2.948   9.955 -0.1726  0.2166 -0.1441
  415TMC3    C5 6246   1.634   2.890   9.862  1.5371 -0.3462 -0.4248
  415TMC3    C6 6247   1.769   2.893   9.868  0.6098  0.4591 -0.3634
  415TMC3     C 6248   1.534   3.059  10.158  0.1210  0.1230  0.3237
  415TMC3     O 6249   1.418   3.021  10.166 -0.5878  0.1940 -0.2093
  415TMC3     H 6250   1.799   3.048  10.166 -1.0530  1.5754  0.5078
  415TMC3    H1 6251   1.445   2.950   9.941 -0.4044  2.5872  1.8941
  415TMC3    H2 6252   1.829   2.836   9.798 -1.3334 -1.1004 -0.7242
  415TMC3    C7 6253   1.585   2.839   9.735  0.6390 -0.1461 -0.2092
  415TMC3    C8 6254   1.972   2.918   9.995  0.2885  0.1329 -0.3567
  415TMC3    O1 6255   1.654   2.760   9.672 -0.1475  0.4208 -0.3415
  415TMC3    O2 6256   2.030   2.828   9.937 -0.5881 -0.1448  0.0603
  416MPD2     C 6257   3.727   1.416  11.490 -0.8380 -0.3524 -0.3504
  416MPD2    C1 6258   3.605   1.348  11.484 -0.1306 -0.0418 -0.5528
  416MPD2    C2 6259   3.590   1.255  11.381 -0.4799  0.5509 -0.1260
  416MPD2    C3 6260   3.684   1.241  11.281  0.4799  0.6360 -1.1282
  416MPD2    C4 6261   3.804   1.309  11.290 -0.1714 -0.1471 -0.2144
  416MPD2    C5 6262   3.820   1.399  11.389  0.5252  0.4705 -0.1825
  416MPD2     H 6263   3.494   1.204  11.376 -0.9703  1.5634 -0.9079
  416MPD2    H1 6264   3.887   1.280  11.226 -0.1128 -2.6964  1.0551
  416MPD2    H2 6265   3.746   1.485  11.571 -2.2285 -0.5527  0.1383
  416MPD2    H3 6266   3.920   1.433  11.412  1.3868  0.0534 -3.2579
  416MPD2     N 6267   3.665   1.145  11.188 -0.2124  0.5325 -0.5995
  416MPD2    H5 6268   3.577   1.096  11.194  0.0856 -0.1243 -1.6435
  416MPD2    N1 6269   3.499   1.385  11.577 -0.3796  0.5964 -0.5945
  416MPD2    H7 6270   3.515   1.466  11.635  0.4822 -0.4450  0.6127
  417TMC3    C1 6271   3.276   1.437  11.628 -0.0324 -0.4380  0.4476
  417TMC3    C2 6272   3.259   1.472  11.761 -0.2138 -0.2631  0.3802
  417TMC3    C3 6273   3.160   1.561  11.793  0.2441 -0.1507 -0.5456
  417TMC3    C4 6274   3.188   1.484  11.531 -0.7754  0.2809  0.4339
  417TMC3    C5 6275   3.086   1.570  11.567 -0.4545  0.1086 -0.5432
  417TMC3    C6 6276   3.073   1.606  11.695  0.7271  0.0179  0.6027
  417TMC3     C 6277   3.369   1.345  11.573 -0.0237 -0.0383 -0.0912
  417TMC3     O 6278   3.310   1.270  11.495 -0.0119  0.0473 -0.0023
  417TMC3     H 6279   3.327   1.445  11.841 -1.0061 -2.4604  0.3285
  417TMC3    H1 6280   3.211   1.463  11.427  2.9050  2.6170  0.7594
  417TMC3    H2 6281   3.012   1.689  11.732  0.7813  0.1564  0.3802
  417TMC3    C7 6282   3.026   1.643  11.457 -0.2990 -0.0800  0.5094
  417TMC3    C8 6283   3.139   1.599  11.939  0.3225  0.1267  0.3466
  417TMC3    O1 6284   3.053   1.609  11.348  0.5172 -0.4056 -0.2024
  417TMC3    O2 6285   3.083   1.709  11.964  0.0761  0.3820 -0.1943
  418TMC3    C1 6286   1.955   4.660  17.726 -0.5914  0.1925 -0.0998
  418TMC3    C2 6287   1.815   4.663  17.712  0.1363  0.3136 -0.2426
  418TMC3    C3 6288   1.737   4.575   0.040  0.1344  0.5904 -0.4197
  418TMC3    C4 6289   2.019   4.581   0.075  0.2488  0.3684 -0.9662
  418TMC3    C5 6290   1.931   4.503   0.152 -0.2128 -0.1852  0.1062
  418TMC3    C6 6291   1.798   4.496   0.136 -0.3070 -0.1886 -0.7037
  418TMC3     C 6292   2.025   4.735  17.632 -0.9468  0.1258 -0.1070
  418TMC3     O 6293   1.982   0.104  17.595 -0.2089  0.2121  0.1468
  418TMC3     H 6294   1.764   4.716  17.633  1.4545  0.5345 -0.9503
  418TMC3    H1 6295   2.124   4.599   0.095  0.5436 -2.1188 -0.3483
  418TMC3    H2 6296   1.745   4.421   0.194 -0.3833  0.7174  0.4073
  418TMC3    C7 6297   1.991   4.419   0.246  0.1209 -0.2736  0.2934
  418TMC3    C8 6298   1.598   4.559  17.737 -0.0293 -0.6907  0.2036
  418TMC3    O1 6299   1.952   4.303   0.261 -0.2829  0.6879  0.5131
  418TMC3    O2 6300   1.550   4.668  17.699  0.4857  0.1438 -0.2282
  419MPD2     C 6301   1.481   1.467  12.549 -0.0800  0.1415  0.5836
  419MPD2    C1 6302   1.358   1.513  12.508  0.5983  0.0352  0.4453
  419MPD2    C2 6303   1.273   1.564  12.610  0.3856  0.0561 -0.2626
  419MPD2    C3 6304   1.312   1.568  12.743  0.0608  0.1830  0.5469
  419MPD2    C4 6305   1.442   1.531  12.781  0.1012 -0.2628 -0.5263
  419MPD2    C5 6306   1.527   1.479  12.682 -0.4741  0.3366  0.2429
  419MPD2     H 6307   1.171   1.587  12.585 -0.0211 -0.4413  0.9226
  419MPD2    H1 6308   1.478   1.530  12.884 -3.7988 -0.2316  0.8381
  419MPD2    H2 6309   1.552   1.425  12.478  0.8563  3.5524 -0.4834
  419MPD2    H3 6310   1.625   1.441  12.709  0.0364  1.0832 -0.5652
  419MPD2     N 6311   1.216   1.612  12.833 -0.6154 -0.2941  0.7788
  419MPD2    H5 6312   1.132   1.649  12.790 -0.8559  0.7496  2.1165
  419MPD2    N1 6313   1.307   1.505  12.377 -0.9915  0.4775 -0.1675
  419MPD2    H7 6314   1.217   1.550  12.363  0.0692  1.8531 -2.5804
  420TMC3    C1 6315   1.127   1.710  13.028  0.1451 -0.1959 -0.7136
  420TMC3    C2 6316   0.998   1.672  12.981 -0.7059 -0.5588 -0.0898
  420TMC3    C3 6317   0.886   1.739  13.027  0.4518  0.1503 -0.0997
  420TMC3    C4 6318   1.148   1.786  13.140 -0.1181 -0.1711  0.1834
  420TMC3    C5 6319   1.026   1.841  13.184  0.1713  0.2606  0.2902
  420TMC3    C6 6320   0.899   1.822  13.136 -0.2703 -0.4133  0.5813
  420TMC3     C 6321   1.242   1.645  12.967 -0.1952  0.3180  0.0514
  420TMC3     O 6322   1.350   1.646  13.020 -0.6880  0.1964  0.0606
  420TMC3     H 6323   0.995   1.610  12.892  1.7742 -0.6416 -0.1264
  420TMC3    H1 6324   1.246   1.817  13.172  0.3286 -0.6037 -0.7451
  420TMC3    H2 6325   0.817   1.886  13.165 -1.5637 -1.2693 -1.1866
  420TMC3    C7 6326   1.023   1.902  13.318  0.8863  0.4423 -0.0846
  420TMC3    C8 6327   0.769   1.747  12.951  0.2564  0.8062 -0.4425
  420TMC3    O1 6328   0.909   1.925  13.359 -0.1097  0.3004 -0.4576
  420TMC3    O2 6329   0.694   1.847  12.962 -0.0199  0.0928  0.5637
  421TMC3    C1 6330   2.293   3.209  13.067 -0.4241  0.0592 -0.0307
  421TMC3    C2 6331   2.351   3.326  13.108  0.9001 -1.0915 -0.2991
  421TMC3    C3 6332   2.480   3.312  13.149  0.2307  1.1354  0.6248
  421TMC3    C4 6333   2.356   3.084  13.084  0.7907  0.1759  0.5003
  421TMC3    C5 6334   2.483   3.073  13.128 -0.3945 -0.0390 -0.5460
  421TMC3    C6 6335   2.546   3.191  13.147 -0.2505  0.1175  0.3438
  421TMC3     C 6336   2.150   3.210  13.078  0.4098  0.3834 -0.1169
  421TMC3     O 6337   2.098   3.266  13.172 -0.4596 -0.0882  0.0819
  421TMC3     H 6338   2.302   3.423  13.105  2.5111 -0.2170  1.3543
  421TMC3    H1 6339   2.305   2.989  13.078  0.9324  0.0967  0.5370
  421TMC3    H2 6340   2.645   3.188  13.192 -0.0538  1.6495  0.0139
  421TMC3    C7 6341   2.497   2.988  13.240 -0.5618 -1.1719  0.1426
  421TMC3    C8 6342   2.518   3.401  13.254  0.0464 -0.2640  0.5231
  421TMC3    O1 6343   2.516   3.053  13.340  0.2289  0.7004 -0.6159
  421TMC3    O2 6344   2.535   3.523  13.247 -0.0870 -0.2477 -0.1139
  422TMC3    C1 6345   0.242   0.216  12.751  0.5431 -0.1764 -0.1726
  422TMC3    C2 6346   0.224   0.349  12.800 -0.1542 -0.1383 -0.0710
  422TMC3    C3 6347   0.167   0.378  12.914  0.1770 -0.3704 -0.0564
  422TMC3    C4 6348   0.204   0.113  12.829  1.0196 -0.5531 -0.0027
  422TMC3    C5 6349   0.132   0.149  12.943  0.3408 -0.4761  0.4246
  422TMC3    C6 6350   0.122   0.277  12.992  0.1280 -0.3120  0.2363
  422TMC3     C 6351   0.240   0.209  12.601 -0.8365 -0.0117 -0.0703
  422TMC3     O 6352   0.282   0.311  12.546  0.1290  0.3489  0.4214
  422TMC3     H 6353   0.266   0.428  12.739 -0.0078  1.5360  2.1860
  422TMC3    H1 6354   0.216   0.010  12.796 -0.5440 -0.7775  0.1531
  422TMC3    H2 6355   0.061   0.299  13.080 -2.0471 -1.9990 -0.8469
  422TMC3    C7 6356   0.061   0.043  13.012  0.5411 -0.5223  0.3809
  422TMC3    C8 6357   0.139   0.515  12.955 -0.1628  0.5260  0.5724
  422TMC3    O1 6358   0.112   4.669  13.014 -0.1589 -0.0011  0.4716
  422TMC3    O2 6359   0.146   0.548  13.071 -0.2252 -0.1691 -0.6366
  423MPD2     C 6360   1.136   1.657   0.690 -0.0655 -0.9672  0.2231
  423MPD2    C1 6361   1.181   1.529   0.721  0.0142  0.1117 -0.0554
  423MPD2    C2 6362   1.193   1.439   0.623 -0.1332 -0.1970  0.0425
  423MPD2    C3 6363   1.187   1.485   0.488 -0.8375 -0.4317  0.7068
  423MPD2    C4 6364   1.153   1.608   0.461 -0.2527 -0.9138  0.2953
  423MPD2    C5 6365   1.117   1.692   0.559  0.1140  0.1323 -0.3808
  423MPD2     H 6366   1.220   1.336   0.644 -1.1391 -0.8182 -1.6932
  423MPD2    H1 6367   1.137   1.634   0.358  0.3777  1.2010  0.7271
  423MPD2    H2 6368   1.112   1.734   0.763  2.2551  0.1953 -0.2354
  423MPD2    H3 6369   1.085   1.793   0.534 -2.2431  0.0497  2.3979
  423MPD2     N 6370   1.201   1.400   0.377 -0.2364 -0.0280  0.4918
  423MPD2    H5 6371   1.183   1.449   0.290  0.5164 -1.2172 -0.3270
  423MPD2    N1 6372   1.210   1.482   0.850 -0.8659  0.5798  0.7350
  423MPD2    H7 6373   1.247   1.387   0.856 -1.2538  0.3407 -0.5286
  424TMC3    C1 6374   1.227   1.464   1.077 -1.0637 -0.3666 -0.5859
  424TMC3    C2 6375   1.325   1.369   1.068 -0.6783  0.2259  0.1951
  424TMC3    C3 6376   1.327   1.266   1.167  0.1428 -0.7215  0.1656
  424TMC3    C4 6377   1.129   1.456   1.180  0.0449 -0.6859  0.3637
  424TMC3    C5 6378   1.134   1.355   1.269  0.2616  0.4935  1.3790
  424TMC3    C6 6379   1.233   1.267   1.271  0.0276  0.2450  0.5368
  424TMC3     C 6380   1.185   1.546   0.970 -0.1788 -0.3587 -0.1677
  424TMC3     O 6381   1.104   1.633   0.995  0.3723 -0.1212 -0.1174
  424TMC3     H 6382   1.390   1.371   0.981 -0.0108  3.7907  0.7888
  424TMC3    H1 6383   1.049   1.529   1.184  1.6037  1.0456  0.1172
  424TMC3    H2 6384   1.239   1.191   1.348 -0.0340 -0.3526 -0.0444
  424TMC3    C7 6385   1.041   1.358   1.382 -0.5680 -0.3426  0.0445
  424TMC3    C8 6386   1.424   1.155   1.165 -0.6425  1.2080  0.5832
  424TMC3    O1 6387   1.079   1.305   1.491  0.5091  0.1908  0.1609
  424TMC3    O2 6388   1.427   1.076   1.257 -0.2109  0.3769  0.1207
  425MPD2     C 6389   0.011   0.722  17.379  0.7528  0.7911  0.2651
  425MPD2    C1 6390   4.693   0.642  17.290 -0.0448 -0.0191  0.2942
  425MPD2    C2 6391   4.557   0.619  17.298 -0.4280  0.0157  0.4755
  425MPD2    C3 6392   4.479   0.674  17.403  0.7200 -0.4175 -0.5946
  425MPD2    C4 6393   4.540   0.759  17.494 -0.4171  0.3583 -0.4772
  425MPD2    C5 6394   4.674   0.780  17.474 -0.2025 -0.0882 -0.9163
  425MPD2     H 6395   4.510   0.555  17.224  0.0467 -0.0178  0.1997
  425MPD2    H1 6396   4.489   0.822  17.566  3.0136  0.1425  2.1624
  425MPD2    H2 6397   0.116   0.743  17.365  0.6379 -0.5413 -2.5619
  425MPD2    H3 6398   4.730   0.845  17.539 -2.4852  1.9721 -0.9994
  425MPD2     N 6399   4.333   0.652  17.411  0.0121 -0.5754 -0.7397
  425MPD2    H5 6400   4.300   0.577  17.352  0.2845  0.2285 -1.9148
  425MPD2    N1 6401   0.046   0.588  17.191 -0.0621  0.5878  0.1093
  425MPD2    H7 6402   0.146   0.593  17.210  0.0121 -0.3532 -0.0338
  426TMC3    C1 6403   0.124   0.487  17.002  0.1835 -0.1200  0.0262
  426TMC3    C2 6404   0.118   0.502  16.870  0.0087  0.2745 -0.2260
  426TMC3    C3 6405   0.184   0.410  16.790 -0.6116 -0.1185 -0.0777
  426TMC3    C4 6406   0.195   0.386  17.063  0.4748 -0.9828  0.4747
  426TMC3    C5 6407   0.256   0.289  16.988 -0.3044  0.0666 -0.2443
  426TMC3    C6 6408   0.253   0.298  16.848 -0.0750  0.4812 -0.2243
  426TMC3     C 6409   0.008   0.532  17.073 -0.2258 -0.1649  0.0738
  426TMC3     O 6410   4.636   0.507  17.014 -0.0771 -0.1162 -0.6362
  426TMC3     H 6411   0.039   0.566  16.831  0.9967  1.2209 -0.6722
  426TMC3    H1 6412   0.189   0.389  17.171  1.9621  0.3754  0.5044
  426TMC3    H2 6413   0.306   0.221  16.794 -2.5286 -0.0794 -1.8371
  426TMC3    C7 6414   0.193   0.164  17.030 -0.2163  0.1278  0.5906
  426TMC3    C8 6415   0.115   0.357  16.676  0.3465  0.1108 -0.4830
  426TMC3    O1 6416   0.214   0.067  16.960  0.0365  0.4555 -0.1387
  426TMC3    O2 6417   0.097   0.238  16.662 -0.0448  0.1605 -0.0590
  427MPD2     C 6418   3.166   1.802  15.231 -0.7139 -1.3355 -0.5525
  427MPD2    C1 6419   3.162   1.909  15.322 -0.0909 -0.1256 -0.4573
  427MPD2    C2 6420   3.089   2.020  15.287  0.5725 -0.4421  0.4268
  427MPD2    C3 6421   3.019   2.029  15.163 -0.8338  1.4082 -0.4064
  427MPD2    C4 6422   3.040   1.925  15.077 -0.5473 -0.2057 -0.1187
  427MPD2    C5 6423   3.104   1.815  15.116 -0.1975 -0.4084 -0.3850
  427MPD2     H 6424   3.089   2.104  15.355 -1.2652  0.1030 -0.2293
  427MPD2    H1 6425   2.993   1.914  14.979  1.6665 -2.4919 -0.9137
  427MPD2    H2 6426   3.233   1.717  15.237 -1.1284 -1.7025 -1.1061
  427MPD2    H3 6427   3.126   1.732  15.050 -3.0493  0.1484 -2.0418
  427MPD2     N 6428   2.927   2.129  15.128 -1.1614 -0.4978  0.3293
  427MPD2    H5 6429   2.889   2.125  15.034  0.6942  0.8613 -0.4752
  427MPD2    N1 6430   3.238   1.906  15.440 -0.4776 -0.4187 -0.3839
  427MPD2    H7 6431   3.250   1.990  15.496  1.6096 -0.0535 -1.3819
  428TMC3    C1 6432   3.354   1.807  15.625  0.4788  0.2237 -0.3414
  428TMC3    C2 6433   3.368   1.696  15.705 -0.1650  0.4075  0.2978
  428TMC3    C3 6434   3.491   1.659  15.758 -1.1350 -0.4906  0.0445
  428TMC3    C4 6435   3.466   1.889  15.610 -0.0186  0.1503  0.2163
  428TMC3    C5 6436   3.582   1.854  15.670  0.2676  0.0302 -0.5707
  428TMC3    C6 6437   3.603   1.734  15.738  0.1341  0.0857  0.5571
  428TMC3     C 6438   3.261   1.786  15.508  0.0087 -0.2105  0.2936
  428TMC3     O 6439   3.243   1.670  15.478  0.2602 -0.0246  0.4232
  428TMC3     H 6440   3.278   1.636  15.712  0.2415 -0.4846 -1.8237
  428TMC3    H1 6441   3.465   1.980  15.552  1.0951 -0.6391 -1.0339
  428TMC3    H2 6442   3.704   1.709  15.771  0.8272  0.7122 -1.0840
  428TMC3    C7 6443   3.687   1.958  15.673  0.0356 -0.3837  0.1919
  428TMC3    C8 6444   3.496   1.521  15.791 -0.6396 -0.4379  0.4430
  428TMC3    O1 6445   3.650   2.071  15.707 -0.3931  0.2740  0.0807
  428TMC3    O2 6446   3.410   1.441  15.751  0.4496 -0.4482 -0.1448
  429MPD2     C 6447   4.462   2.876  17.704 -0.1020  0.7232 -0.2879
  429MPD2    C1 6448   4.505   2.774  17.619  0.0634 -0.0352  0.5968
  429MPD2    C2 6449   4.523   2.799  17.486  0.1749  0.3296 -0.0970
  429MPD2    C3 6450   4.502   2.923  17.433  0.3253  0.3772 -1.0549
  429MPD2    C4 6451   4.450   3.025  17.513  0.2989  0.9355  0.9309
  429MPD2    C5 6452   4.436   2.999  17.648 -0.3068  0.1827  0.0411
  429MPD2     H 6453   4.547   2.720  17.416  0.4903 -0.9369  1.4573
  429MPD2    H1 6454   4.425   3.125  17.480  1.0250  1.0017  0.5648
  429MPD2    H2 6455   4.452   2.870   0.067 -1.6374  2.6515 -0.3248
  429MPD2    H3 6456   4.402   3.072  17.720 -2.0500  0.3132 -0.9160
  429MPD2     N 6457   4.542   2.932  17.301 -0.4540  0.4653  0.3916
  429MPD2    H5 6458   4.559   2.845  17.251  0.6767  1.8277 -1.5956
  429MPD2    N1 6459   4.543   2.646  17.677  0.3286 -0.0319 -0.4871
  429MPD2    H7 6460   4.575   2.573  17.613 -1.6896 -0.8014 -0.6254
  430TMC3    C1 6461   4.598   3.047  17.097  1.2799 -0.0963 -0.4001
  430TMC3    C2 6462   4.614   3.174  17.039  0.3249 -0.1049 -0.0211
  430TMC3    C3 6463   4.656   3.173  16.908  0.1102 -0.0648  0.0652
  430TMC3    C4 6464   4.616   2.926  17.037 -0.5275 -0.4960 -0.3615
  430TMC3    C5 6465   4.655   2.930  16.910  0.1614 -0.8733  0.2006
  430TMC3    C6 6466   4.680   3.049  16.848 -0.1386  0.3952  0.0874
  430TMC3     C 6467   4.550   3.052  17.231  0.2441 -0.6009 -0.0236
  430TMC3     O 6468   4.515   3.166  17.265  0.0740  0.2233 -0.4282
  430TMC3     H 6469   4.587   3.269  17.084 -0.6352 -0.0136 -0.7821
  430TMC3    H1 6470   4.593   2.830  17.082 -1.1262  0.6730  1.8525
  430TMC3    H2 6471   4.720   3.043  16.748  0.2037 -2.6478  0.4239
  430TMC3    C7 6472   4.691   2.804  16.847  0.0743  0.0379 -0.4568
  430TMC3    C8 6473   4.585   3.275  16.824 -0.7035 -0.4293  0.4423
  430TMC3    O1 6474   4.715   2.714  16.932 -0.4650 -0.0065 -0.4326
  430TMC3    O2 6475   4.564   3.382  16.879 -0.4537  0.1516 -0.0737
  431MPD2     C 6476   0.828   1.879  12.490 -0.5712  0.3032  0.3734
  431MPD2    C1 6477   0.939   1.919  12.418 -0.0602 -0.2753 -0.1749
  431MPD2    C2 6478   0.981   1.854  12.308 -0.0073  0.0332  0.2755
  431MPD2    C3 6479   0.933   1.729  12.287 -0.1680  0.6409 -0.2435
  431MPD2    C4 6480   0.836   1.681  12.372  0.2726  0.3579  0.3084
  431MPD2    C5 6481   0.776   1.753  12.469 -1.1593 -0.0528  0.0869
  431MPD2     H 6482   1.064   1.891  12.250 -0.1778  2.1742  1.3591
  431MPD2    H1 6483   0.811   1.576  12.365  1.5855  0.0078  0.8491
  431MPD2    H2 6484   0.791   1.926  12.580  1.0450  0.8274  0.7686
  431MPD2    H3 6485   0.711   1.712  12.545 -0.7182 -0.2043  0.3825
  431MPD2     N 6486   0.980   1.636  12.194 -0.9427 -0.5614 -0.1026
  431MPD2    H5 6487   0.957   1.538  12.201 -0.9030 -0.4641  1.2932
  431MPD2    N1 6488   1.011   2.037  12.447  0.1316 -0.4393  0.1836
  431MPD2    H7 6489   1.096   2.061  12.398  0.3055 -0.6018  0.4109
  432TMC3    C1 6490   1.131   1.563  12.034 -0.3640  0.3666 -1.0834
  432TMC3    C2 6491   1.202   1.601  11.923  0.4819 -0.3232 -0.1452
  432TMC3    C3 6492   1.336   1.580  11.918 -0.2085 -0.2947 -0.0083
  432TMC3    C4 6493   1.181   1.491  12.138 -0.1796 -0.4698  0.4712
  432TMC3    C5 6494   1.320   1.484  12.136 -0.0505  0.7620 -0.1037
  432TMC3    C6 6495   1.392   1.511  12.024  0.3752 -0.0638 -0.2578
  432TMC3     C 6496   1.051   1.675  12.085  1.2468  0.6409  0.3259
  432TMC3     O 6497   1.065   1.785  12.034  0.7115  0.3046  0.3762
  432TMC3     H 6498   1.145   1.653  11.846 -2.5538  0.6186  2.7681
  432TMC3    H1 6499   1.125   1.464  12.227 -1.0174 -3.3459 -0.9339
  432TMC3    H2 6500   1.497   1.483  12.028  0.4144 -0.0556 -1.0769
  432TMC3    C7 6501   1.380   1.462  12.267 -0.5599  0.0043  0.4121
  432TMC3    C8 6502   1.421   1.628  11.808 -0.6628  0.7981 -0.2039
  432TMC3    O1 6503   1.497   1.435  12.269 -0.4896 -0.5226  0.3284
  432TMC3    O2 6504   1.365   1.643  11.701 -0.1728 -0.0141  0.3656
  433MPD2     C 6505   4.254   0.825  10.680 -0.0718 -0.1476  0.1004
  433MPD2    C1 6506   4.192   0.733  10.759  0.2499  0.2051 -0.2132
  433MPD2    C2 6507   4.222   0.716  10.893  0.6843  0.0578  0.2612
  433MPD2    C3 6508   4.307   0.807  10.955 -0.6391 -0.0359 -0.3120
  433MPD2    C4 6509   4.362   0.907  10.874  0.4441 -0.1200 -0.3864
  433MPD2    C5 6510   4.344   0.914  10.737 -0.2976 -0.0925  0.0422
  433MPD2     H 6511   4.179   0.639  10.956 -1.8164  3.7181  3.0196
  433MPD2    H1 6512   4.432   0.981  10.912  0.9882 -0.9215  0.1780
  433MPD2    H2 6513   4.246   0.820  10.572  1.6442 -3.2175  0.1353
  433MPD2    H3 6514   4.391   0.986  10.671 -1.7727 -0.2213 -1.1439
  433MPD2     N 6515   4.327   0.800  11.099  0.8418  0.0364  0.2977
  433MPD2    H5 6516   4.282   0.728  11.154  0.8488  1.4376  2.1649
  433MPD2    N1 6517   4.098   0.655  10.689  0.4045 -0.0163 -0.5278
  433MPD2    H7 6518   4.078   0.679  10.592 -0.5445 -0.6015 -0.4723
  434TMC3    C1 6519   3.960   0.489  10.636  0.1090  0.1006 -0.5613
  434TMC3    C2 6520   3.925   0.367  10.693 -0.2874  0.1623 -0.0786
  434TMC3    C3 6521   3.988   0.253  10.657 -0.0970 -0.1031 -0.0333
  434TMC3    C4 6522   4.015   0.477  10.510 -0.2688 -1.3458  0.3677
  434TMC3    C5 6523   4.065   0.356  10.464  0.1433 -0.2190 -0.0133
  434TMC3    C6 6524   4.064   0.244  10.545  0.4895  0.0589 -0.3939
  434TMC3     C 6525   4.041   0.540  10.734 -0.4459  0.0162  0.2257
  434TMC3     O 6526   4.044   0.492  10.845 -0.0021  0.2028  0.1089
  434TMC3     H 6527   3.864   0.364  10.783 -1.8718 -0.7728 -1.1908
  434TMC3    H1 6528   4.025   0.566  10.448  2.0797 -0.9612  1.2856
  434TMC3    H2 6529   4.106   0.150  10.512  2.4326  1.2018 -1.2249
  434TMC3    C7 6530   4.070   0.338  10.321  0.3026 -0.3690  0.6482
  434TMC3    C8 6531   4.044   0.159  10.756 -0.1611 -0.3803 -0.7088
  434TMC3    O1 6532   4.018   0.412  10.239  0.5780 -0.3703 -0.1250
  434TMC3    O2 6533   3.966   0.105  10.838  0.3372 -0.5224 -0.2753
  435MPD2     C 6534   1.715   1.601  15.436 -0.0960  0.2140  0.3377
  435MPD2    C1 6535   1.646   1.589  15.556 -0.4449  0.2370  0.2929
  435MPD2    C2 6536   1.719   1.526  15.651  0.4412 -0.4814 -0.0847
  435MPD2    C3 6537   1.841   1.451  15.625 -0.4863  0.3415 -0.5322
  435MPD2    C4 6538   1.877   1.434  15.494  0.8432 -0.7452 -0.0167
  435MPD2    C5 6539   1.818   1.517  15.404 -0.7675  0.3851 -0.2304
  435MPD2     H 6540   1.681   1.517  15.752  1.0484  0.9826  0.2808
  435MPD2    H1 6541   1.954   1.361  15.471  0.1500 -1.4542 -0.1021
  435MPD2    H2 6542   1.683   1.668  15.356  0.8879  1.7567  1.2336
  435MPD2    H3 6543   1.862   1.512  15.305  0.0492 -3.0872  0.3157
  435MPD2     N 6544   1.896   1.381  15.736  0.0680  0.4602  0.2874
  435MPD2    H5 6545   1.860   1.394  15.830  1.6222 -0.3145  1.0008
  435MPD2    N1 6546   1.538   1.671  15.599 -0.3655 -0.4704 -0.4113
  435MPD2    H7 6547   1.517   1.681  15.698  0.9865 -2.0404  0.0400
  436TMC3    C1 6548   1.314   1.875  15.799  0.1920  0.0008 -0.7803
  436TMC3    C2 6549   1.396   1.876  15.697  0.4438 -1.0560  0.5227
  436TMC3    C3 6550   1.365   1.815  15.581 -1.2910  0.2097  0.6057
  436TMC3    C4 6551   1.202   1.802  15.804 -0.5622  0.6572 -0.4228
  436TMC3    C5 6552   1.172   1.727  15.692  0.2725 -0.0588  0.2786
  436TMC3    C6 6553   1.254   1.728  15.584  0.0929 -0.1890  0.8719
  436TMC3     C 6554   1.356   1.938  15.920  0.2261 -0.1276  0.0917
  436TMC3     O 6555   1.469   1.991  15.921  0.0937  0.2337  0.9760
  436TMC3     H 6556   1.479   1.946  15.690 -0.4430  0.0345  0.8320
  436TMC3    H1 6557   1.124   1.802  15.879 -0.7848 -0.1632 -0.6580
  436TMC3    H2 6558   1.232   1.661  15.501 -2.0636  3.1982 -1.3071
  436TMC3    C7 6559   1.074   1.619  15.704 -0.7258  0.7234 -0.3545
  436TMC3    C8 6560   1.472   1.754  15.517 -0.0672 -0.3594  0.0517
  436TMC3    O1 6561   1.060   1.581  15.820 -0.1016  0.1586  0.4240
  436TMC3    O2 6562   1.462   1.746  15.393 -0.3703  0.1728  0.2308
  437TMC3    C1 6563   4.606   3.648  12.558 -0.4735 -0.0870 -0.0528
  437TMC3    C2 6564   4.709   3.639  12.461 -0.1504  0.0554 -0.1790
  437TMC3    C3 6565   0.068   3.542  12.478  1.2644 -0.0798 -0.1764
  437TMC3    C4 6566   4.604   3.564  12.669 -0.1094 -0.4879  0.2000
  437TMC3    C5 6567   4.708   3.478  12.684 -1.1029  0.2864 -0.2639
  437TMC3    C6 6568   0.069   3.469  12.587  0.0753 -0.2570 -0.0434
  437TMC3     C 6569   4.547   3.780  12.568 -0.1471 -0.0223 -0.2706
  437TMC3     O 6570   4.608   3.876  12.518  0.0862 -0.3764  0.5568
  437TMC3     H 6571   4.703   3.699  12.371 -1.0828 -1.2882 -1.0021
  437TMC3    H1 6572   4.523   3.570  12.741 -0.0028  0.6221  0.2227
  437TMC3    H2 6573   0.151   3.397  12.595  1.0025  0.6453 -1.5550
  437TMC3    C7 6574   4.696   3.377  12.789 -0.1297 -0.1522 -0.6945
  437TMC3    C8 6575   0.194   3.549  12.408 -0.3185  0.0415  0.2886
  437TMC3    O1 6576   4.596   3.374  12.854  0.8173 -0.5005  0.6942
  437TMC3    O2 6577   0.302   3.503  12.454 -0.7268  0.3508  0.0050
  438MPD2     C 6578   2.061   4.018  16.469 -0.7591  0.0001  0.9274
  438MPD2    C1 6579   2.156   3.941  16.540  0.4828  0.3208 -0.8217
  438MPD2    C2 6580   2.154   3.944  16.680  0.1293 -0.0009 -0.2982
  438MPD2    C3 6581   2.044   4.004  16.739 -0.1895  0.2766 -0.2949
  438MPD2    C4 6582   1.948   4.064  16.667 -0.0708  0.1798 -0.0033
  438MPD2    C5 6583   1.963   4.082  16.538  0.1715  0.3727  0.7186
  438MPD2     H 6584   2.232   3.889  16.731 -0.8665 -1.7876 -0.6837
  438MPD2    H1 6585   1.865   4.112  16.718 -0.6651 -0.5343 -0.2870
  438MPD2    H2 6586   2.065   4.037  16.362 -0.1080 -1.1991  0.7414
  438MPD2    H3 6587   1.883   4.133  16.487 -0.2399 -0.8160  0.1732
  438MPD2     N 6588   2.029   4.002  16.882 -0.7152 -0.2962  0.1226
  438MPD2    H5 6589   1.938   4.032  16.917  0.3226  5.1688 -1.9194
  438MPD2    N1 6590   2.265   3.873  16.479  0.3744 -0.1086  0.2664
  438MPD2    H7 6591   2.329   3.839  16.549 -1.8323 -2.2417  1.2469
  439TMC3    C1 6592   2.430   3.815  16.321  0.1325  0.2569 -0.6183
  439TMC3    C2 6593   2.439   3.742  16.204  0.1742 -0.0424  0.0613
  439TMC3    C3 6594   2.526   3.640  16.201  0.0576 -1.3703 -0.4727
  439TMC3    C4 6595   2.505   3.782  16.430 -0.4461 -0.4056 -0.2251
  439TMC3    C5 6596   2.587   3.678  16.421  1.0689 -0.0192 -0.1968
  439TMC3    C6 6597   2.609   3.606  16.308  0.0723 -0.1143  0.1529
  439TMC3     C 6598   2.302   3.875  16.347 -0.4827 -0.7269  0.3868
  439TMC3     O 6599   2.234   3.899  16.248  0.1930  0.0316  0.4622
  439TMC3     H 6600   2.358   3.752  16.133  0.0348  1.4318  0.4178
  439TMC3    H1 6601   2.511   3.850  16.514 -1.3586 -0.8888  0.2288
  439TMC3    H2 6602   2.688   3.533  16.297  2.2027  2.6376 -2.6004
  439TMC3    C7 6603   2.685   3.646  16.520 -0.3098 -0.4773 -0.3386
  439TMC3    C8 6604   2.559   3.566  16.083 -0.8442 -0.0485  0.3481
  439TMC3    O1 6605   2.783   3.581  16.485 -0.0520  0.1612  0.9894
  439TMC3    O2 6606   2.655   3.495  16.090 -0.0955  0.2383  0.3154
  440MPD2     C 6607   1.434   4.499  14.522 -0.0041 -0.1118 -0.0335
  440MPD2    C1 6608   1.479   4.523  14.649 -0.5411  0.3703  0.0360
  440MPD2    C2 6609   1.593   4.459  14.690 -0.4445  0.1375  0.6065
  440MPD2    C3 6610   1.659   4.369  14.607 -0.7505 -0.0521 -0.5036
  440MPD2    C4 6611   1.609   4.346  14.481 -0.0542  0.5655 -0.4891
  440MPD2    C5 6612   1.504   4.415  14.436  0.3302 -0.0305 -0.2741
  440MPD2     H 6613   1.629   4.471  14.791 -1.1842 -4.4559  1.4180
  440MPD2    H1 6614   1.654   4.270  14.418 -0.8964 -0.9178  0.7024
  440MPD2    H2 6615   1.340   4.533  14.480  0.8796  1.7798 -0.5207
  440MPD2    H3 6616   1.449   4.378  14.350  1.7328 -3.3703  0.2554
  440MPD2     N 6617   1.790   4.320  14.637  0.6337 -0.3331 -0.3284
  440MPD2    H5 6618   1.822   4.237  14.588 -1.0303 -0.2554 -1.5281
  440MPD2    N1 6619   1.409   4.608  14.740 -0.3136 -0.8004  0.1813
  440MPD2    H7 6620   1.441   4.619  14.836 -1.9154 -2.6871  0.9157
  441TMC3    C1 6621   1.979   4.277  14.780 -0.1994 -0.8605 -0.2902
  441TMC3    C2 6622   2.091   4.349  14.809 -0.1082  0.2046  0.2069
  441TMC3    C3 6623   2.157   4.315  14.926 -0.7150 -0.4989  0.0398
  441TMC3    C4 6624   1.951   4.152  14.830  0.2111 -0.7416 -0.3094
  441TMC3    C5 6625   2.035   4.114  14.934  0.4163 -0.0499  0.4524
  441TMC3    C6 6626   2.124   4.197  14.989  0.2355  0.3436  0.5218
  441TMC3     C 6627   1.869   4.366  14.736  0.4663 -0.1255 -0.6583
  441TMC3     O 6628   1.865   4.476  14.796 -0.3283  0.2700  0.2320
  441TMC3     H 6629   2.127   4.441  14.765  0.3485  0.4366  1.0542
  441TMC3    H1 6630   1.868   4.087  14.804  0.4212 -1.8902  1.8772
  441TMC3    H2 6631   2.158   4.174  15.089  0.4824  1.0159  0.5889
  441TMC3    C7 6632   1.994   3.997  15.005 -0.4452 -0.1079  0.1573
  441TMC3    C8 6633   2.186   4.427  15.017 -0.5280  0.0073 -0.1023
  441TMC3    O1 6634   1.979   3.885  14.947 -0.1068  0.0463  0.3480
  441TMC3    O2 6635   2.285   4.403  15.081  0.3840  1.0475 -0.3103
  442MPD2     C 6636   4.210   0.081  16.401  0.3498  0.1999  0.1299
  442MPD2    C1 6637   4.135   4.715  16.463 -0.1901 -0.0113 -0.0086
  442MPD2    C2 6638   4.114   4.593  16.400  0.1415  0.3391  0.6650
  442MPD2    C3 6639   4.154   4.567  16.274  0.7407  0.0700  0.4739
  442MPD2    C4 6640   4.217   4.673  16.210  0.0711 -0.0018 -0.5080
  442MPD2    C5 6641   4.246   0.060  16.269 -0.2592  0.3461 -0.4221
  442MPD2     H 6642   4.065   4.514  16.456 -0.0362  2.0080  2.8627
  442MPD2    H1 6643   4.241   4.669  16.105 -0.2235  1.6020 -0.6291
  442MPD2    H2 6644   4.226   0.182  16.436 -0.9468 -0.5544  2.8715
  442MPD2    H3 6645   4.303   0.142  16.226 -0.9083  1.7032  1.2900
  442MPD2     N 6646   4.130   4.450  16.195  0.2514  0.7311  0.5373
  442MPD2    H5 6647   4.136   4.463  16.095  0.7718 -3.4908  0.0287
  442MPD2    N1 6648   4.063   0.005  16.582 -0.1758  0.4474  0.3385
  442MPD2    H7 6649   3.996   4.668  16.605  2.4065 -2.2846 -0.8347
  443TMC3    C1 6650   3.967   0.137  16.757  0.8510 -0.2594  0.5377
  443TMC3    C2 6651   3.919   0.259  16.786  0.3441 -0.7291 -0.2257
  443TMC3    C3 6652   3.815   0.256  16.873  0.2275  0.5134  1.1558
  443TMC3    C4 6653   3.929   0.019  16.814  0.0808  0.0250 -0.5111
  443TMC3    C5 6654   3.835   0.026  16.912 -0.8322  0.0982 -0.0160
  443TMC3    C6 6655   3.773   0.148  16.938 -0.3099  0.3103 -0.3227
  443TMC3     C 6656   4.073   0.118  16.659  0.0032  0.1144  0.1701
  443TMC3     O 6657   4.163   0.202  16.656 -0.1360  0.2487  0.4793
  443TMC3     H 6658   3.946   0.351  16.736 -1.1169 -0.2903 -0.1955
  443TMC3    H1 6659   3.979   4.662  16.793 -1.2575 -0.6403 -0.7809
  443TMC3    H2 6660   3.687   0.151  17.004 -0.6916 -0.0863 -0.8005
  443TMC3    C7 6661   3.791   4.634  16.964 -0.0168 -0.2786  0.0989
  443TMC3    C8 6662   3.754   0.383  16.915  0.0467 -0.5673  0.2764
  443TMC3    O1 6663   3.804   4.531  16.901  0.3209  0.0670 -0.4259
  443TMC3    O2 6664   3.747   0.407  17.035 -0.0597  0.0075  0.4029
  444MPD2     C 6665   4.401   4.538  16.758 -0.0217 -0.2347  0.4844
  444MPD2    C1 6666   4.355   4.406  16.764  0.7958  0.3292 -1.0622
  444MPD2    C2 6667   4.422   4.309  16.690  0.3524  0.7948 -0.3564
  444MPD2    C3 6668   4.547   4.339  16.630  0.1792  0.0164  0.1667
  444MPD2    C4 6669   4.591   4.469  16.624  0.4210 -0.3857  0.0582
  444MPD2    C5 6670   4.513   4.565  16.683  0.1728  0.3855  0.1483
  444MPD2     H 6671   4.380   4.210  16.676  2.0364  0.0832 -0.4617
  444MPD2    H1 6672   4.667   4.504  16.555  0.5400 -1.7185 -0.4901
  444MPD2    H2 6673   4.333   4.613  16.798 -0.9047 -0.7102 -0.1327
  444MPD2    H3 6674   4.545   4.668  16.668 -2.3007  1.6152  3.4451
  444MPD2     N 6675   4.621   4.232  16.572  0.0628 -0.1113 -0.2914
  444MPD2    H5 6676   4.569   4.145  16.575  0.3293 -0.2850 -0.8977
  444MPD2    N1 6677   4.242   4.368  16.842  0.0513 -0.2497  0.7424
  444MPD2    H7 6678   4.214   4.270  16.848  0.3306 -0.3882 -0.2898
  445TMC3    C1 6679   0.049   4.117  16.459 -0.1602  0.2630  0.4486
  445TMC3    C2 6680   4.678   4.049  16.404 -0.0704  0.1209 -0.3318
  445TMC3    C3 6681   4.701   3.916  16.379 -0.3190  0.2447 -0.2402
  445TMC3    C4 6682   0.169   4.063  16.491  1.0839 -0.0050  0.1488
  445TMC3    C5 6683   0.189   3.931  16.457  0.0738 -0.3834 -0.2958
  445TMC3    C6 6684   0.092   3.857  16.395  0.5335  0.5217 -0.1299
  445TMC3     C 6685   0.009   4.248  16.511 -0.3233  0.2907 -0.2111
  445TMC3     O 6686   0.088   4.339  16.512  0.5792 -0.0051 -0.5305
  445TMC3     H 6687   4.586   4.096  16.371  0.9266  3.0335  1.0976
  445TMC3    H1 6688   0.244   4.119  16.545  1.8392 -1.5182  0.6563
  445TMC3    H2 6689   0.107   3.754  16.366  0.7070  0.6724 -0.5900
  445TMC3    C7 6690   0.319   3.876  16.464  0.4585  0.1840  0.6913
  445TMC3    C8 6691   4.585   3.843  16.334 -0.5520 -0.0021 -0.1249
  445TMC3    O1 6692   0.377   3.896  16.571 -0.0167 -0.2619 -0.6848
  445TMC3    O2 6693   4.477   3.890  16.372 -0.3818 -0.0426  0.1467
  446MPD2     C 6694   3.932   0.286  11.302 -0.2968 -0.2960 -0.3398
  446MPD2    C1 6695   3.922   0.263  11.171  0.4495 -0.1856 -0.6964
  446MPD2    C2 6696   4.026   0.306  11.089  0.4027 -0.5334 -0.0430
  446MPD2    C3 6697   4.145   0.365  11.137 -0.3436 -0.3770  0.3688
  446MPD2    C4 6698   4.156   0.387  11.273 -0.4710 -0.0723 -0.0218
  446MPD2    C5 6699   4.051   0.349  11.352 -0.2285 -0.5294 -0.0229
  446MPD2     H 6700   4.018   0.267  10.988  0.0663 -1.2824  0.2677
  446MPD2    H1 6701   4.239   0.440  11.318 -1.5086  0.8369  0.8147
  446MPD2    H2 6702   3.860   0.278  11.382 -0.2385  1.0038 -0.1484
  446MPD2    H3 6703   4.051   0.365  11.460 -0.3027 -2.8919  0.3296
  446MPD2     N 6704   4.254   0.396  11.047 -0.0475  0.3697  0.0866
  446MPD2    H5 6705   4.228   0.380  10.950 -2.8612 -1.6018  1.1622
  446MPD2    N1 6706   3.829   0.172  11.112  0.4665  0.3345  0.2949
  446MPD2    H7 6707   3.829   0.156  11.012  0.1012 -0.4192  0.4128
  447TMC3    C1 6708   4.454   0.487  10.957  0.4244 -0.4695  0.5073
  447TMC3    C2 6709   4.412   0.464  10.824 -0.0880  0.1976 -0.4644
  447TMC3    C3 6710   4.497   0.504  10.723 -0.1285 -0.7132 -0.2453
  447TMC3    C4 6711   4.568   0.559  10.984  0.6836  0.1245  0.1147
  447TMC3    C5 6712   4.648   0.593  10.872 -0.1063 -0.4424  0.6051
  447TMC3    C6 6713   4.615   0.565  10.743 -0.6845 -0.5852  0.3277
  447TMC3     C 6714   4.379   0.438  11.075  0.5047 -0.9423 -0.4967
  447TMC3     O 6715   4.426   0.465  11.186 -0.1576  0.0116 -0.1375
  447TMC3     H 6716   4.324   0.405  10.800  0.8251 -1.4934  0.4169
  447TMC3    H1 6717   4.598   0.579  11.086 -0.0702  2.5209 -0.1320
  447TMC3    H2 6718   4.678   0.577  10.656 -0.2987 -0.5136  0.6163
  447TMC3    C7 6719   0.056   0.624  10.895 -0.1936 -0.4219 -0.0553
  447TMC3    C8 6720   4.438   0.509  10.594  0.1315  0.3430  0.5183
  447TMC3    O1 6721   0.113   0.677  10.802 -0.0537  0.1173 -0.0801
  447TMC3    O2 6722   4.368   0.414  10.559 -0.3737 -0.2900 -0.4009
  448TMC3    C1 6723   2.857   0.665  16.680 -0.2713 -0.6400  0.1564
  448TMC3    C2 6724   2.723   0.619  16.655  0.3381  0.4798  0.3139
  448TMC3    C3 6725   2.668   0.533  16.738 -0.6904 -0.7966 -0.6457
  448TMC3    C4 6726   2.931   0.619  16.783 -0.5867 -0.2009  0.3572
  448TMC3    C5 6727   2.871   0.534  16.865  0.2744  0.0780  0.3381
  448TMC3    C6 6728   2.742   0.494  16.851  0.6059  0.7736 -0.1812
  448TMC3     C 6729   2.912   0.770  16.603  1.1898  0.1109  0.9217
  448TMC3     O 6730   2.857   0.793  16.497  0.0674  0.2736 -0.6073
  448TMC3     H 6731   2.669   0.655  16.568  1.4773  0.0704 -0.5609
  448TMC3    H1 6732   3.035   0.647  16.792 -0.7804  1.3166 -2.0014
  448TMC3    H2 6733   2.693   0.417  16.909  2.6021 -0.5760 -0.3045
  448TMC3    C7 6734   2.951   0.464  16.967 -0.8819  0.1079 -0.2737
  448TMC3    C8 6735   2.574   0.427  16.688  0.3712 -0.4256  0.0463
  448TMC3    O1 6736   3.067   0.500  16.977 -0.4597  0.1657 -0.1640
  448TMC3    O2 6737   2.564   0.320  16.749 -0.4343  0.2445  0.5332
  449MPD2     C 6738   3.754   3.517  13.653  0.8996  0.7274 -0.5525
  449MPD2    C1 6739   3.658   3.539  13.552 -0.2967  0.0268  0.1350
  449MPD2    C2 6740   3.542   3.465  13.553 -0.1881 -0.5597 -0.8579
  449MPD2    C3 6741   3.520   3.360  13.641  0.3359 -0.6934  0.5240
  449MPD2    C4 6742   3.609   3.354  13.750  1.0339  0.0802 -0.4877
  449MPD2    C5 6743   3.728   3.427  13.751  0.2748 -0.4197  0.3231
  449MPD2     H 6744   3.459   3.491  13.489  0.1123 -1.3969 -1.5879
  449MPD2    H1 6745   3.600   3.274  13.823 -1.7354  1.9936  1.2237
  449MPD2    H2 6746   3.835   3.588  13.664  0.5968  0.7354  1.6085
  449MPD2    H3 6747   3.797   3.421  13.835 -0.2454 -0.5257  0.7390
  449MPD2     N 6748   3.424   3.266  13.612 -0.1751  0.0605 -0.6636
  449MPD2    H5 6749   3.361   3.294  13.538 -1.8515 -0.0779  0.7284
  449MPD2    N1 6750   3.663   3.650  13.467 -0.0123  0.5913 -0.4057
  449MPD2    H7 6751   3.580   3.678  13.415 -1.3875 -0.1958  1.3594
  450TMC3    C1 6752   3.746   3.808  13.328 -0.0761 -0.4118 -0.5615
  450TMC3    C2 6753   3.827   3.777  13.225 -0.9773 -0.5583  0.4851
  450TMC3    C3 6754   3.780   3.782  13.098 -0.6396 -0.2179 -0.9456
  450TMC3    C4 6755   3.611   3.830  13.306 -0.1051 -0.3958  0.4678
  450TMC3    C5 6756   3.559   3.817  13.179  0.2400 -0.1506  1.0404
  450TMC3    C6 6757   3.648   3.801  13.081  0.4503  0.4928 -0.1729
  450TMC3     C 6758   3.771   3.729  13.446  0.0586 -0.5749  0.1539
  450TMC3     O 6759   3.888   3.707  13.475 -0.0975 -0.0029 -0.1382
  450TMC3     H 6760   3.933   3.760  13.240 -0.9861 -2.6504 -1.7680
  450TMC3    H1 6761   3.545   3.838  13.391 -1.0870 -1.4915 -0.1985
  450TMC3    H2 6762   3.607   3.801  12.980 -1.7465  4.3537  0.7071
  450TMC3    C7 6763   3.431   3.751  13.184 -0.6909 -0.2526 -0.1054
  450TMC3    C8 6764   3.855   3.708  12.999 -0.1028  0.1597 -0.1182
  450TMC3    O1 6765   3.392   3.707  13.293  0.9186 -0.1064 -0.3724
  450TMC3    O2 6766   3.798   3.646  12.910  0.8913 -0.5070 -0.0867
  451MPD2     C 6767   0.145   2.305   0.745  0.4837 -0.6064 -0.0900
  451MPD2    C1 6768   0.180   2.429   0.695 -0.6893  0.5643 -0.1399
  451MPD2    C2 6769   0.274   2.426   0.596  0.5212  0.2933  1.0136
  451MPD2    C3 6770   0.338   2.314   0.553  0.0882 -0.2060 -0.1309
  451MPD2    C4 6771   0.306   2.190   0.609 -0.4330  0.5678 -0.4538
  451MPD2    C5 6772   0.210   2.186   0.703  0.0689 -0.4988  0.0856
  451MPD2     H 6773   0.285   2.517   0.538  1.8541 -0.2199  0.4562
  451MPD2    H1 6774   0.351   2.099   0.569 -1.5504  0.9617 -2.5924
  451MPD2    H2 6775   0.056   2.297   0.806  1.2874  0.0554  1.1932
  451MPD2    H3 6776   0.175   2.089   0.737 -1.5612  0.5080  1.3101
  451MPD2     N 6777   0.444   2.321   0.455  0.1800  0.1465 -0.6614
  451MPD2    H5 6778   0.480   2.231   0.423  0.4984 -0.6428  1.9139
  451MPD2    N1 6779   0.116   2.543   0.740 -0.3955  0.6902 -0.1851
  451MPD2    H7 6780   0.037   2.537   0.803 -0.2075  2.2993  0.2141
  452TMC3    C1 6781   0.585   2.410   0.275  0.5315  0.6806  0.8388
  452TMC3    C2 6782   0.646   2.286   0.255 -0.0503  0.6492  0.0028
  452TMC3    C3 6783   0.728   2.268   0.150  0.1614 -0.1576  0.6611
  452TMC3    C4 6784   0.620   2.518   0.207 -0.7249  0.1518  0.4057
  452TMC3    C5 6785   0.700   2.492   0.100 -0.1121  0.6215 -1.2461
  452TMC3    C6 6786   0.749   2.369   0.061  0.8580  0.4578  0.1682
  452TMC3     C 6787   0.489   2.438   0.389  0.2539 -0.2236  0.0974
  452TMC3     O 6788   0.469   2.554   0.415 -0.8719 -0.5018 -0.2467
  452TMC3     H 6789   0.619   2.199   0.314  0.4572  2.5915  3.0913
  452TMC3    H1 6790   0.561   2.609   0.205 -0.2353  0.4336 -1.0295
  452TMC3    H2 6791   0.812   2.351  17.720 -2.9747 -0.0381 -2.5131
  452TMC3    C7 6792   0.692   2.597  17.739  0.5666 -0.3973 -0.1966
  452TMC3    C8 6793   0.749   2.131   0.110 -0.6165  0.8151 -0.4481
  452TMC3    O1 6794   0.670   2.554  17.624  0.6964  0.3623 -0.1088
  452TMC3    O2 6795   0.724   2.047   0.198  0.4739 -0.6209 -0.5547
  453TMC3    C1 6796   1.571   3.951  12.338  0.4311 -0.9778 -0.4419
  453TMC3    C2 6797   1.502   3.831  12.338 -0.6576 -0.5771  0.3620
  453TMC3    C3 6798   1.398   3.816  12.249 -0.2663  0.4519  0.2193
  453TMC3    C4 6799   1.526   4.055  12.259 -0.1660  0.5188  0.3090
  453TMC3    C5 6800   1.411   4.039  12.183 -0.0177 -0.8531 -0.6220
  453TMC3    C6 6801   1.348   3.919  12.172  0.0815 -0.6866  0.3267
  453TMC3     C 6802   1.717   3.950  12.349 -0.6242  0.2696 -0.0172
  453TMC3     O 6803   1.775   4.049  12.308  0.2462 -0.0295  0.0125
  453TMC3     H 6804   1.530   3.740  12.391 -0.6501 -0.6608  0.2151
  453TMC3    H1 6805   1.563   4.155  12.279 -0.4142  0.0149  3.3123
  453TMC3    H2 6806   1.260   3.901  12.112 -1.2776  1.5649  1.6181
  453TMC3    C7 6807   1.379   4.138  12.081  0.1308 -0.0638 -0.9014
  453TMC3    C8 6808   1.349   3.687  12.241 -0.4326 -0.1232 -0.0281
  453TMC3    O1 6809   1.398   4.259  12.103 -0.3556  0.1407  0.1669
  453TMC3    O2 6810   1.423   3.591  12.234  0.5094 -0.5513 -0.3314
  454MPD2     C 6811   0.461   4.368  15.943 -0.4497 -0.3740  0.2758
  454MPD2    C1 6812   0.372   4.365  15.841 -0.5468 -0.4616 -0.0141
  454MPD2    C2 6813   0.259   4.444  15.838 -0.4386 -0.1269  0.2831
  454MPD2    C3 6814   0.229   4.529  15.945 -0.1447  0.1311  0.2968
  454MPD2    C4 6815   0.334   4.541  16.036 -0.2707  0.1802  0.5883
  454MPD2    C5 6816   0.438   4.459  16.040 -0.7383  0.7264  0.2635
  454MPD2     H 6817   0.182   4.420  15.766 -1.2262 -0.1549  1.1362
  454MPD2    H1 6818   0.330   4.612  16.118 -1.4114  1.9640 -0.9984
  454MPD2    H2 6819   0.551   4.310  15.958  1.6909  2.7292 -0.7968
  454MPD2    H3 6820   0.512   4.472  16.118 -0.8285 -1.4493  0.7189
  454MPD2     N 6821   0.111   4.596  15.965  0.3127 -0.0835 -0.2237
  454MPD2    H5 6822   0.101   4.649  16.051 -2.3576  0.1688 -0.6998
  454MPD2    N1 6823   0.378   4.270  15.740 -0.0974  0.0349 -0.5832
  454MPD2    H7 6824   0.308   4.279  15.667 -1.0366 -1.9115  0.0831
  455TMC3    C1 6825   4.621   4.614  15.956  0.4097 -0.9304  0.2668
  455TMC3    C2 6826   4.624   4.720  16.049  0.1798  0.6803  0.5999
  455TMC3    C3 6827   4.589   4.694  16.177  1.0072  0.5683  0.0746
  455TMC3    C4 6828   4.568   4.495  15.984 -0.4499  0.0140 -0.4569
  455TMC3    C5 6829   4.535   4.479  16.114  0.1510  0.0013 -0.2029
  455TMC3    C6 6830   4.548   4.574  16.211 -0.0501 -0.2413  0.3645
  455TMC3     C 6831   0.001   4.593  15.876 -0.3241  0.5213 -0.1003
  455TMC3     O 6832   4.717   4.549  15.764 -0.1370  0.1309 -0.1549
  455TMC3     H 6833   4.670   0.073  16.007  3.1286 -0.6150  1.0619
  455TMC3    H1 6834   4.599   4.411  15.923  1.0348 -0.9176  1.6066
  455TMC3    H2 6835   4.536   4.553  16.316  1.7341  0.2161  0.6640
  455TMC3    C7 6836   4.570   4.340  16.162  0.1752  0.4989  0.0657
  455TMC3    C8 6837   4.629   0.054  16.274  0.2078  0.4283  0.0294
  455TMC3    O1 6838   4.485   4.274  16.221  0.2867  0.2445 -0.0571
  455TMC3    O2 6839   4.633   0.015  16.390 -0.1113 -0.3525  0.0831
  456MPD2     C 6840   2.540   3.986  15.851  0.3116  0.0871  0.3935
  456MPD2    C1 6841   2.626   3.957  15.959  0.2057  0.0594  0.3195
  456MPD2    C2 6842   2.592   4.019  16.080 -0.5147 -0.1677 -1.2143
  456MPD2    C3 6843   2.485   4.102  16.100 -0.0298 -0.1056  0.3262
  456MPD2    C4 6844   2.402   4.120  15.994 -0.2852  0.4637 -0.1299
  456MPD2    C5 6845   2.432   4.065  15.873 -0.0399  0.5748  1.3487
  456MPD2     H 6846   2.654   3.996  16.166  0.8387  0.8019 -1.9421
  456MPD2    H1 6847   2.316   4.187  15.992 -0.0904  0.7139 -0.0258
  456MPD2    H2 6848   2.538   3.936  15.755 -2.7483  0.5659  0.2115
  456MPD2    H3 6849   2.361   4.088  15.795 -2.0737 -0.1740  3.0023
  456MPD2     N 6850   2.469   4.173  16.223  0.0046  0.0493  0.1225
  456MPD2    H5 6851   2.530   4.155  16.303 -0.4479  0.7002  0.6165
  456MPD2    N1 6852   2.741   3.877  15.933  0.3901  0.6246  0.4349
  456MPD2    H7 6853   2.755   3.849  15.836 -0.1992 -0.0482  0.5405
  457TMC3    C1 6854   2.394   4.349  16.364  0.1697 -0.4099 -0.3124
  457TMC3    C2 6855   2.415   4.487  16.356  1.3451 -0.0347  0.0856
  457TMC3    C3 6856   2.430   4.552  16.477 -0.0862  0.0571  0.8442
  457TMC3    C4 6857   2.377   4.282  16.482  0.5432 -0.1722  0.5947
  457TMC3    C5 6858   2.385   4.363  16.597  0.1993 -0.0585 -0.1103
  457TMC3    C6 6859   2.416   4.491  16.600 -0.1414  0.0130 -0.1701
  457TMC3     C 6860   2.368   4.270  16.245 -0.0485 -0.2705  0.8030
  457TMC3     O 6861   2.315   4.329  16.151  0.1256 -0.4645  0.4257
  457TMC3     H 6862   2.440   4.533  16.261 -1.7552 -1.3162 -1.3610
  457TMC3    H1 6863   2.326   4.187  16.488 -1.6606  0.8420 -2.1880
  457TMC3    H2 6864   2.453   4.537  16.691 -1.3121 -1.7642  1.1836
  457TMC3    C7 6865   2.352   4.297  16.724  0.3593  0.2099  0.3593
  457TMC3    C8 6866   2.481   4.690  16.481  0.3852 -0.9697  0.0999
  457TMC3    O1 6867   2.376   4.179  16.735 -0.1754 -0.1512 -0.2659
  457TMC3    O2 6868   2.566   4.713  16.566  0.2731 -0.1218 -0.2589
  458MPD2     C 6869   0.173   3.001  13.057  0.5533  0.4209  0.3000
  458MPD2    C1 6870   0.266   3.047  12.967 -0.5501  0.5306  0.1951
  458MPD2    C2 6871   0.232   3.158  12.890 -1.2701 -0.0485  0.4348
  458MPD2    C3 6872   0.103   3.202  12.893 -0.0736 -0.5435 -0.6991
  458MPD2    C4 6873   0.012   3.156  12.978  0.2287 -0.5633  0.2616
  458MPD2    C5 6874   0.051   3.057  13.063  0.4526 -0.7898 -0.1021
  458MPD2     H 6875   0.303   3.208  12.825 -2.5786 -2.9660 -3.2524
  458MPD2    H1 6876   4.644   3.180  12.991  0.7239  1.4801  0.5071
  458MPD2    H2 6877   0.190   2.918  13.125  2.1307  0.7927  0.3543
  458MPD2    H3 6878   4.717   3.018  13.135 -0.9639  1.2191 -0.4013
  458MPD2     N 6879   0.076   3.310  12.805  0.6831  0.6751 -0.5164
  458MPD2    H5 6880   0.149   3.341  12.742  1.6107  1.4098  0.9159
  458MPD2    N1 6881   0.399   2.997  12.967  0.3903 -0.6705 -0.4113
  458MPD2    H7 6882   0.422   2.930  13.040  2.5368 -0.4810 -0.9210
  459TMC3    C1 6883   0.632   2.979  12.922 -0.4674 -0.0388 -0.8797
  459TMC3    C2 6884   0.732   2.990  12.828 -0.4061 -0.1491 -0.1674
  459TMC3    C3 6885   0.858   2.947  12.857 -0.2726  0.1271  0.5568
  459TMC3    C4 6886   0.653   2.928  13.043  0.7791 -0.1422  0.1634
  459TMC3    C5 6887   0.785   2.886  13.067  0.5009 -0.7376 -0.8481
  459TMC3    C6 6888   0.886   2.891  12.974 -0.4845 -0.5322  0.8637
  459TMC3     C 6889   0.503   3.036  12.883  0.0035 -0.1489 -0.5274
  459TMC3     O 6890   0.496   3.105  12.782  0.7058 -0.2306  0.5328
  459TMC3     H 6891   0.713   3.038  12.732  0.5482  1.7818  0.6119
  459TMC3    H1 6892   0.583   2.949  13.124  1.0223  0.2486  0.2752
  459TMC3    H2 6893   0.991   2.884  13.002 -1.2449  0.9651  4.0936
  459TMC3    C7 6894   0.824   2.853  13.207 -0.4526  0.3973  0.0134
  459TMC3    C8 6895   0.968   3.022  12.794 -0.4218  0.0052 -0.8181
  459TMC3    O1 6896   0.939   2.868  13.249  0.3641  0.5279 -0.0739
  459TMC3    O2 6897   1.085   2.988  12.811 -0.1434 -0.9124 -0.4423
  460MPD2     C 6898   4.476   0.809  10.369 -0.9124  0.4700  0.8459
  460MPD2    C1 6899   4.421   0.688  10.411  0.7046  0.4789 -0.3353
  460MPD2    C2 6900   4.325   0.636  10.324  0.5485  0.2721  0.0427
  460MPD2    C3 6901   4.281   0.703  10.205 -0.1166 -1.5892  0.2831
  460MPD2    C4 6902   4.339   0.824  10.169  0.7445 -1.1471  0.2748
  460MPD2    C5 6903   4.428   0.878  10.260 -0.1273  0.2148 -0.3225
  460MPD2     H 6904   4.289   0.536  10.344  0.2910  0.7697  2.0926
  460MPD2    H1 6905   4.320   0.878  10.077 -0.6387  0.5641  1.5665
  460MPD2    H2 6906   4.547   0.862  10.432  0.5489 -1.1882  0.5849
  460MPD2    H3 6907   4.464   0.980  10.248  0.7227 -0.0894 -0.3978
  460MPD2     N 6908   4.181   0.639  10.121 -0.0639  0.5465 -0.2063
  460MPD2    H5 6909   4.141   0.550  10.149 -0.6746  1.2922  1.2765
  460MPD2    N1 6910   4.476   0.629  10.529 -0.5539  0.2183  0.1404
  460MPD2    H7 6911   4.536   0.693  10.580 -1.2878  0.5725  0.5570
  461TMC3    C1 6912   4.045   0.601   9.925 -0.1041  0.6813 -0.5637
  461TMC3    C2 6913   4.090   0.478   9.887  0.7988 -0.1241 -1.0069
  461TMC3    C3 6914   4.046   0.434   9.765 -0.2498 -0.1510  0.1234
  461TMC3    C4 6915   3.952   0.667   9.843 -0.0876 -0.4643  0.2040
  461TMC3    C5 6916   3.895   0.600   9.735 -0.6254  0.2549  0.1701
  461TMC3    C6 6917   3.945   0.484   9.693 -0.1273 -0.3094 -0.1794
  461TMC3     C 6918   4.143   0.686   9.997 -0.6419  0.7730 -0.9467
  461TMC3     O 6919   4.173   0.786   9.933  0.2316 -0.6620 -0.2486
  461TMC3     H 6920   4.175   0.435   9.937 -0.0062  0.4060  0.8099
  461TMC3    H1 6921   3.906   0.760   9.873  1.4181  0.3040  0.1698
  461TMC3    H2 6922   3.900   0.429   9.611  3.2282  0.1963 -2.3477
  461TMC3    C7 6923   3.804   0.676   9.648 -0.8286  0.2049  0.3994
  461TMC3    C8 6924   4.134   0.339   9.702  0.3507  0.3091  0.4354
  461TMC3    O1 6925   3.769   0.786   9.693 -0.0098  0.3593 -0.3126
  461TMC3    O2 6926   4.204   0.271   9.775 -0.2522  0.2084 -0.1435
  462TMC3    C1 6927   4.276   2.619   0.659  0.1697  0.0603  0.0158
  462TMC3    C2 6928   4.410   2.606   0.641 -0.2169  0.0839 -1.0852
  462TMC3    C3 6929   4.462   2.514   0.556  0.5179  0.4269  0.5815
  462TMC3    C4 6930   4.194   2.541   0.589 -0.0506  0.4862  0.0761
  462TMC3    C5 6931   4.245   2.452   0.491  0.6029  0.0389 -0.1308
  462TMC3    C6 6932   4.379   2.436   0.480  1.0044 -0.3555 -0.5430
  462TMC3     C 6933   4.221   2.745   0.709  0.6515 -0.8264 -0.4163
  462TMC3     O 6934   4.128   2.744   0.784  0.3820 -0.2744 -0.3852
  462TMC3     H 6935   4.469   2.673   0.703  1.3295 -1.2295 -1.1346
  462TMC3    H1 6936   4.086   2.547   0.594 -0.2839 -0.7457 -3.7048
  462TMC3    H2 6937   4.413   2.369   0.402  2.0144  0.6097 -0.9273
  462TMC3    C7 6938   4.164   2.345   0.432 -0.2218 -0.1541  0.0800
  462TMC3    C8 6939   4.596   2.531   0.494  0.1105 -0.2144  0.5143
  462TMC3    O1 6940   4.219   2.241   0.395 -0.3481  0.8342  0.2295
  462TMC3    O2 6941   4.646   2.644   0.513 -0.4102 -0.2121 -0.2320
  463MPD2     C 6942   1.579   4.386   1.111  0.5456 -0.5952  0.4781
  463MPD2    C1 6943   1.562   4.479   1.210 -0.4352  0.8059  0.6978
  463MPD2    C2 6944   1.672   4.546   1.250 -0.7367 -0.0632  0.0530
  463MPD2    C3 6945   1.795   4.519   1.199 -0.0657 -0.0279 -0.6242
  463MPD2    C4 6946   1.814   4.421   1.105  0.8944  0.0936  0.0011
  463MPD2    C5 6947   1.702   4.354   1.055  0.6324  0.3861  0.8737
  463MPD2     H 6948   1.662   4.614   1.333  1.2002 -0.5734  0.7068
  463MPD2    H1 6949   1.909   4.390   1.062  0.5628  0.3393 -0.8968
  463MPD2    H2 6950   1.493   4.327   1.083 -0.9143  0.8903  1.8645
  463MPD2    H3 6951   1.711   4.278   0.978  0.4388  1.0096  0.2396
  463MPD2     N 6952   1.909   4.593   1.240 -0.0378 -0.4276 -0.5225
  463MPD2    H5 6953   2.003   4.574   1.207 -0.8594 -0.0403 -3.1048
  463MPD2    N1 6954   1.436   4.515   1.257 -0.0662 -0.0568 -0.1415
  463MPD2    H7 6955   1.423   4.603   1.306  1.7499  0.0445  0.1594
  464TMC3    C1 6956   1.201   4.524   1.271  0.0856 -0.1350  0.0762
  464TMC3    C2 6957   1.219   4.663   1.280 -0.1090 -0.3671  0.1949
  464TMC3    C3 6958   1.112   4.732   1.336  0.3210 -0.5432 -0.0295
  464TMC3    C4 6959   1.094   4.452   1.310 -0.0419 -0.1461 -0.2774
  464TMC3    C5 6960   0.997   4.529   1.367  0.1311 -0.5369  0.4040
  464TMC3    C6 6961   1.002   4.664   1.376  0.2713 -0.3847  0.7518
  464TMC3     C 6962   1.316   4.445   1.237  0.1078  0.0455  0.1097
  464TMC3     O 6963   1.299   4.331   1.199  0.2573  0.2237  0.5833
  464TMC3     H 6964   1.296   4.722   1.230  0.5322 -0.2559  1.2970
  464TMC3    H1 6965   1.088   4.344   1.303  0.1588 -0.1998  0.4524
  464TMC3    H2 6966   0.932   4.720   1.438 -0.5069 -1.1580  0.5684
  464TMC3    C7 6967   0.871   4.465   1.388  0.4297  0.5667  0.0276
  464TMC3    C8 6968   1.132   0.139   1.371 -0.0512  0.4523  1.1289
  464TMC3    O1 6969   0.871   4.347   1.420 -0.3635  0.8904 -0.5947
  464TMC3    O2 6970   1.247   0.177   1.394 -0.1450 -0.0449 -0.1116
  465MPD2     C 6971   1.651   4.343  16.343  0.4186  0.9773  0.1633
  465MPD2    C1 6972   1.546   4.406  16.408 -0.6048  0.1803  0.2195
  465MPD2    C2 6973   1.459   4.490  16.340 -0.5714  0.1336 -0.0100
  465MPD2    C3 6974   1.476   4.514  16.201  0.0421  0.2389 -0.1769
  465MPD2    C4 6975   1.579   4.443  16.136 -0.2792 -0.2351  0.1540
  465MPD2    C5 6976   1.666   4.363  16.209 -0.1270  0.1839 -0.1880
  465MPD2     H 6977   1.385   4.551  16.393  0.2679 -1.5492  3.0830
  465MPD2    H1 6978   1.595   4.446  16.029  1.0575  1.8005  0.3974
  465MPD2    H2 6979   1.710   4.271  16.399  1.5149 -0.0154 -2.2434
  465MPD2    H3 6980   1.735   4.306  16.149  0.3589  0.7361 -0.1556
  465MPD2     N 6981   1.403   4.628  16.148  0.1386 -0.3062 -0.1974
  465MPD2    H5 6982   1.338   4.678  16.207  1.6919  0.5774  0.7496
  465MPD2    N1 6983   1.539   4.403  16.553  0.3347 -0.0268  0.4358
  465MPD2    H7 6984   1.451   4.440  16.585  1.1860  0.1789  2.5324
  466TMC3    C1 6985   1.130   0.154  16.082  0.3827  0.4047 -0.6055
  466TMC3    C2 6986   1.187   0.276  16.085 -0.1269  0.0784  0.5726
  466TMC3    C3 6987   1.315   0.284  16.043 -0.2405  0.1241 -0.5315
  466TMC3    C4 6988   1.204   0.043  16.052  0.7172  0.5022 -0.4456
  466TMC3    C5 6989   1.329   0.058  16.005  0.7037  0.3643 -0.0577
  466TMC3    C6 6990   1.390   0.179  16.008  0.0489 -0.6052 -0.1368
  466TMC3     C 6991   1.014   0.130  16.167 -0.3287 -0.1552 -0.2121
  466TMC3     O 6992   0.995   0.207  16.260 -0.1372 -0.4733 -0.2651
  466TMC3     H 6993   1.117   0.350  16.122 -1.4663 -1.2291  0.6230
  466TMC3    H1 6994   1.169   4.680  16.073  0.6569  0.2069 -1.9261
  466TMC3    H2 6995   1.492   0.190  15.973  0.1258  1.3984  0.7133
  466TMC3    C7 6996   1.416   4.677  16.026  0.2696 -0.9848  0.3568
  466TMC3    C8 6997   1.380   0.415  16.048  0.2671 -0.1377  0.7543
  466TMC3    O1 6998   1.501   4.652  15.945  0.0439  0.1058 -0.0625
  466TMC3    O2 6999   1.479   0.427  15.974 -0.2775 -0.0261  0.5442
  467TMC3    C1 7000   3.065   2.067  14.241 -0.4022  1.0763  0.4795
  467TMC3    C2 7001   3.031   2.038  14.110  0.8821  0.3305  0.3085
  467TMC3    C3 7002   2.896   2.040  14.080  0.3881  0.3501 -0.1078
  467TMC3    C4 7003   2.971   2.075  14.342 -0.2928 -0.0240 -0.0906
  467TMC3    C5 7004   2.841   2.048  14.308  0.1013 -0.7188 -0.1520
  467TMC3    C6 7005   2.800   2.040  14.174 -0.4959  0.0467  0.0254
  467TMC3     C 7006   3.203   2.106  14.255  0.2757 -0.1677  0.1919
  467TMC3     O 7007   3.232   2.187  14.346 -0.8848  0.3409  0.1181
  467TMC3     H 7008   3.103   2.041  14.029  0.8653  2.7442  0.3745
  467TMC3    H1 7009   3.000   2.089  14.446  0.3654  2.0845 -0.5624
  467TMC3    H2 7010   2.695   2.021  14.154 -0.2799  0.0065 -1.1058
  467TMC3    C7 7011   2.748   2.016  14.412 -0.0373  0.9167 -0.4173
  467TMC3    C8 7012   2.879   2.084  13.942 -0.6866 -0.4785 -0.1041
  467TMC3    O1 7013   2.780   1.969  14.518  0.1435  0.0196 -0.0872
  467TMC3    O2 7014   2.948   2.177  13.908 -0.7593  0.3016  0.3182
  468MPD2     C 7015   1.271   0.918  10.770 -0.4769 -0.1911 -0.1966
  468MPD2    C1 7016   1.409   0.901  10.756  0.3673  0.4952  0.3611
  468MPD2    C2 7017   1.462   0.778  10.794 -0.1782  0.2402 -0.7429
  468MPD2    C3 7018   1.384   0.676  10.845  0.5087 -0.1952 -0.0772
  468MPD2    C4 7019   1.249   0.698  10.867 -0.3399 -0.5612 -0.0121
  468MPD2    C5 7020   1.195   0.813  10.821  0.1075  0.1365 -0.0965
  468MPD2     H 7021   1.569   0.763  10.785  0.2722  1.5047  2.4768
  468MPD2    H1 7022   1.178   0.636  10.920  1.3030 -1.2732  1.3459
  468MPD2    H2 7023   1.209   1.005  10.752  0.1844 -0.1686 -2.3009
  468MPD2    H3 7024   1.089   0.830  10.832 -0.2757 -2.2275 -0.1740
  468MPD2     N 7025   1.435   0.550  10.878 -0.1048 -0.1714  0.1607
  468MPD2    H5 7026   1.373   0.488  10.930 -1.4173  0.7785 -0.2915
  468MPD2    N1 7027   1.498   1.006  10.729 -0.6488 -0.5068  0.7080
  468MPD2    H7 7028   1.595   0.983  10.713  0.4692  1.8212  4.3259
  469TMC3    C1 7029   1.562   1.215  10.640  0.4622 -0.2852  0.0027
  469TMC3    C2 7030   1.667   1.147  10.575  0.0675  0.5563 -0.6221
  469TMC3    C3 7031   1.788   1.206  10.588 -0.5579  0.3761 -0.0251
  469TMC3    C4 7032   1.579   1.338  10.704 -0.6611 -0.6694  0.5528
  469TMC3    C5 7033   1.702   1.381  10.724  0.0477 -0.1980  0.1627
  469TMC3    C6 7034   1.815   1.312  10.677 -0.2547  0.5032 -0.6433
  469TMC3     C 7035   1.452   1.131  10.684  0.1181 -0.0497  0.8006
  469TMC3     O 7036   1.341   1.188  10.696  0.8500  0.3990 -0.0816
  469TMC3     H 7037   1.649   1.053  10.523 -0.4767 -0.1652  0.8690
  469TMC3    H1 7038   1.495   1.393  10.745 -0.5661 -1.0282  1.2382
  469TMC3    H2 7039   1.910   1.363  10.686  0.2827 -0.5729 -0.3011
  469TMC3    C7 7040   1.719   1.506  10.796 -0.6798 -0.1108 -0.3036
  469TMC3    C8 7041   1.901   1.148  10.516 -0.2305  0.1161  0.2491
  469TMC3    O1 7042   1.721   1.609  10.735 -0.7820  0.0852  0.0602
  469TMC3    O2 7043   1.878   1.074  10.420 -0.0893  0.4710 -0.4583
  470TMC3    C1 7044   3.450   1.956   0.389 -0.2663  0.5448 -0.6444
  470TMC3    C2 7045   3.483   2.048   0.489 -0.7685 -0.1134 -0.2010
  470TMC3    C3 7046   3.581   2.002   0.578 -0.3847 -0.9751 -0.1711
  470TMC3    C4 7047   3.497   1.829   0.389 -0.1911  0.7489 -0.2566
  470TMC3    C5 7048   3.592   1.787   0.480 -0.7902 -0.2411 -0.3566
  470TMC3    C6 7049   3.632   1.875   0.576 -0.1713 -1.1726 -0.4744
  470TMC3     C 7050   3.370   1.997   0.277 -0.5461 -0.3693 -0.1965
  470TMC3     O 7051   3.366   1.920   0.186 -0.7025  0.0464 -0.0663
  470TMC3     H 7052   3.434   2.144   0.496  1.1705  0.7706  1.1077
  470TMC3    H1 7053   3.459   1.756   0.319  1.2039 -1.1380  0.9623
  470TMC3    H2 7054   3.708   1.843   0.647  0.1230 -0.3326 -0.4165
  470TMC3    C7 7055   3.624   1.645   0.485 -0.1464 -0.1369  0.0568
  470TMC3    C8 7056   3.650   2.105   0.651 -0.4274 -0.0114 -0.2858
  470TMC3    O1 7057   3.548   1.567   0.426 -1.0158  0.4687  0.2766
  470TMC3    O2 7058   3.580   2.205   0.670 -0.0219  0.6086 -0.1462
  471MPD2     C 7059   4.299   3.380  16.420  0.4088 -1.1675 -0.2670
  471MPD2    C1 7060   4.350   3.255  16.401 -0.4320  0.2026 -0.0616
  471MPD2    C2 7061   4.423   3.204  16.506  0.0517 -0.0285  0.2446
  471MPD2    C3 7062   4.453   3.280  16.617 -0.6235  0.6041 -0.3941
  471MPD2    C4 7063   4.408   3.410  16.630 -0.0476 -0.0162 -0.6272
  471MPD2    C5 7064   4.332   3.454  16.522  0.9970 -0.0333 -0.7821
  471MPD2     H 7065   4.462   3.103  16.513  0.4319  0.2977  2.9912
  471MPD2    H1 7066   4.433   3.474  16.713 -3.9493 -0.7003  1.1098
  471MPD2    H2 7067   4.235   3.423  16.345  1.9550 -0.8564 -1.4213
  471MPD2    H3 7068   4.287   3.551  16.534 -2.9059 -1.5948 -2.7668
  471MPD2     N 7069   4.537   3.219  16.712 -0.6866  0.0613 -0.4175
  471MPD2    H5 7070   4.554   3.121  16.695 -2.0944 -0.7741  2.9037
  471MPD2    N1 7071   4.334   3.180  16.280 -0.4736  0.0042  0.4131
  471MPD2    H7 7072   4.297   3.225  16.196 -0.7801 -1.5014 -0.2577
  472TMC3    C1 7073   4.391   3.010  16.117 -0.4787 -0.0241  1.4306
  472TMC3    C2 7074   4.306   3.068  16.030 -0.3969  0.2487 -0.5701
  472TMC3    C3 7075   4.294   3.009  15.910  0.3303 -0.2475  0.0355
  472TMC3    C4 7076   4.451   2.891  16.101  0.4520 -0.3731 -0.2130
  472TMC3    C5 7077   4.424   2.828  15.989 -0.0539 -0.0462  0.4125
  472TMC3    C6 7078   4.349   2.886  15.890 -0.3607 -0.3258  0.4393
  472TMC3     C 7079   4.392   3.057  16.250  0.3734 -0.6598  0.0917
  472TMC3     O 7080   4.440   2.982  16.333  0.1321  0.2198  0.8576
  472TMC3     H 7081   4.242   3.148  16.066  2.9430  3.2162 -1.1977
  472TMC3    H1 7082   4.510   2.850  16.182 -0.7092 -0.4745  0.5816
  472TMC3    H2 7083   4.319   2.823  15.807  0.7077 -1.0338  0.5937
  472TMC3    C7 7084   4.434   2.684  15.980 -0.5684  0.6994 -0.5340
  472TMC3    C8 7085   4.161   2.993  15.863 -0.3126  0.1368 -0.3506
  472TMC3    O1 7086   4.438   2.626  15.871  0.4635 -0.7507 -0.1293
  472TMC3    O2 7087   4.147   2.966  15.744 -0.6779 -0.4145  0.2684
  473MPD2     C 7088   0.289   0.164  14.083 -0.5711  0.3532  0.2475
  473MPD2    C1 7089   0.260   0.283  14.027  0.3906  0.3461 -0.1197
  473MPD2    C2 7090   0.221   0.388  14.114  0.0936  0.0911 -0.4505
  473MPD2    C3 7091   0.225   0.372  14.254 -0.0567 -0.3458 -0.5179
  473MPD2    C4 7092   0.254   0.248  14.304 -0.5077  0.4132  0.4777
  473MPD2    C5 7093   0.277   0.142  14.224 -0.6930 -0.0232  0.1205
  473MPD2     H 7094   0.189   0.484  14.074 -0.3830  1.0014  2.0490
  473MPD2    H1 7095   0.274   0.234  14.409  0.5433  2.1070  0.4996
  473MPD2    H2 7096   0.322   0.077  14.027 -0.6406  0.1739  0.4832
  473MPD2    H3 7097   0.301   0.050  14.276  4.7881  1.2650 -0.1606
  473MPD2     N 7098   0.189   0.475  14.345 -0.2087 -0.6094 -0.1802
  473MPD2    H5 7099   0.191   0.455  14.445 -0.8425  1.3495  0.2199
  473MPD2    N1 7100   0.269   0.311  13.886 -0.2406  0.4914  0.8542
  473MPD2    H7 7101   0.226   0.399  13.859 -0.4795  0.0796 -0.1379
  474TMC3    C1 7102   0.133   0.700  14.447  0.0423  0.4573  0.4082
  474TMC3    C2 7103   0.034   0.798  14.434 -0.2944 -0.3757  0.4731
  474TMC3    C3 7104   0.030   0.896  14.521 -0.0300  0.5542  0.7597
  474TMC3    C4 7105   0.224   0.700  14.559 -0.4779 -0.2916  0.1521
  474TMC3    C5 7106   0.209   0.798  14.652 -0.0732 -0.1499  0.4006
  474TMC3    C6 7107   0.112   0.899  14.634 -0.0316  0.1098 -0.3758
  474TMC3     C 7108   0.166   0.614  14.329 -0.0964 -0.1264 -0.1328
  474TMC3     O 7109   0.153   0.670  14.218 -0.3404 -0.2754 -0.6227
  474TMC3     H 7110   4.722   0.803  14.337  3.8119  0.3914 -1.5398
  474TMC3    H1 7111   0.309   0.633  14.566  0.9163  1.6763  1.6135
  474TMC3    H2 7112   0.100   0.982  14.703 -1.3774 -0.8289  0.5146
  474TMC3    C7 7113   0.332   0.840  14.709 -0.7667  0.7236 -0.1042
  474TMC3    C8 7114   4.671   1.014  14.515  0.1473  0.0790  0.4408
  474TMC3    O1 7115   0.429   0.810  14.644  0.2475  0.4384  0.0720
  474TMC3    O2 7116   4.629   1.070  14.617  0.6721  0.5670 -0.0064
  475MPD2     C 7117   2.269   2.718  10.699  0.8674 -0.5023  0.2471
  475MPD2    C1 7118   2.373   2.790  10.755  0.3683  0.1914  0.0695
  475MPD2    C2 7119   2.334   2.892  10.842 -0.3240 -0.3912  0.3118
  475MPD2    C3 7120   2.205   2.939  10.857 -0.5304  0.2748 -0.3620
  475MPD2    C4 7121   2.099   2.870  10.791  0.2573 -0.2247  0.5996
  475MPD2    C5 7122   2.136   2.758  10.716  0.7963  0.1038  0.3169
  475MPD2     H 7123   2.407   2.947  10.901  0.6465 -1.7193  0.3550
  475MPD2    H1 7124   1.997   2.898  10.811 -0.0062  0.0718 -1.1652
  475MPD2    H2 7125   2.277   2.634  10.632  1.4123  0.8113 -1.3448
  475MPD2    H3 7126   2.058   2.698  10.670  1.7116 -0.5369 -0.4041
  475MPD2     N 7127   2.189   3.055  10.933  0.4166  0.1673 -0.0100
  475MPD2    H5 7128   2.267   3.108  10.971 -0.1992  0.6263  0.6118
  475MPD2    N1 7129   2.504   2.760  10.718  0.5852 -0.1218  0.0947
  475MPD2    H7 7130   2.523   2.662  10.698  0.9599  0.4216 -2.2116
  476TMC3    C1 7131   2.589   2.985  10.719  0.5532 -0.3063  0.6301
  476TMC3    C2 7132   2.500   3.030  10.624  0.8440 -0.1043 -0.0505
  476TMC3    C3 7133   2.439   3.147  10.648  0.0688 -0.1933 -0.3321
  476TMC3    C4 7134   2.629   3.070  10.817 -0.2994 -0.1688 -0.3067
  476TMC3    C5 7135   2.577   3.194  10.835  0.3581 -0.9307 -0.7379
  476TMC3    C6 7136   2.481   3.233  10.747  0.3948 -0.0190 -0.3095
  476TMC3     C 7137   2.609   2.844  10.743 -0.5254 -0.2447 -0.2393
  476TMC3     O 7138   2.719   2.817  10.788  0.3728  0.1726 -0.2831
  476TMC3     H 7139   2.478   2.974  10.534  0.1965  0.4959 -0.2712
  476TMC3    H1 7140   2.695   3.025  10.890  1.3168  0.5787 -1.3077
  476TMC3    H2 7141   2.430   3.322  10.782 -1.5083 -0.7409 -1.2238
  476TMC3    C7 7142   2.538   3.225  10.968  0.7217 -0.1027 -0.0220
  476TMC3    C8 7143   2.299   3.161  10.609 -0.0549  0.4244 -0.7664
  476TMC3    O1 7144   2.448   3.156  11.019  0.1459 -0.1146 -0.1384
  476TMC3    O2 7145   2.243   3.260  10.648  0.3907  0.1088 -0.2642
  477MPD2     C 7146   0.170   4.676  11.563 -0.0232  0.2204  0.1343
  477MPD2    C1 7147   0.075   4.607  11.645 -1.1535 -0.6974  0.8962
  477MPD2    C2 7148   0.113   4.581  11.784 -0.3836 -0.0357  0.7719
  477MPD2    C3 7149   0.237   4.611  11.834 -0.7376  0.2577  0.8204
  477MPD2    C4 7150   0.328   4.665  11.744 -0.1344 -0.6033 -1.1016
  477MPD2    C5 7151   0.293   4.708  11.616 -0.0107  0.1319 -0.2583
  477MPD2     H 7152   0.040   4.533  11.850  1.1838 -0.9227  1.8683
  477MPD2    H1 7153   0.432   4.683  11.768 -1.0305  1.6222  1.1710
  477MPD2    H2 7154   0.143   4.693  11.459 -0.3560  1.4194  0.4205
  477MPD2    H3 7155   0.367   0.014  11.550 -0.6305  0.6833 -0.6050
  477MPD2     N 7156   0.270   4.581  11.967 -0.0255  0.2452 -0.2015
  477MPD2    H5 7157   0.201   4.527  12.019 -0.3448  1.7710  0.9274
  477MPD2    N1 7158   4.686   4.580  11.583  0.3029  0.1801 -0.3135
  477MPD2    H7 7159   4.677   4.604  11.485 -2.5866  1.5177  0.2575
  478TMC3    C1 7160   4.459   4.521  11.555 -0.1279  0.2224  0.3299
  478TMC3    C2 7161   4.349   4.584  11.609  0.0706  0.5090 -0.3690
  478TMC3    C3 7162   4.262   4.646  11.517  0.5222  0.3097 -1.3220
  478TMC3    C4 7163   4.478   4.500  11.416 -0.0447 -0.2592 -0.3496
  478TMC3    C5 7164   4.376   4.547  11.336 -0.2544  0.6256  0.6864
  478TMC3    C6 7165   4.275   4.616  11.386  0.6645  0.0616  0.6187
  478TMC3     C 7166   4.575   4.526  11.646 -0.0281  0.1157 -0.1340
  478TMC3     O 7167   4.552   4.514  11.763 -0.6108  0.2737 -0.3060
  478TMC3     H 7168   4.349   4.621  11.711  1.1505  1.0056 -0.5545
  478TMC3    H1 7169   4.576   4.477  11.378  0.8264 -0.0856  1.8021
  478TMC3    H2 7170   4.198   4.662  11.325  0.8701  2.2393  1.9850
  478TMC3    C7 7171   4.414   4.575  11.199 -0.2291  0.4574  0.0116
  478TMC3    C8 7172   4.224   0.049  11.542 -0.2639 -0.3643  0.1261
  478TMC3    O1 7173   4.529   4.536  11.170  0.5426 -0.3213  0.1305
  478TMC3    O2 7174   4.232   0.126  11.446  0.0996 -0.2021  0.5484
  479MPD2     C 7175   4.045   1.914  15.613  0.2616 -0.4490  0.0588
  479MPD2    C1 7176   3.935   1.974  15.664 -0.3206  0.3458 -0.2850
  479MPD2    C2 7177   3.944   2.100  15.714  0.5983 -0.0755 -0.1123
  479MPD2    C3 7178   4.065   2.167  15.705  0.4776  0.2013  0.0097
  479MPD2    C4 7179   4.177   2.100  15.659 -0.3832 -0.1671  0.1489
  479MPD2    C5 7180   4.169   1.974  15.614  0.1414  0.0906 -0.5706
  479MPD2     H 7181   3.857   2.150  15.753  1.6850 -0.5209  2.9063
  479MPD2    H1 7182   4.273   2.149  15.650  0.4828 -1.4311  2.8016
  479MPD2    H2 7183   4.030   1.808  15.593 -0.3704 -0.0175 -1.7074
  479MPD2    H3 7184   4.257   1.919  15.584 -0.5168 -0.0453 -2.2495
  479MPD2     N 7185   4.071   2.304  15.743  0.0045  0.2305 -0.6349
  479MPD2    H5 7186   3.981   2.349  15.751  0.2225  1.0538 -2.7075
  479MPD2    N1 7187   3.814   1.907  15.650  0.1550 -0.2348 -0.2404
  479MPD2    H7 7188   3.830   1.811  15.621 -1.3151 -0.8539  0.9868
  480TMC3    C1 7189   3.985   2.572  15.921 -0.0875  0.0665  0.1424
  480TMC3    C2 7190   3.908   2.633  15.830  0.0144 -0.5317 -0.0907
  480TMC3    C3 7191   3.963   2.661  15.711  0.3646 -0.2527  0.2094
  480TMC3    C4 7192   4.103   2.509  15.883 -0.3913  0.1988  0.7352
  480TMC3    C5 7193   4.146   2.524  15.759 -0.8177  0.6847 -0.2439
  480TMC3    C6 7194   4.077   2.604  15.672 -0.3083  0.1072 -0.0036
  480TMC3     C 7195   3.930   2.522  16.045 -0.9858 -0.3599  0.4767
  480TMC3     O 7196   4.008   2.533  16.139 -0.7377  0.0773  0.1537
  480TMC3     H 7197   3.808   2.673  15.844 -0.6158 -2.0772 -0.1973
  480TMC3    H1 7198   4.147   2.443  15.957 -0.6536 -1.6709 -0.7687
  480TMC3    H2 7199   4.122   2.612  15.573  0.2897 -1.4136  0.1453
  480TMC3    C7 7200   4.177   2.393  15.707  0.8381  0.4989 -0.9204
  480TMC3    C8 7201   3.863   2.679  15.602  0.6728  0.1294  0.5306
  480TMC3    O1 7202   4.285   2.362  15.662  0.0474  0.3479 -0.1344
  480TMC3    O2 7203   3.748   2.667  15.635 -0.2742 -0.3171  0.0043
  481MPD2     C 7204   1.254   2.143  14.572 -0.2860  0.2303 -0.3237
  481MPD2    C1 7205   1.124   2.091  14.562  0.6504  0.4042 -0.3021
  481MPD2    C2 7206   1.040   2.088  14.677 -0.1856 -0.5878 -0.2989
  481MPD2    C3 7207   1.100   2.126  14.797 -0.1841 -0.0944 -0.6055
  481MPD2    C4 7208   1.230   2.177  14.804 -0.9278  0.1455 -0.2100
  481MPD2    C5 7209   1.304   2.179  14.692  0.0623 -0.7542 -0.4883
  481MPD2     H 7210   0.932   2.082  14.666 -0.3132  3.2546 -1.2772
  481MPD2    H1 7211   1.269   2.220  14.895  1.5744 -0.4672 -1.0076
  481MPD2    H2 7212   1.312   2.168  14.484  2.2488  0.7957  1.5241
  481MPD2    H3 7213   1.404   2.221  14.700 -0.0926 -0.5192  0.1913
  481MPD2     N 7214   1.035   2.122  14.921  0.5877  0.1577 -0.3280
  481MPD2    H5 7215   1.083   2.159  15.003 -1.1684  0.8545  0.4104
  481MPD2    N1 7216   1.069   2.056  14.432 -0.3325 -0.5045  0.0109
  481MPD2    H7 7217   1.139   2.070  14.360  0.0706  2.3099  0.9668
  482TMC3    C1 7218   0.915   1.972  14.267 -0.6824  0.0504 -0.4100
  482TMC3    C2 7219   0.818   1.877  14.237 -0.5580 -0.5673 -0.3748
  482TMC3    C3 7220   0.799   1.845  14.107 -0.0828 -0.5924  0.1755
  482TMC3    C4 7221   0.992   2.029  14.169  0.5420 -0.5265 -0.1914
  482TMC3    C5 7222   0.969   1.993  14.038 -0.4896 -0.5289 -0.3662
  482TMC3    C6 7223   0.866   1.906  14.002 -0.4477 -1.0082  0.6692
  482TMC3     C 7224   0.945   1.996  14.408 -0.5405 -0.5342 -0.3729
  482TMC3     O 7225   0.848   1.966  14.481 -0.0865  0.0141 -0.5715
  482TMC3     H 7226   0.770   1.817  14.313 -3.8440 -0.8073 -2.5840
  482TMC3    H1 7227   1.052   2.116  14.195  0.2005 -0.0255 -1.1098
  482TMC3    H2 7228   0.851   1.892  13.895  0.3895  1.3965  0.2349
  482TMC3    C7 7229   1.050   2.057  13.940 -0.0450 -0.4200  0.0876
  482TMC3    C8 7230   0.703   1.741  14.073 -0.3896  0.1444  0.0441
  482TMC3    O1 7231   1.103   2.159  13.980  0.3647 -0.4162 -0.8679
  482TMC3    O2 7232   0.670   1.677  14.174  0.1007 -0.0023 -0.5302
  483TMC3    C1 7233   4.707   0.874   0.715 -0.3387 -0.7509  0.3072
  483TMC3    C2 7234   4.721   1.007   0.716 -0.0493  0.7595  0.0345
  483TMC3    C3 7235   4.730   1.073   0.834 -0.4282 -0.0697  0.1133
  483TMC3    C4 7236   4.693   0.795   0.823  0.0425 -0.2674  0.2989
  483TMC3    C5 7237   4.710   0.870   0.937  0.3310  0.0826 -0.4280
  483TMC3    C6 7238   4.723   1.002   0.951 -0.9336 -0.3156  0.1361
  483TMC3     C 7239   4.681   0.812   0.588 -0.3165 -0.7823 -0.4801
  483TMC3     O 7240   0.002   0.852   0.486 -0.0610 -0.0874  0.4909
  483TMC3     H 7241   0.002   1.060   0.623 -0.1239  0.6789 -0.0257
  483TMC3    H1 7242   4.711   0.689   0.821  2.5406  0.2343 -3.0718
  483TMC3    H2 7243   4.717   1.051   1.047 -0.8357  0.3080 -0.1708
  483TMC3    C7 7244   4.699   0.788   1.063  0.3215  1.2130  0.4745
  483TMC3    C8 7245   4.687   1.206   0.845  0.4775 -0.5570  0.0599
  483TMC3    O1 7246   0.015   0.832   1.165  0.0512 -0.1067 -0.7130
  483TMC3    O2 7247   4.724   1.253   0.952  0.1858 -0.3659 -0.2009
  484MPD2     C 7248   0.946   3.366  12.667  0.6859 -0.3841  0.1189
  484MPD2    C1 7249   1.002   3.238  12.673 -0.2519  0.4038  0.5312
  484MPD2    C2 7250   1.136   3.222  12.641 -0.6992 -0.4118 -0.5680
  484MPD2    C3 7251   1.206   3.330  12.594  0.6204  0.7264 -0.5150
  484MPD2    C4 7252   1.146   3.454  12.579  0.4065 -0.6641 -0.8072
  484MPD2    C5 7253   1.017   3.474  12.622 -0.5229  0.4626  0.7862
  484MPD2     H 7254   1.188   3.129  12.659 -0.7456 -0.6267 -1.5318
  484MPD2    H1 7255   1.204   3.540  12.546 -2.1844  0.7626 -1.6663
  484MPD2    H2 7256   0.851   3.383  12.715  0.8536  0.3903  0.1717
  484MPD2    H3 7257   0.980   3.575  12.613  1.2398  1.0305  0.0201
  484MPD2     N 7258   1.338   3.311  12.549 -0.8652 -0.1638  0.1464
  484MPD2    H5 7259   1.387   3.396  12.523  2.8823 -2.9714 -1.9965
  484MPD2    N1 7260   0.922   3.138  12.736 -0.7272 -0.3180 -0.2574
  484MPD2    H7 7261   0.826   3.165  12.758 -0.4634  0.1384  0.3516
  485TMC3    C1 7262   1.526   3.201  12.449  0.5038 -0.8438  0.1545
  485TMC3    C2 7263   1.580   3.079  12.415  0.1696 -0.1097  0.4273
  485TMC3    C3 7264   1.637   3.075  12.293 -0.2321 -0.1538 -0.3514
  485TMC3    C4 7265   1.542   3.320  12.373  0.6442 -0.0570 -0.1863
  485TMC3    C5 7266   1.594   3.310  12.247  0.7307  0.3407 -0.4942
  485TMC3    C6 7267   1.641   3.190  12.212 -0.2052 -0.3199  0.4730
  485TMC3     C 7268   1.413   3.193  12.539 -0.1428  0.7545  0.1031
  485TMC3     O 7269   1.383   3.081  12.571  0.0352  0.7417  0.1186
  485TMC3     H 7270   1.575   2.995  12.484  0.1652 -0.5347 -0.0860
  485TMC3    H1 7271   1.522   3.419  12.410  0.2991  0.2828 -1.2770
  485TMC3    H2 7272   1.698   3.178  12.121  0.8301  2.2020  0.8025
  485TMC3    C7 7273   1.707   3.395  12.229  1.3404 -0.0391  0.0638
  485TMC3    C8 7274   1.754   2.991  12.282 -0.0290  0.0866 -0.3072
  485TMC3    O1 7275   1.817   3.345  12.257 -0.4728  0.3932 -0.5086
  485TMC3    O2 7276   1.725   2.874  12.263 -0.5177  0.1030  0.6048
  486MPD2     C 7277   3.477   1.850  12.918  1.0023 -0.1926  0.9612
  486MPD2    C1 7278   3.469   1.779  12.801 -0.1165 -0.6384 -0.2636
  486MPD2    C2 7279   3.467   1.858  12.683 -0.1196 -0.0491 -0.1908
  486MPD2    C3 7280   3.475   1.995  12.686 -0.1769 -0.4661 -0.5712
  486MPD2    C4 7281   3.496   2.063  12.803  0.7641  0.4910  0.4094
  486MPD2    C5 7282   3.500   1.987  12.919  0.3354  1.1477  0.4835
  486MPD2     H 7283   3.463   1.811  12.585  0.0903  0.0582 -0.2506
  486MPD2    H1 7284   3.512   2.170  12.810 -1.9378  0.9424 -0.4024
  486MPD2    H2 7285   3.490   1.809  13.017 -2.0365  2.4558  2.4442
  486MPD2    H3 7286   3.527   2.034  13.013  2.9123  1.1828 -0.2916
  486MPD2     N 7287   3.478   2.053  12.554  0.2978  0.7981 -0.1093
  486MPD2    H5 7288   3.467   1.989  12.476  0.8260  2.0013 -1.1682
  486MPD2    N1 7289   3.446   1.638  12.805 -0.0324 -0.0542 -0.0432
  486MPD2    H7 7290   3.460   1.600  12.898 -0.1034 -0.5660 -0.2458
  487TMC3    C1 7291   3.448   1.418  12.719  0.5576 -0.2938  0.4439
  487TMC3    C2 7292   3.381   1.331  12.636  0.2277  0.3635  0.0191
  487TMC3    C3 7293   3.392   1.200  12.658  0.9631  0.6435  0.4836
  487TMC3    C4 7294   3.521   1.377  12.826  0.1520 -0.2272  0.1082
  487TMC3    C5 7295   3.516   1.238  12.849  0.7747  0.3226 -0.5785
  487TMC3    C6 7296   3.449   1.147  12.766  0.6454 -0.2947  0.1635
  487TMC3     C 7297   3.418   1.558  12.694  0.8592  0.1278  0.4172
  487TMC3     O 7298   3.375   1.595  12.585 -0.4726 -1.0377  0.2785
  487TMC3     H 7299   3.318   1.365  12.555  0.2764  2.2903  0.7785
  487TMC3    H1 7300   3.574   1.445  12.893  1.1399  0.0502 -0.9569
  487TMC3    H2 7301   3.473   1.041  12.767 -0.7548 -0.6085  0.3542
  487TMC3    C7 7302   3.526   1.202  12.993  0.1652 -0.1795  0.2519
  487TMC3    C8 7303   3.266   1.130  12.650  0.7002  0.6774 -0.6634
  487TMC3    O1 7304   3.581   1.273  13.078 -0.4662 -0.4073 -0.2808
  487TMC3    O2 7305   3.269   1.013  12.619 -0.1809 -0.2140 -0.2673
  488MPD2     C 7306   3.579   4.160  16.235  0.0781  0.1442 -0.6221
  488MPD2    C1 7307   3.615   4.237  16.340  0.4581  0.0670  0.0980
  488MPD2    C2 7308   3.583   4.198  16.471 -0.2221 -0.2292  0.2447
  488MPD2    C3 7309   3.505   4.086  16.495  1.1860 -0.6837 -0.3180
  488MPD2    C4 7310   3.473   4.010  16.381 -0.7030 -0.3963  0.7674
  488MPD2    C5 7311   3.505   4.050  16.260 -0.6565 -0.0859  0.1015
  488MPD2     H 7312   3.614   4.263  16.552  1.0507  1.4605 -1.6000
  488MPD2    H1 7313   3.403   3.927  16.376 -0.6383 -0.3277 -1.1611
  488MPD2    H2 7314   3.612   4.182  16.134  0.0846 -0.3357 -0.7218
  488MPD2    H3 7315   3.478   3.989  16.174 -1.4477  0.8530 -0.3192
  488MPD2     N 7316   3.454   4.056  16.622 -0.1200  0.7524 -0.2735
  488MPD2    H5 7317   3.478   4.122  16.695  0.2063 -1.8892  2.0287
  488MPD2    N1 7318   3.692   4.359  16.322 -0.5160  0.2250  0.2092
  488MPD2    H7 7319   3.718   4.406  16.408  1.1914  1.1477 -0.8258
  489TMC3    C1 7320   3.311   3.968  16.788 -0.5420  0.3494  0.2870
  489TMC3    C2 7321   3.410   4.017  16.876 -0.0882  0.1345  0.2921
  489TMC3    C3 7322   3.380   4.091  16.984  0.0467 -0.0922  0.6650
  489TMC3    C4 7323   3.183   3.995  16.813 -0.3053 -0.4996  0.6923
  489TMC3    C5 7324   3.156   4.069  16.924 -0.3477 -0.1597  0.0812
  489TMC3    C6 7325   3.250   4.118  17.016  0.2389 -0.1901  0.5077
  489TMC3     C 7326   3.358   3.958  16.649 -0.4748  0.2973 -0.6803
  489TMC3     O 7327   3.306   3.876  16.579  0.5107  0.3560  0.8055
  489TMC3     H 7328   3.513   3.998  16.848 -0.9333 -0.9899 -2.1289
  489TMC3    H1 7329   3.108   3.982  16.735  1.1425 -1.3408 -0.5390
  489TMC3    H2 7330   3.214   4.198  17.079 -0.7497 -0.3363  0.1223
  489TMC3    C7 7331   3.055   4.167  16.893 -0.4114  0.1615  1.2809
  489TMC3    C8 7332   3.477   4.188  17.021 -0.0203  0.4997  0.1628
  489TMC3    O1 7333   3.034   4.203  16.779  0.0403 -0.1597  0.2898
  489TMC3    O2 7334   3.565   4.208  16.936  0.1476  0.4819  0.2178
  490MPD2     C 7335   0.036   3.839  16.971  0.1728  1.0880  0.0161
  490MPD2    C1 7336   4.648   3.864  17.025  0.1654  0.0441 -0.3376
  490MPD2    C2 7337   4.597   3.997  17.024 -0.4993  0.2613 -0.0377
  490MPD2    C3 7338   4.674   4.098  16.970  0.5565  0.2674  0.0591
  490MPD2    C4 7339   0.057   4.068  16.910 -0.4177  0.3252  0.1382
  490MPD2    C5 7340   0.104   3.941  16.914 -0.4950  0.5131  0.5377
  490MPD2     H 7341   4.512   4.012  17.088 -0.2997 -1.1754  0.5641
  490MPD2    H1 7342   0.112   4.145  16.858  0.8710  0.3010  1.4715
  490MPD2    H2 7343   0.083   3.741  16.978 -0.3664  0.7459 -1.0512
  490MPD2    H3 7344   0.201   3.916  16.872 -0.5928 -0.5203  0.9093
  490MPD2     N 7345   4.628   4.238  16.972 -0.5006 -0.3348  0.7017
  490MPD2    H5 7346   4.706   4.299  16.949 -2.7211  2.0958 -0.4355
  490MPD2    N1 7347   4.574   3.768  17.095 -0.5378  0.0849 -0.1783
  490MPD2    H7 7348   4.478   3.793  17.115 -0.3857  0.2982  0.2848
  491TMC3    C1 7349   4.502   3.570  17.194  0.4690  0.3386  0.0152
  491TMC3    C2 7350   4.498   3.507  17.313 -0.4571  0.1513 -0.2249
  491TMC3    C3 7351   4.379   3.445  17.348  0.8138 -0.3205 -1.0630
  491TMC3    C4 7352   4.399   3.570  17.111  0.4929 -0.7978 -0.2393
  491TMC3    C5 7353   4.281   3.499  17.132 -0.5651 -0.1632  0.1963
  491TMC3    C6 7354   4.268   3.445  17.260  0.9758  0.0994 -0.6928
  491TMC3     C 7355   4.614   3.641  17.140 -1.0399 -0.4068  0.5527
  491TMC3     O 7356   4.727   3.593  17.139  0.6553  0.1732 -0.0745
  491TMC3     H 7357   4.582   3.516  17.381 -0.6674  1.6493 -0.1695
  491TMC3    H1 7358   4.406   3.614  17.012 -2.4690  1.1477  0.4081
  491TMC3    H2 7359   4.181   3.386  17.286  0.5700  0.0614 -2.1223
  491TMC3    C7 7360   4.179   3.473  17.039 -0.1558  0.9464  0.5698
  491TMC3    C8 7361   4.367   3.410  17.478  0.6084 -0.0694  0.1137
  491TMC3    O1 7362   4.113   3.372  17.059  0.2132 -0.2133  0.0609
  491TMC3    O2 7363   4.460   3.376  17.547  0.4676 -0.1152 -0.2902
  492MPD2     C 7364   0.030   3.106  11.859 -0.1905 -0.2584 -0.1272
  492MPD2    C1 7365   0.017   3.024  11.745 -0.2116  1.4230 -0.3668
  492MPD2    C2 7366   4.717   2.894  11.754 -0.1164 -0.5159  0.5161
  492MPD2    C3 7367   4.686   2.838  11.880 -0.1121  0.1823 -0.5624
  492MPD2    C4 7368   4.700   2.922  11.992 -0.7102  0.1024  0.0013
  492MPD2    C5 7369   4.736   3.053  11.981 -0.8136  0.3050  0.0256
  492MPD2     H 7370   4.716   2.833  11.665 -0.8877  0.8500 -0.4016
  492MPD2    H1 7371   4.670   2.885  12.090 -1.4545 -3.2234 -1.4768
  492MPD2    H2 7372   0.057   3.209  11.840 -1.0289 -0.0760 -0.3203
  492MPD2    H3 7373   0.015   3.109  12.072 -1.1904  0.5280 -0.0495
  492MPD2     N 7374   4.655   2.702  11.912  0.4866 -0.6249 -0.0493
  492MPD2    H5 7375   4.614   2.674  12.001 -1.5746  3.3119  0.2143
  492MPD2    N1 7376   0.035   3.085  11.620  0.0370  0.2664  0.2981
  492MPD2    H7 7377   0.069   3.180  11.625 -1.6459  0.8902  0.0072
  493TMC3    C1 7378   0.033   3.137  11.384  0.1131 -0.2706 -0.2354
  493TMC3    C2 7379   0.075   3.267  11.406  0.2518  0.2362 -0.5276
  493TMC3    C3 7380   0.044   3.357  11.308  0.6764  0.9803 -0.3381
  493TMC3    C4 7381   4.731   3.093  11.260  0.3971  0.6565 -0.7100
  493TMC3    C5 7382   4.708   3.185  11.160  0.4222  0.2383 -0.6866
  493TMC3    C6 7383   4.729   3.316  11.185 -0.2006 -0.0117 -0.6496
  493TMC3     C 7384   0.010   3.038  11.490 -0.6954 -0.3954 -0.4458
  493TMC3     O 7385   4.717   2.921  11.460 -0.4820  0.5075 -0.0867
  493TMC3     H 7386   0.113   3.304  11.500 -0.7349 -2.5582  0.9711
  493TMC3    H1 7387   4.729   2.987  11.241  0.1976  0.4892  0.2282
  493TMC3    H2 7388   4.679   3.390  11.123 -0.0270  0.1595 -0.5862
  493TMC3    C7 7389   4.662   3.131  11.034  0.3150 -0.6647  0.6810
  493TMC3    C8 7390   0.048   3.493  11.353  0.0529  0.1127  0.7671
  493TMC3    O1 7391   4.623   3.014  11.028 -0.1120  1.1278  0.1705
  493TMC3    O2 7392   0.071   3.506  11.472 -0.1338 -0.5434  0.0668
  494TMC3    C1 7393   0.595   0.856   0.554  0.3603 -0.3257  0.1489
  494TMC3    C2 7394   0.571   0.735   0.511 -1.0613  0.2385  0.3395
  494TMC3    C3 7395   0.569   0.704   0.377 -0.0530  0.6776 -0.1858
  494TMC3    C4 7396   0.618   0.952   0.461 -0.1361  0.3567  0.4737
  494TMC3    C5 7397   0.615   0.925   0.329  0.3636 -0.3712 -0.2327
  494TMC3    C6 7398   0.602   0.797   0.284  0.3010  0.2104  0.0884
  494TMC3     C 7399   0.597   0.876   0.700 -0.3504 -0.2329 -0.5889
  494TMC3     O 7400   0.609   0.777   0.771  0.4491 -0.5913 -0.2302
  494TMC3     H 7401   0.568   0.657   0.586 -0.8418  0.4130  0.5279
  494TMC3    H1 7402   0.602   1.055   0.491 -0.5227  0.4246  0.0227
  494TMC3    H2 7403   0.618   0.767   0.181  1.6704 -0.2746  0.4377
  494TMC3    C7 7404   0.657   1.021   0.233  0.2931  0.8773  0.1238
  494TMC3    C8 7405   0.559   0.564   0.344  0.2560 -0.3032  0.5041
  494TMC3    O1 7406   0.613   1.007   0.121  0.4955  0.6064  0.2354
  494TMC3    O2 7407   0.549   0.488   0.440 -0.2239 -0.6007 -0.1218
  495TMC3    C1 7408   4.279   2.278  14.800 -0.0083 -0.8806 -0.2479
  495TMC3    C2 7409   4.205   2.277  14.687  0.5312 -0.3315 -0.3730
  495TMC3    C3 7410   4.101   2.364  14.675  0.3005  0.1852  0.2088
  495TMC3    C4 7411   4.245   2.358  14.906 -0.0066  0.1676 -0.2701
  495TMC3    C5 7412   4.150   2.451  14.880  0.3305 -0.0864 -0.0477
  495TMC3    C6 7413   4.074   2.452  14.771 -0.0041 -0.0602  0.4590
  495TMC3     C 7414   4.338   2.151  14.841  0.3907  0.1345  0.1676
  495TMC3     O 7415   4.427   2.147  14.926  0.1141  0.4164  0.3630
  495TMC3     H 7416   4.237   2.223  14.599  1.2342 -0.5437  0.0159
  495TMC3    H1 7417   4.300   2.352  14.999 -1.7084  0.2368  0.7380
  495TMC3    H2 7418   3.997   2.527  14.761  1.9348  2.0471  1.1711
  495TMC3    C7 7419   4.091   2.509  14.995 -0.2957  0.5104  0.2367
  495TMC3    C8 7420   4.009   2.336  14.563 -0.8476  0.1860  0.1342
  495TMC3    O1 7421   4.169   2.575  15.059  0.1968  0.4165  0.3834
  495TMC3    O2 7422   4.012   2.220  14.521 -0.2369  0.0114 -0.0067
  496MPD2     C 7423   1.096   3.184  15.356  0.4822 -0.4522 -0.0217
  496MPD2    C1 7424   1.162   3.161  15.471 -0.7802  0.7781 -0.9640
  496MPD2    C2 7425   1.097   3.172  15.595  0.6444 -0.7331  0.2193
  496MPD2    C3 7426   0.959   3.197  15.598  0.4708 -0.0718  0.0736
  496MPD2    C4 7427   0.903   3.227  15.481  0.0773  0.7216 -0.5741
  496MPD2    C5 7428   0.965   3.226  15.359 -0.1553  0.2380 -0.2963
  496MPD2     H 7429   1.162   3.148  15.678  1.6011 -0.4666 -0.4621
  496MPD2    H1 7430   0.795   3.236  15.469 -0.1773  0.5182  1.6157
  496MPD2    H2 7431   1.135   3.169  15.256 -0.1099 -0.0242 -0.3119
  496MPD2    H3 7432   0.921   3.266  15.269 -0.5507  0.8357  0.1694
  496MPD2     N 7433   0.881   3.181  15.712 -0.3485 -0.5913  0.6464
  496MPD2    H5 7434   0.780   3.194  15.704 -0.0045  0.7085 -1.6544
  496MPD2    N1 7435   1.297   3.116  15.476  0.7660  0.0334 -0.6706
  496MPD2    H7 7436   1.338   3.095  15.566  0.0684  1.1831 -0.0760
  497TMC3    C1 7437   0.833   3.079  15.935 -0.5342 -0.0743  0.6004
  497TMC3    C2 7438   0.704   3.047  15.890 -0.5190 -0.4271 -0.3521
  497TMC3    C3 7439   0.612   3.039  15.990 -0.2974 -0.2844  0.1859
  497TMC3    C4 7440   0.870   3.102  16.065  0.4138  0.3298  0.2263
  497TMC3    C5 7441   0.774   3.104  16.156 -0.2493 -0.1271  0.0690
  497TMC3    C6 7442   0.643   3.072  16.119  0.4428 -0.4050 -0.1558
  497TMC3     C 7443   0.930   3.130  15.832  0.1983 -0.3882 -0.4587
  497TMC3     O 7444   1.045   3.104  15.860 -0.5156 -0.4262  0.5392
  497TMC3     H 7445   0.700   3.000  15.793 -0.1850  0.5668 -0.8480
  497TMC3    H1 7446   0.977   3.101  16.085  0.1838  1.8594  1.4768
  497TMC3    H2 7447   0.560   3.049  16.185  0.6188 -0.7897 -0.0665
  497TMC3    C7 7448   0.799   3.040  16.287  0.5397  0.4569  0.4364
  497TMC3    C8 7449   0.516   2.928  15.985  0.4159  0.9115  0.2141
  497TMC3    O1 7450   0.706   2.976  16.326  0.7775 -0.0435 -0.3922
  497TMC3    O2 7451   0.413   2.948  16.046  0.2705 -0.1885 -0.3545
  498MPD2     C 7452   2.398   3.049  10.231 -0.3276 -0.7033 -0.3699
  498MPD2    C1 7453   2.319   3.163  10.221  0.4537  0.4231 -0.0460
  498MPD2    C2 7454   2.197   3.150  10.160  0.4226 -0.6035  0.1225
  498MPD2    C3 7455   2.155   3.028  10.113  0.2542 -0.2464  0.2909
  498MPD2    C4 7456   2.240   2.919  10.123 -0.1134  0.3603  0.1206
  498MPD2    C5 7457   2.364   2.929  10.183 -0.2896  0.3791  0.1654
  498MPD2     H 7458   2.135   3.238  10.154  0.2380 -0.8675 -1.8233
  498MPD2    H1 7459   2.212   2.818  10.098 -0.4666 -0.2105  2.8715
  498MPD2    H2 7460   2.499   3.065  10.266 -0.5533  0.8843 -0.4217
  498MPD2    H3 7461   2.443   2.857  10.200 -0.0204 -0.2668 -3.7429
  498MPD2     N 7462   2.025   3.016  10.078  0.1608  0.2888  0.1174
  498MPD2    H5 7463   1.962   3.095  10.091  1.3156  0.9699  1.5337
  498MPD2    N1 7464   2.358   3.292  10.260  0.6760  0.0819  0.2561
  498MPD2    H7 7465   2.296   3.367  10.230  1.5640  1.4302  1.7685
  499TMC3    C1 7466   2.490   3.480  10.318 -0.1200 -0.2191 -0.4360
  499TMC3    C2 7467   2.585   3.534  10.400 -0.2598 -0.0726 -0.4223
  499TMC3    C3 7468   2.630   3.663  10.381 -0.1104 -0.0432  0.4313
  499TMC3    C4 7469   2.438   3.550  10.213 -0.3030  0.4186  0.6057
  499TMC3    C5 7470   2.481   3.682  10.190  0.4303  0.2565  0.3239
  499TMC3    C6 7471   2.571   3.735  10.281 -0.4892 -0.3449 -0.3308
  499TMC3     C 7472   2.477   3.334  10.313  0.7364  0.0352  0.3701
  499TMC3     O 7473   2.581   3.274  10.346 -0.2144 -0.0944  0.4086
  499TMC3     H 7474   2.642   3.470  10.467 -0.2369  2.9288  2.4669
  499TMC3    H1 7475   2.366   3.502  10.149 -0.9426 -1.0614  2.4430
  499TMC3    H2 7476   2.588   3.842  10.276  0.5455 -0.5866 -2.0530
  499TMC3    C7 7477   2.404   3.776  10.116  0.5222 -0.1593 -0.2645
  499TMC3    C8 7478   2.678   3.736  10.499 -0.1953  0.2618  0.1293
  499TMC3    O1 7479   2.442   3.888  10.127 -0.6647  0.1939 -0.2659
  499TMC3    O2 7480   2.634   3.689  10.603  0.1889 -0.0608 -0.1331
  500MPD2     C 7481   3.622   4.225  10.613  0.5867 -0.1429  0.4806
  500MPD2    C1 7482   3.622   4.231  10.471  0.6572  0.4544 -0.8148
  500MPD2    C2 7483   3.500   4.255  10.402  0.0057 -1.2750  0.3226
  500MPD2    C3 7484   3.386   4.287  10.476 -0.1233 -0.2784  0.3873
  500MPD2    C4 7485   3.389   4.280  10.612  0.7688  0.3330  0.4024
  500MPD2    C5 7486   3.504   4.253  10.677 -0.4961 -0.2030  0.5314
  500MPD2     H 7487   3.506   4.268  10.294 -0.4951 -0.2864  0.4099
  500MPD2    H1 7488   3.302   4.288  10.677  0.3549 -0.1090 -0.1058
  500MPD2    H2 7489   3.708   4.188  10.667 -0.7479 -1.5128  1.6710
  500MPD2    H3 7490   3.503   4.245  10.785  0.8722  1.4486  0.6800
  500MPD2     N 7491   3.265   4.317  10.416  1.0613 -0.3081  0.4805
  500MPD2    H5 7492   3.194   4.338  10.485  0.4612  2.5113 -0.9587
  500MPD2    N1 7493   3.738   4.204  10.394  0.0424  0.2965  0.4508
  500MPD2    H7 7494   3.722   4.222  10.296  0.6299 -1.8202 -0.0390
  501TMC3    C1 7495   3.953   4.145  10.348  0.6537 -0.8947  0.0819
  501TMC3    C2 7496   3.966   4.263  10.278 -0.0674  0.1838 -0.0539
  501TMC3    C3 7497   4.088   4.297  10.240 -0.4276 -0.7906 -0.0826
  501TMC3    C4 7498   4.054   4.064  10.378 -0.1591 -0.0217  0.6982
  501TMC3    C5 7499   4.173   4.124  10.360 -0.0161  1.1220  0.5442
  501TMC3    C6 7500   4.193   4.235  10.285  0.1902  0.0218 -0.3497
  501TMC3     C 7501   3.855   4.144  10.446  0.1393 -0.1961 -0.3691
  501TMC3     O 7502   3.871   4.083  10.549  0.6449 -0.0071 -0.0464
  501TMC3     H 7503   3.885   4.332  10.259 -1.3496 -0.8173  1.8520
  501TMC3    H1 7504   4.043   3.975  10.440 -0.0381 -0.7371 -0.3068
  501TMC3    H2 7505   4.294   4.268  10.261  0.0149 -1.4631 -3.2206
  501TMC3    C7 7506   4.258   4.105  10.475  0.0642  0.3952  0.2113
  501TMC3    C8 7507   4.120   4.439  10.247  0.2309 -0.3713  0.1629
  501TMC3    O1 7508   4.241   4.001  10.540  0.6586 -0.1102 -0.5433
  501TMC3    O2 7509   4.151   4.486  10.353  0.1635 -0.2494 -0.1959
  502TMC3    C1 7510   3.184   3.249  14.673  0.7285 -0.3996  0.2667
  502TMC3    C2 7511   3.189   3.361  14.596 -0.2695 -0.2354 -0.0217
  502TMC3    C3 7512   3.064   3.409  14.563  0.6817  0.2524 -0.4690
  502TMC3    C4 7513   3.062   3.194  14.724  0.7633  0.5782 -0.3032
  502TMC3    C5 7514   2.943   3.252  14.695 -0.6965  1.0912  0.4905
  502TMC3    C6 7515   2.941   3.360  14.605  0.8273  0.3694 -0.1374
  502TMC3     C 7516   3.296   3.233  14.762  0.1069  0.2941  0.1047
  502TMC3     O 7517   3.399   3.286  14.721 -0.0954  0.0305  0.5485
  502TMC3     H 7518   3.284   3.403  14.564 -0.5684  0.5255  0.0996
  502TMC3    H1 7519   3.067   3.101  14.778 -0.0684  1.1832  0.8056
  502TMC3    H2 7520   2.855   3.425  14.613  0.1449 -0.4944 -0.4769
  502TMC3    C7 7521   2.855   3.260  14.801 -0.0329  0.3748  0.4135
  502TMC3    C8 7522   3.075   3.559  14.535 -0.3115  0.5099 -0.4008
  502TMC3    O1 7523   2.904   3.240  14.917  0.3187  0.3965 -0.5721
  502TMC3    O2 7524   3.189   3.598  14.533  0.3660 -0.4030  0.3670
  503MPD2     C 7525   0.583   0.093  16.729  0.5099 -0.1693  0.0298
  503MPD2    C1 7526   0.603   0.093  16.869 -0.4223  0.0397 -0.2371
  503MPD2    C2 7527   0.611   4.710  16.941  0.2871  0.9285  0.4273
  503MPD2    C3 7528   0.599   4.588  16.876 -0.8323 -0.6127  0.8990
  503MPD2    C4 7529   0.577   4.594  16.738 -0.3088 -0.3565 -0.1825
  503MPD2    C5 7530   0.569   4.710  16.664  0.2906  0.6057 -0.0404
  503MPD2     H 7531   0.630   4.717  17.048  1.3631  0.4718  0.2661
  503MPD2    H1 7532   0.564   4.502  16.683 -0.5747  0.8501 -2.1354
  503MPD2    H2 7533   0.590   0.186  16.672  1.6938  0.6174  1.4493
  503MPD2    H3 7534   0.556   4.696  16.557  1.0559 -0.8330  0.0595
  503MPD2     N 7535   0.615   4.466  16.940  0.4072 -0.9736  0.1910
  503MPD2    H5 7536   0.605   4.376  16.895 -2.6896 -0.1727 -0.7388
  503MPD2    N1 7537   0.627   0.212  16.942  0.2448 -0.3032 -0.1261
  503MPD2    H7 7538   0.647   0.206  17.041  1.5893  1.1405 -0.3029
  504TMC3    C1 7539   0.668   4.325  17.125 -0.1471 -0.7813  1.1391
  504TMC3    C2 7540   0.658   4.316  17.257  0.3009 -0.6593 -0.1124
  504TMC3    C3 7541   0.740   4.226  17.320 -0.4131 -0.0238 -0.2192
  504TMC3    C4 7542   0.754   4.250  17.044  0.5453  0.0810  0.7008
  504TMC3    C5 7543   0.844   4.170  17.114  0.4998 -0.5795  0.9519
  504TMC3    C6 7544   0.831   4.153  17.254  0.0179  0.2494  0.4340
  504TMC3     C 7545   0.620   4.455  17.086 -0.4085 -0.2066  0.6054
  504TMC3     O 7546   0.624   4.537  17.178 -0.0353 -0.2809 -0.1561
  504TMC3     H 7547   0.571   4.362  17.304  0.7534  0.9475 -0.8356
  504TMC3    H1 7548   0.771   4.278  16.940  3.0259  0.2960  1.1683
  504TMC3    H2 7549   0.876   4.071  17.310  0.7605  0.9794  0.9127
  504TMC3    C7 7550   0.960   4.116  17.044  0.0988  0.5989 -0.5256
  504TMC3    C8 7551   0.711   4.201  17.468 -0.6901 -1.1744 -0.5377
  504TMC3    O1 7552   0.954   4.107  16.924 -0.2839  0.0574  1.0114
  504TMC3    O2 7553   0.602   4.246  17.493 -0.0079  0.4017  0.3280
  505MPD2     C 7554   0.989   3.657   9.901 -0.8527 -0.9918  0.4599
  505MPD2    C1 7555   0.906   3.546   9.914 -0.1211  0.1237  0.3176
  505MPD2    C2 7556   0.860   3.509  10.038  0.9776 -0.2099  0.3640
  505MPD2    C3 7557   0.912   3.568  10.153  0.3441 -0.1518  0.2692
  505MPD2    C4 7558   0.995   3.679  10.141 -0.1157 -0.1155  0.1579
  505MPD2    C5 7559   1.025   3.722  10.016 -0.8688 -0.0515  0.1315
  505MPD2     H 7560   0.800   3.421  10.054  0.0248  0.0287 -1.9589
  505MPD2    H1 7561   1.039   3.731  10.225  0.3920 -0.6909  0.2501
  505MPD2    H2 7562   1.021   3.694   9.804 -1.7401 -0.8827  0.2087
  505MPD2    H3 7563   1.085   3.811  10.003  1.3596 -1.4102  1.1081
  505MPD2     N 7564   0.872   3.513  10.275  0.3171  0.0352 -0.4956
  505MPD2    H5 7565   0.808   3.435  10.283  0.5659 -0.2536 -1.2712
  505MPD2    N1 7566   0.877   3.467   9.801  0.1805 -0.1443 -0.6160
  505MPD2    H7 7567   0.924   3.492   9.715  2.0875  0.7898  0.6960
  506TMC3    C1 7568   0.777   3.295   9.662  0.2348 -0.0090  0.2601
  506TMC3    C2 7569   0.897   3.275   9.604  0.2514  0.1002 -0.5579
  506TMC3    C3 7570   0.908   3.155   9.531 -0.0590  0.8498  0.1786
  506TMC3    C4 7571   0.679   3.205   9.661 -0.7783 -0.5859 -0.2564
  506TMC3    C5 7572   0.698   3.084   9.603  0.0803  0.1843  0.0797
  506TMC3    C6 7573   0.810   3.055   9.533  0.4594 -0.1894  0.2832
  506TMC3     C 7574   0.773   3.372   9.787 -0.2496  0.2662 -0.1427
  506TMC3     O 7575   0.699   3.322   9.873 -0.2413 -0.7899  0.4181
  506TMC3     H 7576   0.979   3.345   9.612  0.1515  0.2085 -0.4657
  506TMC3    H1 7577   0.586   3.232   9.709  0.1761  0.7240  0.8562
  506TMC3    H2 7578   0.838   2.955   9.503  0.2088 -1.0943  3.0505
  506TMC3    C7 7579   0.664   2.985   9.695  0.5349  0.2670  0.0607
  506TMC3    C8 7580   1.048   3.111   9.514  0.0234  0.4729 -0.0890
  506TMC3    O1 7581   0.647   2.874   9.651  0.0435  0.0463  0.5043
  506TMC3    O2 7582   1.130   3.177   9.578  1.0239 -0.1453  0.9809
  507TMC3    C1 7583   2.268   3.468  13.917  0.7619 -1.0981 -0.9159
  507TMC3    C2 7584   2.194   3.440  13.808 -1.4192 -0.3217  0.1970
  507TMC3    C3 7585   2.172   3.533  13.710 -0.7025  0.8275 -0.2284
  507TMC3    C4 7586   2.338   3.587  13.934 -0.9482  0.1394  0.3046
  507TMC3    C5 7587   2.323   3.673  13.832 -0.3527 -0.0472 -0.6613
  507TMC3    C6 7588   2.254   3.643  13.718 -0.5603  0.0815  0.4840
  507TMC3     C 7589   2.283   3.358  14.009 -0.1012 -0.2210  0.1266
  507TMC3     O 7590   2.217   3.256  13.996  0.2386 -0.0016 -0.0716
  507TMC3     H 7591   2.130   3.353  13.802 -0.3681 -1.1666  1.5279
  507TMC3    H1 7592   2.379   3.630  14.025  0.0385  0.6923 -0.4010
  507TMC3    H2 7593   2.238   3.724  13.648 -0.8874 -0.0595  0.3973
  507TMC3    C7 7594   2.324   3.810  13.884 -0.2410  0.1319 -0.1098
  507TMC3    C8 7595   2.037   3.588  13.698 -0.0157 -0.1721  0.2999
  507TMC3    O1 7596   2.428   3.871  13.918 -0.0651 -0.1506  0.3347
  507TMC3    O2 7597   2.000   3.662  13.790  0.7373 -0.3498  0.4554
  508MPD2     C 7598   2.831   1.082  16.208  0.4396  0.1339  0.0656
  508MPD2    C1 7599   2.820   1.218  16.228 -0.0402 -0.2513 -1.0820
  508MPD2    C2 7600   2.809   1.301  16.114  0.2513 -0.0758 -0.1549
  508MPD2    C3 7601   2.817   1.248  15.988 -0.1322  0.0431  0.8459
  508MPD2    C4 7602   2.831   1.109  15.973  0.2927 -0.2054 -0.6675
  508MPD2    C5 7603   2.845   1.030  16.083 -0.2002 -0.0342 -0.5194
  508MPD2     H 7604   2.814   1.409  16.122  1.7850 -0.1311 -0.2910
  508MPD2    H1 7605   2.847   1.057  15.879  1.3977  1.4286 -1.3821
  508MPD2    H2 7606   2.837   1.016  16.294  0.4816  0.1956  0.1099
  508MPD2    H3 7607   2.849   0.922  16.070 -1.0694 -0.1382  0.0747
  508MPD2     N 7608   2.825   1.347  15.882  0.4975  0.0727  0.1135
  508MPD2    H5 7609   2.818   1.446  15.901 -2.2860 -0.2381  0.6839
  508MPD2    N1 7610   2.837   1.264  16.358  0.4609  0.3101 -0.3480
  508MPD2    H7 7611   2.845   1.198  16.435  2.1047 -1.9078 -2.4113
  509TMC3    C1 7612   2.882   1.577  15.495 -0.2004 -0.1171 -0.6835
  509TMC3    C2 7613   2.910   1.689  15.566  0.0212  0.3686 -0.3414
  509TMC3    C3 7614   2.931   1.672  15.702 -0.8767 -1.0042 -0.1850
  509TMC3    C4 7615   2.877   1.450  15.550  0.5181  0.2833 -0.3939
  509TMC3    C5 7616   2.909   1.440  15.687 -0.6386 -0.2540 -0.1442
  509TMC3    C6 7617   2.937   1.549  15.761  0.3140  0.4883 -0.3998
  509TMC3     C 7618   2.814   1.588  15.364 -0.3277  0.5710  0.0438
  509TMC3     O 7619   2.816   1.493  15.286 -0.1158 -0.1182  0.7151
  509TMC3     H 7620   2.921   1.786  15.518 -1.8857  1.1734  0.8440
  509TMC3    H1 7621   2.846   1.360  15.498 -0.5037  1.1665 -1.3298
  509TMC3    H2 7622   2.965   1.541  15.866  1.9962 -1.5804 -1.0198
  509TMC3    C7 7623   2.865   1.321  15.752 -0.1026  0.0396 -0.3986
  509TMC3    C8 7624   3.004   1.776  15.776  0.0287 -0.3603 -0.0675
  509TMC3    O1 7625   2.903   1.218  15.697 -0.9328 -0.0171  0.0864
  509TMC3    O2 7626   3.065   1.738  15.875  0.0939 -0.1272  0.2048
  510MPD2     C 7627   0.393   2.608  14.580  0.2357 -0.1274 -0.3458
  510MPD2    C1 7628   0.444   2.667  14.697 -0.2556  0.4351  0.6443
  510MPD2    C2 7629   0.578   2.715  14.702  0.1713  0.5571  0.1079
  510MPD2    C3 7630   0.660   2.714  14.587 -0.3207  0.4580  0.3900
  510MPD2    C4 7631   0.605   2.658  14.471  0.2340  0.5393  0.2397
  510MPD2    C5 7632   0.475   2.601  14.466  0.2055  0.7000  0.1282
  510MPD2     H 7633   0.614   2.753  14.797  2.1998 -0.4509 -0.2703
  510MPD2    H1 7634   0.676   2.651  14.389  0.9138 -0.9645  0.9642
  510MPD2    H2 7635   0.288   2.585  14.564  0.4877 -1.8165  0.4272
  510MPD2    H3 7636   0.440   2.550  14.377  0.0661 -1.6852  1.5470
  510MPD2     N 7637   0.797   2.750  14.606  0.1840 -0.2401 -0.6367
  510MPD2    H5 7638   0.821   2.781  14.700  1.1395 -1.1647 -0.5771
  510MPD2    N1 7639   0.358   2.665  14.807 -0.0533  0.0151  0.0030
  510MPD2    H7 7640   0.282   2.599  14.798 -2.5276  2.7328  0.7169
  511TMC3    C1 7641   0.269   2.689  15.024  0.3878 -0.0932 -0.2810
  511TMC3    C2 7642   0.229   2.788  15.112  0.6240  0.1407  0.2394
  511TMC3    C3 7643   0.158   2.745  15.219  0.2519 -0.3816  0.1570
  511TMC3    C4 7644   0.235   2.555  15.038  0.0312  0.7435  0.4429
  511TMC3    C5 7645   0.170   2.525  15.148  0.5168  0.0809 -0.3765
  511TMC3    C6 7646   0.118   2.616  15.235 -0.2142  0.2754 -0.0929
  511TMC3     C 7647   0.360   2.739  14.917 -0.4721 -0.2028 -0.5708
  511TMC3     O 7648   0.426   2.839  14.932  0.6444 -0.1776  0.3195
  511TMC3     H 7649   0.249   2.894  15.100  0.5628  0.1526  0.2442
  511TMC3    H1 7650   0.285   2.488  14.969  2.2038  2.5609  0.2601
  511TMC3    H2 7651   0.057   2.576  15.315  0.4459  0.5308  0.5323
  511TMC3    C7 7652   0.119   2.391  15.125 -0.0084  0.0623  0.8696
  511TMC3    C8 7653   0.093   2.858  15.294 -0.3873 -0.1015 -0.8031
  511TMC3    O1 7654   0.117   2.362  15.003  0.2958  0.1530 -0.6768
  511TMC3    O2 7655   0.107   2.976  15.272  0.0340  0.0644 -0.5955
  512TMC3    C1 7656   4.023   2.200  13.767 -0.0644  0.3363  0.4992
  512TMC3    C2 7657   4.145   2.232  13.832  0.3939 -0.5476  0.2642
  512TMC3    C3 7658   4.231   2.129  13.849 -0.2952 -0.0689  0.4862
  512TMC3    C4 7659   3.988   2.076  13.728 -0.8692 -0.1117 -0.5418
  512TMC3    C5 7660   4.070   1.974  13.764 -0.5319 -0.2667  0.4323
  512TMC3    C6 7661   4.191   1.995  13.833  1.1597 -0.5271  0.3921
  512TMC3     C 7662   3.928   2.306  13.730 -0.2252  0.6626 -0.4951
  512TMC3     O 7663   3.810   2.275  13.724 -0.3528  1.0256  0.5126
  512TMC3     H 7664   4.167   2.336  13.856 -0.1948 -0.3622  0.0130
  512TMC3    H1 7665   3.901   2.069  13.664  1.4846 -1.7235 -3.5627
  512TMC3    H2 7666   4.265   1.916  13.839  2.2666  0.5361  0.7243
  512TMC3    C7 7667   4.048   1.852  13.698  0.3534 -0.2217 -0.2337
  512TMC3    C8 7668   4.353   2.135  13.923 -0.5639  0.3352  0.0516
  512TMC3    O1 7669   3.938   1.828  13.649  0.5681 -0.2144  0.6137
  512TMC3    O2 7670   4.395   2.036  13.978  0.1269  0.2716 -0.2999
  513MPD2     C 7671   1.673   2.034  13.560 -0.3581  0.5090 -0.6190
  513MPD2    C1 7672   1.738   2.127  13.482  0.0636  0.0643 -0.3099
  513MPD2    C2 7673   1.790   2.238  13.546  0.2926  0.4092  0.4322
  513MPD2    C3 7674   1.753   2.268  13.675 -0.4000  0.1290 -0.2222
  513MPD2    C4 7675   1.707   2.170  13.755 -0.2303 -0.0573  0.2570
  513MPD2    C5 7676   1.669   2.050  13.698  0.4515  0.4452 -0.1135
  513MPD2     H 7677   1.842   2.311  13.485 -0.0229 -1.3641 -1.9651
  513MPD2    H1 7678   1.705   2.179  13.863  0.4549  0.4293  0.2274
  513MPD2    H2 7679   1.627   1.945  13.518 -0.3074  0.3707 -0.3805
  513MPD2    H3 7680   1.632   1.975  13.767 -0.0751  1.1278  0.3451
  513MPD2     N 7681   1.803   2.389  13.725 -0.5749  0.2409  0.2654
  513MPD2    H5 7682   1.840   2.458  13.661  1.4477 -1.5046 -0.4549
  513MPD2    N1 7683   1.769   2.116  13.345  0.0008 -0.0917 -0.1213
  513MPD2    H7 7684   1.839   2.178  13.304  1.7654 -2.4324 -0.6417
  514TMC3    C1 7685   1.776   2.033  13.129 -0.3155 -0.3217 -0.1257
  514TMC3    C2 7686   1.689   2.074  13.033  0.2694 -0.0320 -0.1443
  514TMC3    C3 7687   1.727   2.169  12.950 -0.3489  0.0173  0.5522
  514TMC3    C4 7688   1.897   2.092  13.141 -0.5561 -0.0431 -0.3578
  514TMC3    C5 7689   1.920   2.208  13.070 -0.5528 -0.6010 -0.2919
  514TMC3    C6 7690   1.843   2.241  12.962  0.1505  0.2926 -0.0145
  514TMC3     C 7691   1.716   2.020  13.259 -0.0020 -0.1826  0.3677
  514TMC3     O 7692   1.617   1.950  13.264  0.4904 -0.1201 -0.0721
  514TMC3     H 7693   1.589   2.032  13.028  0.1761  0.1089  0.4511
  514TMC3    H1 7694   1.964   2.053  13.217 -1.4547 -0.3053  0.3015
  514TMC3    H2 7695   1.869   2.323  12.896  0.6816 -0.4982 -0.7862
  514TMC3    C7 7696   1.979   2.312  13.154 -0.2780  0.7588 -0.1950
  514TMC3    C8 7697   1.650   2.207  12.837  0.3437 -0.3836  0.1123
  514TMC3    O1 7698   1.971   2.291  13.273 -0.1760 -0.8734  0.4196
  514TMC3    O2 7699   1.531   2.232  12.848  0.1347  0.0592  0.1979
  515MPD2     C 7700   4.033   4.150  14.548  0.1285  0.3209  1.0935
  515MPD2    C1 7701   4.119   4.105  14.450  0.5582 -0.6878 -0.2020
  515MPD2    C2 7702   4.213   4.189  14.395 -0.7002  0.2335 -0.3636
  515MPD2    C3 7703   4.226   4.318  14.438  0.2290 -0.6241 -0.0618
  515MPD2    C4 7704   4.128   4.368  14.524 -0.0389 -0.4383  0.5832
  515MPD2    C5 7705   4.036   4.284  14.579 -0.1136  0.1263  0.3050
  515MPD2     H 7706   4.276   4.147  14.318 -0.9851 -2.1884  0.7350
  515MPD2    H1 7707   4.131   4.471  14.555  1.0986 -0.4468  0.5138
  515MPD2    H2 7708   3.964   4.086  14.603 -1.1572  0.0520 -0.8521
  515MPD2    H3 7709   3.976   4.323  14.660  1.3245  1.9685  0.4844
  515MPD2     N 7710   4.345   4.396  14.409  0.3681  0.4149  0.5837
  515MPD2    H5 7711   4.358   4.485  14.456 -2.0693  0.8721  0.4129
  515MPD2    N1 7712   4.112   3.981  14.390 -0.1507  0.1317 -0.1552
  515MPD2    H7 7713   4.174   3.964  14.311 -0.1252  1.3191 -0.3822
  516TMC3    C1 7714   4.044   3.756  14.353 -0.0462  0.0226  0.2495
  516TMC3    C2 7715   4.023   3.775  14.219  0.7801 -0.4206  0.0912
  516TMC3    C3 7716   4.010   3.666  14.139  0.2122  0.2447  0.7335
  516TMC3    C4 7717   4.058   3.633  14.414  0.2198  0.3535 -0.1993
  516TMC3    C5 7718   4.029   3.530  14.328  0.5490 -0.5261  0.7469
  516TMC3    C6 7719   4.003   3.539  14.194  0.5314  0.1975 -0.0216
  516TMC3     C 7720   4.047   3.872  14.441 -0.3035 -0.1415  0.7302
  516TMC3     O 7721   4.012   3.847  14.556  0.4419  0.4738  0.0861
  516TMC3     H 7722   4.001   3.877  14.191  0.2842 -0.3430  0.7660
  516TMC3    H1 7723   4.083   3.621  14.519  0.7021  0.1266 -0.3443
  516TMC3    H2 7724   3.978   3.450  14.136  0.1945 -0.1887  0.7182
  516TMC3    C7 7725   4.019   3.401  14.395 -0.7392 -0.3824 -0.0592
  516TMC3    C8 7726   3.922   3.680  14.026 -0.2669  0.0586  0.4902
  516TMC3    O1 7727   3.993   3.393  14.512 -0.1465  0.0271  0.1918
  516TMC3    O2 7728   3.840   3.593  14.011 -0.1628  0.3478  0.1720
  517MPD2     C 7729   3.620   1.000  17.657 -0.0149  0.2742  0.1204
  517MPD2    C1 7730   3.754   0.985  17.703 -0.1334  0.0705  0.3142
  517MPD2    C2 7731   3.816   1.083   0.036  0.0122  1.3410 -0.4804
  517MPD2    C3 7732   3.747   1.199   0.054  0.5272  0.3693  0.0687
  517MPD2    C4 7733   3.622   1.217   0.001  0.1837 -0.1766 -0.4170
  517MPD2    C5 7734   3.559   1.117  17.682 -0.1159  0.6140  0.2588
  517MPD2     H 7735   3.919   1.076   0.067 -0.5027  1.5115  1.2810
  517MPD2    H1 7736   3.577   1.315   0.005 -1.5270 -0.9235 -1.6807
  517MPD2    H2 7737   3.565   0.927  17.599 -0.2664  0.2456  0.3932
  517MPD2    H3 7738   3.461   1.135  17.640 -0.1466  0.9594  0.4847
  517MPD2     N 7739   3.803   1.310   0.121  0.8622 -0.3967  0.2512
  517MPD2    H5 7740   3.742   1.390   0.132 -2.5058 -2.6424 -1.9109
  517MPD2    N1 7741   3.821   0.871  17.663  0.3984  0.2849  0.6401
  517MPD2    H7 7742   3.920   0.871  17.682 -0.1097  2.0507  3.4245
  518TMC3    C1 7743   3.896   0.677  17.546 -0.5431  0.2677  0.5032
  518TMC3    C2 7744   3.868   0.545  17.522  0.5343 -0.2859 -1.0166
  518TMC3    C3 7745   3.975   0.468  17.483  0.3974 -0.2832  0.6952
  518TMC3    C4 7746   4.013   0.740  17.507  0.0024  0.0384  0.8551
  518TMC3    C5 7747   4.117   0.661  17.473 -0.6362  0.1939  0.5113
  518TMC3    C6 7748   4.097   0.523  17.465  0.5621 -0.7392  0.6104
  518TMC3     C 7749   3.777   0.761  17.597 -0.0380  0.6149 -0.5271
  518TMC3     O 7750   3.663   0.722  17.567 -0.5525  0.4459  0.2827
  518TMC3     H 7751   3.766   0.508  17.528  1.3266 -2.2368  0.6993
  518TMC3    H1 7752   4.021   0.847  17.516  0.1225  0.1036  0.0162
  518TMC3    H2 7753   4.186   0.461  17.468  0.7245 -0.5728 -0.7509
  518TMC3    C7 7754   4.241   0.725  17.480  0.2245 -0.7113  0.1270
  518TMC3    C8 7755   3.973   0.326  17.461 -0.4628 -0.6955  0.0038
  518TMC3    O1 7756   4.259   0.840  17.527 -0.8227  0.4612  0.1915
  518TMC3    O2 7757   4.059   0.281  17.382 -0.1308 -0.2401 -0.3187
  519MPD2     C 7758   1.361   3.786  14.232 -0.2055  0.1570 -0.0455
  519MPD2    C1 7759   1.330   3.812  14.098  0.7459  0.1879 -0.2525
  519MPD2    C2 7760   1.396   3.749  13.990  0.2651 -0.5698  0.2131
  519MPD2    C3 7761   1.489   3.659  14.018 -0.1413 -0.4030 -0.3484
  519MPD2    C4 7762   1.527   3.636  14.150 -0.1566 -0.1037  0.4270
  519MPD2    C5 7763   1.471   3.706  14.253 -0.4047  0.4060 -0.0675
  519MPD2     H 7764   1.362   3.773  13.890 -1.1257  1.7434  1.2334
  519MPD2    H1 7765   1.616   3.577  14.166 -0.7096 -0.9632  0.3034
  519MPD2    H2 7766   1.308   3.831  14.315  0.8166  1.2480  0.0169
  519MPD2    H3 7767   1.499   3.683  14.355  1.3982  1.2285 -0.3808
  519MPD2     N 7768   1.540   3.569  13.917  0.2230 -0.0170 -0.3169
  519MPD2    H5 7769   1.625   3.521  13.946  0.2829  1.5047  2.1137
  519MPD2    N1 7770   1.221   3.905  14.086 -0.0436  0.0222  0.0366
  519MPD2    H7 7771   1.176   3.943  14.169 -0.6606 -1.0619  0.2020
  520TMC3    C1 7772   1.549   3.445  13.712  0.1959 -0.4356 -0.6595
  520TMC3    C2 7773   1.472   3.405  13.605  0.6165  0.4594 -0.6259
  520TMC3    C3 7774   1.519   3.299  13.543 -1.1255 -0.0996 -0.5710
  520TMC3    C4 7775   1.671   3.389  13.752  0.0415  0.1166  0.3046
  520TMC3    C5 7776   1.729   3.300  13.662 -0.2262 -0.3271  0.0189
  520TMC3    C6 7777   1.641   3.247  13.564  0.6139  0.0657 -0.2268
  520TMC3     C 7778   1.475   3.540  13.799 -0.1561 -0.5931  0.2502
  520TMC3     O 7779   1.365   3.581  13.768 -0.1008 -0.3211  0.4799
  520TMC3     H 7780   1.379   3.459  13.587 -0.6922 -1.7496 -0.5807
  520TMC3    H1 7781   1.731   3.440  13.826 -1.6425  1.6788  0.5934
  520TMC3    H2 7782   1.667   3.164  13.499  1.0339  0.7066 -0.8825
  520TMC3    C7 7783   1.857   3.248  13.691  0.3762  0.4277  0.5584
  520TMC3    C8 7784   1.442   3.231  13.441 -0.1485 -0.1049 -0.3613
  520TMC3    O1 7785   1.892   3.282  13.801  0.5625  0.0727  0.0248
  520TMC3    O2 7786   1.488   3.174  13.344  0.4575 -0.4670 -0.2875
  521MPD2     C 7787   1.595   1.782   0.052 -0.2845 -0.1393  0.3254
  521MPD2    C1 7788   1.602   1.839  17.667 -0.1600 -0.3260  0.2056
  521MPD2    C2 7789   1.696   1.802  17.576 -0.3580  0.2248  0.0661
  521MPD2    C3 7790   1.785   1.703  17.606 -0.0683 -0.0204  0.6944
  521MPD2    C4 7791   1.773   1.638  17.730 -0.4817  0.2808  0.3806
  521MPD2    C5 7792   1.681   1.683   0.083  0.6569 -0.4692  0.7038
  521MPD2     H 7793   1.707   1.844  17.477 -0.4285 -1.7476 -0.7861
  521MPD2    H1 7794   1.837   1.557   0.021 -0.3388  0.8022  1.2976
  521MPD2    H2 7795   1.521   1.814   0.124 -0.7429  1.0479 -0.6749
  521MPD2    H3 7796   1.670   1.646   0.184  3.9545 -0.4580  1.0426
  521MPD2     N 7797   1.884   1.660  17.517  0.3041  0.2895 -0.0708
  521MPD2    H5 7798   1.900   1.713  17.432  0.7641 -2.3996 -1.6447
  521MPD2    N1 7799   1.515   1.950  17.641  0.4776 -0.4264  0.1835
  521MPD2    H7 7800   1.452   1.972  17.718 -1.5768 -0.8826 -1.3839
  522TMC3    C1 7801   2.081   1.574  17.434 -0.1072  0.0393 -0.5325
  522TMC3    C2 7802   2.172   1.468  17.436  0.7448 -0.4024 -0.0213
  522TMC3    C3 7803   2.299   1.492  17.390  0.3978  0.1652 -0.4982
  522TMC3    C4 7804   2.103   1.698  17.375  1.2598 -0.4572 -0.1419
  522TMC3    C5 7805   2.228   1.708  17.313  1.3628 -0.5734 -0.6191
  522TMC3    C6 7806   2.324   1.614  17.328  0.2080 -0.2062 -0.6690
  522TMC3     C 7807   1.982   1.571  17.537  0.2053 -0.5019 -0.0412
  522TMC3     O 7808   1.983   1.482  17.619 -0.0035  0.1162  0.5602
  522TMC3     H 7809   2.150   1.371  17.479 -1.7838 -0.8365 -2.3586
  522TMC3    H1 7810   2.030   1.778  17.367  0.9482 -0.6359  0.9688
  522TMC3    H2 7811   2.429   1.639  17.318  0.1581 -0.0012 -0.6749
  522TMC3    C7 7812   2.274   1.836  17.272 -0.2960 -0.1571 -0.3885
  522TMC3    C8 7813   2.383   1.377  17.371  0.2615 -0.1082  0.0994
  522TMC3    O1 7814   2.388   1.874  17.294 -0.3030 -0.0064 -0.3031
  522TMC3    O2 7815   2.370   1.282  17.451  0.3100 -0.4322 -0.3350
  523MPD2     C 7816   3.625   0.573   9.348  0.4099 -0.3697 -0.5115
  523MPD2    C1 7817   3.678   0.658   9.439  0.2517 -0.3578 -0.1720
  523MPD2    C2 7818   3.678   0.797   9.412 -0.4162  0.3541  1.2850
  523MPD2    C3 7819   3.611   0.838   9.296  0.3970  0.3475 -0.0429
  523MPD2    C4 7820   3.536   0.746   9.225  0.2049 -0.1827 -0.2493
  523MPD2    C5 7821   3.554   0.607   9.244  0.3821 -0.1808 -0.0372
  523MPD2     H 7822   3.726   0.864   9.482 -0.9404 -0.8375  2.7857
  523MPD2    H1 7823   3.491   0.771   9.130  0.3605  3.1761  0.5893
  523MPD2    H2 7824   3.635   0.466   9.363  3.6156 -0.1194 -0.6730
  523MPD2    H3 7825   3.500   0.539   9.180 -0.2134 -1.8000  2.1828
  523MPD2     N 7826   3.611   0.967   9.248 -0.3603  0.1733  0.6027
  523MPD2    H5 7827   3.556   0.997   9.168  0.2139  0.2463  0.2331
  523MPD2    N1 7828   3.750   0.600   9.544 -0.9763  0.8097  0.5988
  523MPD2    H7 7829   3.764   0.500   9.539  3.1069  1.3743  0.6886
  524TMC3    C1 7830   3.653   1.203   9.235 -0.3344 -0.0165 -0.2804
  524TMC3    C2 7831   3.532   1.218   9.172  0.7814 -0.2599 -0.8365
  524TMC3    C3 7832   3.472   1.341   9.163 -0.1651  0.0108  0.0478
  524TMC3    C4 7833   3.706   1.310   9.299 -0.7358 -0.6607  0.2093
  524TMC3    C5 7834   3.647   1.432   9.293  0.2790  0.5047  0.0777
  524TMC3    C6 7835   3.519   1.449   9.230 -0.6321 -0.3343 -0.4767
  524TMC3     C 7836   3.685   1.075   9.297  0.0711 -0.3116 -0.1296
  524TMC3     O 7837   3.786   1.064   9.370 -0.2365 -0.2840 -0.1274
  524TMC3     H 7838   3.493   1.141   9.107  1.7446 -0.1114 -1.5846
  524TMC3    H1 7839   3.781   1.288   9.374 -2.3374 -1.2621  1.6260
  524TMC3    H2 7840   3.476   1.546   9.206 -1.2718 -0.4931  0.0281
  524TMC3    C7 7841   3.708   1.536   9.365  0.4433 -0.1675 -0.0533
  524TMC3    C8 7842   3.345   1.351   9.091 -0.7372 -0.1490 -0.4268
  524TMC3    O1 7843   3.813   1.513   9.425 -0.1206 -0.1750  1.2245
  524TMC3    O2 7844   3.342   1.278   8.990 -0.2554 -0.4498 -0.8349
  525MPD2     C 7845   3.216   2.987  14.463 -0.2779 -0.7017  0.0559
  525MPD2    C1 7846   3.085   2.990  14.434 -0.0787 -0.1960 -0.8401
  525MPD2    C2 7847   3.040   3.104  14.365  0.1231 -0.4668  0.5012
  525MPD2    C3 7848   3.128   3.196  14.301  0.1941  0.2359  0.0631
  525MPD2    C4 7849   3.266   3.178  14.316 -0.2828 -0.0783  0.2699
  525MPD2    C5 7850   3.307   3.078  14.404 -0.0014 -0.1277  0.1564
  525MPD2     H 7851   2.933   3.115  14.354  0.5303  1.4491 -1.5944
  525MPD2    H1 7852   3.340   3.238  14.265  0.1445 -0.7381  0.1228
  525MPD2    H2 7853   3.261   2.905  14.518 -1.6909 -1.7628 -0.3731
  525MPD2    H3 7854   3.411   3.073  14.432 -0.4400  0.7971  1.9343
  525MPD2     N 7855   3.090   3.315  14.236  0.0133 -0.0451  0.6225
  525MPD2    H5 7856   3.169   3.371  14.205  0.6172 -1.7873 -1.0465
  525MPD2    N1 7857   3.003   2.890  14.495 -0.0362  0.2066  0.5771
  525MPD2    H7 7858   3.056   2.812  14.533 -0.3094 -0.0504  0.4284
  526TMC3    C1 7859   2.816   2.804  14.617  0.5379 -0.2111 -0.0862
  526TMC3    C2 7860   2.687   2.829  14.655 -0.1126  0.4885 -0.3157
  526TMC3    C3 7861   2.638   2.790  14.777  0.2188 -0.0525  0.3172
  526TMC3    C4 7862   2.902   2.740  14.700  0.2066  0.2547  0.0338
  526TMC3    C5 7863   2.855   2.699  14.822  0.1779  0.8036  0.8058
  526TMC3    C6 7864   2.724   2.727  14.860  0.5469  0.1852 -0.1005
  526TMC3     C 7865   2.865   2.893  14.512  0.4779 -0.3244 -0.2507
  526TMC3     O 7866   2.793   2.976  14.464  0.0624 -0.2869 -0.0011
  526TMC3     H 7867   2.632   2.903  14.599 -1.4336  0.3186  0.7696
  526TMC3    H1 7868   3.009   2.735  14.684 -0.1690 -1.7491 -1.9354
  526TMC3    H2 7869   2.696   2.704  14.962  0.3853 -1.7553 -0.5746
  526TMC3    C7 7870   2.937   2.629  14.917 -0.2176  0.7592 -0.3385
  526TMC3    C8 7871   2.544   2.878  14.843 -0.1990 -0.1926  0.4055
  526TMC3    O1 7872   2.905   2.631  15.035 -0.7875 -0.3511 -1.1160
  526TMC3    O2 7873   2.560   2.916  14.958  0.1750 -0.5375  0.1719
  527MPD2     C 7874   0.560   1.439   1.504  0.2559  0.1000 -0.0026
  527MPD2    C1 7875   0.573   1.450   1.366 -0.0209  0.5301 -0.0853
  527MPD2    C2 7876   0.690   1.425   1.310 -0.5899  0.5199  0.3250
  527MPD2    C3 7877   0.797   1.393   1.393 -0.3048  0.5174 -0.0831
  527MPD2    C4 7878   0.781   1.369   1.530 -0.8329  0.5202  1.1189
  527MPD2    C5 7879   0.661   1.391   1.582  0.8392  0.4513  0.2183
  527MPD2     H 7880   0.704   1.436   1.203  1.3608  0.4343  0.5585
  527MPD2    H1 7881   0.860   1.353   1.602 -0.2083  0.2011  0.3571
  527MPD2    H2 7882   0.469   1.472   1.553  0.4711  1.8774 -0.8390
  527MPD2    H3 7883   0.645   1.382   1.689 -0.4374  1.0189  0.0799
  527MPD2     N 7884   0.918   1.382   1.326 -0.0201 -0.8169 -0.5449
  527MPD2    H5 7885   0.906   1.387   1.225  0.6855  0.1012 -0.5868
  527MPD2    N1 7886   0.468   1.509   1.284 -0.0004  0.2142 -0.2211
  527MPD2    H7 7887   0.503   1.542   1.194  2.3615  1.3080  1.0950
  528TMC3    C1 7888   0.260   1.593   1.226 -0.4313 -0.0248  1.0479
  528TMC3    C2 7889   0.278   1.578   1.089  0.7989  0.1249 -0.5559
  528TMC3    C3 7890   0.187   1.625   0.993 -0.8327 -0.2403  1.1341
  528TMC3    C4 7891   0.138   1.649   1.262  0.5559 -0.7256 -0.2591
  528TMC3    C5 7892   0.043   1.682   1.167  0.2383  0.6111 -0.4937
  528TMC3    C6 7893   0.075   1.690   1.029 -1.1036  0.1724 -0.0372
  528TMC3     C 7894   0.340   1.522   1.326  0.5680 -0.0332  0.5102
  528TMC3     O 7895   0.285   1.494   1.433  0.3738 -0.3211 -0.6914
  528TMC3     H 7896   0.368   1.525   1.061  1.6107  1.6455 -0.8197
  528TMC3    H1 7897   0.113   1.628   1.366 -0.6027  2.6675  0.1513
  528TMC3    H2 7898   0.002   1.710   0.952 -0.1927 -1.9261 -1.4261
  528TMC3    C7 7899   4.642   1.704   1.204 -0.4120 -0.3806  0.0799
  528TMC3    C8 7900   0.197   1.569   0.860  0.0791  0.7269 -0.1603
  528TMC3    O1 7901   4.570   1.731   1.110 -0.1170  0.2715 -0.1676
  528TMC3    O2 7902   0.142   1.625   0.766 -1.0302 -0.2034 -0.1383
  529MPD2     C 7903   2.416   0.064   0.730  0.1641 -0.2896  0.0231
  529MPD2    C1 7904   2.519   0.014   0.662  1.5461  0.3999  0.6475
  529MPD2    C2 7905   2.528   0.028   0.525 -0.0349  0.6110  0.1782
  529MPD2    C3 7906   2.438   0.112   0.462 -0.2599 -0.1854  0.1575
  529MPD2    C4 7907   2.340   0.175   0.534  0.3090  0.1024  0.1238
  529MPD2    C5 7908   2.322   0.142   0.663 -0.3956 -0.0249 -0.4083
  529MPD2     H 7909   2.601   4.704   0.473  0.5173  2.2025 -0.8942
  529MPD2    H1 7910   2.263   0.233   0.484  0.1391 -0.5503 -0.3757
  529MPD2    H2 7911   2.392   0.045   0.834 -0.7282 -0.1552 -0.1565
  529MPD2    H3 7912   2.248   0.192   0.724  0.6930 -0.5716  1.3549
  529MPD2     N 7913   2.440   0.127   0.320  0.1845 -0.7314 -0.1410
  529MPD2    H5 7914   2.369   0.192   0.287  1.1866  1.5083  2.1195
  529MPD2    N1 7915   2.612   4.659   0.720 -0.1944 -0.1730 -0.0469
  529MPD2    H7 7916   2.678   4.619   0.654 -0.5392 -2.0441  0.7355
  530TMC3    C1 7917   2.684   4.493   0.875  0.6329 -0.4530 -0.2168
  530TMC3    C2 7918   2.693   4.466   1.009  0.1950 -0.1158 -0.3226
  530TMC3    C3 7919   2.776   4.362   1.045 -0.4460 -0.0883 -0.0167
  530TMC3    C4 7920   2.740   4.420   0.778 -0.8422  0.0038 -0.4173
  530TMC3    C5 7921   2.814   4.315   0.823  0.4487  0.2930  0.3944
  530TMC3    C6 7922   2.846   4.291   0.951  1.0439  0.2605 -0.5876
  530TMC3     C 7923   2.607   4.619   0.848  0.1265  0.5218  0.2538
  530TMC3     O 7924   2.539   4.660   0.940  0.3603  0.5080  0.3266
  530TMC3     H 7925   2.643   4.521   1.087  1.6427  0.7138  0.0024
  530TMC3    H1 7926   2.736   4.449   0.673 -0.3705  1.2002 -0.1046
  530TMC3    H2 7927   2.936   4.234   0.972  0.9336  0.8955  1.5827
  530TMC3    C7 7928   2.860   4.222   0.723  0.4335 -0.7642 -0.6174
  530TMC3    C8 7929   2.837   4.370   1.174  0.2395  0.2887 -0.0879
  530TMC3    O1 7930   2.870   4.258   0.603 -0.3411  0.0833  0.4222
  530TMC3    O2 7931   2.857   4.482   1.222  0.0344  0.8467  0.5869
  531MPD2     C 7932   2.066   2.814  13.240 -0.4977  0.5176  0.1331
  531MPD2    C1 7933   2.039   2.712  13.330 -0.0824 -0.0838  0.0835
  531MPD2    C2 7934   2.029   2.585  13.277  0.7441  0.4185 -0.5880
  531MPD2    C3 7935   2.037   2.557  13.139  0.4469  0.0437  0.0148
  531MPD2    C4 7936   2.055   2.663  13.056  0.2267 -0.0959  0.0312
  531MPD2    C5 7937   2.071   2.787  13.107 -0.3926  0.7015 -0.6245
  531MPD2     H 7938   1.997   2.506  13.346 -0.3364 -1.2048 -2.9486
  531MPD2    H1 7939   2.076   2.655  12.950 -4.4708  0.1447 -0.9170
  531MPD2    H2 7940   2.092   2.909  13.285  1.8808 -0.2594  0.4235
  531MPD2    H3 7941   2.104   2.867  13.041 -0.7791  0.8054 -0.6925
  531MPD2     N 7942   2.015   2.426  13.078 -0.1216  0.4688  0.0515
  531MPD2    H5 7943   2.025   2.422  12.977  1.5401 -0.7948  0.2666
  531MPD2    N1 7944   2.027   2.739  13.466 -0.4850 -0.0039  0.2232
  531MPD2    H7 7945   2.054   2.831  13.501 -0.2532  0.4401 -1.1509
  532TMC3    C1 7946   1.958   2.697  13.697 -0.1661  0.3229  0.6643
  532TMC3    C2 7947   1.848   2.645  13.752  0.5844  0.0377  0.7247
  532TMC3    C3 7948   1.852   2.569  13.862 -0.6665  0.0349 -0.9272
  532TMC3    C4 7949   2.077   2.670  13.760  0.2096  0.8641  0.2740
  532TMC3    C5 7950   2.076   2.593  13.873  0.8736 -0.0601  0.4740
  532TMC3    C6 7951   1.962   2.551  13.931  0.0507  0.4723 -0.4021
  532TMC3     C 7952   1.958   2.655  13.554 -0.1268 -0.6934 -0.4028
  532TMC3     O 7953   1.891   2.554  13.540 -0.1887  0.0258 -0.2030
  532TMC3     H 7954   1.754   2.654  13.699  0.9682  3.0253  0.5573
  532TMC3    H1 7955   2.175   2.674  13.714 -0.1850 -2.2972 -0.8647
  532TMC3    H2 7956   1.969   2.466  13.998 -1.5633  0.2581 -0.5133
  532TMC3    C7 7957   2.179   2.489  13.862  0.0591 -0.8102  0.2527
  532TMC3    C8 7958   1.786   2.448  13.850 -0.3981 -0.0563  0.0449
  532TMC3    O1 7959   2.289   2.507  13.911  0.3417  0.1521 -0.1655
  532TMC3    O2 7960   1.753   2.403  13.955  0.3248  0.1036 -0.2105
  533TMC3    C1 7961   2.953   3.492  14.164 -0.6208 -0.4340 -0.3667
  533TMC3    C2 7962   3.055   3.580  14.163  0.4726 -0.2344 -0.4678
  533TMC3    C3 7963   3.024   3.714  14.164  0.0498  0.5933 -0.2169
  533TMC3    C4 7964   2.824   3.538  14.159 -0.1176 -0.4459 -0.1194
  533TMC3    C5 7965   2.797   3.669  14.168  0.1517  0.7068  0.5020
  533TMC3    C6 7966   2.891   3.758  14.180 -0.1220 -0.0174 -0.8052
  533TMC3     C 7967   2.961   3.359  14.220 -0.3745  0.5015  0.0892
  533TMC3     O 7968   2.854   3.307  14.264  0.2885  0.1089 -0.4339
  533TMC3     H 7969   3.159   3.549  14.161  0.3811 -0.5760 -0.0403
  533TMC3    H1 7970   2.749   3.467  14.125 -2.9636  2.3084  0.3447
  533TMC3    H2 7971   2.870   3.864  14.191 -0.5790 -0.0753 -1.0903
  533TMC3    C7 7972   2.657   3.704  14.184 -0.1491  0.4784  0.8464
  533TMC3    C8 7973   3.127   3.814  14.129  0.4234 -0.7148 -0.1782
  533TMC3    O1 7974   2.580   3.615  14.192  0.0486  0.2920 -0.6880
  533TMC3    O2 7975   3.087   3.928  14.137  0.2596 -0.2065  0.0966
  534MPD2     C 7976   0.608   4.422   1.538  0.8621  0.5387  0.8018
  534MPD2    C1 7977   0.629   4.514   1.436 -0.9263 -0.4867  0.8127
  534MPD2    C2 7978   0.522   4.590   1.393 -0.1571 -0.4618 -0.0954
  534MPD2    C3 7979   0.392   4.567   1.432 -0.1793 -0.2916 -0.2234
  534MPD2    C4 7980   0.369   4.472   1.527 -0.6114 -0.3110  0.4527
  534MPD2    C5 7981   0.481   4.405   1.585  0.6965  0.0672 -0.2868
  534MPD2     H 7982   0.553   4.665   1.321 -0.6855 -1.6116 -1.4988
  534MPD2    H1 7983   0.267   4.457   1.559  0.6795 -0.2012  4.6399
  534MPD2    H2 7984   0.689   4.360   1.575  1.3389  1.1445  0.7873
  534MPD2    H3 7985   0.456   4.334   1.662  1.8755  0.5300  0.5197
  534MPD2     N 7986   0.283   4.640   1.379 -0.0641  0.0187  0.1752
  534MPD2    H5 7987   0.195   4.625   1.426 -0.5909  3.5919  0.3757
  534MPD2    N1 7988   0.758   4.541   1.375 -0.3518  0.3015 -0.3140
  534MPD2    H7 7989   0.774   4.631   1.331 -0.8020 -0.6929 -2.4978
  535TMC3    C1 7990   0.151   0.032   1.238 -0.1691  0.2223 -0.0975
  535TMC3    C2 7991   0.034   4.711   1.295  0.1815  0.8057  0.0085
  535TMC3    C3 7992   4.654   4.735   1.218 -0.3673 -0.4362 -0.2741
  535TMC3    C4 7993   0.149   0.118   1.127 -0.0254 -0.0072 -0.9063
  535TMC3    C5 7994   0.025   0.127   1.064 -0.5412  0.9048 -0.0801
  535TMC3    C6 7995   4.647   0.074   1.104 -0.1545  0.1176 -0.1228
  535TMC3     C 7996   0.283   4.731   1.275 -0.0267  0.1285  0.1196
  535TMC3     O 7997   0.381   0.031   1.208  0.1628  0.1965 -0.1649
  535TMC3     H 7998   0.044   4.649   1.384 -1.3464 -1.5423 -1.4425
  535TMC3    H1 7999   0.242   0.147   1.078  0.1073  0.5071 -0.3578
  535TMC3    H2 8000   4.554   0.100   1.056 -1.4315 -2.1990  1.1356
  535TMC3    C7 8001   0.008   0.213   0.953 -0.0188 -0.4986 -0.1263
  535TMC3    C8 8002   4.527   4.703   1.284 -0.7217 -0.4202  0.4472
  535TMC3    O1 8003   4.662   0.183   0.868  0.9353  0.0778 -0.5082
  535TMC3    O2 8004   4.432   4.714   1.207  0.2189 -0.1836 -0.1995
  536MPD2     C 8005   3.745   3.255  16.070 -0.4788 -0.7146 -0.1552
  536MPD2    C1 8006   3.629   3.205  16.126 -0.5580  0.0368 -0.6703
  536MPD2    C2 8007   3.509   3.199  16.053 -0.3120  0.6082  0.0133
  536MPD2    C3 8008   3.515   3.248  15.922 -0.0232 -0.3570 -0.0618
  536MPD2    C4 8009   3.637   3.283  15.867 -0.3139  0.3082  0.4268
  536MPD2    C5 8010   3.756   3.288  15.937 -0.0784 -0.7817 -0.1497
  536MPD2     H 8011   3.414   3.178  16.101 -1.6681  1.1883 -2.4644
  536MPD2    H1 8012   3.640   3.324  15.767 -0.4187  0.6893  0.5791
  536MPD2    H2 8013   3.836   3.258  16.129 -1.2324  1.3050  0.9065
  536MPD2    H3 8014   3.849   3.318  15.890 -2.1401  2.2468 -2.3148
  536MPD2     N 8015   3.402   3.248  15.838  0.2250  0.1770 -0.2358
  536MPD2    H5 8016   3.420   3.265  15.740 -1.5546  0.8173 -0.4463
  536MPD2    N1 8017   3.652   3.157  16.256 -0.5690 -0.4247 -0.3251
  536MPD2    H7 8018   3.738   3.187  16.301 -2.1749  1.3974  1.5100
  537TMC3    C1 8019   3.591   3.068  16.475  0.1543  0.0865  0.5236
  537TMC3    C2 8020   3.653   3.169  16.544 -0.4742 -0.3296 -0.4256
  537TMC3    C3 8021   3.676   3.162  16.680 -0.4884  0.4161 -0.1084
  537TMC3    C4 8022   3.554   2.954  16.551  0.4710 -0.0458  0.1227
  537TMC3    C5 8023   3.580   2.944  16.682 -0.3358  0.2591 -0.0550
  537TMC3    C6 8024   3.642   3.050  16.750 -0.4981  0.1002 -0.2748
  537TMC3     C 8025   3.560   3.082  16.330 -0.2255  0.4313 -0.6679
  537TMC3     O 8026   3.474   3.007  16.288  0.3775 -0.1208  0.0582
  537TMC3     H 8027   3.681   3.259  16.491  2.0441 -0.3506  0.8498
  537TMC3    H1 8028   3.507   2.874  16.496  0.8506 -1.6187  2.1052
  537TMC3    H2 8029   3.660   3.049  16.857 -0.1858 -0.4183 -0.3282
  537TMC3    C7 8030   3.535   2.833  16.760  0.4298 -0.8989  0.2451
  537TMC3    C8 8031   3.761   3.257  16.749 -0.1366 -0.7373  0.5307
  537TMC3    O1 8032   3.591   2.816  16.868  0.2513 -0.3774 -0.6215
  537TMC3    O2 8033   3.801   3.228  16.862 -0.4020  0.2069 -0.0211
  538TMC3    C1 8034   0.127   0.941  11.107  0.0578  0.4761 -0.0014
  538TMC3    C2 8035   0.262   0.955  11.099 -0.3994 -1.0424 -0.4496
  538TMC3    C3 8036   0.310   1.043  11.005 -0.0851 -0.6405 -0.2563
  538TMC3    C4 8037   0.045   0.971  11.000  0.5805 -0.7419  0.1055
  538TMC3    C5 8038   0.109   1.045  10.897 -0.1086 -0.6303  0.1979
  538TMC3    C6 8039   0.238   1.089  10.902 -0.4760  0.6128 -0.3802
  538TMC3     C 8040   0.073   0.869  11.222 -0.5617  1.4001 -0.7126
  538TMC3     O 8041   4.695   0.822  11.197 -0.1186  0.5449  0.2360
  538TMC3     H 8042   0.333   0.919  11.172 -0.1949  0.8999  0.3134
  538TMC3    H1 8043   4.675   0.948  11.000  0.4092  0.1169  2.5201
  538TMC3    H2 8044   0.278   1.161  10.831 -2.2678 -0.5695 -2.5699
  538TMC3    C7 8045   0.016   1.097  10.796  0.4044  0.1965 -0.2279
  538TMC3    C8 8046   0.456   1.070  11.014  0.4548  0.0636  0.0851
  538TMC3    O1 8047   4.635   1.095  10.825  0.4350 -0.3315 -0.0769
  538TMC3    O2 8048   0.516   1.057  11.121 -0.6816  0.6041 -0.3691
  539MPD2     C 8049   4.123   0.214  11.849 -0.1467  1.4192 -0.7553
  539MPD2    C1 8050   4.169   0.206  11.723 -0.0752 -0.2539 -0.3849
  539MPD2    C2 8051   4.207   0.322  11.653 -0.5108 -0.6388 -0.6641
  539MPD2    C3 8052   4.182   0.440  11.707 -0.2383 -0.1888 -1.1607
  539MPD2    C4 8053   4.113   0.451  11.824  0.5082  0.1218  0.1037
  539MPD2    C5 8054   4.096   0.336  11.900  0.2565 -0.3251 -0.4970
  539MPD2     H 8055   4.253   0.316  11.555  0.5091  1.4217 -0.2948
  539MPD2    H1 8056   4.087   0.545  11.870 -0.3400 -0.0131 -0.0936
  539MPD2    H2 8057   4.113   0.120  11.903  0.0458  0.5642 -2.2032
  539MPD2    H3 8058   4.047   0.342  11.996  1.1676 -0.3887 -0.0325
  539MPD2     N 8059   4.213   0.561  11.645  0.2800  0.4770 -0.4095
  539MPD2    H5 8060   4.156   0.638  11.680  0.3093  0.0939  0.4705
  539MPD2    N1 8061   4.190   0.072  11.671  0.5017 -0.4842 -0.2663
  539MPD2    H7 8062   4.168   0.000  11.739 -2.7399  0.6109 -0.1173
  540TMC3    C1 8063   4.335   0.714  11.504  0.4937 -0.7666 -0.0702
  540TMC3    C2 8064   4.346   0.731  11.372  0.2561 -0.2547 -0.0942
  540TMC3    C3 8065   4.362   0.854  11.324  0.6331 -0.1263 -0.4392
  540TMC3    C4 8066   4.329   0.816  11.589 -0.1571 -0.2407  0.7721
  540TMC3    C5 8067   4.332   0.944  11.535  0.0760  0.4090  0.1723
  540TMC3    C6 8068   4.363   0.965  11.406  0.0756 -0.9040 -0.6601
  540TMC3     C 8069   4.315   0.572  11.546 -0.2947  0.5836  0.0947
  540TMC3     O 8070   4.380   0.484  11.493 -0.4822  0.0676  0.4793
  540TMC3     H 8071   4.347   0.640  11.313  0.8648 -0.1280 -0.2869
  540TMC3    H1 8072   4.301   0.803  11.693  1.2568 -0.8698  1.0788
  540TMC3    H2 8073   4.351   1.067  11.371  0.4372 -0.5133  0.3585
  540TMC3    C7 8074   4.242   1.033  11.598  0.2707  0.4507 -0.6897
  540TMC3    C8 8075   4.383   0.893  11.182 -0.5683 -0.6865  0.2583
  540TMC3    O1 8076   4.155   1.085  11.527  0.4625  0.4733 -0.0867
  540TMC3    O2 8077   4.429   1.006  11.154 -0.4950  0.1681  0.0389
  541MPD2     C 8078   3.324   1.830  13.382 -0.3518 -0.2221  0.6785
  541MPD2    C1 8079   3.250   1.741  13.304  0.8490 -0.5527 -0.8996
  541MPD2    C2 8080   3.217   1.784  13.177  0.1677 -0.2901 -1.0405
  541MPD2    C3 8081   3.245   1.910  13.127 -0.1703 -0.0267  0.5784
  541MPD2    C4 8082   3.296   2.008  13.215 -0.3537 -0.5719 -0.1741
  541MPD2    C5 8083   3.335   1.963  13.338  0.6769  0.1399  0.5635
  541MPD2     H 8084   3.157   1.719  13.114 -0.4173 -1.3091  0.5876
  541MPD2    H1 8085   3.327   2.107  13.183  0.4059  0.1546  2.8300
  541MPD2    H2 8086   3.359   1.806  13.482  0.9118  0.5973  0.4237
  541MPD2    H3 8087   3.387   2.036  13.399 -1.7213  0.7709  1.8719
  541MPD2     N 8088   3.201   1.959  13.001 -0.4499 -0.0829  0.8734
  541MPD2    H5 8089   3.231   2.055  12.989 -0.1650 -0.2460  0.2883
  541MPD2    N1 8090   3.206   1.613  13.369  0.2901 -0.7838  0.4883
  541MPD2    H7 8091   3.242   1.589  13.461 -0.0623  1.6904  1.2904
  542TMC3    C1 8092   3.136   1.955  12.771  0.4969 -0.0186 -0.3019
  542TMC3    C2 8093   3.148   1.875  12.662  0.1467  0.2664 -0.6299
  542TMC3    C3 8094   3.120   1.925  12.540  0.2597  0.2588  0.1012
  542TMC3    C4 8095   3.130   2.092  12.752  0.3166  0.3794 -0.3528
  542TMC3    C5 8096   3.118   2.144  12.624  0.4913  0.9814  0.3805
  542TMC3    C6 8097   3.106   2.059  12.518  0.1879  0.4247  0.4098
  542TMC3     C 8098   3.147   1.882  12.900 -0.9368  0.2698 -0.1902
  542TMC3     O 8099   3.134   1.761  12.905 -0.4673 -0.5090 -0.6575
  542TMC3     H 8100   3.175   1.770  12.672  0.8666  0.7373  2.2837
  542TMC3    H1 8101   3.119   2.161  12.834  0.2578 -2.1538  1.7478
  542TMC3    H2 8102   3.078   2.085  12.416  1.5934  2.5890  0.5529
  542TMC3    C7 8103   3.144   2.285  12.615 -0.5929 -0.2000  0.2862
  542TMC3    C8 8104   3.117   1.842  12.423 -0.4651 -0.6228 -0.5551
  542TMC3    O1 8105   3.200   2.340  12.712 -0.2538  0.9385 -0.1180
  542TMC3    O2 8106   3.145   1.898  12.317  0.1399 -0.2834  0.7127
  543TMC3    C1 8107   2.081   3.950  17.108 -0.0665 -0.8251 -0.4922
  543TMC3    C2 8108   2.117   3.852  17.194  0.1295 -0.7269  0.2113
  543TMC3    C3 8109   2.119   3.882  17.327 -0.1306 -0.4050 -0.0270
  543TMC3    C4 8110   2.044   4.074  17.143  0.6279 -0.0936 -0.5267
  543TMC3    C5 8111   2.025   4.091  17.283  0.1632 -0.1032 -0.0711
  543TMC3    C6 8112   2.067   3.996  17.378  0.2774 -0.3342 -0.5207
  543TMC3     C 8113   2.107   3.929  16.969  0.7788 -0.4666  0.3117
  543TMC3     O 8114   2.178   3.834  16.944 -0.0314  0.4141 -0.7926
  543TMC3     H 8115   2.165   3.759  17.164  0.1694 -0.9771  1.0461
  543TMC3    H1 8116   2.025   4.149  17.067 -0.5159 -1.3018 -1.4461
  543TMC3    H2 8117   2.066   4.021  17.484 -2.3187 -2.6542 -0.0146
  543TMC3    C7 8118   1.972   4.214  17.341 -0.6372  0.3032  0.6270
  543TMC3    C8 8119   2.157   3.767  17.412  0.3173  0.2258  0.1196
  543TMC3    O1 8120   1.943   4.210  17.460  0.2819 -0.1744  0.0977
  543TMC3    O2 8121   2.239   3.685  17.375  0.2616  0.9108 -0.0065
  544MPD2     C 8122   1.999   3.445   0.042 -0.2722  0.2375 -0.7068
  544MPD2    C1 8123   2.097   3.437  17.692 -0.5219  0.6938  0.0757
  544MPD2    C2 8124   2.122   3.546  17.608 -0.3001  0.4110 -0.1192
  544MPD2    C3 8125   2.059   3.667  17.624  0.1960  0.2332 -0.0145
  544MPD2    C4 8126   1.962   3.675  17.723 -0.2317 -0.5433  0.4965
  544MPD2    C5 8127   1.929   3.565   0.058 -0.1679  0.0671 -0.3324
  544MPD2     H 8128   2.194   3.541  17.527  0.5553 -2.2794  0.8333
  544MPD2    H1 8129   1.907   3.766  17.740 -2.1835 -1.4940 -0.7275
  544MPD2    H2 8130   1.980   3.355   0.099 -0.1135  0.9287  0.4346
  544MPD2    H3 8131   1.867   3.584   0.145 -1.4815 -1.6431 -0.8907
  544MPD2     N 8132   2.075   3.773  17.525 -0.2116  0.2892  0.8524
  544MPD2    H5 8133   2.024   3.860  17.538  1.6240  1.3804  0.7515
  544MPD2    N1 8134   2.165   3.315  17.689 -0.4486  0.5309  0.2307
  544MPD2    H7 8135   2.137   3.245   0.013  1.7573 -0.1832  0.4029
  545TMC3    C1 8136   2.256   3.123  17.581 -0.9077  0.0192 -1.4891
  545TMC3    C2 8137   2.372   3.061  17.547 -0.3684 -0.0963 -0.2642
  545TMC3    C3 8138   2.366   2.924  17.543 -0.0102 -0.0588 -0.5115
  545TMC3    C4 8139   2.133   3.059  17.609 -0.1709  0.7852 -0.2261
  545TMC3    C5 8140   2.132   2.924  17.598  0.8889 -0.4275 -0.3928
  545TMC3    C6 8141   2.244   2.854  17.559  0.4092 -0.2745 -0.5651
  545TMC3     C 8142   2.262   3.267  17.605 -0.2254  0.7154  0.2945
  545TMC3     O 8143   2.330   3.335  17.529 -0.6237  0.1325 -0.1345
  545TMC3     H 8144   2.463   3.119  17.541  0.8412 -2.0569 -0.9906
  545TMC3    H1 8145   2.045   3.113  17.641 -0.0840  1.7805 -1.6616
  545TMC3    H2 8146   2.232   2.748  17.538  0.5179 -0.5746  0.8971
  545TMC3    C7 8147   2.020   2.870  17.677  0.5029 -0.0269 -1.0139
  545TMC3    C8 8148   2.478   2.843  17.497 -0.4020  0.2442  0.3029
  545TMC3    O1 8149   1.922   2.941  17.711  0.2396  0.2478 -0.2868
  545TMC3    O2 8150   2.472   2.722  17.506 -0.7715 -0.2874  0.1589
  546MPD2     C 8151   3.678   3.765  16.624 -0.0270  0.0772  0.1279
  546MPD2    C1 8152   3.662   3.755  16.763  0.1332  0.4238 -0.0728
  546MPD2    C2 8153   3.715   3.856  16.847 -0.1235  0.4208  0.2246
  546MPD2    C3 8154   3.794   3.960  16.790 -0.4222 -0.5057 -0.1498
  546MPD2    C4 8155   3.794   3.965  16.654  0.6449  0.0898  0.1273
  546MPD2    C5 8156   3.735   3.874  16.570 -0.6738  0.4068 -0.0468
  546MPD2     H 8157   3.697   3.853  16.954 -2.1322 -0.5607 -0.1503
  546MPD2    H1 8158   3.840   4.049  16.603  0.2054  1.0989  1.3835
  546MPD2    H2 8159   3.639   3.700  16.545  1.3915  1.9064 -2.0732
  546MPD2    H3 8160   3.732   3.891  16.463 -2.2394 -0.3533 -0.1202
  546MPD2     N 8161   3.843   4.071  16.858  0.0360  0.1851 -0.4962
  546MPD2    H5 8162   3.878   4.150  16.805 -0.0142  1.7294  1.7850
  546MPD2    N1 8163   3.585   3.645  16.810  0.3427  0.3206  0.1596
  546MPD2    H7 8164   3.549   3.579  16.743  0.8976  0.8672 -0.6861
  547TMC3    C1 8165   3.449   3.522  16.962 -0.4420 -0.1314  0.7333
  547TMC3    C2 8166   3.349   3.532  16.872 -0.6019  0.3458 -0.0278
  547TMC3    C3 8167   3.239   3.457  16.888  0.0523  0.3551  0.0016
  547TMC3    C4 8168   3.444   3.441  17.076 -0.0321  0.0846  0.1187
  547TMC3    C5 8169   3.331   3.368  17.085 -0.4123 -0.1900 -0.2407
  547TMC3    C6 8170   3.224   3.378  16.998  0.0864 -0.4627  0.0991
  547TMC3     C 8171   3.562   3.616  16.945 -0.5162 -0.2927  0.8225
  547TMC3     O 8172   3.616   3.647  17.048 -0.5452  0.0752 -0.6821
  547TMC3     H 8173   3.345   3.606  16.793 -0.3501 -0.0394 -0.4010
  547TMC3    H1 8174   3.518   3.449  17.155 -0.3071 -0.7317  0.4526
  547TMC3    H2 8175   3.149   3.300  16.994  0.7575 -1.0729 -0.6722
  547TMC3    C7 8176   3.307   3.297  17.215  0.0984 -0.3431  0.1086
  547TMC3    C8 8177   3.122   3.526  16.830  0.2479  0.8782 -0.3289
  547TMC3    O1 8178   3.189   3.292  17.249  0.0420 -0.0368  0.2269
  547TMC3    O2 8179   3.120   3.570  16.716 -0.0997  0.2886 -0.5663
  548MPD2     C 8180   3.776   3.659  12.521  0.1359  0.1666  0.1622
  548MPD2    C1 8181   3.775   3.544  12.440  0.3102  0.4450  0.3209
  548MPD2    C2 8182   3.887   3.455  12.429 -0.7479 -0.0656 -0.5116
  548MPD2    C3 8183   3.999   3.482  12.505  0.4203  0.7072 -0.5630
  548MPD2    C4 8184   4.002   3.603  12.574 -0.4634 -0.3265 -0.0725
  548MPD2    C5 8185   3.892   3.683  12.578  0.4762 -0.8387 -0.5637
  548MPD2     H 8186   3.874   3.357  12.385  1.6714  0.1923 -1.7896
  548MPD2    H1 8187   4.092   3.636  12.626  0.4186 -3.1144  0.1211
  548MPD2    H2 8188   3.698   3.734  12.524  0.1482  0.1082  1.9643
  548MPD2    H3 8189   3.911   3.773  12.635 -0.3306 -0.8008 -0.3586
  548MPD2     N 8190   4.102   3.389  12.497 -0.3073 -0.2219  0.1100
  548MPD2    H5 8191   4.079   3.309  12.438 -3.4340  0.0023  1.0367
  548MPD2    N1 8192   3.650   3.513  12.385  0.2220  0.3364  0.4210
  548MPD2    H7 8193   3.574   3.576  12.406 -1.0928 -0.5986 -1.4384
  549TMC3    C1 8194   3.479   3.395  12.254 -0.6580  0.9562 -0.0679
  549TMC3    C2 8195   3.396   3.500  12.265  0.6875 -0.5322  0.3093
  549TMC3    C3 8196   3.268   3.482  12.225 -0.0078 -0.2082  0.3075
  549TMC3    C4 8197   3.437   3.271  12.206 -0.0418  0.0454 -0.2828
  549TMC3    C5 8198   3.304   3.259  12.172 -0.3409  0.1165 -0.2499
  549TMC3    C6 8199   3.217   3.362  12.177  0.2879  0.1189 -0.0434
  549TMC3     C 8200   3.612   3.396  12.311 -0.3997  0.3024  0.2700
  549TMC3     O 8201   3.688   3.307  12.281 -0.0755 -0.0834  0.7244
  549TMC3     H 8202   3.424   3.588  12.322  0.5894 -0.0651 -0.3529
  549TMC3    H1 8203   3.508   3.191  12.195 -0.8268 -1.0318  2.4662
  549TMC3    H2 8204   3.113   3.350  12.152 -0.1509  0.2378  1.7148
  549TMC3    C7 8205   3.269   3.147  12.081  0.5307  1.2528  0.1575
  549TMC3    C8 8206   3.180   3.591  12.206  0.4599 -0.2820  0.1567
  549TMC3    O1 8207   3.175   3.159  12.004 -0.5676 -0.2467 -0.5298
  549TMC3    O2 8208   3.057   3.574  12.201 -0.5587  0.3415 -0.1830
  550TMC3    C1 8209   2.719   1.510  12.222  0.5485  0.4045  0.5051
  550TMC3    C2 8210   2.677   1.519  12.355 -0.0055  0.0344 -0.5586
  550TMC3    C3 8211   2.713   1.632  12.425 -0.5153  0.3699  0.1837
  550TMC3    C4 8212   2.800   1.605  12.165 -0.3489  0.3040  0.1856
  550TMC3    C5 8213   2.836   1.716  12.243  0.9976  0.4109  0.1029
  550TMC3    C6 8214   2.790   1.729  12.369 -0.7119 -0.3382  0.0149
  550TMC3     C 8215   2.710   1.388  12.151 -0.2186  0.0171  0.2529
  550TMC3     O 8216   2.678   1.285  12.208 -0.6234 -0.1308  0.1724
  550TMC3     H 8217   2.613   1.441  12.396 -1.0594  0.8214 -0.7096
  550TMC3    H1 8218   2.836   1.599  12.063 -0.6520 -0.1066  0.1003
  550TMC3    H2 8219   2.817   1.816  12.429 -1.0940  0.5128 -1.0445
  550TMC3    C7 8220   2.817   1.847  12.173  0.0908 -0.1412  0.3502
  550TMC3    C8 8221   2.604   1.705  12.495 -0.0322  0.1895  0.8182
  550TMC3    O1 8222   2.765   1.930  12.241  0.1218  0.0369 -0.6053
  550TMC3    O2 8223   2.644   1.785  12.577  0.2925 -0.2626  0.0450
  551TMC3    C1 8224   0.577   0.066  13.390 -0.9698  0.6751 -0.7633
  551TMC3    C2 8225   0.661   0.145  13.315 -0.0438  0.7719  0.8379
  551TMC3    C3 8226   0.738   0.248  13.373  0.5178  0.2719 -0.6125
  551TMC3    C4 8227   0.564   0.088  13.525 -0.1108 -0.3497 -0.9729
  551TMC3    C5 8228   0.644   0.186  13.577  0.0787  1.0312  0.5052
  551TMC3    C6 8229   0.729   0.266  13.505 -0.5555  1.1844 -0.3820
  551TMC3     C 8230   0.513   4.693  13.322 -0.3395 -0.1159  0.0627
  551TMC3     O 8231   0.404   4.648  13.358  0.1646  0.0893  0.1547
  551TMC3     H 8232   0.663   0.139  13.207  1.6744  1.8816  0.8041
  551TMC3    H1 8233   0.498   0.030  13.588 -0.6418  2.1039  0.6936
  551TMC3    H2 8234   0.774   0.352  13.552 -0.5476  0.2492  1.3451
  551TMC3    C7 8235   0.632   0.213  13.719 -1.2333 -0.5629 -0.6301
  551TMC3    C8 8236   0.733   0.360  13.282  0.0308 -0.1271  0.3420
  551TMC3    O1 8237   0.655   0.124  13.798 -0.3456  0.3373  0.2712
  551TMC3    O2 8238   0.657   0.355  13.187 -0.0412 -0.0060  0.5577
  552MPD2     C 8239   1.859   1.973  14.067  0.0534  0.0157 -0.1734
  552MPD2    C1 8240   1.805   1.908  14.184 -1.0647  0.5319  0.2892
  552MPD2    C2 8241   1.888   1.844  14.275  0.4984 -0.2903 -0.2506
  552MPD2    C3 8242   2.024   1.839  14.256  0.0820  0.3744  0.1982
  552MPD2    C4 8243   2.073   1.891  14.138 -0.3987  0.0736  0.0530
  552MPD2    C5 8244   1.995   1.956  14.046  0.0493 -0.1324 -0.0195
  552MPD2     H 8245   1.837   1.802  14.362  1.9649 -0.6805  0.4222
  552MPD2    H1 8246   2.178   1.873  14.115  0.0335  1.7851  0.6931
  552MPD2    H2 8247   1.800   2.026  13.993  0.8073 -0.2836 -0.9872
  552MPD2    H3 8248   2.035   1.977  13.947  0.3456 -2.0416 -0.3056
  552MPD2     N 8249   2.114   1.801  14.355 -0.0907  0.0623 -0.2771
  552MPD2    H5 8250   2.212   1.815  14.333  0.0699  0.2409  0.5376
  552MPD2    N1 8251   1.661   1.907  14.207 -0.0920  0.0842  0.0156
  552MPD2    H7 8252   1.627   1.859  14.290  0.0241 -0.8175 -0.4570
  553TMC3    C1 8253   1.434   1.940  14.168  0.8588  0.8397 -0.1451
  553TMC3    C2 8254   1.368   1.894  14.054 -0.1492  0.5906 -0.6708
  553TMC3    C3 8255   1.325   1.761  14.053 -0.0231  0.0520  0.2310
  553TMC3    C4 8256   1.431   1.866  14.286  0.1053  0.3690 -0.1863
  553TMC3    C5 8257   1.365   1.745  14.285 -1.1397 -0.5443  0.1717
  553TMC3    C6 8258   1.332   1.688  14.168 -0.5382  0.8311 -0.3191
  553TMC3     C 8259   1.570   1.975  14.132 -0.1225 -0.5160  0.2687
  553TMC3     O 8260   1.580   2.025  14.023  0.1731  0.1184 -0.4175
  553TMC3     H 8261   1.365   1.954  13.964 -2.5150  0.6106 -0.5703
  553TMC3    H1 8262   1.469   1.916  14.374  4.1432 -0.7693 -1.2708
  553TMC3    H2 8263   1.289   1.588  14.164  3.4549 -0.8828 -0.0235
  553TMC3    C7 8264   1.430   1.658  14.377 -1.3287 -0.2276  0.1374
  553TMC3    C8 8265   1.392   1.694  13.951 -0.3220 -0.2854  0.4250
  553TMC3    O1 8266   1.434   1.680  14.496 -0.0671  0.4748  0.1984
  553TMC3    O2 8267   1.462   1.597  13.972  0.2180  0.1733  0.5092
  554TMC3    C1 8268   3.765   0.814  11.503 -0.1505  0.0924  0.2612
  554TMC3    C2 8269   3.711   0.697  11.449  0.4286 -0.1767  0.1223
  554TMC3    C3 8270   3.787   0.627  11.360  0.1628 -0.0401 -0.4207
  554TMC3    C4 8271   3.884   0.864  11.451  0.8845  0.4924  0.3377
  554TMC3    C5 8272   3.952   0.795  11.355  0.2321  0.2652 -0.3501
  554TMC3    C6 8273   3.910   0.674  11.321  0.0748  0.3555 -0.2821
  554TMC3     C 8274   3.759   0.826  11.642 -0.6444  0.3085  0.6492
  554TMC3     O 8275   3.799   0.931  11.685 -0.2412  0.1357  0.3525
  554TMC3     H 8276   3.616   0.660  11.484 -0.7407 -0.4276 -3.2395
  554TMC3    H1 8277   3.916   0.958  11.493  1.8802  1.7921 -3.3188
  554TMC3    H2 8278   3.946   0.614  11.238  0.1823 -1.5336  1.1247
  554TMC3    C7 8279   4.006   0.865  11.238  0.8181 -0.1501 -0.3709
  554TMC3    C8 8280   3.709   0.568  11.255 -0.2383 -0.2448 -0.2039
  554TMC3    O1 8281   4.036   0.797  11.140 -0.3670  0.9419  0.0607
  554TMC3    O2 8282   3.734   0.600  11.137  0.0616 -0.0159 -0.2693
  555TMC3    C1 8283   2.708   0.732  15.590  0.3741  0.0798 -0.1026
  555TMC3    C2 8284   2.767   0.792  15.700 -0.3692  0.3048  0.0844
  555TMC3    C3 8285   2.840   0.711  15.784 -0.5415 -0.0378  0.0813
  555TMC3    C4 8286   2.703   0.596  15.573  0.2882 -0.0921  0.0826
  555TMC3    C5 8287   2.776   0.515  15.655  0.1809 -0.3814 -0.5148
  555TMC3    C6 8288   2.855   0.575  15.756 -0.6392 -0.0114  0.3221
  555TMC3     C 8289   2.631   0.815  15.503  0.3054 -0.3194 -0.2476
  555TMC3     O 8290   2.588   0.922  15.548 -0.6812  0.1179  0.5795
  555TMC3     H 8291   2.750   0.898  15.712  1.1627  0.3981  1.3756
  555TMC3    H1 8292   2.642   0.551  15.495  2.2474  0.3033 -1.6764
  555TMC3    H2 8293   2.927   0.511  15.805 -1.0725  0.8771  2.1673
  555TMC3    C7 8294   2.762   0.370  15.641 -0.5774  0.5436 -0.3771
  555TMC3    C8 8295   2.944   0.774  15.861 -0.3427 -0.0130  0.5879
  555TMC3    O1 8296   2.680   0.335  15.556 -0.0225 -0.7562 -0.4472
  555TMC3    O2 8297   2.991   0.882  15.824  0.2594  0.3523 -0.0169
  556MPD2     C 8298   0.840   2.074  10.629  0.4316  0.2356  0.0280
  556MPD2    C1 8299   0.883   1.955  10.691 -0.1097 -0.6806  0.6413
  556MPD2    C2 8300   0.856   1.834  10.634 -0.0718  0.4647 -0.1939
  556MPD2    C3 8301   0.788   1.827  10.513 -0.3803  0.2211  0.1084
  556MPD2    C4 8302   0.734   1.939  10.457 -0.3157  0.0565 -0.2515
  556MPD2    C5 8303   0.761   2.059  10.519 -0.0598  0.4816 -0.0631
  556MPD2     H 8304   0.884   1.740  10.680  1.6498  0.6609 -0.8439
  556MPD2    H1 8305   0.680   1.938  10.363  1.9028  1.7211 -1.5337
  556MPD2    H2 8306   0.848   2.167  10.685  1.8499 -0.4284  0.9141
  556MPD2    H3 8307   0.719   2.154  10.489 -0.2599  1.0752  2.0365
  556MPD2     N 8308   0.791   1.704  10.450  0.1357 -0.6499  0.1029
  556MPD2    H5 8309   0.855   1.633  10.486  1.0478  0.1831  0.1169
  556MPD2    N1 8310   0.957   1.951  10.809 -0.3169  0.6148  0.3886
  556MPD2    H7 8311   0.967   1.859  10.851  0.7218  0.6615  0.2336
  557TMC3    C1 8312   0.739   1.537  10.286  0.5652 -0.2010 -0.3309
  557TMC3    C2 8313   0.688   1.507  10.163 -0.9833  0.7209 -0.4587
  557TMC3    C3 8314   0.679   1.379  10.115  0.6384 -0.5470  0.3034
  557TMC3    C4 8315   0.776   1.439  10.378 -0.3448  0.8085 -0.1196
  557TMC3    C5 8316   0.755   1.308  10.326 -0.3173 -0.0164  0.9410
  557TMC3    C6 8317   0.708   1.279  10.200  0.0501  0.0999 -0.1713
  557TMC3     C 8318   0.716   1.670  10.338 -0.2078 -0.6483 -0.4253
  557TMC3     O 8319   0.636   1.741  10.278 -0.4376  0.5288 -0.3765
  557TMC3     H 8320   0.651   1.587  10.099  1.0723  1.4786 -0.6871
  557TMC3    H1 8321   0.766   1.459  10.484  1.0702  0.4713  0.0848
  557TMC3    H2 8322   0.701   1.176  10.168 -0.6040 -0.4878  1.8854
  557TMC3    C7 8323   0.723   1.214  10.433  0.5753 -0.1533 -0.5422
  557TMC3    C8 8324   0.649   1.361   9.973  0.0046  0.6208 -0.2921
  557TMC3    O1 8325   0.638   1.128  10.414  0.3992 -0.2719 -0.8602
  557TMC3    O2 8326   0.645   1.464   9.906 -0.1039 -0.3196 -0.3689
  558TMC3    C1 8327   3.106   4.389  10.262 -0.0088  0.3416 -0.3275
  558TMC3    C2 8328   3.009   4.369  10.353  0.1011 -0.2916 -0.6848
  558TMC3    C3 8329   2.884   4.421  10.336 -0.0327 -0.6342  0.1248
  558TMC3    C4 8330   3.085   4.470  10.152  0.8102 -0.0294 -0.2482
  558TMC3    C5 8331   2.962   4.530  10.143  0.2079 -0.0790  0.2900
  558TMC3    C6 8332   2.859   4.496  10.228 -0.6198  0.0111  0.8344
  558TMC3     C 8333   3.242   4.351  10.283 -0.0359  0.0336 -0.1053
  558TMC3     O 8334   3.324   4.378  10.198  0.2495 -0.5168  0.2269
  558TMC3     H 8335   3.024   4.293  10.428  0.2354  1.1828  0.7707
  558TMC3    H1 8336   3.140   4.468  10.058  1.6140  0.2855  0.2122
  558TMC3    H2 8337   2.758   4.531  10.210 -1.2032 -0.6911  2.7652
  558TMC3    C7 8338   2.926   4.590  10.020  0.2192  0.7738  0.7003
  558TMC3    C8 8339   2.766   4.368  10.401 -0.1871 -0.1245  0.6896
  558TMC3    O1 8340   3.007   4.658   9.959 -0.0643 -0.7375 -0.1136
  558TMC3    O2 8341   2.664   4.349  10.338  0.4715  0.0041  0.4311
  559MPD2     C 8342   3.229   4.733  10.338  0.2497  0.0856 -0.4095
  559MPD2    C1 8343   3.160   4.716  10.454  0.1408 -0.7938 -0.5184
  559MPD2    C2 8344   3.230   4.688  10.569 -0.7818 -0.1345 -0.2969
  559MPD2    C3 8345   3.367   4.703  10.575  0.5164  0.3441  0.4190
  559MPD2    C4 8346   3.429   4.736  10.459 -0.5607 -0.2935  0.2423
  559MPD2    C5 8347   3.370   0.007  10.334  0.1616  0.0487  0.1525
  559MPD2     H 8348   3.179   4.663  10.661 -0.8798  0.7149 -0.1245
  559MPD2    H1 8349   3.534   0.025  10.467  0.3415 -3.3348 -1.7749
  559MPD2    H2 8350   3.181   0.003  10.241 -0.9603  0.6139  0.2356
  559MPD2    H3 8351   3.422   0.017  10.239 -0.7540  0.0776 -0.3494
  559MPD2     N 8352   3.430   4.682  10.698  0.1362 -0.0145 -0.2463
  559MPD2    H5 8353   3.371   4.653  10.774 -1.7239  1.2212 -1.2369
  559MPD2    N1 8354   3.021   0.007  10.451  0.4016  0.5044  0.8615
  559MPD2    H7 8355   2.986   0.056  10.369  0.3507 -0.0435  0.5517
  560TMC3    C1 8356   3.579   4.687  10.876  0.2807  0.0721 -0.1366
  560TMC3    C2 8357   3.531   4.574  10.930  0.2479  0.4843 -0.0013
  560TMC3    C3 8358   3.533   4.549  11.062  0.2258 -0.4536 -0.5753
  560TMC3    C4 8359   3.650   0.040  10.950 -0.0988  1.0222  0.2939
  560TMC3    C5 8360   3.647   0.023  11.085  0.1601 -0.8440 -0.1514
  560TMC3    C6 8361   3.584   4.651  11.145 -0.6689 -0.4407  0.5493
  560TMC3     C 8362   3.560   4.715  10.736 -0.6731  0.0629 -0.0423
  560TMC3     O 8363   3.650   0.037  10.673 -0.1008 -0.3971  0.0709
  560TMC3     H 8364   3.493   4.499  10.863 -1.9284  1.2835  0.3428
  560TMC3    H1 8365   3.679   0.134  10.906  0.7665 -0.3752 -2.1572
  560TMC3    H2 8366   3.569   4.642  11.252 -0.0785 -0.0766  0.6617
  560TMC3    C7 8367   3.723   0.111  11.176 -0.2338 -0.7304 -0.3066
  560TMC3    C8 8368   3.449   4.444  11.105 -0.2234  0.5810  0.2991
  560TMC3    O1 8369   3.695   0.112  11.295  0.2021  0.0338 -0.7600
  560TMC3    O2 8370   3.372   4.393  11.024  0.1052  0.0444  0.0612
  561TMC3    C1 8371   1.083   4.184  11.383  0.0671  0.8251  0.6493
  561TMC3    C2 8372   1.068   4.121  11.499  0.1433 -0.2730 -0.2965
  561TMC3    C3 8373   1.019   4.195  11.605 -0.3491  0.4063 -0.1214
  561TMC3    C4 8374   1.071   4.324  11.365  0.1148  0.2123  0.3403
  561TMC3    C5 8375   1.022   4.395  11.474 -0.1044 -0.9643 -0.6411
  561TMC3    C6 8376   0.993   4.327  11.593 -0.6314  0.1185 -0.5195
  561TMC3     C 8377   1.102   4.098  11.266 -0.1128  0.1924 -0.0998
  561TMC3     O 8378   1.048   3.989  11.267  0.3327 -0.0504 -0.3004
  561TMC3     H 8379   1.088   4.014  11.508 -0.9965 -0.7548 -3.6675
  561TMC3    H1 8380   1.076   4.373  11.268 -0.6844  0.1466  0.2690
  561TMC3    H2 8381   0.968   4.386  11.680  0.1192  1.2775 -1.0817
  561TMC3    C7 8382   1.012   4.539  11.472 -0.4761 -1.1342 -0.7408
  561TMC3    C8 8383   0.990   4.119  11.731  0.1593  0.2317 -0.3666
  561TMC3    O1 8384   0.963   4.588  11.570  0.3068 -0.1470  0.4204
  561TMC3    O2 8385   1.042   4.011  11.733 -0.0466  0.3379 -0.1430
  562TMC3    C1 8386   2.446   1.261  16.602  0.6586 -0.7604 -0.1027
  562TMC3    C2 8387   2.475   1.395  16.584 -0.5209 -0.6788  0.2030
  562TMC3    C3 8388   2.511   1.438  16.458 -0.3964 -0.8612 -0.6264
  562TMC3    C4 8389   2.450   1.172  16.500 -0.0163 -0.0133  0.5399
  562TMC3    C5 8390   2.490   1.218  16.377  0.1976 -0.2858 -0.3740
  562TMC3    C6 8391   2.510   1.357  16.352  0.4304 -0.2933  0.4572
  562TMC3     C 8392   2.370   1.216  16.718 -1.2987 -0.6327  0.0634
  562TMC3     O 8393   2.333   1.099  16.727 -0.2457 -0.6332  0.1301
  562TMC3     H 8394   2.471   1.469  16.663  0.5740 -0.9603  0.5128
  562TMC3    H1 8395   2.425   1.068  16.518  1.4334 -0.7166 -1.4784
  562TMC3    H2 8396   2.538   1.395  16.254  0.2298  0.7467  0.7966
  562TMC3    C7 8397   2.484   1.131  16.257  0.3067 -1.4298  0.8135
  562TMC3    C8 8398   2.511   1.584  16.447  0.5438 -0.2057  0.5891
  562TMC3    O1 8399   2.430   1.179  16.156  0.2320  0.3840  0.1246
  562TMC3    O2 8400   2.496   1.652  16.548  0.2528 -0.2885  0.2245
  563MPD2     C 8401   0.470   2.185  15.679 -0.3950  0.0179 -0.1505
  563MPD2    C1 8402   0.441   2.120  15.796  0.1350 -0.3193  0.0153
  563MPD2    C2 8403   0.548   2.068  15.870 -0.6156  0.3981 -0.0365
  563MPD2    C3 8404   0.677   2.107  15.839 -0.2709 -0.3666 -0.1091
  563MPD2    C4 8405   0.698   2.182  15.727  0.0563 -0.5495 -0.1204
  563MPD2    C5 8406   0.599   2.216  15.645  0.1399  0.1360  0.5145
  563MPD2     H 8407   0.536   2.017  15.965  0.0095 -2.1042 -1.3266
  563MPD2    H1 8408   0.796   2.222  15.706 -0.1126  0.0125  0.1795
  563MPD2    H2 8409   0.387   2.219  15.619 -2.2653 -2.0101  1.2783
  563MPD2    H3 8410   0.616   2.269  15.551  0.1561  0.9261  0.9607
  563MPD2     N 8411   0.778   2.087  15.932 -0.0411 -0.7235  0.0441
  563MPD2    H5 8412   0.748   2.044  16.019  0.4883 -0.3291  0.4227
  563MPD2    N1 8413   0.309   2.115  15.849 -0.0555 -0.0626  0.1590
  563MPD2    H7 8414   0.299   2.074  15.941 -0.1858 -0.2268  0.0721
  564TMC3    C1 8415   0.082   2.162  15.885 -0.4382  0.5734 -0.5092
  564TMC3    C2 8416   4.716   2.079  15.862 -0.3818 -0.2547 -1.2402
  564TMC3    C3 8417   4.644   2.035  15.966 -0.0094  0.3162  0.4267
  564TMC3    C4 8418   0.109   2.206  16.013  0.0670  0.1039  0.1543
  564TMC3    C5 8419   0.048   2.147  16.119 -0.1590  0.5250 -0.3840
  564TMC3    C6 8420   4.685   2.060  16.093 -0.0266 -0.1650  0.4529
  564TMC3     C 8421   0.194   2.140  15.788 -0.3840  0.9060 -0.1070
  564TMC3     O 8422   0.174   2.126  15.668  0.3161  0.3620  0.4041
  564TMC3     H 8423   4.688   2.054  15.760  0.7546  0.1224 -1.6459
  564TMC3    H1 8424   0.185   2.279  16.036 -1.3935  1.3121  1.1305
  564TMC3    H2 8425   4.626   2.045  16.183 -0.2836 -0.6179  0.2095
  564TMC3    C7 8426   0.144   2.112  16.230  0.2333 -0.4480  0.7396
  564TMC3    C8 8427   4.570   1.908  15.948  0.1198 -0.1538 -0.3431
  564TMC3    O1 8428   0.228   2.194  16.255 -0.1569  0.0825 -0.0378
  564TMC3    O2 8429   4.531   1.855  16.052 -0.2377  0.2227 -0.1547
  565TMC3    C1 8430   0.396   3.329  10.186 -0.3458  0.0752  0.4021
  565TMC3    C2 8431   0.414   3.220  10.268  0.1841  0.1211  0.3483
  565TMC3    C3 8432   0.380   3.097  10.214  0.4236  0.0452  0.3176
  565TMC3    C4 8433   0.360   3.316  10.052  0.0105 -0.6317 -0.0381
  565TMC3    C5 8434   0.334   3.187   9.998 -0.4646 -0.4554  0.8281
  565TMC3    C6 8435   0.345   3.078  10.079 -0.0709 -0.2257  0.1900
  565TMC3     C 8436   0.428   3.466  10.234  0.9136  0.8943 -0.0133
  565TMC3     O 8437   0.436   3.550  10.147  0.3350  0.0686 -0.4506
  565TMC3     H 8438   0.449   3.230  10.370 -0.3402  0.3764  0.5013
  565TMC3    H1 8439   0.346   3.402   9.988  0.6240  0.1675  0.9004
  565TMC3    H2 8440   0.351   2.978  10.037  2.1933 -0.1196  0.2865
  565TMC3    C7 8441   0.346   3.167   9.856  0.1198  0.0028  0.8249
  565TMC3    C8 8442   0.375   2.984  10.303  0.2638 -0.1228 -0.7620
  565TMC3    O1 8443   0.357   3.052   9.815 -0.2310  0.1410  0.6155
  565TMC3    O2 8444   0.411   3.002  10.418 -0.3452 -0.0872 -0.4023
  566MPD2     C 8445   2.510   4.639  14.301  0.4224 -0.4660  0.4536
  566MPD2    C1 8446   2.635   4.682  14.256  0.5761 -0.0323 -0.0141
  566MPD2    C2 8447   2.691   4.637  14.142 -0.1260  0.0421 -0.7273
  566MPD2    C3 8448   2.626   4.538  14.065  0.1187  1.2484 -0.0727
  566MPD2    C4 8449   2.496   4.498  14.114  0.0262  0.1873 -0.1917
  566MPD2    C5 8450   2.446   4.542  14.230  0.2301 -0.2864  0.0045
  566MPD2     H 8451   2.784   4.680  14.107 -0.1506  0.9200  0.3061
  566MPD2    H1 8452   2.427   4.436  14.057 -0.2737  0.3186  0.0279
  566MPD2    H2 8453   2.470   4.662  14.399 -0.9274  1.7671 -0.6322
  566MPD2    H3 8454   2.348   4.508  14.264  0.5058 -0.3768  0.7105
  566MPD2     N 8455   2.660   4.506  13.932 -0.4195  0.5879 -0.1395
  566MPD2    H5 8456   2.602   4.437  13.886  1.1802 -1.3051  0.7116
  566MPD2    N1 8457   2.707   0.040  14.330  0.0421  0.6600  0.7123
  566MPD2    H7 8458   2.694   0.038  14.431 -0.5351 -2.2960  0.5765
  567TMC3    C1 8459   2.903   0.190  14.359  0.0339 -0.0918 -0.6908
  567TMC3    C2 8460   3.017   0.232  14.285 -0.6370  0.1290  0.0910
  567TMC3    C3 8461   3.138   0.245  14.348 -0.7277 -0.1228 -0.0620
  567TMC3    C4 8462   2.912   0.160  14.494  0.5546  0.2845  0.3335
  567TMC3    C5 8463   3.036   0.169  14.548 -0.6100  0.3122 -0.3028
  567TMC3    C6 8464   3.150   0.211  14.483 -0.5672  0.4142  0.3989
  567TMC3     C 8465   2.803   0.127  14.277  0.5420  0.1421 -0.0476
  567TMC3     O 8466   2.806   0.166  14.163 -1.1898 -0.3171  0.1177
  567TMC3     H 8467   3.022   0.246  14.177  4.0564  1.7215  0.5191
  567TMC3    H1 8468   2.834   0.112  14.552  1.1038 -0.8913  0.0920
  567TMC3    H2 8469   3.245   0.193  14.530  1.6560  1.0205 -3.8080
  567TMC3    C7 8470   3.038   0.189  14.698  0.3130 -0.0303  0.6281
  567TMC3    C8 8471   3.258   0.241  14.269 -0.4952  0.5701  0.4146
  567TMC3    O1 8472   3.139   0.154  14.759 -0.0619 -0.4639 -0.0196
  567TMC3    O2 8473   3.246   0.196  14.155 -0.3825 -0.6003 -0.2118
  568MPD2     C 8474   4.361   0.594  16.551  0.1197 -0.1515 -0.1911
  568MPD2    C1 8475   4.365   0.721  16.599  0.1965  0.0219 -0.2607
  568MPD2    C2 8476   4.337   0.825  16.517 -0.3863  0.1683 -0.4607
  568MPD2    C3 8477   4.293   0.803  16.388 -0.0227 -0.1478  0.7514
  568MPD2    C4 8478   4.293   0.678  16.337 -0.1868 -0.3076  0.8664
  568MPD2    C5 8479   4.333   0.574  16.420  0.0720 -0.2650 -0.2752
  568MPD2     H 8480   4.337   0.926  16.557 -0.9890 -0.1248  0.2864
  568MPD2    H1 8481   4.277   0.657  16.231  0.8129 -1.0678  0.8671
  568MPD2    H2 8482   4.396   0.509  16.608  0.1229 -0.3406 -0.4795
  568MPD2    H3 8483   4.345   0.480  16.369  1.7130 -0.6377  0.8090
  568MPD2     N 8484   4.243   0.913  16.320  0.5996  0.5022  0.2819
  568MPD2    H5 8485   4.230   0.996  16.376  0.5294 -0.2241  1.3268
  568MPD2    N1 8486   4.393   0.739  16.741  0.1353 -0.0333 -0.6505
  568MPD2    H7 8487   4.381   0.661  16.806 -1.1551  0.2957 -0.5003
  569TMC3    C1 8488   4.190   1.060  16.159 -0.4022  0.1263  0.3420
  569TMC3    C2 8489   4.138   1.138  16.258 -0.8703  0.2903 -0.3658
  569TMC3    C3 8490   4.138   1.271  16.246  0.4219 -0.3716  0.0896
  569TMC3    C4 8491   4.246   1.114  16.047  0.3948 -0.4038  1.0376
  569TMC3    C5 8492   4.245   1.252  16.040  0.1977 -0.8843  0.4688
  569TMC3    C6 8493   4.190   1.335  16.134 -0.1586 -0.2173  0.6413
  569TMC3     C 8494   4.219   0.924  16.189 -0.0851  0.0454 -0.1255
  569TMC3     O 8495   4.246   0.847  16.099  0.0034 -0.2946 -0.1257
  569TMC3     H 8496   4.086   1.098  16.345 -1.4727  2.6487  0.3485
  569TMC3    H1 8497   4.292   1.057  15.968  0.0071 -1.4287  1.5568
  569TMC3    H2 8498   4.186   1.443  16.133  2.4196 -0.1606 -3.6658
  569TMC3    C7 8499   4.285   1.314  15.924 -0.0977 -0.2297  0.0811
  569TMC3    C8 8500   4.123   1.338  16.374 -0.0450  0.3205  0.5438
  569TMC3    O1 8501   4.257   1.253  15.819 -0.0406 -0.4244  0.7914
  569TMC3    O2 8502   4.055   1.286  16.457  0.3345 -0.7929 -0.3952
  570TMC3    C1 8503   3.792   4.542  16.220  0.4133 -0.8962  0.4159
  570TMC3    C2 8504   3.839   4.593  16.104 -0.3025  0.4497 -0.2247
  570TMC3    C3 8505   3.873   4.723  16.101  0.3793 -0.3708  0.9812
  570TMC3    C4 8506   3.750   4.620  16.321 -0.5146  0.4306 -0.2024
  570TMC3    C5 8507   3.764   0.021  16.309 -0.2725  0.6501  0.2992
  570TMC3    C6 8508   3.836   0.076  16.197 -0.0306  0.5205 -0.5662
  570TMC3     C 8509   3.742   4.407  16.207 -0.5441 -0.2043  0.3235
  570TMC3     O 8510   3.751   4.349  16.099 -0.0370 -0.0292  0.1271
  570TMC3     H 8511   3.883   4.528  16.029 -1.2502 -0.1982 -0.2202
  570TMC3    H1 8512   3.716   4.583  16.417  1.1066 -0.5502 -0.0100
  570TMC3    H2 8513   3.880   0.174  16.188  1.0355 -0.1192 -2.1823
  570TMC3    C7 8514   3.736   0.109  16.421  0.2448  0.1757  0.2131
  570TMC3    C8 8515   3.941   0.035  15.984 -0.1945  0.8269 -0.1187
  570TMC3    O1 8516   3.742   0.059  16.526 -0.0630  0.4069  0.1471
  570TMC3    O2 8517   4.024   0.126  15.993  0.0742 -0.2114 -0.1856
  571MPD2     C 8518   1.592   1.170   0.431 -0.0120 -0.2009  0.0318
  571MPD2    C1 8519   1.580   1.268   0.335 -0.1700  0.0690 -0.4540
  571MPD2    C2 8520   1.556   1.398   0.374 -0.4732 -0.3447  0.5821
  571MPD2    C3 8521   1.539   1.431   0.507  0.3513 -0.5785 -0.6456
  571MPD2    C4 8522   1.549   1.332   0.597 -0.0767 -0.5131 -0.4647
  571MPD2    C5 8523   1.571   1.203   0.561 -0.3388 -0.5616  0.1595
  571MPD2     H 8524   1.553   1.474   0.297 -0.8682 -0.2056  0.7369
  571MPD2    H1 8525   1.547   1.358   0.703  0.7084  1.8991 -1.0287
  571MPD2    H2 8526   1.625   1.070   0.407  1.4669  0.2670  0.1117
  571MPD2    H3 8527   1.585   1.129   0.639 -2.1519 -1.1475 -0.0817
  571MPD2     N 8528   1.530   1.563   0.563 -0.1066 -0.4301  0.3736
  571MPD2    H5 8529   1.527   1.558   0.664  0.7068 -1.0439  0.3649
  571MPD2    N1 8530   1.580   1.231   0.195  0.0835 -0.0735 -0.5054
  571MPD2    H7 8531   1.608   1.135   0.174 -0.8300 -0.3335 -0.5036
  572TMC3    C1 8532   1.484   1.790   0.562  0.2056 -1.1988  0.3910
  572TMC3    C2 8533   1.459   1.782   0.696  0.4537 -0.4001  0.2342
  572TMC3    C3 8534   1.409   1.895   0.762  0.2726  0.0787 -0.3170
  572TMC3    C4 8535   1.468   1.909   0.500  0.0248  0.1421  0.2817
  572TMC3    C5 8536   1.419   2.022   0.559 -0.1937 -0.6207 -0.3333
  572TMC3    C6 8537   1.389   2.017   0.696 -0.4418 -0.3737 -0.0076
  572TMC3     C 8538   1.518   1.677   0.483  0.4290 -0.2112 -0.9242
  572TMC3     O 8539   1.502   1.687   0.364  0.0868 -0.2535  0.1551
  572TMC3     H 8540   1.503   1.707   0.761  1.9911 -0.7419 -1.2101
  572TMC3    H1 8541   1.494   1.924   0.396 -0.0703  2.1276  0.5539
  572TMC3    H2 8542   1.340   2.097   0.750 -0.1261  0.1087 -0.4453
  572TMC3    C7 8543   1.397   2.135   0.483  1.0407  0.2035  0.7240
  572TMC3    C8 8544   1.380   1.895   0.906 -0.3614  0.6057 -0.1843
  572TMC3    O1 8545   1.371   2.110   0.368  0.4723  0.0628 -0.3354
  572TMC3    O2 8546   1.349   2.005   0.954  0.1233  0.2354 -0.8476
  573MPD2     C 8547   2.547   1.647   0.043  0.3142  0.1541 -0.8599
  573MPD2    C1 8548   2.507   1.696   0.166 -0.9067  0.2780 -0.0589
  573MPD2    C2 8549   2.383   1.753   0.177  0.9013  0.5311 -0.7344
  573MPD2    C3 8550   2.303   1.775   0.067  0.7204  0.3847 -0.5483
  573MPD2    C4 8551   2.340   1.734  17.685  0.1991 -0.5191 -0.1398
  573MPD2    C5 8552   2.459   1.669  17.678 -0.5546  0.1369  0.1631
  573MPD2     H 8553   2.348   1.788   0.274 -0.0740 -0.6382 -0.6700
  573MPD2    H1 8554   2.287   1.746  17.592 -0.3764 -0.9344  0.1317
  573MPD2    H2 8555   2.643   1.599   0.027  0.4240 -0.7331  2.4995
  573MPD2    H3 8556   2.495   1.647  17.579 -2.2011 -3.0513  0.2713
  573MPD2     N 8557   2.176   1.827   0.093  0.1534 -0.1065  0.2916
  573MPD2    H5 8558   2.162   1.852   0.190 -0.0050  2.1355 -0.3239
  573MPD2    N1 8559   2.600   1.695   0.270 -0.1934  0.1055 -0.2256
  573MPD2    H7 8560   2.681   1.634   0.265 -0.1769  0.1979 -1.0904
  574TMC3    C1 8561   1.967   1.913   0.076  0.3720 -0.5863 -0.0219
  574TMC3    C2 8562   1.914   2.041   0.053  0.3678 -0.4069  0.4946
  574TMC3    C3 8563   1.817   2.081   0.137  0.4474 -0.0945 -0.1866
  574TMC3    C4 8564   1.925   1.842   0.185 -0.0297  0.4090 -0.4160
  574TMC3    C5 8565   1.828   1.891   0.264  0.4644 -0.6964  0.5284
  574TMC3    C6 8566   1.779   2.012   0.243  0.7951 -0.0036 -0.8941
  574TMC3     C 8567   2.084   1.870   0.004 -0.4318 -0.4102  0.3387
  574TMC3     O 8568   2.085   1.895  17.631  0.4472  0.5510 -0.1988
  574TMC3     H 8569   1.955   2.104  17.720  0.5279 -0.7048  0.3395
  574TMC3    H1 8570   1.973   1.750   0.217  0.0217  0.4086 -0.4954
  574TMC3    H2 8571   1.699   2.053   0.303  0.5241 -1.1276 -0.4846
  574TMC3    C7 8572   1.817   1.833   0.392  0.1898  0.9167 -0.1587
  574TMC3    C8 8573   1.769   2.219   0.133 -0.1355  0.7883  0.6784
  574TMC3    O1 8574   1.823   1.713   0.396  0.4125  0.1005  0.8496
  574TMC3    O2 8575   1.663   2.247   0.190  0.5412 -0.1892  0.3934
  575TMC3    C1 8576   0.780   2.473  10.873 -0.3663  0.6633  0.1463
  575TMC3    C2 8577   0.739   2.347  10.907 -0.1500  0.2456  0.1216
  575TMC3    C3 8578   0.621   2.299  10.850 -0.0835 -0.0192 -0.6964
  575TMC3    C4 8579   0.717   2.547  10.768 -0.6322  0.4892  0.7267
  575TMC3    C5 8580   0.601   2.495  10.722  0.5998  0.6752  0.3873
  575TMC3    C6 8581   0.551   2.378  10.762 -0.0950  0.2331  0.3237
  575TMC3     C 8582   0.919   2.505  10.898 -0.1292 -0.1789  0.5146
  575TMC3     O 8583   0.981   2.565  10.813 -0.5031 -0.6147  0.1057
  575TMC3     H 8584   0.799   2.282  10.969 -0.0716 -0.3607 -0.5866
  575TMC3    H1 8585   0.757   2.646  10.748  0.3799 -0.0272  0.1665
  575TMC3    H2 8586   0.459   2.329  10.731  1.5289 -1.9415 -1.0808
  575TMC3    C7 8587   0.528   2.582  10.626 -0.5239 -0.2245  0.5252
  575TMC3    C8 8588   0.568   2.166  10.905  0.3434  0.0622  0.2040
  575TMC3    O1 8589   0.583   2.691  10.601  0.1414 -0.3129 -0.4969
  575TMC3    O2 8590   0.622   2.122  11.003 -0.7517  0.0444 -0.0425
  576MPD2     C 8591   0.541   0.006  12.749  0.1214 -0.6729 -0.2571
  576MPD2    C1 8592   0.558   0.039  12.615 -0.0199  0.5679  0.1903
  576MPD2    C2 8593   0.620   0.161  12.593  0.3096 -1.0495 -0.8909
  576MPD2    C3 8594   0.661   0.251  12.689 -0.0673  0.2720 -0.2155
  576MPD2    C4 8595   0.652   0.209  12.815  0.7484 -0.6160  0.0927
  576MPD2    C5 8596   0.596   0.087  12.842  0.1124  0.3921  0.4062
  576MPD2     H 8597   0.646   0.191  12.492 -1.5034 -1.6026 -1.5257
  576MPD2    H1 8598   0.695   0.269  12.894  0.3682  2.3359 -1.9569
  576MPD2    H2 8599   0.507   4.644  12.778  1.4643 -1.1526 -0.3173
  576MPD2    H3 8600   0.592   0.062  12.948 -2.2162 -0.8387  0.0220
  576MPD2     N 8601   0.718   0.367  12.650 -0.4728  0.1707  0.4109
  576MPD2    H5 8602   0.693   0.407  12.560  0.1317  2.7943  1.4047
  576MPD2    N1 8603   0.527   4.688  12.506 -0.7063 -1.0186 -0.0225
  576MPD2    H7 8604   0.559   4.706  12.411  0.5392 -0.3032  0.5217
  577TMC3    C1 8605   0.435   4.525  12.379  0.5099 -0.9145  0.1473
  577TMC3    C2 8606   0.419   4.396  12.373 -0.2616  0.1747 -0.0801
  577TMC3    C3 8607   0.397   4.339  12.257 -0.3907  0.8267 -0.0968
  577TMC3    C4 8608   0.433   4.605  12.264 -0.1896 -0.2266  0.4963
  577TMC3    C5 8609   0.404   4.538  12.147 -0.2683  0.0004  0.0645
  577TMC3    C6 8610   0.371   4.409  12.140 -0.5488  0.5444 -0.4140
  577TMC3     C 8611   0.459   4.574  12.504 -0.0245 -0.2648  0.2966
  577TMC3     O 8612   0.400   4.513  12.592  0.0548 -0.0898 -0.1499
  577TMC3     H 8613   0.446   4.332  12.455  0.0958 -1.6550 -1.6199
  577TMC3    H1 8614   0.461   4.710  12.267 -0.0594 -0.2556  0.3069
  577TMC3    H2 8615   0.344   4.357  12.048 -0.6767  0.5492 -0.3788
  577TMC3    C7 8616   0.386   4.620  12.034  0.4820  0.0371 -0.9167
  577TMC3    C8 8617   0.484   4.233  12.236  0.7257 -0.0378  0.4734
  577TMC3    O1 8618   0.462   4.714  12.016  0.4109 -0.5996 -0.1903
  577TMC3    O2 8619   0.508   4.164  12.337 -0.1656  0.0202 -0.2745
  578MPD2     C 8620   3.500   0.211   0.904  0.4439 -0.4095 -0.1469
  578MPD2    C1 8621   3.628   0.171   0.915 -0.5310 -0.1474  0.6495
  578MPD2    C2 8622   3.681   0.105   1.029 -0.0573 -0.0856 -0.8603
  578MPD2    C3 8623   3.599   0.073   1.129  0.1276  0.0907 -0.2639
  578MPD2    C4 8624   3.464   0.131   1.128 -1.2947  0.1276 -0.5218
  578MPD2    C5 8625   3.420   0.187   1.008 -0.5983 -0.5093 -0.8883
  578MPD2     H 8626   3.784   0.071   1.033 -0.2256 -0.4408  0.4722
  578MPD2    H1 8627   3.386   0.108   1.200 -0.6852  0.4133  0.2366
  578MPD2    H2 8628   3.466   0.254   0.810 -0.2042 -1.7163 -0.5101
  578MPD2    H3 8629   3.314   0.212   0.998 -0.4753  0.5959  0.5616
  578MPD2     N 8630   3.651   4.726   1.228  0.1451  0.1308 -0.0213
  578MPD2    H5 8631   3.749   4.702   1.215  0.4521  0.9004  0.8715
  578MPD2    N1 8632   3.703   0.193   0.797  0.5105 -0.6828 -0.1544
  578MPD2    H7 8633   3.656   0.240   0.720 -0.6727 -0.9370  0.4302
  579TMC3    C1 8634   3.652   4.573   1.414 -0.2336 -0.7077 -0.1224
  579TMC3    C2 8635   3.786   4.598   1.432  0.2780  0.5750 -0.6848
  579TMC3    C3 8636   3.848   4.521   1.529  0.1977 -0.1999 -0.8534
  579TMC3    C4 8637   3.593   4.459   1.456  0.8615 -0.6727 -0.0941
  579TMC3    C5 8638   3.663   4.376   1.545  0.2361  0.3913  0.5109
  579TMC3    C6 8639   3.790   4.415   1.583 -0.2342  0.0622 -0.4196
  579TMC3     C 8640   3.577   4.669   1.329 -0.4439  0.3848 -0.2058
  579TMC3     O 8641   3.459   4.683   1.359  0.2572  0.6549 -0.6514
  579TMC3     H 8642   3.818   4.701   1.418 -1.7979  1.2601 -0.2942
  579TMC3    H1 8643   3.488   4.442   1.433  0.5513 -1.9257  2.2015
  579TMC3    H2 8644   3.854   4.352   1.645  0.4353 -0.7337 -1.9267
  579TMC3    C7 8645   3.644   4.237   1.543 -0.3103 -0.3700  0.1384
  579TMC3    C8 8646   3.967   4.569   1.603  0.0796 -0.1490  0.3584
  579TMC3    O1 8647   3.715   4.173   1.617  0.0140 -0.1815 -0.7067
  579TMC3    O2 8648   3.980   4.523   1.715 -0.5315 -0.2848  0.1125
  580TMC3    C1 8649   2.731   2.428  11.388 -0.0552  0.2088  0.3912
  580TMC3    C2 8650   2.755   2.389  11.263  0.3379  0.1495 -0.1378
  580TMC3    C3 8651   2.869   2.323  11.230  0.2830 -0.5111 -0.6312
  580TMC3    C4 8652   2.816   2.388  11.484 -0.1702 -0.4161 -0.1327
  580TMC3    C5 8653   2.929   2.316  11.454  0.2670 -0.2326 -0.5681
  580TMC3    C6 8654   2.958   2.281  11.326  0.5539 -0.2849 -0.3729
  580TMC3     C 8655   2.706   2.568  11.387  0.0413 -0.5003 -0.7917
  580TMC3     O 8656   2.779   2.638  11.319 -0.3479 -0.3882 -0.0025
  580TMC3     H 8657   2.685   2.411  11.183 -0.6875  1.2216  1.0507
  580TMC3    H1 8658   2.799   2.433  11.582  2.0024 -0.8587  0.4411
  580TMC3    H2 8659   3.055   2.250  11.289 -0.4675 -1.8648 -1.7356
  580TMC3    C7 8660   3.011   2.278  11.567  0.0093 -0.7860 -0.5639
  580TMC3    C8 8661   2.925   2.357  11.105  0.7242 -0.6129 -0.6346
  580TMC3    O1 8662   3.009   2.351  11.667  0.1696  0.2995 -0.4708
  580TMC3    O2 8663   3.001   2.277  11.051 -0.3388 -0.5843  0.0349
  581MPD2     C 8664   0.976   3.165  14.592  0.0338 -0.0661  0.0247
  581MPD2    C1 8665   1.025   3.291  14.621 -0.0707  0.5032  0.3722
  581MPD2    C2 8666   0.938   3.399  14.618 -0.0995 -0.2290  0.2560
  581MPD2    C3 8667   0.805   3.380  14.591 -0.1420  0.3733 -0.1179
  581MPD2    C4 8668   0.759   3.252  14.565  0.2181  0.3259 -0.1453
  581MPD2    C5 8669   0.848   3.149  14.558  0.4735 -0.1875 -0.1365
  581MPD2     H 8670   0.964   3.502  14.636 -2.7215  0.3538  0.6204
  581MPD2    H1 8671   0.653   3.230  14.557  0.2505 -0.0785  0.5150
  581MPD2    H2 8672   1.035   3.076  14.608  0.5720  0.7183  2.3686
  581MPD2    H3 8673   0.803   3.051  14.540  1.3490 -0.4580 -0.8951
  581MPD2     N 8674   0.713   3.486  14.566 -0.2672  0.8996  0.2211
  581MPD2    H5 8675   0.622   3.466  14.525  0.1184  1.1886 -0.7629
  581MPD2    N1 8676   1.161   3.303  14.661 -0.8449  0.7633  0.5020
  581MPD2    H7 8677   1.213   3.217  14.669 -3.4464 -1.2676 -4.3622
  582TMC3    C1 8678   1.368   3.393  14.756 -0.1143  0.2913 -0.0110
  582TMC3    C2 8679   1.414   3.483  14.850 -0.1196 -0.4574  0.6070
  582TMC3    C3 8680   1.472   3.441  14.967  0.0160 -0.1666  0.6889
  582TMC3    C4 8681   1.402   3.263  14.771 -0.0796 -0.0199  0.5265
  582TMC3    C5 8682   1.443   3.222  14.892  0.3974 -0.5177  0.2938
  582TMC3    C6 8683   1.494   3.306  14.981 -0.0104  0.5258 -0.6971
  582TMC3     C 8684   1.232   3.418  14.702  0.5636 -0.2120 -0.3402
  582TMC3     O 8685   1.191   3.533  14.704  0.3170 -0.2654 -0.3337
  582TMC3     H 8686   1.387   3.588  14.846  2.3748  0.1097 -1.2380
  582TMC3    H1 8687   1.377   3.180  14.707  1.4140  0.5136 -0.7557
  582TMC3    H2 8688   1.536   3.271  15.074 -3.0473  0.3424  0.6078
  582TMC3    C7 8689   1.329   3.147  14.948 -0.5540  0.1657  0.6337
  582TMC3    C8 8690   1.433   3.516  15.084  0.4683 -0.6922  0.5810
  582TMC3    O1 8691   1.307   3.040  14.905  0.2607 -0.1169 -0.0337
  582TMC3    O2 8692   1.332   3.583  15.079 -0.7422 -0.3973 -0.4061
  583MPD2     C 8693   0.983   0.688  16.725  0.1518  0.2444 -0.2024
  583MPD2    C1 8694   0.979   0.813  16.686  1.2392  0.3774  0.6005
  583MPD2    C2 8695   0.955   0.909  16.782 -0.1969 -0.5962  0.1906
  583MPD2    C3 8696   0.927   0.874  16.912  0.6893  0.5694  0.4459
  583MPD2    C4 8697   0.926   0.740  16.944 -0.1549  0.1644  0.5736
  583MPD2    C5 8698   0.951   0.645  16.848  0.2078 -0.4773  0.1479
  583MPD2     H 8699   0.959   1.012  16.749 -1.2508 -0.5328  0.2426
  583MPD2    H1 8700   0.906   0.704  17.045  0.5103 -0.5669  0.4471
  583MPD2    H2 8701   1.022   0.614  16.656 -1.6640  0.2179 -1.1901
  583MPD2    H3 8702   0.961   0.544  16.888 -0.3958 -1.0985 -1.2877
  583MPD2     N 8703   0.908   0.976  17.001 -0.0229  0.3703 -0.6168
  583MPD2    H5 8704   0.889   1.065  16.956 -0.4705  1.6071  2.0508
  583MPD2    N1 8705   1.007   0.864  16.555 -0.2194 -0.2759  0.3113
  583MPD2    H7 8706   0.997   0.964  16.539  0.4752 -0.3887 -0.8722
  584TMC3    C1 8707   0.888   1.092  17.202  0.1057  0.2323  0.6506
  584TMC3    C2 8708   0.883   1.205  17.128  0.1548  0.9251 -0.0372
  584TMC3    C3 8709   0.890   1.323  17.195 -0.3937 -0.2396 -0.2038
  584TMC3    C4 8710   0.910   1.089  17.338  0.1714  0.2797  1.0859
  584TMC3    C5 8711   0.904   1.210  17.401  0.2886 -0.6597 -0.1119
  584TMC3    C6 8712   0.891   1.326  17.338 -0.7032 -0.4775  0.6336
  584TMC3     C 8713   0.889   0.960  17.137  0.1140 -0.2465 -0.8177
  584TMC3     O 8714   0.861   0.858  17.200 -0.0761 -0.0696 -0.1969
  584TMC3     H 8715   0.863   1.208  17.022 -0.1340 -0.6621 -0.0361
  584TMC3    H1 8716   0.906   0.993  17.389  0.2585 -0.7893 -0.9278
  584TMC3    H2 8717   0.884   1.421  17.389 -1.6371  0.9533 -2.1452
  584TMC3    C7 8718   0.897   1.195  17.541 -0.8527 -0.6075  0.4688
  584TMC3    C8 8719   0.892   1.451  17.119 -0.3975  0.0481 -0.0907
  584TMC3    O1 8720   0.906   1.082  17.582  0.8788 -0.3454  0.2247
  584TMC3    O2 8721   0.844   1.454  17.004  0.4543 -0.3233 -0.0646
  585MPD2     C 8722   4.566   4.651   0.170 -0.2416 -0.4690  0.5362
  585MPD2    C1 8723   4.607   0.008   0.087  0.3523  0.5631 -1.2719
  585MPD2    C2 8724   4.634   4.700  17.702  0.9861 -0.8255  0.0680
  585MPD2    C3 8725   4.612   4.567  17.655 -0.3440  0.0435 -1.2753
  585MPD2    C4 8726   4.570   4.477   0.002  0.4508  0.1109  0.1326
  585MPD2    C5 8727   4.542   4.523   0.133  0.9079  0.9450  0.2672
  585MPD2     H 8728   4.681   0.034  17.633 -1.7442  0.5164 -0.4342
  585MPD2    H1 8729   4.538   4.377  17.719  0.4421 -0.1887  1.2306
  585MPD2    H2 8730   4.538   4.688   0.268 -0.6479 -0.5238  0.4438
  585MPD2    H3 8731   4.485   4.455   0.195 -0.9962  1.6969 -0.6588
  585MPD2     N 8732   4.621   4.548  17.517 -0.1543 -0.2565  0.4703
  585MPD2    H5 8733   4.660   4.628  17.468 -0.2985  0.5742  1.6964
  585MPD2    N1 8734   4.617   0.142   0.119 -0.3496 -0.1838  0.5429
  585MPD2    H7 8735   4.594   0.170   0.214 -1.3949  0.6176  0.0448
  586TMC3    C1 8736   4.590   4.456  17.306  0.0922  0.2040 -0.4117
  586TMC3    C2 8737   4.709   4.504  17.261 -0.2576  0.1048  0.0179
  586TMC3    C3 8738   0.002   4.508  17.127  0.5324 -0.3116 -0.2168
  586TMC3    C4 8739   4.500   4.410  17.216  0.4552 -0.2142  0.1034
  586TMC3    C5 8740   4.533   4.414  17.079 -0.6613 -0.3685  0.0143
  586TMC3    C6 8741   4.649   4.467  17.028 -0.3994  0.4172 -0.0923
  586TMC3     C 8742   4.575   4.438  17.448 -0.1553 -0.7212 -0.4005
  586TMC3     O 8743   4.484   4.367  17.486 -0.1506  0.2962  0.3628
  586TMC3     H 8744   0.053   4.524  17.330  1.8795  0.0982 -2.4484
  586TMC3    H1 8745   4.412   4.367  17.262  0.3730  0.7303  0.8350
  586TMC3    H2 8746   4.667   4.498  16.926  1.8033 -0.8871 -0.1079
  586TMC3    C7 8747   4.513   4.283  17.028 -0.3913 -0.3698  0.0872
  586TMC3    C8 8748   0.138   4.484  17.089 -0.2242  0.2156 -0.1690
  586TMC3    O1 8749   4.415   4.226  17.066  0.3261 -0.2624 -0.2718
  586TMC3    O2 8750   0.224   4.456  17.172 -0.2352  0.3473  0.0095
  587TMC3    C1 8751   2.486   3.344  16.890  0.1121 -0.2410 -0.4358
  587TMC3    C2 8752   2.424   3.361  16.767  0.1549 -0.1338 -0.0417
  587TMC3    C3 8753   2.501   3.364  16.660 -0.0717  0.0596 -0.1393
  587TMC3    C4 8754   2.618   3.316  16.906 -1.2049  0.3893  0.4385
  587TMC3    C5 8755   2.688   3.313  16.789 -0.2286 -0.6505  0.7576
  587TMC3    C6 8756   2.633   3.337  16.668 -0.0512  0.1779 -0.5990
  587TMC3     C 8757   2.403   3.306  16.999 -0.6661 -0.0099  0.3248
  587TMC3     O 8758   2.450   3.265  17.105  0.3035  0.5069  0.7056
  587TMC3     H 8759   2.320   3.392  16.764 -0.6459 -2.8176 -0.0655
  587TMC3    H1 8760   2.657   3.260  16.991  1.1928 -1.2488 -1.7378
  587TMC3    H2 8761   2.693   3.353  16.579 -0.7400  2.9328 -0.5917
  587TMC3    C7 8762   2.817   3.245  16.776 -0.6003 -0.4110 -0.3830
  587TMC3    C8 8763   2.441   3.381  16.529  0.6440  0.7453 -0.4077
  587TMC3    O1 8764   2.878   3.244  16.667  0.1595  0.1014  0.1996
  587TMC3    O2 8765   2.503   3.346  16.430  0.2044  0.7384 -0.7020
  588TMC3    C1 8766   0.086   4.678   9.791  0.1981  0.3426 -0.1634
  588TMC3    C2 8767   0.055   4.545   9.808  0.3623 -0.5914  0.7619
  588TMC3    C3 8768   0.159   4.474   9.862  0.3704  0.0264 -0.4568
  588TMC3    C4 8769   0.212   4.734   9.821  0.3282 -0.0171  0.3503
  588TMC3    C5 8770   0.304   4.655   9.890  0.0365 -0.1228 -0.0674
  588TMC3    C6 8771   0.274   4.527   9.912 -0.5983 -0.5118  0.5911
  588TMC3     C 8772   4.727   0.030   9.730  0.0930 -0.4644  0.3881
  588TMC3     O 8773   4.623   4.718   9.685 -0.2799  0.0275  0.4276
  588TMC3     H 8774   4.709   4.488   9.767  0.0613  0.9946 -0.8130
  588TMC3    H1 8775   0.238   0.100   9.798  1.8306 -0.5436 -0.3369
  588TMC3    H2 8776   0.343   4.457   9.960  1.3255  0.8907 -0.1222
  588TMC3    C7 8777   0.361   4.726  10.000 -0.1647 -0.0262 -0.3609
  588TMC3    C8 8778   0.148   4.332   9.881  0.2224 -1.1406  0.2126
  588TMC3    O1 8779   0.367   4.673  10.111  0.4505  0.1602 -0.3485
  588TMC3    O2 8780   0.118   4.258   9.789  0.3738 -0.4086 -0.4237
  589TMC3    C1 8781   3.614   2.805   1.171  0.2374  0.0360  0.1743
  589TMC3    C2 8782   3.715   2.824   1.269  0.1266 -0.0950 -0.0298
  589TMC3    C3 8783   3.833   2.756   1.251 -1.1626  0.0208 -0.2567
  589TMC3    C4 8784   3.628   2.712   1.072 -0.7916 -0.5818  0.5012
  589TMC3    C5 8785   3.739   2.636   1.068 -0.5203 -0.0735  0.0118
  589TMC3    C6 8786   3.849   2.659   1.156  0.3521 -0.1357 -0.3173
  589TMC3     C 8787   3.490   2.886   1.179  0.3829 -0.7534  0.4389
  589TMC3     O 8788   3.415   2.905   1.083  0.5739 -0.6685 -0.0012
  589TMC3     H 8789   3.708   2.916   1.326  0.4897 -0.2252  0.2233
  589TMC3    H1 8790   3.546   2.699   1.001  1.0075 -0.8361 -1.5216
  589TMC3    H2 8791   3.937   2.596   1.166  1.3723  1.4918  0.9637
  589TMC3    C7 8792   3.751   2.529   0.969 -0.1834  0.0172 -0.0449
  589TMC3    C8 8793   3.947   2.815   1.314  0.2018 -0.3292 -0.0219
  589TMC3    O1 8794   3.646   2.492   0.927  0.1270 -0.1105  0.5878
  589TMC3    O2 8795   3.920   2.894   1.404 -0.0322  0.1138 -0.1060
  590MPD2     C 8796   3.425   1.385  16.922 -0.2529  0.2750 -0.6117
  590MPD2    C1 8797   3.369   1.476  16.837  0.4672  0.4559  0.4548
  590MPD2    C2 8798   3.446   1.583  16.791  0.5665 -1.0116  0.4962
  590MPD2    C3 8799   3.581   1.590  16.822  0.0821  0.0435 -0.3235
  590MPD2    C4 8800   3.640   1.493  16.895 -0.2119  0.0751 -0.2971
  590MPD2    C5 8801   3.562   1.389  16.946  0.3361  0.1039  0.8032
  590MPD2     H 8802   3.401   1.661  16.730 -1.0699 -0.4869  2.4044
  590MPD2    H1 8803   3.746   1.490  16.918  0.2403  1.1996 -2.2314
  590MPD2    H2 8804   3.365   1.307  16.968  0.3874  0.5777  0.7620
  590MPD2    H3 8805   3.606   1.310  17.005  0.0587  0.6115  1.6874
  590MPD2     N 8806   3.660   1.688  16.754 -0.2745 -0.0914 -0.3316
  590MPD2    H5 8807   3.612   1.766  16.709  1.2118  0.4863 -0.9301
  590MPD2    N1 8808   3.233   1.461  16.804  0.2417  0.4457  0.0923
  590MPD2    H7 8809   3.189   1.385  16.857  0.5487 -0.0895 -0.4193
  591TMC3    C1 8810   3.846   1.790  16.657  0.1673 -0.3133 -1.1271
  591TMC3    C2 8811   3.956   1.764  16.583 -0.1665 -0.3838 -0.5234
  591TMC3    C3 8812   3.972   1.815  16.453  0.2773 -0.6028  0.3822
  591TMC3    C4 8813   3.760   1.888  16.620 -0.5708 -0.5433 -0.2831
  591TMC3    C5 8814   3.789   1.959  16.499 -0.2154 -0.8212 -0.1571
  591TMC3    C6 8815   3.891   1.922  16.413 -0.5645 -0.4189 -0.1258
  591TMC3     C 8816   3.800   1.692  16.746 -0.1780 -0.3054 -0.9163
  591TMC3     O 8817   3.890   1.627  16.792  0.0377  0.1220  0.0589
  591TMC3     H 8818   4.017   1.679  16.613  1.5765  0.8367 -0.5945
  591TMC3    H1 8819   3.680   1.922  16.686  2.0930  0.9202  2.1724
  591TMC3    H2 8820   3.916   1.981  16.326  1.4130 -0.1718  0.6050
  591TMC3    C7 8821   3.695   2.056  16.446 -0.9741  0.2672 -0.3746
  591TMC3    C8 8822   4.004   1.728  16.342 -0.2051 -0.4460 -0.1954
  591TMC3    O1 8823   3.582   2.063  16.501  0.1261 -0.4152  0.1509
  591TMC3    O2 8824   3.966   1.613  16.342  0.2893  0.1499 -0.2773
  592MPD2     C 8825   4.325   2.532  11.655  0.2685 -0.2426  0.3117
  592MPD2    C1 8826   4.291   2.602  11.769  0.0081  0.6113  0.2155
  592MPD2    C2 8827   4.277   2.535  11.891 -0.7462 -0.5203 -0.4137
  592MPD2    C3 8828   4.293   2.393  11.897  0.3037  1.3348  0.2915
  592MPD2    C4 8829   4.324   2.322  11.778 -0.4024  0.4461 -0.5214
  592MPD2    C5 8830   4.337   2.398  11.665  0.3125 -0.1933  0.4455
  592MPD2     H 8831   4.265   2.583  11.987 -3.9199  0.3311 -1.2435
  592MPD2    H1 8832   4.351   2.218  11.771 -0.1434  0.3052  2.4059
  592MPD2    H2 8833   4.333   2.571  11.555 -1.1999 -2.4644 -0.6708
  592MPD2    H3 8834   4.365   2.354  11.570 -0.8976 -2.6161  1.1987
  592MPD2     N 8835   4.285   2.328  12.025  0.5990 -0.0131  0.0390
  592MPD2    H5 8836   4.261   2.387  12.104  1.5640  3.1935 -2.0474
  592MPD2    N1 8837   4.305   2.742  11.760 -0.5903  0.2802 -0.1949
  592MPD2    H7 8838   4.331   2.784  11.671 -0.2729 -1.3132 -0.8459
  593TMC3    C1 8839   4.315   2.975  11.831  0.3476 -0.8557 -0.0806
  593TMC3    C2 8840   4.318   3.058  11.943 -0.0990  0.2289 -0.3045
  593TMC3    C3 8841   4.358   3.188  11.919  0.4875  0.0213 -0.2640
  593TMC3    C4 8842   4.372   3.013  11.714  0.0307  0.9234 -0.3086
  593TMC3    C5 8843   4.421   3.141  11.701 -0.2781  0.4745 -0.4253
  593TMC3    C6 8844   4.412   3.236  11.798  0.2806 -0.5066 -0.5681
  593TMC3     C 8845   4.289   2.837  11.863  0.5115 -0.5197 -0.3048
  593TMC3     O 8846   4.260   2.819  11.980  0.2476 -0.0334 -0.0167
  593TMC3     H 8847   4.276   3.026  12.038  1.3987 -1.4846 -0.2242
  593TMC3    H1 8848   4.351   2.963  11.620  1.9680 -0.2684 -0.1087
  593TMC3    H2 8849   4.414   3.343  11.783  2.7808 -0.5805 -0.7221
  593TMC3    C7 8850   4.451   3.202  11.577 -0.1286  0.5472  0.1301
  593TMC3    C8 8851   4.342   3.287  12.031 -0.2314  0.1745 -0.2122
  593TMC3    O1 8852   4.516   3.303  11.589 -0.2910  0.1873 -0.3414
  593TMC3    O2 8853   4.255   3.267  12.116  0.4182 -0.3930 -0.2462
  594MPD2     C 8854   2.695   1.709  14.224 -0.0802  0.3754 -0.2477
  594MPD2    C1 8855   2.706   1.669  14.355  0.6372  0.2063  0.3284
  594MPD2    C2 8856   2.822   1.656  14.418  0.1072  0.0267  0.5233
  594MPD2    C3 8857   2.937   1.687  14.347 -0.4182 -0.3755  0.7208
  594MPD2    C4 8858   2.930   1.710  14.208 -0.5619 -0.3180  0.1528
  594MPD2    C5 8859   2.809   1.717  14.150 -0.0449  0.7414  0.8760
  594MPD2     H 8860   2.837   1.613  14.517 -0.7952 -0.8303  0.2895
  594MPD2    H1 8861   3.013   1.713  14.138 -0.9386 -2.3736 -0.3773
  594MPD2    H2 8862   2.597   1.706  14.177 -1.0020  3.5552  1.4648
  594MPD2    H3 8863   2.804   1.729  14.043 -0.7911  0.1976  0.8485
  594MPD2     N 8864   3.058   1.706  14.428  0.3309  0.0725  0.8761
  594MPD2    H5 8865   3.042   1.686  14.526  0.3410  0.7301  1.0143
  594MPD2    N1 8866   2.584   1.670  14.423  0.0913  0.5265  0.2063
  594MPD2    H7 8867   2.501   1.693  14.370 -0.6892 -2.1809  0.2618
  595TMC3    C1 8868   3.449   1.913  14.552 -0.4962 -0.4992 -0.8162
  595TMC3    C2 8869   3.381   1.847  14.456 -0.5667  0.3864  0.1102
  595TMC3    C3 8870   3.254   1.806  14.497 -0.0117  0.2564 -0.2487
  595TMC3    C4 8871   3.392   1.972  14.667  0.1812 -0.1302  0.4537
  595TMC3    C5 8872   3.261   1.945  14.691 -0.4577 -0.0506 -0.1075
  595TMC3    C6 8873   3.193   1.859  14.609 -0.4623 -0.9366 -0.0350
  595TMC3     C 8874   3.549   2.009  14.501  0.4273  0.7203 -0.5622
  595TMC3     O 8875   3.664   1.971  14.510  0.1826  0.2193 -0.6439
  595TMC3     H 8876   3.429   1.826  14.362  0.3039 -1.0545  0.8741
  595TMC3    H1 8877   3.453   2.034  14.732 -2.2787  0.5589  2.1169
  595TMC3    H2 8878   3.098   1.818  14.640 -1.7190  0.0386 -2.5310
  595TMC3    C7 8879   3.185   2.049  14.751 -0.1235  0.2669  0.2765
  595TMC3    C8 8880   3.174   1.765  14.385  0.1017 -0.8967  0.1246
  595TMC3    O1 8881   3.071   2.073  14.707 -0.5672  0.4409  0.2711
  595TMC3    O2 8882   3.224   1.777  14.277  0.5757  0.2241 -0.4422
  596MPD2     C 8883   1.651   0.542  16.655  0.0898  0.3898  0.6029
  596MPD2    C1 8884   1.715   0.661  16.613  0.1896  0.7491  0.3905
  596MPD2    C2 8885   1.767   0.660  16.485  0.4769  0.4072 -0.5272
  596MPD2    C3 8886   1.750   0.552  16.393  0.4990  0.2590 -0.3567
  596MPD2    C4 8887   1.690   0.436  16.446  0.1987  0.6748 -0.1187
  596MPD2    C5 8888   1.647   0.429  16.577 -0.8817 -0.2479  0.2470
  596MPD2     H 8889   1.824   0.747  16.453 -0.2389  0.5527 -1.3865
  596MPD2    H1 8890   1.681   0.351  16.380  2.2549 -0.3700  0.9354
  596MPD2    H2 8891   1.612   0.535  16.756 -2.7824  1.4415 -0.4598
  596MPD2    H3 8892   1.601   0.338  16.613  2.7172 -0.8468  3.2680
  596MPD2     N 8893   1.795   0.549  16.258  0.2265 -0.5332 -0.1712
  596MPD2    H5 8894   1.782   0.462  16.208  1.0817 -0.1985 -0.9715
  596MPD2    N1 8895   1.732   0.779  16.693 -0.1481  0.2515 -0.2328
  596MPD2    H7 8896   1.777   0.856  16.644 -1.0459 -0.6966 -2.5603
  597TMC3    C1 8897   1.709   0.926  16.875  0.3105 -0.7866 -0.0145
  597TMC3    C2 8898   1.759   1.033  16.799 -0.2717 -0.4531 -0.0472
  597TMC3    C3 8899   1.785   1.141  16.880 -0.0843  0.6393 -0.4657
  597TMC3    C4 8900   1.655   0.943  16.997 -0.0749  0.7141 -0.7728
  597TMC3    C5 8901   1.653   1.063  17.050 -0.1834 -0.1053 -0.2988
  597TMC3    C6 8902   1.719   1.163  16.993 -0.1804  0.6601  0.2777
  597TMC3     C 8903   1.690   0.793  16.822  0.2867  0.3638  0.1298
  597TMC3     O 8904   1.648   0.706  16.897  0.1536  0.2265  0.1042
  597TMC3     H 8905   1.813   1.001  16.711 -2.4648 -0.1808 -1.4979
  597TMC3    H1 8906   1.610   0.865  17.058  0.2373  1.2552  0.1385
  597TMC3    H2 8907   1.744   1.247  17.058 -1.4297 -0.3741  2.1090
  597TMC3    C7 8908   1.551   1.096  17.147 -0.7317  0.1048 -0.2372
  597TMC3    C8 8909   1.862   1.256  16.826  0.2970 -0.5469 -0.1432
  597TMC3    O1 8910   1.529   1.012  17.231 -0.5015 -0.3807 -0.0506
  597TMC3    O2 8911   1.817   1.368  16.850  0.0371 -0.4267  0.1553
  598TMC3    C1 8912   0.166   1.702  15.838 -0.0666  0.1871  0.6795
  598TMC3    C2 8913   0.114   1.582  15.854  0.5347 -0.3221  0.3249
  598TMC3    C3 8914   0.047   1.523  15.749  0.3697 -0.1553 -0.2241
  598TMC3    C4 8915   0.168   1.766  15.716 -1.0604  0.6298 -0.1326
  598TMC3    C5 8916   0.113   1.703  15.609 -0.2367  0.0010  0.5807
  598TMC3    C6 8917   0.057   1.582  15.623 -0.4291  0.4299 -0.5771
  598TMC3     C 8918   0.259   1.747  15.942  0.6990 -0.1743 -0.6657
  598TMC3     O 8919   0.249   1.864  15.975 -0.3179  0.4653  0.4148
  598TMC3     H 8920   0.115   1.537  15.952 -0.0114 -0.0961  0.4334
  598TMC3    H1 8921   0.238   1.846  15.695 -1.1709  0.7725  0.0469
  598TMC3    H2 8922   0.014   1.535  15.534 -0.4651  0.9908 -0.8531
  598TMC3    C7 8923   0.127   1.757  15.471  0.2871 -0.8289 -0.0595
  598TMC3    C8 8924   4.736   1.389  15.769 -0.0765  0.3532  0.8370
  598TMC3    O1 8925   0.126   1.676  15.382 -0.3597  0.2939  0.0761
  598TMC3    O2 8926   4.720   1.357  15.887  0.4047  0.6695  0.4778
  599MPD2     C 8927   4.600   4.350  15.556 -0.3199  0.4638  0.0315
  599MPD2    C1 8928   4.628   4.232  15.621  0.5562 -0.0116  0.4695
  599MPD2    C2 8929   4.549   4.200  15.732  1.3137  0.4810  0.1948
  599MPD2    C3 8930   4.427   4.261  15.754  0.0935 -0.1144 -0.0520
  599MPD2    C4 8931   4.389   4.365  15.679 -0.2081  0.0109  0.3013
  599MPD2    C5 8932   4.472   4.405  15.579  0.0167  0.0551 -0.1574
  599MPD2     H 8933   4.581   4.115  15.792  2.7638 -0.7522 -2.3169
  599MPD2    H1 8934   4.292   4.414  15.687  0.0828  0.3190  1.8270
  599MPD2    H2 8935   4.663   4.402  15.485  1.0473  0.3166  1.1496
  599MPD2    H3 8936   4.452   4.503  15.536 -1.0729  0.2956  0.8699
  599MPD2     N 8937   4.330   4.221  15.844  0.3771 -0.1585 -0.1419
  599MPD2    H5 8938   4.260   4.291  15.868  1.9598  1.3899  0.0215
  599MPD2    N1 8939   0.008   4.163  15.591  0.5339 -0.3530  0.3564
  599MPD2    H7 8940   0.068   4.209  15.524  1.4735 -1.4441  0.4562
  600TMC3    C1 8941   4.227   4.094  16.009  0.2234  0.3938 -0.3207
  600TMC3    C2 8942   4.155   3.986  16.034 -0.4238  0.5231 -0.4302
  600TMC3    C3 8943   4.041   3.999  16.116 -0.3040 -0.2852 -0.1167
  600TMC3    C4 8944   4.189   4.217  16.047 -0.1199 -0.0668  0.2229
  600TMC3    C5 8945   4.083   4.227  16.129 -0.4843  0.3154 -0.4844
  600TMC3    C6 8946   4.007   4.121  16.172  0.1293 -0.6060 -0.1225
  600TMC3     C 8947   4.335   4.100  15.916 -0.2309  0.0790 -0.6022
  600TMC3     O 8948   4.403   4.000  15.898  0.4709  0.1691  0.0472
  600TMC3     H 8949   4.186   3.900  15.976  0.5266  1.4766 -1.3387
  600TMC3    H1 8950   4.256   4.301  16.061 -0.9881  0.8801 -1.2397
  600TMC3    H2 8951   3.919   4.124  16.235 -0.6713 -0.4655 -1.2378
  600TMC3    C7 8952   4.088   4.328  16.236 -0.1125  0.1071  0.3351
  600TMC3    C8 8953   3.973   3.881  16.162  0.6258 -0.2084  0.4737
  600TMC3    O1 8954   4.059   4.283  16.347  0.0420  0.0938 -0.0966
  600TMC3    O2 8955   4.047   3.792  16.209  0.1661  0.1519  0.5211
  601MPD2     C 8956   1.437   2.651   0.433  0.2695  0.5706  1.3143
  601MPD2    C1 8957   1.419   2.547   0.337  0.3327 -0.4908 -0.2698
  601MPD2    C2 8958   1.423   2.413   0.375  0.3088  0.8959  0.4178
  601MPD2    C3 8959   1.440   2.377   0.507 -0.8404 -0.2734 -0.8041
  601MPD2    C4 8960   1.455   2.477   0.592 -0.6146  0.2503  0.1321
  601MPD2    C5 8961   1.449   2.614   0.562  0.1142 -0.1025 -0.9057
  601MPD2     H 8962   1.420   2.334   0.301  1.1590 -0.3967  1.7676
  601MPD2    H1 8963   1.471   2.454   0.697  0.9860  1.0449  0.0703
  601MPD2    H2 8964   1.438   2.754   0.402 -1.5384  0.0819 -0.3866
  601MPD2    H3 8965   1.441   2.693   0.636  0.1748  0.0054 -1.0137
  601MPD2     N 8966   1.432   2.248   0.555 -0.3924 -0.3337 -0.0379
  601MPD2    H5 8967   1.454   2.231   0.652  1.3365 -2.0640 -0.7372
  601MPD2    N1 8968   1.424   2.581   0.199 -0.2530 -0.6279 -0.1230
  601MPD2    H7 8969   1.414   2.503   0.134  3.6482 -1.4320  0.2415
  602TMC3    C1 8970   1.512   2.689   0.001  0.0647 -0.0083  1.2218
  602TMC3    C2 8971   1.589   2.794  17.703 -0.0612  0.2516 -0.3897
  602TMC3    C3 8972   1.601   2.813  17.569  0.5818  0.5721  0.4802
  602TMC3    C4 8973   1.441   2.613  17.660 -0.0105 -0.6140  0.1771
  602TMC3    C5 8974   1.449   2.632  17.523  0.7888  0.2581 -0.2308
  602TMC3    C6 8975   1.537   2.731  17.481 -0.7513 -0.0256  0.3409
  602TMC3     C 8976   1.472   2.699   0.141 -0.1850  0.3939 -0.0466
  602TMC3     O 8977   1.482   2.813   0.188  0.4209 -0.1791 -0.5234
  602TMC3     H 8978   1.643   2.861   0.025 -1.7233 -1.5056  2.7291
  602TMC3    H1 8979   1.365   2.539  17.685 -3.1518  1.3649 -3.4480
  602TMC3    H2 8980   1.545   2.747  17.374 -0.6126 -0.5084  0.2812
  602TMC3    C7 8981   1.320   2.628  17.446 -0.5254 -0.8477  0.0891
  602TMC3    C8 8982   1.579   2.956  17.532  0.0590  0.7316  0.0344
  602TMC3    O1 8983   1.237   2.544  17.480 -0.1975 -0.2163 -0.3958
  602TMC3    O2 8984   1.476   2.960  17.466 -0.2420 -0.4064  0.5137
  603TMC3    C1 8985   0.032   2.440  11.410  0.5207  0.4478 -0.8514
  603TMC3    C2 8986   0.119   2.375  11.496 -0.3212 -0.1389 -0.1272
  603TMC3    C3 8987   0.229   2.451  11.544  0.3535 -0.8786 -0.6515
  603TMC3    C4 8988   0.047   2.576  11.385  0.5383 -0.0502 -0.5895
  603TMC3    C5 8989   0.162   2.637  11.430 -0.0703  0.3144  0.1424
  603TMC3    C6 8990   0.247   2.583  11.517  0.7905 -0.2432 -0.0329
  603TMC3     C 8991   4.655   2.383  11.345  0.4782  0.3585 -0.4589
  603TMC3     O 8992   4.594   2.453  11.263 -0.3933  0.7795 -0.3023
  603TMC3     H 8993   0.102   2.270  11.516  0.5378 -0.3300 -0.4242
  603TMC3    H1 8994   4.718   2.638  11.326  0.3889  0.8749  0.5488
  603TMC3    H2 8995   0.344   2.625  11.539  0.1380  1.1613  0.1763
  603TMC3    C7 8996   0.231   2.739  11.349  0.5150  0.6525 -0.0058
  603TMC3    C8 8997   0.314   2.376  11.645 -0.2541 -0.3825  0.1792
  603TMC3    O1 8998   0.325   2.805  11.394  0.2828 -0.3949  0.5567
  603TMC3    O2 8999   0.305   2.254  11.645  0.0873  0.4158  0.4463
  604MPD2     C 9000   1.267   2.148  16.383  0.0350  0.2994  0.2011
  604MPD2    C1 9001   1.162   2.061  16.353  0.5193 -0.4083 -0.0780
  604MPD2    C2 9002   1.175   1.973  16.239 -0.3174  0.0401  0.4041
  604MPD2    C3 9003   1.270   1.999  16.144  0.3610  0.4020 -0.1797
  604MPD2    C4 9004   1.362   2.102  16.163  0.9895  0.3618 -0.7419
  604MPD2    C5 9005   1.364   2.171  16.284 -0.2549 -0.2751  0.1076
  604MPD2     H 9006   1.112   1.886  16.220 -2.0133  0.9223  2.0191
  604MPD2    H1 9007   1.438   2.143  16.097  0.0037  1.8053 -0.9748
  604MPD2    H2 9008   1.272   2.204  16.476 -1.8665  3.3060 -1.5179
  604MPD2    H3 9009   1.445   2.239  16.306  0.2283 -1.4298  1.9131
  604MPD2     N 9010   1.265   1.930  16.021 -0.2595 -0.0446 -1.2821
  604MPD2    H5 9011   1.180   1.878  16.001 -0.2632 -0.2113 -0.8448
  604MPD2    N1 9012   1.065   2.043  16.454 -0.2368  0.1361 -0.9913
  604MPD2    H7 9013   1.065   2.107  16.532  4.0573 -1.7405  0.5609
  605TMC3    C1 9014   0.891   1.965  16.580 -0.0055  0.1184  0.1164
  605TMC3    C2 9015   0.956   2.037  16.672 -0.4449  0.3757  0.2024
  605TMC3    C3 9016   0.880   2.128  16.741 -0.1457  0.6813 -0.1384
  605TMC3    C4 9017   0.757   1.959  16.566 -0.1002  0.2053 -0.1686
  605TMC3    C5 9018   0.685   2.049  16.639 -0.7432  0.6747 -0.6483
  605TMC3    C6 9019   0.745   2.140  16.722 -1.0609 -0.3963  0.3526
  605TMC3     C 9020   0.968   1.944  16.460 -0.4402  0.3140 -0.0769
  605TMC3     O 9021   0.942   1.858  16.376 -0.4239 -0.0242  0.3536
  605TMC3     H 9022   1.058   2.010  16.697 -0.0527  0.3661 -1.3960
  605TMC3    H1 9023   0.697   1.906  16.494 -0.3865  0.4443 -0.1057
  605TMC3    H2 9024   0.678   2.203  16.780  1.0273  0.7716  1.5007
  605TMC3    C7 9025   0.540   2.055  16.607  0.1662  0.2321 -0.4162
  605TMC3    C8 9026   0.948   2.205  16.842  0.7419  0.1645  0.2584
  605TMC3    O1 9027   0.477   2.160  16.605  0.4523 -0.1034  0.1126
  605TMC3    O2 9028   1.054   2.151  16.879 -0.2471  0.2664 -0.0112
  606TMC3    C1 9029   2.013   0.679  16.963 -1.0663  0.1199 -0.0150
  606TMC3    C2 9030   2.006   0.724  17.089 -0.3876 -0.4517 -0.4205
  606TMC3    C3 9031   1.940   0.644  17.179 -0.5113  0.0478  0.1790
  606TMC3    C4 9032   1.966   0.556  16.932 -0.1685  0.6779  0.2635
  606TMC3    C5 9033   1.921   0.474  17.028  0.4283  0.5205  0.3137
  606TMC3    C6 9034   1.911   0.511  17.154 -0.1300 -0.6887  0.1698
  606TMC3     C 9035   2.052   0.774  16.854  0.2746  0.3490 -0.2359
  606TMC3     O 9036   2.034   0.893  16.879  0.0808  0.1453  0.4485
  606TMC3     H 9037   2.038   0.822  17.123 -2.5980 -0.1321  0.7511
  606TMC3    H1 9038   1.947   0.529  16.828 -1.2708  0.7483  0.4479
  606TMC3    H2 9039   1.857   0.447  17.223  0.6315 -0.6094  0.8353
  606TMC3    C7 9040   1.848   0.351  16.998 -0.6106 -0.0491 -0.2441
  606TMC3    C8 9041   1.921   0.696  17.315  0.8427  0.6821  0.8085
  606TMC3    O1 9042   1.768   0.308  17.080  0.3948  0.5353 -1.1245
  606TMC3    O2 9043   1.924   0.816  17.339 -0.2330  0.5074 -0.1047
  607MPD2     C 9044   4.608   1.841  11.657  0.8188 -0.1891  0.5286
  607MPD2    C1 9045   4.562   1.899  11.768 -0.8264 -1.1316  0.0239
  607MPD2    C2 9046   4.500   1.827  11.868 -0.2117  0.1101 -0.2354
  607MPD2    C3 9047   4.467   1.690  11.852  0.2295 -0.3316 -0.3010
  607MPD2    C4 9048   4.513   1.632  11.731 -0.7556 -0.1755 -0.3031
  607MPD2    C5 9049   4.577   1.710  11.641 -0.1871  0.8388 -0.9975
  607MPD2     H 9050   4.490   1.876  11.964  1.9880 -2.7901  1.4403
  607MPD2    H1 9051   4.492   1.529  11.702  0.3508 -0.2101 -0.9767
  607MPD2    H2 9052   4.666   1.895  11.584 -0.1575  0.0404 -0.0864
  607MPD2    H3 9053   4.614   1.666  11.549  2.3955 -1.3624  1.0779
  607MPD2     N 9054   4.416   1.615  11.959  0.5821 -0.3416 -0.3821
  607MPD2    H5 9055   4.397   1.663  12.047 -0.9555  0.3655 -1.0928
  607MPD2    N1 9056   4.586   2.033  11.817  0.0337 -0.3120  0.4055
  607MPD2    H7 9057   4.529   2.064  11.895 -1.0061 -1.2630  0.0314
  608TMC3    C1 9058   4.692   2.241  11.835 -0.6111  0.0258 -0.3262
  608TMC3    C2 9059   4.704   2.217  11.968 -0.0083  0.2609 -0.6871
  608TMC3    C3 9060   4.692   2.323  12.055  0.0862  0.4542 -0.1639
  608TMC3    C4 9061   4.666   2.364  11.784 -0.1295 -0.8659  0.3832
  608TMC3    C5 9062   4.647   2.467  11.878 -0.2434  0.4960 -0.0889
  608TMC3    C6 9063   4.659   2.448  12.012  0.0605  0.5881  0.1212
  608TMC3     C 9064   4.667   2.120  11.754  0.5225  0.9443 -0.2805
  608TMC3     O 9065   4.692   2.129  11.637 -0.1613 -0.2059  0.2744
  608TMC3     H 9066   4.731   2.117  12.002 -3.0577 -0.3062  0.0341
  608TMC3    H1 9067   4.646   2.371  11.678  2.8330  0.5074 -0.0636
  608TMC3    H2 9068   4.643   2.525  12.086  2.1647 -0.4005  1.5893
  608TMC3    C7 9069   4.665   2.599  11.820  0.3674 -0.2569 -1.4044
  608TMC3    C8 9070   4.650   2.303  12.195 -0.0955  0.1677 -0.2751
  608TMC3    O1 9071   4.696   2.598  11.701  0.0538 -1.1397  0.5202
  608TMC3    O2 9072   4.609   2.395  12.263 -0.2036 -0.2200  0.0491
  609TMC3    C1 9073   2.989   1.183   9.246  0.0247 -0.8586  0.0508
  609TMC3    C2 9074   3.010   1.062   9.180 -0.0532  0.1983 -0.6483
  609TMC3    C3 9075   3.114   0.984   9.213  0.4674 -0.0894 -1.9965
  609TMC3    C4 9076   3.080   1.229   9.341 -0.1460  0.7881  0.2838
  609TMC3    C5 9077   3.193   1.149   9.361 -0.6778  0.0739  0.0810
  609TMC3    C6 9078   3.207   1.023   9.305 -0.0972 -0.3783 -0.4051
  609TMC3     C 9079   2.852   1.214   9.277  0.5190  0.2988 -1.0338
  609TMC3     O 9080   2.829   1.255   9.388 -0.2827 -0.1614 -0.1721
  609TMC3     H 9081   2.940   1.026   9.105 -1.0238 -0.7446  0.7030
  609TMC3    H1 9082   3.057   1.325   9.384 -1.5174  0.4184  0.3886
  609TMC3    H2 9083   3.299   0.967   9.317  3.2728  4.8228 -1.9732
  609TMC3    C7 9084   3.284   1.208   9.455  0.2238 -0.2065  0.1586
  609TMC3    C8 9085   3.118   0.854   9.158  0.2036 -0.1583  0.6182
  609TMC3    O1 9086   3.283   1.331   9.463  0.5473  0.0449  0.4023
  609TMC3    O2 9087   3.054   0.834   9.055 -0.4904  0.1002  0.4665
  610TMC3    C1 9088   0.169   2.205  12.540 -0.1510  0.7306 -0.3119
  610TMC3    C2 9089   0.170   2.188  12.401  0.2576 -0.1224 -0.0160
  610TMC3    C3 9090   0.204   2.063  12.366 -0.2496 -0.0235 -0.0089
  610TMC3    C4 9091   0.204   2.113  12.635  0.5034 -0.2767 -0.0286
  610TMC3    C5 9092   0.233   1.982  12.585 -0.1542  0.0746  0.6106
  610TMC3    C6 9093   0.242   1.960  12.454 -0.0783  0.2005 -0.3815
  610TMC3     C 9094   0.120   2.330  12.595  0.1467  0.0771  0.6059
  610TMC3     O 9095   0.062   2.325  12.703 -0.5015 -0.7779  0.1946
  610TMC3     H 9096   0.133   2.256  12.325  2.8605  0.7134 -0.5439
  610TMC3    H1 9097   0.221   2.129  12.741  0.0099 -1.9104  0.3077
  610TMC3    H2 9098   0.264   1.862  12.414  0.2020 -0.0768  0.4744
  610TMC3    C7 9099   0.342   1.920  12.660  0.1492 -0.0426  0.0774
  610TMC3    C8 9100   0.207   2.045  12.214  0.1578  0.5080 -0.7942
  610TMC3    O1 9101   0.397   1.977  12.753 -0.6127  0.1475 -0.3494
  610TMC3    O2 9102   0.210   2.142  12.148 -0.1295  0.7168 -0.2046
  611MPD2     C 9103   4.380   2.308  10.844 -0.0000 -1.0882  0.3002
  611MPD2    C1 9104   4.331   2.332  10.717  0.1192 -0.6748 -0.1230
  611MPD2    C2 9105   4.378   2.437  10.643  0.2214  0.4264 -0.2290
  611MPD2    C3 9106   4.496   2.498  10.684 -0.6010  0.4577 -0.1994
  611MPD2    C4 9107   4.555   2.459  10.803 -0.1137 -0.1538 -0.1340
  611MPD2    C5 9108   4.494   2.369  10.885 -0.3630  0.3938  0.0544
  611MPD2     H 9109   4.349   2.462  10.542 -0.7452 -0.8315 -0.2591
  611MPD2    H1 9110   4.641   2.513  10.842 -0.8739  0.0099  1.2980
  611MPD2    H2 9111   4.326   2.238  10.906  1.0741 -2.6442 -0.5287
  611MPD2    H3 9112   4.539   2.339  10.979 -0.7797  0.7212  0.3574
  611MPD2     N 9113   4.558   2.599  10.610 -0.4205  0.0448 -0.0429
  611MPD2    H5 9114   4.640   2.633  10.659  0.6207 -0.4898 -1.4450
  611MPD2    N1 9115   4.206   2.272  10.679 -0.5450  0.4082 -0.2073
  611MPD2    H7 9116   4.160   2.213  10.748 -1.5412  0.3365 -0.9303
  612TMC3    C1 9117   4.592   2.781  10.473 -0.2221 -0.6766  0.2038
  612TMC3    C2 9118   4.690   2.811  10.569 -0.6041  0.9931 -0.9225
  612TMC3    C3 9119   0.048   2.903  10.546  0.3491 -0.0118 -0.1958
  612TMC3    C4 9120   4.596   2.837  10.346 -0.2719 -0.3053 -0.7410
  612TMC3    C5 9121   4.694   2.932  10.332  0.1396  0.1745  0.1757
  612TMC3    C6 9122   0.038   2.979  10.431  0.7668  0.0898  0.6572
  612TMC3     C 9123   4.498   2.675  10.510  0.5918  0.0658  0.0109
  612TMC3     O 9124   4.405   2.660  10.434  0.2182  0.2707 -0.1473
  612TMC3     H 9125   4.674   2.791  10.674  0.4746  1.7933 -0.6047
  612TMC3    H1 9126   4.522   2.807  10.273 -0.6697 -0.2691 -0.3483
  612TMC3    H2 9127   0.094   3.072  10.421 -1.2090  1.4713  2.5941
  612TMC3    C7 9128   4.711   2.997  10.203 -0.0773 -0.4422 -0.5451
  612TMC3    C8 9129   0.133   2.952  10.648  0.3995 -1.0382  0.2257
  612TMC3    O1 9130   0.052   3.093  10.205  0.0445  0.1103  0.4193
  612TMC3    O2 9131   0.195   3.054  10.617  0.5307  0.2110  0.7855
  613MPD2     C 9132   3.055   0.020  16.938 -0.1180 -0.4529  0.5778
  613MPD2    C1 9133   3.103   0.127  16.867  0.3022 -0.3321  0.1317
  613MPD2    C2 9134   3.026   0.196  16.780  1.1564  0.3463 -0.3557
  613MPD2    C3 9135   2.903   0.143  16.737  0.3703  0.3833  0.4166
  613MPD2    C4 9136   2.857   0.030  16.802  0.0654  0.3189 -0.2800
  613MPD2    C5 9137   2.931   4.710  16.903  0.0525  0.4304 -0.0872
  613MPD2     H 9138   3.057   0.293  16.743  2.1696  0.3506  0.5026
  613MPD2    H1 9139   2.761   4.727  16.772  0.4765  1.2620 -2.8756
  613MPD2    H2 9140   3.112   4.699  17.011  0.3632 -0.5588  0.1146
  613MPD2    H3 9141   2.882   4.623  16.945  1.7803  0.5193  2.1214
  613MPD2     N 9142   2.837   0.188  16.618 -0.1995  0.4324 -0.2510
  613MPD2    H5 9143   2.760   0.127  16.594 -1.2936  1.0842  1.6609
  613MPD2    N1 9144   3.225   0.171  16.916  0.1444 -0.2972  0.4789
  613MPD2    H7 9145   3.240   0.139  17.011  1.5237 -0.9530  0.0501
  614TMC3    C1 9146   3.309   0.293  16.721 -0.1408  0.2882 -0.1156
  614TMC3    C2 9147   3.295   0.184  16.634  0.4255  0.0527 -0.5191
  614TMC3    C3 9148   3.269   0.206  16.501 -0.1303 -0.2276  0.3368
  614TMC3    C4 9149   3.309   0.422  16.677 -0.8020 -0.2199 -0.0525
  614TMC3    C5 9150   3.281   0.438  16.544 -0.5528  0.3711  0.2036
  614TMC3    C6 9151   3.278   0.333  16.452  0.1019  0.0499  0.6211
  614TMC3     C 9152   3.298   0.279  16.865 -0.0524  0.2987  1.0714
  614TMC3     O 9153   3.369   0.350  16.937 -0.2276 -0.4039 -0.5947
  614TMC3     H 9154   3.310   0.083  16.671  0.1949 -0.0550 -0.7127
  614TMC3    H1 9155   3.317   0.504  16.747 -1.6098 -0.6829  0.5876
  614TMC3    H2 9156   3.247   0.346  16.349  1.8607  0.3310  0.1282
  614TMC3    C7 9157   3.247   0.573  16.504  0.5763  0.2944  0.4074
  614TMC3    C8 9158   3.198   0.109  16.421  0.1923 -0.3394  0.0352
  614TMC3    O1 9159   3.274   0.666  16.582 -0.4616  0.2046  0.1253
  614TMC3    O2 9160   3.169   0.148  16.310 -0.0154 -0.1210 -0.8194
  615MPD2     C 9161   2.570   1.702  15.678  0.6174 -0.2465 -0.0093
  615MPD2    C1 9162   2.532   1.816  15.745 -0.2723  0.1489  0.3815
  615MPD2    C2 9163   2.442   1.903  15.684  0.6764  0.3420 -0.3692
  615MPD2    C3 9164   2.396   1.892  15.554  1.0212  0.4388  0.4256
  615MPD2    C4 9165   2.447   1.780  15.487  0.5195  0.0297 -0.4615
  615MPD2    C5 9166   2.526   1.685  15.550  0.8187 -0.4312 -0.7518
  615MPD2     H 9167   2.408   1.989  15.741 -0.3078  0.4893 -1.1769
  615MPD2    H1 9168   2.404   1.759  15.389 -1.3355  1.3983  0.0625
  615MPD2    H2 9169   2.630   1.621  15.720  0.8327 -1.5334 -2.7904
  615MPD2    H3 9170   2.562   1.598  15.497  0.7171  1.2408 -3.5913
  615MPD2     N 9171   2.305   1.978  15.489 -0.5794 -0.3203  0.3262
  615MPD2    H5 9172   2.285   1.964  15.391 -0.4108  0.0659  0.2376
  615MPD2    N1 9173   2.593   1.866  15.863  0.3992 -0.1856 -0.0486
  615MPD2    H7 9174   2.552   1.950  15.902  1.7999 -0.7660  2.6786
  616TMC3    C1 9175   2.740   1.850  16.056  0.7184  0.4019  0.6499
  616TMC3    C2 9176   2.746   1.987  16.070  0.6079  0.0305 -0.1952
  616TMC3    C3 9177   2.830   2.045  16.155  0.8937 -0.3064 -0.2966
  616TMC3    C4 9178   2.827   1.773  16.129 -0.1676  0.1524 -1.0564
  616TMC3    C5 9179   2.912   1.834  16.219 -0.1827 -0.4332  0.4772
  616TMC3    C6 9180   2.917   1.971  16.234 -0.3716 -0.6612 -0.3111
  616TMC3     C 9181   2.680   1.790  15.937  0.8807 -0.0652  0.4133
  616TMC3     O 9182   2.719   1.672  15.920 -0.1913  0.1184  0.3587
  616TMC3     H 9183   2.698   2.048  15.994 -0.4601  0.5797  0.9153
  616TMC3    H1 9184   2.807   1.667  16.136 -1.5355  0.3009 -2.6488
  616TMC3    H2 9185   2.983   2.020  16.305 -0.5812 -0.2719 -0.3880
  616TMC3    C7 9186   3.035   1.766  16.256  0.0722  0.5915  0.3932
  616TMC3    C8 9187   2.842   2.188  16.143 -0.2186  0.0975  0.0711
  616TMC3    O1 9188   3.075   1.787  16.369  0.3097  0.1696 -0.5510
  616TMC3    O2 9189   2.733   2.246  16.128  0.0062 -0.0975 -0.4912
  617MPD2     C 9190   1.288   4.701  13.845  0.6710 -0.0201 -0.2518
  617MPD2    C1 9191   1.252   4.656  13.721  0.6915  0.6076 -0.1666
  617MPD2    C2 9192   1.121   4.644  13.682  0.2710 -0.0362 -0.3904
  617MPD2    C3 9193   1.020   4.681  13.768  0.1642  0.0402  0.1304
  617MPD2    C4 9194   1.054   0.015  13.882 -0.1015 -0.5876  0.0081
  617MPD2    C5 9195   1.187   0.021  13.918 -1.0992 -0.1550  0.2531
  617MPD2     H 9196   1.101   4.595  13.588  0.3013 -2.6605  0.9801
  617MPD2    H1 9197   0.981   0.060  13.948  0.6505  0.1964  0.3080
  617MPD2    H2 9198   1.387   4.695  13.890 -0.0054 -1.2887  1.0749
  617MPD2    H3 9199   1.209   0.067  14.014  0.0191 -1.4268  0.6028
  617MPD2     N 9200   0.884   4.651  13.747 -0.0904  0.3080 -0.3652
  617MPD2    H5 9201   0.819   4.674  13.821  0.3077 -0.3116  0.1700
  617MPD2    N1 9202   1.336   4.582  13.635  0.4262 -0.0010 -0.0446
  617MPD2    H7 9203   1.296   4.543  13.551 -0.5950  0.9418  0.0082
  618TMC3    C1 9204   1.526   4.512  13.534 -0.0617  0.5824  0.6012
  618TMC3    C2 9205   1.455   4.415  13.475 -0.5671  0.7397  0.1711
  618TMC3    C3 9206   1.523   4.337  13.384  0.1766 -0.0786 -0.3553
  618TMC3    C4 9207   1.659   4.532  13.508  0.2375  0.0749  0.7999
  618TMC3    C5 9208   1.722   4.457  13.409  0.0192  0.0226  0.1119
  618TMC3    C6 9209   1.657   4.349  13.353 -0.1328 -0.7445 -0.0449
  618TMC3     C 9210   1.467   4.590  13.635  0.4928 -0.3587  0.1432
  618TMC3     O 9211   1.544   4.649  13.709  0.3222  0.8833 -0.0264
  618TMC3     H 9212   1.356   4.386  13.509 -0.6430  0.3538 -0.3865
  618TMC3    H1 9213   1.709   4.614  13.559 -0.1113 -1.3327  3.3730
  618TMC3    H2 9214   1.699   4.291  13.272  0.3516 -0.2461 -0.1528
  618TMC3    C7 9215   1.871   4.474  13.397 -0.7116 -0.1427  0.0531
  618TMC3    C8 9216   1.437   4.266  13.295  0.2178 -0.8688 -0.0208
  618TMC3    O1 9217   1.936   4.464  13.500  0.3813 -0.3911 -0.4860
  618TMC3    O2 9218   1.315   4.288  13.298 -0.0700  0.4046 -0.2685
  619MPD2     C 9219   2.410   1.260  13.760  0.5778 -0.8014  0.4632
  619MPD2    C1 9220   2.288   1.308  13.798 -0.1846  0.2963 -0.1558
  619MPD2    C2 9221   2.228   1.235  13.897 -0.0606  0.4377 -0.1606
  619MPD2    C3 9222   2.281   1.126  13.956 -0.0750 -0.5909 -0.6919
  619MPD2    C4 9223   2.405   1.091  13.922  0.0930  0.3180  0.4473
  619MPD2    C5 9224   2.471   1.159  13.826  0.0964  0.0774  0.2082
  619MPD2     H 9225   2.126   1.268  13.913  0.2282  1.1596  0.2522
  619MPD2    H1 9226   2.454   0.999  13.953 -0.9586 -0.3637  0.0692
  619MPD2    H2 9227   2.471   1.311  13.686  0.1007 -1.9771 -0.7389
  619MPD2    H3 9228   2.567   1.123  13.791 -0.3967  0.1082 -1.1544
  619MPD2     N 9229   2.206   1.044  14.050 -0.6409 -0.2606 -0.4461
  619MPD2    H5 9230   2.243   0.960  14.092 -2.3439 -0.6755  0.2195
  619MPD2    N1 9231   2.226   1.416  13.747  0.7609  0.2595  0.2885
  619MPD2    H7 9232   2.130   1.437  13.773  1.0399  2.5906 -0.5389
  620TMC3    C1 9233   2.169   1.588  13.597  0.4525 -0.3244  0.4324
  620TMC3    C2 9234   2.037   1.567  13.630  0.0823  0.4145 -0.1674
  620TMC3    C3 9235   1.944   1.651  13.568  0.1731  0.4435  0.2877
  620TMC3    C4 9236   2.212   1.681  13.511 -1.1284  0.4349  0.1249
  620TMC3    C5 9237   2.116   1.762  13.456 -0.3163 -0.2356 -0.1298
  620TMC3    C6 9238   1.981   1.753  13.487  0.4294  0.4744 -0.2830
  620TMC3     C 9239   2.269   1.496  13.644 -0.9635  0.1200 -0.1034
  620TMC3     O 9240   2.367   1.489  13.567  0.0346  0.0940  0.7908
  620TMC3     H 9241   1.999   1.475  13.673  0.8607  0.6435  0.9951
  620TMC3    H1 9242   2.316   1.707  13.498 -0.8533 -0.8249 -0.2533
  620TMC3    H2 9243   1.915   1.821  13.435  2.0499  2.6572  0.5320
  620TMC3    C7 9244   2.173   1.891  13.424 -0.0280 -0.0935  0.6882
  620TMC3    C8 9245   1.811   1.647  13.619 -0.3472  0.6641  0.4270
  620TMC3    O1 9246   2.265   1.886  13.344  0.3469  0.0595  0.0816
  620TMC3    O2 9247   1.792   1.593  13.726  0.2927 -0.1632 -0.4618
  621MPD2     C 9248   2.427   0.912  10.086 -0.1294  0.4956  0.1759
  621MPD2    C1 9249   2.384   1.001   9.990  0.7293  0.1333  1.4788
  621MPD2    C2 9250   2.460   1.109   9.960 -0.5393 -0.2846  0.1122
  621MPD2    C3 9251   2.590   1.128  10.008 -0.3635 -0.2675 -0.1035
  621MPD2    C4 9252   2.639   1.031  10.094 -0.5668  0.3056  0.4255
  621MPD2    C5 9253   2.558   0.926  10.123  0.9037  0.4353 -0.0198
  621MPD2     H 9254   2.413   1.177   9.890 -1.0026 -0.6801  0.0434
  621MPD2    H1 9255   2.738   1.033  10.140  0.6319  2.3160 -2.2139
  621MPD2    H2 9256   2.386   0.815  10.111  2.0813 -0.0374  1.7374
  621MPD2    H3 9257   2.596   0.852  10.193  0.2405  0.1332  0.0245
  621MPD2     N 9258   2.663   1.244   9.973  0.5711  0.8432 -0.3628
  621MPD2    H5 9259   2.609   1.317   9.926  2.1222  3.0808  1.3719
  621MPD2    N1 9260   2.255   0.989   9.920 -0.0945  0.1752  0.5174
  621MPD2    H7 9261   2.239   1.047   9.838 -0.6076  1.6898  1.6898
  622TMC3    C1 9262   2.036   0.950   9.879 -0.1547  0.2846  0.4073
  622TMC3    C2 9263   1.912   0.981   9.933  0.4196 -0.3631 -0.6012
  622TMC3    C3 9264   1.826   1.011   9.833  0.0720  0.5691  0.2563
  622TMC3    C4 9265   2.072   0.942   9.743 -0.1218  0.4165  0.1132
  622TMC3    C5 9266   1.978   0.972   9.647 -0.0171  0.4401 -0.1465
  622TMC3    C6 9267   1.849   1.011   9.696  0.2554 -0.4079  0.2494
  622TMC3     C 9268   2.143   0.931   9.973 -0.2644 -0.1172 -0.1560
  622TMC3     O 9269   2.127   0.903  10.088  0.9669  0.1003  0.4562
  622TMC3     H 9270   1.885   0.960  10.036  0.6667  0.1880 -0.4298
  622TMC3    H1 9271   2.166   0.902   9.707 -1.0664 -1.3568 -0.3744
  622TMC3    H2 9272   1.767   1.027   9.627 -0.1994 -0.3091  0.8151
  622TMC3    C7 9273   2.003   0.947   9.508  0.2068 -0.1472  0.9390
  622TMC3    C8 9274   1.688   1.040   9.878  0.0519  0.1493 -0.0899
  622TMC3    O1 9275   2.102   0.884   9.472  0.1162 -0.8677  0.3337
  622TMC3    O2 9276   1.590   1.022   9.808 -0.3358  0.2189 -0.1068
  623MPD2     C 9277   1.448   2.571  16.241 -0.1477 -0.4339 -0.4022
  623MPD2    C1 9278   1.353   2.505  16.326 -0.1647 -1.0815  0.5988
  623MPD2    C2 9279   1.388   2.496  16.456  0.0757 -0.2125  0.3721
  623MPD2    C3 9280   1.516   2.523  16.497 -0.8265 -0.3239 -0.6958
  623MPD2    C4 9281   1.606   2.579  16.411  0.0864 -0.6376 -0.1567
  623MPD2    C5 9282   1.570   2.610  16.282 -1.0525 -0.1333  0.0800
  623MPD2     H 9283   1.321   2.448  16.526 -2.1997 -0.3014 -1.8573
  623MPD2    H1 9284   1.709   2.607  16.432  0.3988 -0.3527 -2.0267
  623MPD2    H2 9285   1.419   2.591  16.138  0.5248 -3.3410 -1.1820
  623MPD2    H3 9286   1.643   2.666  16.224  1.5203 -1.3354  2.1529
  623MPD2     N 9287   1.548   2.498  16.632 -0.2768  0.7139 -0.2095
  623MPD2    H5 9288   1.474   2.451  16.682  0.7086  0.3629  0.9162
  623MPD2    N1 9289   1.224   2.463  16.288 -0.0912  0.8135  0.0585
  623MPD2    H7 9290   1.169   2.413  16.356 -0.8991  1.2659 -0.2654
  624TMC3    C1 9291   1.733   2.374  17.023  0.3401 -0.2059 -0.0870
  624TMC3    C2 9292   1.607   2.370  17.072  0.1438  0.3132  0.1410
  624TMC3    C3 9293   1.511   2.449  17.011 -0.7931 -0.5051  0.2937
  624TMC3    C4 9294   1.759   2.439  16.903 -0.4409 -0.2214  0.2877
  624TMC3    C5 9295   1.651   2.477  16.832 -0.2667 -0.0330 -0.1264
  624TMC3    C6 9296   1.530   2.496  16.891 -0.2788  0.4984  0.3224
  624TMC3     C 9297   1.829   2.272  17.074  0.2972 -0.4222 -0.1757
  624TMC3     O 9298   1.783   2.165  17.113  0.1532  0.3307  0.5814
  624TMC3     H 9299   1.584   2.338  17.173 -1.9537  0.2142 -0.3635
  624TMC3    H1 9300   1.854   2.428  16.853 -0.9484 -0.3899 -0.6273
  624TMC3    H2 9301   1.440   2.522  16.835  0.7436 -1.8156 -2.4047
  624TMC3    C7 9302   1.665   2.524  16.697 -0.0820  0.2659 -1.0139
  624TMC3    C8 9303   1.375   2.433  17.051 -0.2130 -0.3064  0.0074
  624TMC3    O1 9304   1.779   2.538  16.645 -0.7569  0.1314  0.3716
  624TMC3    O2 9305   1.350   2.319  17.095 -0.3881  0.0021 -0.1968
  625MPD2     C 9306   1.682   3.498   0.413 -0.1630  0.2077 -0.3468
  625MPD2    C1 9307   1.706   3.634   0.418  0.4579  0.7085  0.4144
  625MPD2    C2 9308   1.838   3.671   0.433 -0.2931  0.2709  0.1442
  625MPD2    C3 9309   1.943   3.582   0.435 -0.1603 -0.3910 -0.0469
  625MPD2    C4 9310   1.917   3.449   0.418  0.7219  0.4777  0.4692
  625MPD2    C5 9311   1.787   3.409   0.416 -0.0540  0.0253  0.0988
  625MPD2     H 9312   1.861   3.775   0.453  1.6089  0.0023 -0.6287
  625MPD2    H1 9313   1.999   3.377   0.417  0.2586 -0.0793  2.3607
  625MPD2    H2 9314   1.585   3.451   0.399 -0.6880  1.2747 -0.2596
  625MPD2    H3 9315   1.766   3.304   0.396  2.2459 -0.8626  2.2617
  625MPD2     N 9316   2.075   3.644   0.437 -0.6000  0.7324  0.2023
  625MPD2    H5 9317   2.069   3.743   0.417  1.9868  1.2940  2.1482
  625MPD2    N1 9318   1.602   3.730   0.414  0.0517  0.1317 -0.1741
  625MPD2    H7 9319   1.626   3.826   0.436 -0.2750  0.3239 -0.6602
  626TMC3    C1 9320   1.384   3.816   0.389 -0.4271  0.0880 -0.2164
  626TMC3    C2 9321   1.283   3.821   0.299  0.3704  0.1386 -0.4552
  626TMC3    C3 9322   1.180   3.909   0.319 -0.6586  0.0122  0.5202
  626TMC3    C4 9323   1.386   3.887   0.503 -0.0142 -0.3482  0.6351
  626TMC3    C5 9324   1.281   3.976   0.524  0.1446  0.2205  1.1736
  626TMC3    C6 9325   1.173   3.986   0.428 -0.5964  0.4132 -0.3936
  626TMC3     C 9326   1.471   3.702   0.371 -0.5899  0.1085 -0.2910
  626TMC3     O 9327   1.421   3.597   0.336 -0.2639  0.5794  0.4086
  626TMC3     H 9328   1.283   3.763   0.207  1.5615 -0.0111 -0.3610
  626TMC3    H1 9329   1.474   3.893   0.565  0.6029  0.1611 -0.2864
  626TMC3    H2 9330   1.100   4.066   0.438 -0.3701  0.6133 -0.3545
  626TMC3    C7 9331   1.286   4.057   0.644  0.6253  0.7370 -0.6309
  626TMC3    C8 9332   1.089   3.932   0.210 -0.1862  0.3133  0.2991
  626TMC3    O1 9333   1.393   4.063   0.710 -0.7062 -0.6009 -0.3040
  626TMC3    O2 9334   1.119   3.892   0.099  0.4110 -0.1303 -0.1310
  627MPD2     C 9335   0.116   3.513  14.207 -0.3784 -0.6010 -0.5177
  627MPD2    C1 9336   0.149   3.497  14.343 -0.3877 -0.5603 -0.1075
  627MPD2    C2 9337   0.081   3.392  14.407  0.0638  0.1936  0.4438
  627MPD2    C3 9338   4.717   3.323  14.350 -0.7007  0.2066 -0.3026
  627MPD2    C4 9339   4.686   3.345  14.215  0.2871  0.8817 -0.1144
  627MPD2    C5 9340   0.008   3.448  14.150  1.1113  0.3746 -0.4314
  627MPD2     H 9341   0.113   3.375  14.509 -2.2267  1.8204  1.4341
  627MPD2    H1 9342   4.606   3.293  14.164 -1.6412  0.8240  2.9673
  627MPD2    H2 9343   0.160   3.588  14.144 -1.0226 -0.7722 -1.1739
  627MPD2    H3 9344   4.700   3.475  14.055 -1.0304  0.2834  0.5404
  627MPD2     N 9345   4.657   3.212  14.425  0.4030  0.9816 -0.1810
  627MPD2    H5 9346   4.672   3.200  14.525 -1.4284 -0.6373 -0.1025
  627MPD2    N1 9347   0.257   3.561  14.404  0.2057 -0.1167 -0.4254
  627MPD2    H7 9348   0.280   3.538  14.500  1.6373  0.6879 -0.5613
  628TMC3    C1 9349   0.407   3.730  14.438 -0.4448 -0.2741  0.4841
  628TMC3    C2 9350   0.508   3.642  14.471  0.1581  0.6247 -0.5702
  628TMC3    C3 9351   0.618   3.694  14.546  0.0751  0.3128  0.0917
  628TMC3    C4 9352   0.408   3.861  14.468  0.4062  0.3356 -0.1808
  628TMC3    C5 9353   0.522   3.904  14.531  0.2648 -0.1738  0.3217
  628TMC3    C6 9354   0.614   3.818  14.594  0.0501 -0.6871  0.4388
  628TMC3     C 9355   0.303   3.682  14.359 -0.0649 -0.1552  0.2872
  628TMC3     O 9356   0.252   3.761  14.281 -0.5621 -0.8007 -0.6372
  628TMC3     H 9357   0.500   3.541  14.433  1.4842  0.7965 -1.3055
  628TMC3    H1 9358   0.328   3.928  14.440 -0.2206  0.2860  1.4717
  628TMC3    H2 9359   0.705   3.863  14.634 -0.9437  0.3156  1.5675
  628TMC3    C7 9360   0.560   4.040  14.534 -0.1011 -0.8413 -1.0843
  628TMC3    C8 9361   0.734   3.620  14.590 -0.1322  0.8368  0.6559
  628TMC3    O1 9362   0.623   4.075  14.640 -0.6884  0.1108  0.2160
  628TMC3    O2 9363   0.816   3.678  14.653  0.3283 -0.0870  0.2738
  629MPD2     C 9364   3.085   2.637  16.208 -0.0907  0.5964 -0.1141
  629MPD2    C1 9365   3.163   2.533  16.258 -0.5629  0.1117  0.1498
  629MPD2    C2 9366   3.125   2.403  16.244 -0.1170 -0.2490 -1.0486
  629MPD2    C3 9367   3.003   2.374  16.198 -0.4645 -0.4757 -0.6948
  629MPD2    C4 9368   2.930   2.471  16.143  0.3347 -0.0719 -0.2756
  629MPD2    C5 9369   2.967   2.602  16.153 -0.0246  1.1122 -0.3502
  629MPD2     H 9370   3.189   2.323  16.281 -2.1914 -2.7703 -2.8793
  629MPD2    H1 9371   2.835   2.447  16.097  0.1511  0.7539 -0.3201
  629MPD2    H2 9372   3.113   2.742  16.207 -0.2080  0.6294  0.5680
  629MPD2    H3 9373   2.914   2.668  16.085  0.1155 -1.1157 -2.6571
  629MPD2     N 9374   2.962   2.234  16.188 -0.1881 -0.1008  0.4817
  629MPD2    H5 9375   3.040   2.169  16.195  0.2070  0.1451 -1.4998
  629MPD2    N1 9376   3.289   2.570  16.318  0.4450 -0.6264 -0.1616
  629MPD2    H7 9377   3.319   2.665  16.298  1.5823 -0.8353  0.5416
  630TMC3    C1 9378   3.486   2.551  16.439  0.3000  0.5653 -0.1178
  630TMC3    C2 9379   3.564   2.624  16.351 -0.0772  0.6331 -0.5957
  630TMC3    C3 9380   3.693   2.651  16.386 -0.1729  0.9495 -0.3477
  630TMC3    C4 9381   3.537   2.492  16.550  0.5355 -0.5193 -0.6292
  630TMC3    C5 9382   3.668   2.524  16.583 -0.3052 -0.5884  0.3405
  630TMC3    C6 9383   3.746   2.608  16.503  0.3021  0.3490 -0.7857
  630TMC3     C 9384   3.366   2.491  16.396 -0.5405  0.9082  0.0331
  630TMC3     O 9385   3.333   2.385  16.448  0.2102 -0.6512 -0.2742
  630TMC3     H 9386   3.530   2.622  16.248  4.2107  1.4204 -2.0416
  630TMC3    H1 9387   3.476   2.444  16.626  0.6362  0.7945  0.2808
  630TMC3    H2 9388   3.852   2.614  16.528 -0.0263 -0.1184  0.7376
  630TMC3    C7 9389   3.711   2.473  16.716  0.1873 -0.5038  0.1034
  630TMC3    C8 9390   3.778   2.723  16.298 -0.3944  0.0846 -0.7009
  630TMC3    O1 9391   3.619   2.435  16.788  0.5037 -0.6129 -0.0720
  630TMC3    O2 9392   3.896   2.738  16.342  0.3875 -0.7477 -0.5242
  631MPD2     C 9393   1.476   2.500  15.763 -0.0246 -0.0765  0.1805
  631MPD2    C1 9394   1.564   2.558  15.669  0.6436  0.3012 -0.1363
  631MPD2    C2 9395   1.630   2.463  15.588 -0.0918 -0.8675  0.1306
  631MPD2    C3 9396   1.633   2.334  15.618  0.3751 -0.0414 -0.1159
  631MPD2    C4 9397   1.557   2.279  15.722 -0.7355  0.2245  0.1729
  631MPD2    C5 9398   1.471   2.361  15.793  0.4994 -0.5039 -0.0405
  631MPD2     H 9399   1.692   2.508  15.511 -1.5535  0.5670 -0.2156
  631MPD2    H1 9400   1.572   2.175  15.749  1.1792  0.7021  0.9478
  631MPD2    H2 9401   1.408   2.563  15.819  0.5115  1.2370 -0.6635
  631MPD2    H3 9402   1.410   2.323  15.874  1.2482 -1.5262  0.0361
  631MPD2     N 9403   1.720   2.247  15.550 -0.1355 -0.3867  0.0920
  631MPD2    H5 9404   1.736   2.157  15.596  1.4914  0.3004  0.8595
  631MPD2    N1 9405   1.573   2.703  15.662 -0.4878 -0.0804 -0.0954
  631MPD2    H7 9406   1.520   2.763  15.725 -0.2624 -0.6823  0.6656
  632TMC3    C1 9407   1.641   2.914  15.561 -0.8880 -0.4660  0.1328
  632TMC3    C2 9408   1.513   2.959  15.522  0.3977  0.2557 -0.0089
  632TMC3    C3 9409   1.510   3.063  15.429 -0.8569 -0.3643  0.6076
  632TMC3    C4 9410   1.754   2.955  15.505 -0.2995  0.5552 -0.6087
  632TMC3    C5 9411   1.741   3.049  15.405  0.2297 -0.2347  0.7025
  632TMC3    C6 9412   1.619   3.103  15.363  0.1162  0.1318 -0.5485
  632TMC3     C 9413   1.659   2.767  15.578 -0.3230 -0.9976 -1.1359
  632TMC3     O 9414   1.755   2.721  15.517 -0.0980 -0.4110 -0.0383
  632TMC3     H 9415   1.426   2.914  15.568 -0.6131  0.7787 -1.4036
  632TMC3    H1 9416   1.847   2.923  15.550 -0.9979  1.4738  1.5111
  632TMC3    H2 9417   1.628   3.184  15.292  0.5607 -0.0214 -0.6628
  632TMC3    C7 9418   1.852   3.047  15.314 -0.4611  0.5029 -0.7125
  632TMC3    C8 9419   1.392   3.125  15.382 -0.4560 -0.5651  0.1870
  632TMC3    O1 9420   1.829   3.073  15.200  0.5165 -0.0807  0.4544
  632TMC3    O2 9421   1.393   3.169  15.265  0.1380 -0.2838  0.2592
  633MPD2     C 9422   1.209   0.615  17.272 -0.6970  0.2253  0.7190
  633MPD2    C1 9423   1.194   0.596  17.134 -0.7056  0.0092 -0.2148
  633MPD2    C2 9424   1.158   0.477  17.074 -0.1855 -0.3102  0.1337
  633MPD2    C3 9425   1.139   0.369  17.160  0.2762 -0.3385  0.1011
  633MPD2    C4 9426   1.164   0.387  17.293 -0.0676 -0.1495  0.0976
  633MPD2    C5 9427   1.193   0.505  17.355 -0.0107 -0.1956 -0.1800
  633MPD2     H 9428   1.148   0.466  16.967 -1.3874  0.0799  0.2094
  633MPD2    H1 9429   1.145   0.303  17.359  1.9630 -1.2097 -0.6764
  633MPD2    H2 9430   1.252   0.702  17.320 -0.1210  0.0305  0.5440
  633MPD2    H3 9431   1.219   0.506  17.461 -0.7399  1.1738 -0.0059
  633MPD2     N 9432   1.106   0.243  17.121 -0.7540  0.2762  0.0421
  633MPD2    H5 9433   1.107   0.165  17.187  1.6785 -0.6986 -1.1496
  633MPD2    N1 9434   1.218   0.699  17.049  0.1783  0.0129  0.1635
  633MPD2    H7 9435   1.190   0.683  16.952 -1.6931  1.0059  0.5317
  634TMC3    C1 9436   1.290   0.886  16.950  0.3304  0.9081  0.1058
  634TMC3    C2 9437   1.340   0.789  16.855  0.0697 -0.0573 -0.3526
  634TMC3    C3 9438   1.365   0.846  16.735  0.3540  0.6809 -0.1371
  634TMC3    C4 9439   1.267   1.020  16.931  0.0611 -0.0157  0.2447
  634TMC3    C5 9440   1.304   1.066  16.807  0.7641  0.2977 -0.4692
  634TMC3    C6 9441   1.347   0.980  16.714  0.9618  0.8782 -0.0323
  634TMC3     C 9442   1.250   0.826  17.078 -0.3007 -0.3554  0.3150
  634TMC3     O 9443   1.243   0.886  17.186 -0.0382 -0.1787 -0.3829
  634TMC3     H 9444   1.375   0.688  16.871 -1.0557 -0.0584  2.1410
  634TMC3    H1 9445   1.210   1.079  17.002 -1.8000 -1.4300 -0.1106
  634TMC3    H2 9446   1.363   1.026  16.617 -0.6851 -0.9487 -1.1653
  634TMC3    C7 9447   1.224   1.180  16.753 -0.0982  0.2879  0.2279
  634TMC3    C8 9448   1.376   0.763  16.615  0.4599  0.2674  0.3521
  634TMC3    O1 9449   1.180   1.169  16.643 -0.0709  0.0515  0.1419
  634TMC3    O2 9450   1.324   0.652  16.619 -0.0876 -0.4005  0.1140
  635TMC3    C1 9451   1.581   1.243  17.714  0.2839  0.2558  1.2730
  635TMC3    C2 9452   1.621   1.322  17.611  0.5062  0.7755 -0.1505
  635TMC3    C3 9453   1.649   1.265  17.489  0.7646 -0.4171  0.2420
  635TMC3    C4 9454   1.560   1.108  17.709 -0.0691 -0.4009  0.1655
  635TMC3    C5 9455   1.596   1.056  17.585 -0.1767  0.3615 -0.3077
  635TMC3    C6 9456   1.639   1.131  17.475 -0.1590  0.4950  0.3634
  635TMC3     C 9457   1.559   1.315   0.089  0.3025 -0.1516  0.0007
  635TMC3     O 9458   1.528   1.434   0.089  0.5639 -0.8459 -0.1196
  635TMC3     H 9459   1.629   1.430  17.622  0.3944  0.8894 -1.2459
  635TMC3    H1 9460   1.520   1.044   0.042  0.1658 -1.6200 -0.7148
  635TMC3    H2 9461   1.692   1.086  17.391 -1.5515  0.5931 -0.5637
  635TMC3    C7 9462   1.584   0.909  17.581 -0.3992  0.7474  0.1376
  635TMC3    C8 9463   1.688   1.349  17.374 -0.1600  0.6673  0.5936
  635TMC3    O1 9464   1.561   0.857  17.690  0.2155  0.0912 -0.4936
  635TMC3    O2 9465   1.755   1.293  17.290  0.0760  0.3134  0.3465
  636MPD2     C 9466   2.521   0.924  16.060 -0.1771  1.2593 -0.0777
  636MPD2    C1 9467   2.561   0.915  16.186  0.1072 -0.3141  0.2806
  636MPD2    C2 9468   2.631   0.800  16.228 -0.4196 -0.2494  0.2935
  636MPD2    C3 9469   2.664   0.693  16.144  0.0907  0.0982 -0.3247
  636MPD2    C4 9470   2.623   0.713  16.010  0.4570 -0.0919  0.1191
  636MPD2    C5 9471   2.553   0.827  15.969  0.0991 -0.4257 -0.3474
  636MPD2     H 9472   2.664   0.792  16.331 -0.4971 -1.7208  0.1967
  636MPD2    H1 9473   2.640   0.638  15.934 -0.2546  0.5473 -0.6717
  636MPD2    H2 9474   2.448   0.995  16.024 -1.2432 -0.5373 -1.5087
  636MPD2    H3 9475   2.507   0.824  15.871  1.3845 -2.0470 -0.9048
  636MPD2     N 9476   2.713   0.568  16.187 -0.6307 -0.6166  0.5522
  636MPD2    H5 9477   2.742   0.560  16.284 -0.0670 -1.0400  0.3527
  636MPD2    N1 9478   2.537   1.012  16.279  0.2483 -0.2249 -0.2972
  636MPD2    H7 9479   2.584   1.002  16.368 -1.9406  2.6052  1.2066
  637TMC3    C1 9480   2.808   0.356  16.182  0.1410 -0.8889 -0.7380
  637TMC3    C2 9481   2.835   0.384  16.311  0.2999 -1.1238 -0.1847
  637TMC3    C3 9482   2.801   0.288  16.409  0.1624 -0.4411 -0.5128
  637TMC3    C4 9483   2.771   0.232  16.134 -0.0001 -0.2419  0.4681
  637TMC3    C5 9484   2.771   0.132  16.225  0.4535  0.2431  0.5205
  637TMC3    C6 9485   2.773   0.159  16.361 -0.5755  0.7005  0.7132
  637TMC3     C 9486   2.736   0.461  16.109 -0.0342  0.6389 -0.5858
  637TMC3     O 9487   2.727   0.443  15.989  0.3666  0.2015  0.4813
  637TMC3     H 9488   2.892   0.471  16.342  0.7334 -1.3067 -0.4652
  637TMC3    H1 9489   2.784   0.211  16.028  0.3507  0.9678  0.2789
  637TMC3    H2 9490   2.721   0.090  16.427  0.9489  1.3024  2.5462
  637TMC3    C7 9491   2.720   4.735  16.183 -0.2318  0.5064 -0.2845
  637TMC3    C8 9492   2.865   0.297  16.541  0.1264  0.5372  0.6160
  637TMC3    O1 9493   2.651   0.001  16.084  0.4188 -0.3615 -0.5964
  637TMC3    O2 9494   2.953   0.377  16.560  0.2342 -0.0516  0.5616
  638MPD2     C 9495   2.506   4.037  14.249 -0.0432 -0.2529  1.1886
  638MPD2    C1 9496   2.515   3.899  14.261 -0.7014  1.2282  0.0206
  638MPD2    C2 9497   2.416   3.826  14.312  0.7845  0.2823 -0.8198
  638MPD2    C3 9498   2.301   3.895  14.365  0.4403 -0.2183 -0.4520
  638MPD2    C4 9499   2.295   4.029  14.350  0.6780 -0.3445  0.5749
  638MPD2    C5 9500   2.397   4.103  14.287 -0.1337  0.4696 -0.3039
  638MPD2     H 9501   2.422   3.718  14.314 -0.6262  0.1731 -2.3128
  638MPD2    H1 9502   2.209   4.079  14.392 -0.4977 -1.9992  0.1412
  638MPD2    H2 9503   2.589   4.094  14.209  0.5629 -0.9507  1.4517
  638MPD2    H3 9504   2.401   4.211  14.282 -2.0025  0.4863 -1.5820
  638MPD2     N 9505   2.205   3.817  14.437 -0.2152  0.7541 -0.5015
  638MPD2    H5 9506   2.216   3.718  14.417 -0.7636  0.4441  0.7476
  638MPD2    N1 9507   2.637   3.841  14.205  0.6998 -0.6700  0.2838
  638MPD2    H7 9508   2.695   3.910  14.159 -1.6384  1.6096  0.7064
  639TMC3    C1 9509   2.054   3.745  14.594  0.0162 -0.7135 -0.1891
  639TMC3    C2 9510   2.013   3.642  14.506  1.3138 -0.2630  0.3815
  639TMC3    C3 9511   1.995   3.524  14.574 -0.2641 -0.1675 -0.5760
  639TMC3    C4 9512   2.102   3.729  14.719 -0.4169 -0.0233  0.0155
  639TMC3    C5 9513   2.095   3.605  14.769 -0.1488  0.4028 -0.4503
  639TMC3    C6 9514   2.042   3.505  14.697 -0.2281 -0.4474  0.1512
  639TMC3     C 9515   2.116   3.859  14.533  0.2729 -0.2169  0.0964
  639TMC3     O 9516   2.112   3.962  14.597  0.2596  0.5760 -0.3608
  639TMC3     H 9517   1.975   3.648  14.405 -1.8822 -0.3208  1.5711
  639TMC3    H1 9518   2.152   3.806  14.776 -0.4509 -0.4630  0.6487
  639TMC3    H2 9519   2.048   3.407  14.743  1.1516  0.0583  1.0633
  639TMC3    C7 9520   2.205   3.573  14.862  0.2218  0.3583  0.5792
  639TMC3    C8 9521   1.997   3.410  14.488 -0.2372 -0.5064  0.4357
  639TMC3    O1 9522   2.191   3.599  14.981  0.0192  0.2819  0.0236
  639TMC3    O2 9523   2.048   3.415  14.377 -0.3221  0.2152  0.4674
  640MPD2     C 9524   2.467   2.536   9.736  0.5932 -0.3510  0.1912
  640MPD2    C1 9525   2.407   2.423   9.789  0.6396 -0.0050  0.3172
  640MPD2    C2 9526   2.293   2.429   9.865 -0.4906  0.1066 -0.5484
  640MPD2    C3 9527   2.227   2.550   9.879 -0.0377 -0.3325  0.7360
  640MPD2    C4 9528   2.290   2.658   9.826 -1.0456  0.1347  0.2346
  640MPD2    C5 9529   2.407   2.651   9.765 -0.1323 -0.9409 -0.2470
  640MPD2     H 9530   2.254   2.338   9.909  2.0261 -0.5577  0.3126
  640MPD2    H1 9531   2.253   2.760   9.828 -1.2726  0.0702 -0.7099
  640MPD2    H2 9532   2.548   2.527   9.664  2.1564 -1.2864  2.0640
  640MPD2    H3 9533   2.452   2.738   9.719 -0.9143  0.0030  0.7710
  640MPD2     N 9534   2.094   2.567   9.928 -0.1433 -0.0017 -0.1734
  640MPD2    H5 9535   2.058   2.662   9.933  2.1051  0.8313  0.4827
  640MPD2    N1 9536   2.472   2.302   9.758 -0.1701 -0.6634  0.6138
  640MPD2    H7 9537   2.568   2.311   9.727  0.1347  0.2085  1.8154
  641TMC3    C1 9538   2.491   2.079   9.714 -0.3858  0.2943  0.6518
  641TMC3    C2 9539   2.615   2.087   9.758  0.2444 -0.6546 -0.0844
  641TMC3    C3 9540   2.706   2.002   9.703  0.1014 -0.0550 -0.2746
  641TMC3    C4 9541   2.453   1.994   9.614 -0.3174 -0.0235  0.1005
  641TMC3    C5 9542   2.543   1.917   9.546  0.5997 -0.5010  0.1099
  641TMC3    C6 9543   2.669   1.918   9.600  0.8503 -0.3135  0.2533
  641TMC3     C 9544   2.401   2.188   9.746  0.1396  0.2246 -0.0206
  641TMC3     O 9545   2.281   2.182   9.718  0.5666 -0.5026 -0.2364
  641TMC3     H 9546   2.628   2.154   9.842 -0.0686 -0.6330 -0.0508
  641TMC3    H1 9547   2.350   2.002   9.580 -0.4419 -2.0608  0.0471
  641TMC3    H2 9548   2.750   1.856   9.563 -0.6393 -1.2089 -1.5076
  641TMC3    C7 9549   2.535   1.877   9.407 -0.1589  0.5031  0.6867
  641TMC3    C8 9550   2.843   1.996   9.758  0.2379  0.5307 -0.2926
  641TMC3    O1 9551   2.611   1.786   9.376 -0.5616 -0.1717 -0.6046
  641TMC3    O2 9552   2.901   1.895   9.717 -0.6235  0.0629 -0.4713
  642TMC3    C1 9553   4.307   3.289  12.487 -0.1158 -0.3205 -0.0153
  642TMC3    C2 9554   4.434   3.323  12.440  0.1870  0.3481  0.2005
  642TMC3    C3 9555   4.492   3.234  12.356 -0.5813 -0.2227  1.3156
  642TMC3    C4 9556   4.254   3.163  12.474 -0.1509  0.1911 -0.1914
  642TMC3    C5 9557   4.333   3.073  12.408  0.2112 -0.1388  0.2181
  642TMC3    C6 9558   4.447   3.109  12.351  0.2163 -0.1114 -0.1348
  642TMC3     C 9559   4.235   3.405  12.536  0.2547  0.5768  0.8338
  642TMC3     O 9560   4.291   3.502  12.591 -0.5313  0.4266  0.2039
  642TMC3     H 9561   4.474   3.423  12.455 -0.1718  0.4673  0.3885
  642TMC3    H1 9562   4.166   3.137  12.532 -1.4579  0.4022 -2.0726
  642TMC3    H2 9563   4.496   3.038  12.284 -0.0499  0.0389 -0.4888
  642TMC3    C7 9564   4.296   2.925  12.400  0.7408 -0.1977  0.0815
  642TMC3    C8 9565   4.625   3.256  12.310 -0.4899  0.5174  0.3010
  642TMC3    O1 9566   4.333   2.851  12.316 -0.1877  0.0245 -0.0653
  642TMC3    O2 9567   4.658   3.360  12.262  0.3776 -0.0511 -0.3387
  643TMC3    C1 9568   2.905   2.861   0.134  0.2599 -0.2489 -0.2145
  643TMC3    C2 9569   2.775   2.903   0.120 -1.1422 -0.6193  0.3287
  643TMC3    C3 9570   2.754   3.010   0.032 -0.1980  0.2853 -0.2002
  643TMC3    C4 9571   3.012   2.918   0.071 -0.2492 -0.3415  0.1030
  643TMC3    C5 9572   2.982   3.016  17.727  0.8933  0.0988  0.1785
  643TMC3    C6 9573   2.855   3.064  17.699 -0.5857  0.0098  1.0400
  643TMC3     C 9574   2.932   2.805   0.266  0.0624  0.0882 -0.4975
  643TMC3     O 9575   2.869   2.703   0.291  0.2103  0.3442 -0.7152
  643TMC3     H 9576   2.694   2.867   0.183 -1.4839  0.5688  0.5675
  643TMC3    H1 9577   3.114   2.896   0.097  0.1786 -0.0483 -1.3303
  643TMC3    H2 9578   2.829   3.126  17.615 -0.6638  1.3021  2.0221
  643TMC3    C7 9579   3.086   3.079  17.647 -0.2255 -0.3237  0.2982
  643TMC3    C8 9580   2.639   3.089   0.063  0.0110  0.6140 -0.4092
  643TMC3    O1 9581   3.056   3.183  17.590 -0.3692 -0.3844 -0.2039
  643TMC3    O2 9582   2.538   3.036   0.108  0.3786  0.0112  0.5484
  644MPD2     C 9583   3.504   2.719  10.014  0.4907 -0.1064 -0.3506
  644MPD2    C1 9584   3.374   2.694   9.981  0.7804 -0.3134 -0.2773
  644MPD2    C2 9585   3.273   2.784  10.008  0.0420  0.1596 -0.4345
  644MPD2    C3 9586   3.317   2.898  10.076  0.7390 -0.5476  0.1236
  644MPD2    C4 9587   3.451   2.918  10.113  0.3080 -0.3556  0.2614
  644MPD2    C5 9588   3.543   2.829  10.076 -0.0996  0.0938 -0.0965
  644MPD2     H 9589   3.173   2.784   9.967 -0.6790  2.4122  1.3004
  644MPD2    H1 9590   3.487   3.008  10.160  1.8032 -0.1204 -1.3501
  644MPD2    H2 9591   3.576   2.643   9.986 -0.4364 -1.6868  1.5532
  644MPD2    H3 9592   3.646   2.848  10.105 -0.1340  0.5677 -0.2744
  644MPD2     N 9593   3.218   3.002  10.092 -0.2228 -0.0377 -0.1499
  644MPD2    H5 9594   3.125   2.975  10.065 -0.9812  0.0068  2.3915
  644MPD2    N1 9595   3.349   2.576   9.911  0.3520  0.0187 -0.1021
  644MPD2    H7 9596   3.430   2.525   9.878  0.1775  0.0379 -0.5626
  645TMC3    C1 9597   3.127   3.219  10.148  0.2816 -0.3291  0.2900
  645TMC3    C2 9598   3.003   3.167  10.166 -0.9602  0.5093  0.0517
  645TMC3    C3 9599   2.897   3.255  10.180 -0.5214 -0.4195 -0.1740
  645TMC3    C4 9600   3.150   3.351  10.176  0.5666 -0.3463  0.2845
  645TMC3    C5 9601   3.043   3.433  10.208  0.7547 -0.1734  0.8259
  645TMC3    C6 9602   2.918   3.388  10.201 -0.6925 -0.6080 -0.0478
  645TMC3     C 9603   3.238   3.128  10.137 -0.1615 -0.2878  1.0514
  645TMC3     O 9604   3.344   3.186  10.161 -0.3652  0.5304  0.3493
  645TMC3     H 9605   2.985   3.070  10.121 -0.2369 -0.3795  1.6819
  645TMC3    H1 9606   3.252   3.376  10.202  0.0423  1.0093  1.0536
  645TMC3    H2 9607   2.832   3.453  10.213  0.3122  1.0570 -1.9892
  645TMC3    C7 9608   3.074   3.576  10.232  0.3450 -0.6923 -0.0092
  645TMC3    C8 9609   2.777   3.200  10.113  0.6935  0.0664  0.1534
  645TMC3    O1 9610   2.987   3.652  10.281 -0.0711  0.1770  0.0087
  645TMC3    O2 9611   2.764   3.081  10.125 -0.0486 -0.2580 -0.2362
  646MPD2     C 9612   2.863   2.398  14.565  0.0803 -0.0336  0.4159
  646MPD2    C1 9613   2.738   2.415  14.616  0.2469 -0.0340  0.1706
  646MPD2    C2 9614   2.638   2.479  14.551 -0.6333 -0.2044 -0.2037
  646MPD2    C3 9615   2.670   2.543  14.429 -0.2123  0.0515  0.4279
  646MPD2    C4 9616   2.800   2.537  14.384 -0.8476  0.3742 -0.4634
  646MPD2    C5 9617   2.904   2.469  14.454 -0.3413 -0.5933 -0.4729
  646MPD2     H 9618   2.536   2.480  14.587 -0.5868 -0.7144 -0.0584
  646MPD2    H1 9619   2.831   2.594  14.296 -0.8876 -2.3549 -2.2563
  646MPD2    H2 9620   2.937   2.339  14.619  0.7290 -1.5067 -2.0896
  646MPD2    H3 9621   2.996   2.453  14.399  0.3861  0.5169  0.4281
  646MPD2     N 9622   2.560   2.600  14.359  0.1789  0.3874  0.2544
  646MPD2    H5 9623   2.466   2.578  14.388  0.2091  0.6710  0.5613
  646MPD2    N1 9624   2.716   2.356  14.746 -0.9036 -0.5208  0.1616
  646MPD2    H7 9625   2.785   2.288  14.777  1.9955  2.1548 -0.4735
  647TMC3    C1 9626   2.638   2.326  14.967  0.6179  0.4943  0.4768
  647TMC3    C2 9627   2.524   2.299  15.045 -1.1591 -0.5936 -0.4248
  647TMC3    C3 9628   2.540   2.274  15.181  0.7442 -0.3126 -0.1715
  647TMC3    C4 9629   2.763   2.318  15.023 -0.5252 -0.0916 -0.1684
  647TMC3    C5 9630   2.767   2.292  15.158 -0.1895  0.0945 -0.1589
  647TMC3    C6 9631   2.657   2.288  15.239 -0.7986 -0.2241 -0.4306
  647TMC3     C 9632   2.613   2.380  14.837 -0.0186  0.3388 -0.4127
  647TMC3     O 9633   2.505   2.429  14.826 -0.3077 -0.5628  0.2247
  647TMC3     H 9634   2.427   2.301  14.996 -1.9017  1.2821  1.1527
  647TMC3    H1 9635   2.852   2.325  14.962  0.4744 -0.5940  1.2491
  647TMC3    H2 9636   2.669   2.250  15.340  0.0851 -1.6651 -1.0917
  647TMC3    C7 9637   2.882   2.220  15.219  0.2953 -0.5449 -0.0673
  647TMC3    C8 9638   2.497   2.136  15.215  0.2266 -0.5214  0.2021
  647TMC3    O1 9639   2.904   2.234  15.338  0.7346  0.2289  0.7137
  647TMC3    O2 9640   2.502   2.108  15.334 -0.3839  0.2019 -0.0565
  648TMC3    C1 9641   1.867   0.660  16.052  0.1982 -0.0955 -1.0848
  648TMC3    C2 9642   1.902   0.551  15.981 -0.5811 -0.4647  0.3634
  648TMC3    C3 9643   1.903   0.559  15.844  0.4163  0.2720  0.4109
  648TMC3    C4 9644   1.819   0.766  15.983 -0.6498 -0.5842  0.4606
  648TMC3    C5 9645   1.809   0.762  15.843  0.1542 -0.3480  0.4945
  648TMC3    C6 9646   1.860   0.662  15.765  0.6914 -0.0465  0.0350
  648TMC3     C 9647   1.843   0.661  16.194 -0.5947  0.3306  0.3021
  648TMC3     O 9648   1.853   0.775  16.236  0.0223 -0.0078 -0.0440
  648TMC3     H 9649   1.929   0.457  16.028 -1.5358 -0.8511  0.1435
  648TMC3    H1 9650   1.790   0.853  16.040  0.0454 -1.0656  1.5432
  648TMC3    H2 9651   1.842   0.654  15.658  3.6318  1.3003 -0.5516
  648TMC3    C7 9652   1.753   0.874  15.765  0.3082  0.3190  0.6709
  648TMC3    C8 9653   1.918   0.427  15.789  0.7472 -0.3540  0.2175
  648TMC3    O1 9654   1.786   0.873  15.649  0.0499 -0.0589 -0.7961
  648TMC3    O2 9655   1.996   0.352  15.849  0.0004  0.0122 -0.4473
  649TMC3    C1 9656   1.607   0.833  13.853  0.3214 -0.1074  0.4558
  649TMC3    C2 9657   1.606   0.750  13.743 -0.0712  0.0152 -0.2838
  649TMC3    C3 9658   1.491   0.684  13.707  0.3101 -0.0992 -0.2860
  649TMC3    C4 9659   1.503   0.888  13.903  1.1251 -0.0733 -0.2195
  649TMC3    C5 9660   1.384   0.823  13.867  0.0260  0.2314  0.7622
  649TMC3    C6 9661   1.378   0.717  13.777 -0.1719 -0.5256 -0.0280
  649TMC3     C 9662   1.739   0.894  13.884 -0.7733 -0.4170 -0.0311
  649TMC3     O 9663   1.755   1.015  13.897 -0.1983  0.3128 -0.4688
  649TMC3     H 9664   1.696   0.718  13.691  0.9002  1.5849  0.4538
  649TMC3    H1 9665   1.509   0.960  13.984 -1.1911  0.6366 -0.6732
  649TMC3    H2 9666   1.283   0.673  13.749  1.0102 -1.5918 -2.3888
  649TMC3    C7 9667   1.257   0.878  13.911 -0.0373  0.3319  1.2694
  649TMC3    C8 9668   1.479   0.625  13.580  0.3325  0.2997 -0.4603
  649TMC3    O1 9669   1.166   0.867  13.833 -0.2502 -0.7277  0.7014
  649TMC3    O2 9670   1.365   0.605  13.545 -0.4222  0.1629 -0.6534
  650TMC3    C1 9671   3.460   2.215  12.393  0.1362  0.0433  0.4206
  650TMC3    C2 9672   3.482   2.347  12.354 -0.4375 -0.2002 -0.2953
  650TMC3    C3 9673   3.450   2.380  12.225  0.0106  0.9368  0.4320
  650TMC3    C4 9674   3.411   2.122  12.306  0.2319 -0.3178  0.4023
  650TMC3    C5 9675   3.382   2.159  12.177 -0.1873  0.4783  0.7001
  650TMC3    C6 9676   3.409   2.286  12.134 -0.2410  0.4887 -0.4514
  650TMC3     C 9677   3.477   2.186  12.536 -0.0918  0.5680 -1.3145
  650TMC3     O 9678   3.483   2.283  12.613 -0.3494 -0.2882 -0.2930
  650TMC3     H 9679   3.520   2.418  12.426  2.4440 -2.3062  0.2475
  650TMC3    H1 9680   3.400   2.017  12.329 -1.2405 -0.0751  0.7914
  650TMC3    H2 9681   3.409   2.320  12.031 -0.1100  2.4509  0.1946
  650TMC3    C7 9682   3.362   2.058  12.082  1.0827 -0.0517  0.7411
  650TMC3    C8 9683   3.446   2.523  12.191 -0.1887 -0.1799 -0.3871
  650TMC3    O1 9684   3.414   1.949  12.091 -0.1484  0.2107 -0.1933
  650TMC3    O2 9685   3.497   2.602  12.267 -0.1367  0.0910 -0.8958
  651MPD2     C 9686   1.953   4.680  10.555 -0.3423 -0.0436  0.0277
  651MPD2    C1 9687   1.986   0.043  10.646  0.4887  0.7154 -0.7611
  651MPD2    C2 9688   2.118   0.076  10.662  0.4561  0.7195 -0.5619
  651MPD2    C3 9689   2.215   0.013  10.583  0.3678 -0.1291  0.7497
  651MPD2    C4 9690   2.173   4.647  10.489 -0.1368 -0.5528 -0.0494
  651MPD2    C5 9691   2.043   4.622  10.469  0.3008 -0.4888  0.1094
  651MPD2     H 9692   2.148   0.150  10.735 -0.0072  3.1280 -2.8381
  651MPD2    H1 9693   2.243   4.597  10.423  0.1097  0.7162 -0.7457
  651MPD2    H2 9694   1.851   4.644  10.550  0.1386 -1.2894 -0.7596
  651MPD2    H3 9695   2.009   4.543  10.403 -2.1963  1.0425 -0.4616
  651MPD2     N 9696   2.349   0.043  10.614  0.0295 -0.0890  0.0623
  651MPD2    H5 9697   2.366   0.114  10.684 -2.2435  0.3883  0.1502
  651MPD2    N1 9698   1.883   0.109  10.722 -0.6915  0.2048 -0.3661
  651MPD2    H7 9699   1.911   0.196  10.766  2.7539 -1.5292  0.8871
  652TMC3    C1 9700   2.810   0.033  10.539 -0.6797 -0.2361  0.7632
  652TMC3    C2 9701   2.691   4.708  10.573  0.5406  0.3428 -0.4064
  652TMC3    C3 9702   2.578   0.046  10.598  0.0449  0.0486  0.2682
  652TMC3    C4 9703   2.819   0.169  10.540  0.0375 -0.0585  0.2964
  652TMC3    C5 9704   2.714   0.248  10.571 -0.9334 -0.2293 -0.5441
  652TMC3    C6 9705   2.592   0.185  10.594  0.3545  0.0006 -0.8417
  652TMC3     C 9706   2.931   4.697  10.543 -0.0735  0.1021 -0.2141
  652TMC3     O 9707   2.950   4.604  10.624  0.1314  0.4165 -0.7712
  652TMC3     H 9708   2.685   4.601  10.560  0.8636  0.4747 -1.6957
  652TMC3    H1 9709   2.916   0.215  10.531 -1.0369  2.1385 -0.0755
  652TMC3    H2 9710   2.505   0.247  10.612 -0.6486 -0.8116 -2.9159
  652TMC3    C7 9711   2.718   0.394  10.560 -0.1906  0.5392  0.1827
  652TMC3    C8 9712   2.457   4.722  10.555  1.1848 -0.0238  0.1518
  652TMC3    O1 9713   2.605   0.434  10.537  0.2458  0.0416 -0.3661
  652TMC3    O2 9714   2.462   4.632  10.474 -0.2895  0.4477  0.1580
  653MPD2     C 9715   0.892   0.635   0.042 -0.6223  0.3829  0.1449
  653MPD2    C1 9716   0.930   0.735  17.703  0.6291  0.1763  0.1733
  653MPD2    C2 9717   0.903   0.724  17.566  0.4411 -0.2704  0.0479
  653MPD2    C3 9718   0.840   0.622  17.517  0.8338 -0.1069  0.1215
  653MPD2    C4 9719   0.791   0.525  17.602  0.4229 -0.7517 -0.4515
  653MPD2    C5 9720   0.822   0.527  17.737 -0.8707 -0.4802 -0.4191
  653MPD2     H 9721   0.946   0.802  17.505  0.7008 -1.0191 -0.7175
  653MPD2    H1 9722   0.739   0.435  17.570  1.5866 -0.8528 -2.0602
  653MPD2    H2 9723   0.917   0.628   0.147 -1.4854 -4.0028  0.0654
  653MPD2    H3 9724   0.788   0.451   0.061  1.6470 -0.6876  0.6222
  653MPD2     N 9725   0.812   0.622  17.382 -0.0142  0.3117  0.0363
  653MPD2    H5 9726   0.826   0.705  17.326 -2.4360  1.6341  1.4533
  653MPD2    N1 9727   1.003   0.846  17.742  0.3672  0.1869 -0.5127
  653MPD2    H7 9728   1.011   0.924  17.676 -0.1322 -1.3029 -2.3403
  654TMC3    C1 9729   0.720   0.543  17.176  0.0741  0.5583  0.1493
  654TMC3    C2 9730   0.638   0.655  17.163 -0.1478  0.7496 -0.4146
  654TMC3    C3 9731   0.542   0.657  17.064  0.3704  0.1780 -0.5134
  654TMC3    C4 9732   0.718   0.442  17.087 -0.2158 -0.3420 -0.7242
  654TMC3    C5 9733   0.622   0.450  16.984 -0.0727 -0.4904 -0.4186
  654TMC3    C6 9734   0.529   0.558  16.971 -0.2388 -0.1790  0.0900
  654TMC3     C 9735   0.758   0.513  17.313 -0.4951  0.3721  0.6719
  654TMC3     O 9736   0.759   0.392  17.335  0.2951 -0.5255  0.0537
  654TMC3     H 9737   0.644   0.729  17.242 -0.3583  0.5848 -0.2448
  654TMC3    H1 9738   0.789   0.360  17.093  0.2769  0.0955 -0.5976
  654TMC3    H2 9739   0.453   0.550  16.894 -0.3925 -2.2414  0.4529
  654TMC3    C7 9740   0.604   0.343  16.888  0.6005  0.1092  0.0190
  654TMC3    C8 9741   0.437   0.755  17.061 -0.1919  0.3022 -0.5388
  654TMC3    O1 9742   0.536   0.365  16.791  0.3952 -0.4861 -0.6176
  654TMC3    O2 9743   0.352   0.742  16.977 -0.2113  0.6191  0.1125
  655MPD2     C 9744   2.303   0.630  15.861  1.0183  0.3495  0.5175
  655MPD2    C1 9745   2.248   0.718  15.772 -0.0901  0.1064  0.3698
  655MPD2    C2 9746   2.252   0.690  15.637  0.0920 -0.1082 -0.5580
  655MPD2    C3 9747   2.332   0.585  15.588 -0.4792 -0.2624  0.0465
  655MPD2    C4 9748   2.385   0.499  15.681 -0.3187 -0.7579  0.4248
  655MPD2    C5 9749   2.365   0.520  15.812  0.1719  0.1859  0.4093
  655MPD2     H 9750   2.207   0.763  15.572 -0.2843 -1.1308 -1.4518
  655MPD2    H1 9751   2.412   0.396  15.658 -2.5904 -1.4662  0.9228
  655MPD2    H2 9752   2.317   0.660  15.965  1.0784  0.7717  0.3884
  655MPD2    H3 9753   2.408   0.449  15.882  2.4727  0.9701 -0.2129
  655MPD2     N 9754   2.342   0.556  15.453  0.1326 -0.8978  0.2946
  655MPD2    H5 9755   2.402   0.479  15.427  0.9560  0.4588 -1.8828
  655MPD2    N1 9756   2.188   0.841  15.809 -0.0662 -0.2571  0.4586
  655MPD2    H7 9757   2.148   0.884  15.726 -0.3283  1.0025  1.2393
  656TMC3    C1 9758   2.073   1.014  15.931  0.5297 -0.1406  0.0263
  656TMC3    C2 9759   2.018   1.050  16.052  0.8385  0.0588  0.2483
  656TMC3    C3 9760   1.958   1.170  16.060 -0.2246 -0.3650 -0.2846
  656TMC3    C4 9761   2.072   1.104  15.830 -0.4197  0.7512  0.1770
  656TMC3    C5 9762   2.026   1.228  15.851  0.1186 -0.0752  0.0276
  656TMC3    C6 9763   1.961   1.265  15.965 -0.1885 -0.4406  0.2050
  656TMC3     C 9764   2.147   0.889  15.931 -0.1580  0.2258  0.1291
  656TMC3     O 9765   2.158   0.833  16.038  1.2813 -0.3758 -0.3501
  656TMC3     H 9766   1.997   0.972  16.124 -2.7154 -0.4160 -1.2531
  656TMC3    H1 9767   2.109   1.070  15.734 -1.9105  0.3621 -0.2617
  656TMC3    H2 9768   1.907   1.356  15.988 -1.7320 -0.9625 -1.3500
  656TMC3    C7 9769   2.010   1.307  15.733 -0.2491 -0.5456  0.5392
  656TMC3    C8 9770   1.838   1.169  16.133  0.1700  0.0188  0.0175
  656TMC3    O1 9771   2.091   1.292  15.639  0.1915  0.0011  0.6962
  656TMC3    O2 9772   1.779   1.063  16.142 -0.2630 -0.6750 -0.3243
  657TMC3    C1 9773   1.233   0.028  14.815 -0.4111 -0.3418 -0.2284
  657TMC3    C2 9774   1.271   0.003  14.946 -1.3481 -0.7406  0.0896
  657TMC3    C3 9775   1.228   0.089  15.043  0.1393  0.3316  0.4667
  657TMC3    C4 9776   1.152   0.126  14.780  0.4408 -0.0465 -0.2476
  657TMC3    C5 9777   1.112   0.216  14.877 -0.0475  0.1465  0.0273
  657TMC3    C6 9778   1.151   0.193  15.013  0.4083  0.2075  0.1274
  657TMC3     C 9779   1.303   4.693  14.710 -0.2112  0.0314 -0.5395
  657TMC3     O 9780   1.265   4.713  14.597  0.0652  0.3172  0.1677
  657TMC3     H 9781   1.321   4.646  14.969  0.5317 -0.2335 -1.8855
  657TMC3    H1 9782   1.134   0.145  14.675 -0.3815 -2.3260 -0.5148
  657TMC3    H2 9783   1.103   0.261  15.083 -0.1893 -0.2418  0.1535
  657TMC3    C7 9784   1.003   0.311  14.846 -0.7336  0.0751 -0.4508
  657TMC3    C8 9785   1.254   0.078  15.183 -0.2673  0.1375 -0.0692
  657TMC3    O1 9786   0.937   0.347  14.945  0.5173 -0.5465 -0.1654
  657TMC3    O2 9787   1.222   0.171  15.258 -0.0263  0.3643 -0.1029
  658MPD2     C 9788   2.817   0.347  15.134 -0.1883  0.0282  1.0171
  658MPD2    C1 9789   2.729   0.366  15.028 -0.5681  0.5534 -1.2276
  658MPD2    C2 9790   2.768   0.344  14.894  0.6102 -0.1170 -0.0151
  658MPD2    C3 9791   2.891   0.278  14.871 -0.2956 -0.8770 -0.4164
  658MPD2    C4 9792   2.979   0.262  14.976 -0.2340 -1.2301  0.3002
  658MPD2    C5 9793   2.939   0.293  15.104  0.1362 -0.3296  0.7512
  658MPD2     H 9794   2.709   0.359  14.805  0.9585 -0.6200 -0.3358
  658MPD2    H1 9795   3.073   0.210  14.965  0.4266  0.0463  0.0269
  658MPD2    H2 9796   2.779   0.364  15.234 -0.6217  1.6311  0.5893
  658MPD2    H3 9797   3.016   0.277  15.179 -0.6035 -1.9373  1.1748
  658MPD2     N 9798   2.919   0.242  14.740  0.1136 -0.0634  0.1887
  658MPD2    H5 9799   2.848   0.245  14.668  1.2636  0.5381 -0.9167
  658MPD2    N1 9800   2.599   0.402  15.060 -0.4536  0.0892 -0.9660
  658MPD2    H7 9801   2.583   0.399  15.160  1.1360 -0.5128 -0.7300
  659TMC3    C1 9802   2.378   0.490  15.032 -0.0901  0.3748  0.2331
  659TMC3    C2 9803   2.384   0.530  15.164  0.1818  0.9715  0.3208
  659TMC3    C3 9804   2.270   0.574  15.216  0.2991  0.6621  0.0126
  659TMC3    C4 9805   2.264   0.485  14.956  0.4712  0.2943  0.0946
  659TMC3    C5 9806   2.149   0.525  15.024  0.9012 -0.6241 -0.3580
  659TMC3    C6 9807   2.147   0.573  15.147  0.4430 -0.1802 -0.2154
  659TMC3     C 9808   2.499   0.434  14.973 -0.3850  0.5267 -0.1131
  659TMC3     O 9809   2.501   0.462  14.857 -0.3575  0.3892  0.7805
  659TMC3     H 9810   2.477   0.535  15.219 -0.4609 -0.4190  1.5231
  659TMC3    H1 9811   2.279   0.441  14.857  0.6896  1.6362 -0.4648
  659TMC3    H2 9812   2.055   0.606  15.193 -0.3254 -0.6611 -1.3827
  659TMC3    C7 9813   2.021   0.475  14.975 -0.1066 -0.0906 -0.8331
  659TMC3    C8 9814   2.257   0.615  15.356  0.3662  1.1784  0.7754
  659TMC3    O1 9815   1.921   0.540  14.988  0.1565 -0.3895 -0.3244
  659TMC3    O2 9816   2.156   0.675  15.378  0.3575  0.0199 -0.3766
  660MPD2     C 9817   0.613   3.734  12.521 -0.0847 -0.0094  0.4483
  660MPD2    C1 9818   0.479   3.778  12.511 -0.3712  0.0438  0.0113
  660MPD2    C2 9819   0.395   3.753  12.616  0.0420 -0.2475 -0.5456
  660MPD2    C3 9820   0.434   3.695  12.737 -0.4643 -1.0606 -0.4403
  660MPD2    C4 9821   0.562   3.653  12.749 -0.3698 -0.6853  0.3981
  660MPD2    C5 9822   0.645   3.680  12.643  0.0584 -0.2103 -0.2974
  660MPD2     H 9823   0.290   3.774  12.600  0.0779 -0.1128 -0.6051
  660MPD2    H1 9824   0.602   3.614  12.841 -0.7872 -1.1180  0.3968
  660MPD2    H2 9825   0.682   3.751  12.439 -1.0232  0.9278 -0.1582
  660MPD2    H3 9826   0.749   3.653  12.661 -0.1714 -1.7177 -1.2801
  660MPD2     N 9827   0.344   3.671  12.845 -0.0825 -0.1148  0.2457
  660MPD2    H5 9828   0.375   3.607  12.918 -0.1868  1.1916  1.4336
  660MPD2    N1 9829   0.434   3.838  12.385  0.4623  0.5450  0.4107
  660MPD2    H7 9830   0.503   3.828  12.311 -0.1344  0.9097 -0.2025
  661TMC3    C1 9831   0.270   3.911  12.225  0.1250  0.5617  0.2392
  661TMC3    C2 9832   0.372   3.910  12.129  0.8134  0.0151  0.1898
  661TMC3    C3 9833   0.326   3.924  12.003  0.1314  0.4606  0.3808
  661TMC3    C4 9834   0.139   3.907  12.192  0.2562  0.3159  0.4993
  661TMC3    C5 9835   0.100   3.902  12.060 -0.8884  0.6583  0.7054
  661TMC3    C6 9836   0.196   3.924  11.969 -0.7035 -0.4191  0.6258
  661TMC3     C 9837   0.304   3.879  12.363 -0.8054 -0.7373 -0.2338
  661TMC3     O 9838   0.219   3.901  12.446  0.3608  0.3002  0.2023
  661TMC3     H 9839   0.478   3.900  12.146  0.8849 -1.0251 -0.9227
  661TMC3    H1 9840   0.070   3.876  12.271  0.0351 -2.0335 -0.6300
  661TMC3    H2 9841   0.169   3.918  11.864 -1.1231  1.3467  0.6368
  661TMC3    C7 9842   4.723   3.835  12.028  0.7484  0.0396  0.0083
  661TMC3    C8 9843   0.425   3.962  11.897  0.2944  0.4280  0.1906
  661TMC3    O1 9844   4.725   3.801  11.915  0.6350 -0.4288  0.6400
  661TMC3    O2 9845   0.387   4.030  11.806 -0.1226  0.7025 -0.1343
  662MPD2     C 9846   0.434   4.254  16.736  0.1598  0.1092  0.7332
  662MPD2    C1 9847   0.402   4.213  16.866  0.2955  0.3802  0.1092
  662MPD2    C2 9848   0.319   4.294  16.945  0.4935  0.7307 -0.6267
  662MPD2    C3 9849   0.247   4.395  16.884 -0.0940  0.2608  0.0504
  662MPD2    C4 9850   0.260   4.416  16.751  0.2019  0.0219 -0.2145
  662MPD2    C5 9851   0.358   4.352  16.678  0.2282  0.0442 -0.0157
  662MPD2     H 9852   0.313   4.277  17.052  1.8183 -0.4611 -0.7488
  662MPD2    H1 9853   0.205   4.482  16.685  0.8244  1.0848  0.3475
  662MPD2    H2 9854   0.519   4.209  16.687 -0.5853  0.1242 -0.5703
  662MPD2    H3 9855   0.375   4.389  16.578 -0.1544 -1.9423 -0.8135
  662MPD2     N 9856   0.157   4.478  16.953  0.5918  0.4198  0.0081
  662MPD2    H5 9857   0.099   4.543  16.901  0.3262 -0.5109 -0.8584
  662MPD2    N1 9858   0.458   4.091  16.926  0.4070  0.1065 -0.9140
  662MPD2    H7 9859   0.429   4.071  17.021 -2.6435 -0.8664 -2.0334
  663TMC3    C1 9860   0.532   3.868  16.935 -0.2776  0.1569 -0.2480
  663TMC3    C2 9861   0.524   3.879  17.072 -0.7595  0.3296  0.9911
  663TMC3    C3 9862   0.428   3.800  17.137  0.3087 -0.7290  0.0464
  663TMC3    C4 9863   0.458   3.778  16.863  0.5443 -0.1314  0.2704
  663TMC3    C5 9864   0.376   3.696  16.932 -0.4602 -0.0384 -0.3213
  663TMC3    C6 9865   0.355   3.707  17.068  0.1724 -0.1416 -0.2896
  663TMC3     C 9866   0.538   3.994  16.867 -0.8903  0.1900 -0.2627
  663TMC3     O 9867   0.584   3.987  16.755  0.2404 -0.1208 -0.0324
  663TMC3     H 9868   0.568   3.963  17.126  1.6978 -1.3724  1.6122
  663TMC3    H1 9869   0.472   3.789  16.756 -0.7074 -2.7639 -0.1667
  663TMC3    H2 9870   0.269   3.662  17.117 -0.1783 -0.0845 -0.8570
  663TMC3    C7 9871   0.380   3.555  16.878 -0.3323  0.6875 -0.3315
  663TMC3    C8 9872   0.334   3.899  17.198  0.5183 -0.0376  0.0603
  663TMC3    O1 9873   0.434   3.538  16.772  0.1706  0.9642  0.0398
  663TMC3    O2 9874   0.342   4.017  17.166  0.0810 -0.3385 -0.5307
  664MPD2     C 9875   3.233   1.785  17.355 -0.2106 -0.1637 -0.1591
  664MPD2    C1 9876   3.304   1.870  17.439  0.0473  0.6456  0.2163
  664MPD2    C2 9877   3.305   1.844  17.572 -0.7416  0.1341 -0.2483
  664MPD2    C3 9878   3.239   1.733  17.625  0.8960  0.3556  0.9191
  664MPD2    C4 9879   3.169   1.645  17.542 -0.3750 -0.4322 -0.2085
  664MPD2    C5 9880   3.177   1.667  17.404 -0.0030  0.7089  0.4837
  664MPD2     H 9881   3.359   1.904  17.644  0.8517 -1.1623 -0.3397
  664MPD2    H1 9882   3.115   1.555  17.569 -0.8113 -0.5361 -1.4281
  664MPD2    H2 9883   3.226   1.800  17.248 -1.0613 -0.1403 -0.1002
  664MPD2    H3 9884   3.106   1.615  17.340 -0.7004  0.0183  1.8215
  664MPD2     N 9885   3.240   1.721   0.021 -0.1446 -0.2318 -0.5348
  664MPD2    H5 9886   3.256   1.805   0.077  1.2475 -0.9629  0.1652
  664MPD2    N1 9887   3.375   1.980  17.388  0.1596 -0.1110 -0.0353
  664MPD2    H7 9888   3.409   2.049  17.453  0.3128  1.8841 -2.2530
  665TMC3    C1 9889   3.174   1.639   0.235  0.1209  0.5162  0.2305
  665TMC3    C2 9890   3.191   1.540   0.329  0.4128  0.1578  0.2277
  665TMC3    C3 9891   3.162   1.568   0.455  0.3144 -0.1848  0.7316
  665TMC3    C4 9892   3.121   1.764   0.262  0.4034 -0.5310 -0.0952
  665TMC3    C5 9893   3.089   1.784   0.390  0.1518  0.3569  0.1392
  665TMC3    C6 9894   3.117   1.697   0.491 -0.2932 -0.6178 -0.2736
  665TMC3     C 9895   3.193   1.611   0.096  1.0788  0.1760  0.0301
  665TMC3     O 9896   3.168   1.498   0.052  0.3333 -0.1772  0.2344
  665TMC3     H 9897   3.232   1.445   0.296  2.2514  1.3282 -0.8490
  665TMC3    H1 9898   3.075   1.824   0.184  0.3204  2.5739  2.3722
  665TMC3    H2 9899   3.091   1.720   0.594  0.6807 -0.6756 -0.0143
  665TMC3    C7 9900   3.055   1.920   0.421  0.2684 -0.5682 -0.3147
  665TMC3    C8 9901   3.170   1.476   0.561  0.8340  0.2177  0.4966
  665TMC3    O1 9902   2.956   1.974   0.375 -0.1504  0.3802  0.0627
  665TMC3    O2 9903   3.118   1.505   0.669 -0.2207  0.0142 -0.1690
  666TMC3    C1 9904   2.822   1.414   9.969  0.0805 -0.1694  0.2092
  666TMC3    C2 9905   2.954   1.438   9.949 -0.2620 -0.4126  0.0143
  666TMC3    C3 9906   2.996   1.574   9.947  0.2918 -0.0117  0.0517
  666TMC3    C4 9907   2.734   1.510  10.000  0.1141 -0.0403 -0.0383
  666TMC3    C5 9908   2.782   1.637   9.983 -0.0720 -0.1456 -0.3877
  666TMC3    C6 9909   2.906   1.671   9.944 -0.1346 -0.2044 -0.8986
  666TMC3     C 9910   2.794   1.274  10.002  0.0810  0.4669 -0.3244
  666TMC3     O 9911   2.877   1.197  10.052 -0.5051 -0.3000  0.2523
  666TMC3     H 9912   3.022   1.358   9.924  3.0512  2.4840 -0.1977
  666TMC3    H1 9913   2.634   1.495  10.039  0.8115 -0.0218  1.7388
  666TMC3    H2 9914   2.938   1.774   9.935  2.3157 -0.8643  0.1215
  666TMC3    C7 9915   2.682   1.740  10.001  0.0415 -0.3388  0.6513
  666TMC3    C8 9916   3.139   1.610   9.976  1.1269 -0.7394 -0.5293
  666TMC3    O1 9917   2.564   1.705   9.996 -0.7187 -0.0302 -0.5564
  666TMC3    O2 9918   3.182   1.729   9.963 -0.5904 -0.7419  0.1847
  667MPD2     C 9919   4.491   1.682  15.242 -0.3306  0.3325 -0.4867
  667MPD2    C1 9920   4.357   1.712  15.212 -0.9536 -0.6389 -0.0226
  667MPD2    C2 9921   4.276   1.610  15.164  0.2891  0.5792 -0.4988
  667MPD2    C3 9922   4.325   1.481  15.165 -0.1269 -0.4587  0.4317
  667MPD2    C4 9923   4.457   1.462  15.192 -0.4272  0.5728  0.0502
  667MPD2    C5 9924   4.542   1.552  15.245  0.5699  0.1390  0.0328
  667MPD2     H 9925   4.175   1.630  15.131  0.2832 -0.4261 -1.1157
  667MPD2    H1 9926   4.502   1.363  15.190 -1.6554 -0.0288  1.9188
  667MPD2    H2 9927   4.556   1.759  15.282 -0.7908  0.1133  0.6823
  667MPD2    H3 9928   4.645   1.533  15.269  1.2137  0.5696 -2.4123
  667MPD2     N 9929   4.242   1.368  15.124  0.0637 -0.4522  0.0432
  667MPD2    H5 9930   4.291   1.280  15.115 -2.3051 -1.8953  1.2347
  667MPD2    N1 9931   4.303   1.841  15.223  0.6237 -0.2570 -0.0426
  667MPD2    H7 9932   4.209   1.853  15.185  1.2941  0.9246 -1.3074
  668TMC3    C1 9933   4.305   2.082  15.257  0.4672  0.4491  0.0892
  668TMC3    C2 9934   4.394   2.187  15.282  0.7494 -1.1460 -0.5113
  668TMC3    C3 9935   4.334   2.302  15.336  0.4145 -0.1370 -0.1566
  668TMC3    C4 9936   4.174   2.089  15.289  0.5048 -0.2576  0.7310
  668TMC3    C5 9937   4.118   2.208  15.342  0.5763  0.0824 -0.1980
  668TMC3    C6 9938   4.202   2.312  15.368 -0.4784 -0.6525 -0.1393
  668TMC3     C 9939   4.373   1.952  15.275  0.3187  0.5336  0.1210
  668TMC3     O 9940   4.480   1.963  15.335 -0.2004 -0.0393  0.0422
  668TMC3     H 9941   4.499   2.190  15.257  0.5474 -3.0321 -1.6104
  668TMC3    H1 9942   4.110   2.003  15.273 -0.7540  0.4389  1.9473
  668TMC3    H2 9943   4.166   2.392  15.432  1.9562  0.5518 -0.2416
  668TMC3    C7 9944   3.973   2.213  15.373 -0.0270  0.1350 -0.2491
  668TMC3    C8 9945   4.395   2.431  15.311 -0.1197  0.3442 -0.1834
  668TMC3    O1 9946   3.941   2.311  15.433  0.3670 -0.3479 -0.1927
  668TMC3    O2 9947   4.366   2.522  15.387  0.4500  0.1309  0.2317
  669TMC3    C1 9948   2.288   1.712  14.778  0.7034  0.0171  0.9586
  669TMC3    C2 9949   2.185   1.764  14.700 -0.0234  0.0574 -0.1591
  669TMC3    C3 9950   2.199   1.743  14.566  0.3679 -0.5409  0.0659
  669TMC3    C4 9951   2.401   1.663  14.731  0.1729  0.4942  0.1376
  669TMC3    C5 9952   2.423   1.655  14.595  0.3867 -0.3381 -0.1071
  669TMC3    C6 9953   2.322   1.693  14.511 -0.3385  0.3306 -0.2180
  669TMC3     C 9954   2.258   1.691  14.915 -0.0328  0.4172  0.3052
  669TMC3     O 9955   2.162   1.744  14.959  0.5016  0.4441 -0.2777
  669TMC3     H 9956   2.097   1.807  14.746 -0.8465 -0.6464 -1.0639
  669TMC3    H1 9957   2.483   1.648  14.801 -0.1375 -3.5509 -0.3530
  669TMC3    H2 9958   2.335   1.677  14.404 -0.1215 -0.4726 -0.0731
  669TMC3    C7 9959   2.563   1.642  14.553  0.1491 -0.3318  0.1806
  669TMC3    C8 9960   2.085   1.776  14.485 -0.0901 -0.8620  0.1875
  669TMC3    O1 9961   2.639   1.612  14.647  0.0422 -0.4053  0.4695
  669TMC3    O2 9962   1.986   1.770  14.551  0.3694 -0.3617 -0.2158
  670MPD2     C 9963   0.857   4.212  13.214 -0.3266  0.7060  0.2774
  670MPD2    C1 9964   0.965   4.279  13.261 -0.1678 -0.5259 -0.2846
  670MPD2    C2 9965   0.989   4.285  13.398 -0.1923  0.7023 -0.2754
  670MPD2    C3 9966   0.911   4.217  13.485 -0.1165  0.3086 -0.6438
  670MPD2    C4 9967   0.804   4.140  13.433  0.1697 -1.5855 -0.6618
  670MPD2    C5 9968   0.780   4.139  13.304 -0.7023 -0.1286  0.3272
  670MPD2     H 9969   1.069   4.349  13.433 -2.0853  1.7313  2.1356
  670MPD2    H1 9970   0.736   4.077  13.489 -1.5747  1.4422  0.6298
  670MPD2    H2 9971   0.825   4.215  13.110  1.1243 -2.3157 -0.2543
  670MPD2    H3 9972   0.699   4.084  13.257 -1.4362  0.8063  0.4985
  670MPD2     N 9973   0.935   4.216  13.623 -0.7257  0.0141  0.3082
  670MPD2    H5 9974   1.025   4.254  13.650  0.2257 -0.8709 -1.7157
  670MPD2    N1 9975   1.034   4.367  13.178 -0.3035  0.2042 -0.2946
  670MPD2    H7 9976   1.104   4.426  13.220 -1.2256  0.3705  1.0123
  671TMC3    C1 9977   0.898   4.155  13.845 -0.4112 -0.2092 -0.4488
  671TMC3    C2 9978   1.018   4.095  13.859 -0.6109  0.2761  0.0780
  671TMC3    C3 9979   1.055   4.036  13.974 -0.4450 -0.0084 -0.7919
  671TMC3    C4 9980   0.808   4.147  13.945 -0.3399  0.2402  0.4675
  671TMC3    C5 9981   0.847   4.084  14.067 -0.1650  0.4285  0.0625
  671TMC3    C6 9982   0.970   4.032  14.084  0.4763 -0.7096  0.1193
  671TMC3     C 9983   0.847   4.164  13.711  0.3276 -0.0714 -0.4926
  671TMC3     O 9984   0.725   4.143  13.703 -0.2504  0.1537 -0.2892
  671TMC3     H 9985   1.071   4.074  13.766  0.3510 -1.4716  1.0188
  671TMC3    H1 9986   0.704   4.177  13.940 -0.0870  1.0097 -0.4285
  671TMC3    H2 9987   0.994   3.983  14.177  1.8344 -1.9339 -0.8809
  671TMC3    C7 9988   0.761   3.977  14.107  0.2306 -0.1392 -0.4284
  671TMC3    C8 9989   1.167   3.946  13.965 -0.6019  0.6004  0.5553
  671TMC3    O1 9990   0.768   3.934  14.219  0.2554 -0.5264  0.3762
  671TMC3    O2 9991   1.201   3.918  13.849 -0.2053  0.2308 -0.4547
  672MPD2     C 9992   0.955   0.122   0.892  0.6264 -0.1149 -0.7157
  672MPD2    C1 9993   1.044   0.086   0.792  0.2696  0.4722  1.3043
  672MPD2    C2 9994   1.178   0.140   0.804  0.3070  0.2205  0.2674
  672MPD2    C3 9995   1.211   0.228   0.908 -0.5368 -0.3981  0.4037
  672MPD2    C4 9996   1.114   0.261   1.007  1.1541 -1.6613 -0.0025
  672MPD2    C5 9997   0.987   0.211   0.998 -0.1218  0.7316 -0.6289
  672MPD2     H 9998   1.248   0.111   0.726 -3.3917 -0.1293 -2.9412
  672MPD2    H1 9999   1.133   0.334   1.084  3.3816 -2.6596  0.3790
  672MPD2    H210000   0.857   0.077   0.876  0.7198 -1.2689  2.0246
  672MPD2    H310001   0.911   0.238   1.070 -0.5853 -0.0426 -0.8227
  672MPD2     N10002   1.335   0.291   0.925 -0.2724 -0.3599  0.4835
  672MPD2    H510003   1.350   0.344   1.010  1.6453 -0.8167  0.4300
  672MPD2    N110004   1.014   0.011   0.677 -1.0208  0.0260 -0.5412
  672MPD2    H710005   1.091   4.729   0.613  0.3164 -0.3450  1.1803
  673TMC3    C110006   0.863   4.632   0.527 -0.1472  1.3970 -0.1685
  673TMC3    C210007   0.949   4.534   0.483  0.3458 -0.5139  0.2900
  673TMC3    C310008   0.923   4.474   0.365 -0.0878 -0.4701 -0.2587
  673TMC3    C410009   0.747   4.654   0.458  0.3007  0.1737 -0.4630
  673TMC3    C510010   0.730   4.599   0.334 -0.0787  0.4249  1.0865
  673TMC3    C610011   0.819   4.510   0.285  0.4076  0.9405 -0.0894
  673TMC3     C10012   0.885   4.728   0.635  0.1320 -0.0506 -0.4667
  673TMC3     O10013   0.781   0.047   0.677 -0.3911  0.1485  0.4960
  673TMC3     H10014   1.041   4.518   0.537  0.0164 -1.7795  0.4764
  673TMC3    H110015   0.671   4.723   0.491  1.8050  2.3384 -1.4853
  673TMC3    H210016   0.801   4.481   0.182  2.1837 -1.0762  0.1784
  673TMC3    C710017   0.658   4.672   0.223  0.1975 -0.2526  0.3708
  673TMC3    C810018   1.024   4.401   0.298 -0.3213 -0.5703  0.7732
  673TMC3    O110019   0.621   4.606   0.131  0.2699 -0.4392  0.5407
  673TMC3    O210020   1.000   4.359   0.185 -0.2333 -0.1507  0.0281
  674MPD2     C10021   0.398   0.327  17.337  0.3808  0.2422 -0.4333
  674MPD2    C110022   0.304   0.242  17.395 -0.7850 -0.8158 -0.3122
  674MPD2    C210023   0.195   0.285  17.466 -0.1506  0.0702 -0.1220
  674MPD2    C310024   0.197   0.426  17.498  0.4293  0.7807 -0.4503
  674MPD2    C410025   0.295   0.512  17.448 -0.4016 -0.2671 -0.2445
  674MPD2    C510026   0.393   0.457  17.373  0.0284  0.2294  0.5632
  674MPD2     H10027   0.125   0.221  17.519 -1.7319  0.6440 -1.5159
  674MPD2    H110028   0.293   0.616  17.477  1.6333 -0.1291 -0.5675
  674MPD2    H210029   0.482   0.295  17.277  0.9542 -1.7222  1.4284
  674MPD2    H310030   0.473   0.523  17.344 -0.8665  1.0109 -0.1316
  674MPD2     N10031   0.104   0.467  17.596  0.1292 -0.5784 -0.1002
  674MPD2    H510032   0.030   0.402  17.620 -0.8731  0.7956  0.5471
  674MPD2    N110033   0.327   0.110  17.375 -0.2473  0.2810 -0.2508
  674MPD2    H710034   0.420   0.087  17.341  0.1605  1.9502 -0.2497
  675TMC3    C110035   0.330   4.620  17.445  0.0385  0.1566 -0.1243
  675TMC3    C210036   0.290   4.546  17.546  0.1798 -0.1653  0.0154
  675TMC3    C310037   0.386   4.485  17.623 -0.8094  0.1248  0.0532
  675TMC3    C410038   0.459   4.634  17.406 -0.5962 -0.1402 -0.3431
  675TMC3    C510039   0.555   4.588  17.495 -0.0447 -0.0644 -0.2175
  675TMC3    C610040   0.519   4.511  17.606  0.2250 -0.1380  0.2532
  675TMC3     C10041   0.249   0.005  17.420 -0.0796 -0.3165 -0.2996
  675TMC3     O10042   0.129   0.009  17.447  0.2436 -0.1411 -0.1775
  675TMC3     H10043   0.184   4.540  17.565  0.4928 -2.1127  1.1856
  675TMC3    H110044   0.489   4.689  17.317  0.0640  0.3947  0.2097
  675TMC3    H210045   0.583   4.476  17.686 -0.1173 -0.3651  0.4313
  675TMC3    C710046   0.666   4.682  17.508 -0.7357 -0.0527 -0.5553
  675TMC3    C810047   0.330   4.400  17.723  0.2691  0.1952  0.1919
  675TMC3    O110048   0.672   0.037  17.428 -0.9281 -0.4922  0.3001
  675TMC3    O210049   0.228   4.338  17.705 -0.1706  0.0917 -0.1294
  676MPD2     C10050   3.325   2.164  11.185  0.3362 -0.1729 -0.4225
  676MPD2    C110051   3.384   2.108  11.297 -0.2943  0.0395 -0.0504
  676MPD2    C210052   3.390   1.968  11.297  0.1401 -0.1515 -0.2313
  676MPD2    C310053   3.322   1.889  11.202  0.0343  0.3618  0.7769
  676MPD2    C410054   3.261   1.946  11.100  0.2554 -0.0020  0.5388
  676MPD2    C510055   3.265   2.084  11.088 -0.3577 -0.9237  0.5371
  676MPD2     H10056   3.436   1.923  11.384  0.0687  0.7665  0.2885
  676MPD2    H110057   3.201   1.891  11.030  0.8615 -0.8074  0.6545
  676MPD2    H210058   3.324   2.271  11.170  0.7757  0.3488  3.2471
  676MPD2    H310059   3.210   2.130  11.006  1.7348  2.1719  0.8536
  676MPD2     N10060   3.318   1.741  11.195 -0.1525  0.1929  0.2669
  676MPD2    H510061   3.302   1.701  11.103  4.0143 -1.1500  0.1269
  676MPD2    N110062   3.419   2.179  11.419  0.2479 -0.0066 -0.1397
  676MPD2    H710063   3.477   2.134  11.489  1.4154  0.1608 -1.0021
  677TMC3    C110064   3.445   2.367  11.562  0.1174  0.0768  0.3365
  677TMC3    C210065   3.485   2.289  11.659 -0.1390 -0.3438 -0.4678
  677TMC3    C310066   3.539   2.357  11.768  0.4683  0.3909 -0.0702
  677TMC3    C410067   3.436   2.500  11.571  0.7955 -0.2857 -0.4736
  677TMC3    C510068   3.490   2.559  11.678  0.0277  0.2156  1.2704
  677TMC3    C610069   3.535   2.489  11.782 -0.0316 -0.0081  0.7768
  677TMC3     C10070   3.383   2.308  11.447  0.2482  0.2349 -0.3251
  677TMC3     O10071   3.312   2.388  11.386  0.0854 -0.3116  0.2175
  677TMC3     H10072   3.477   2.181  11.646 -2.0781 -0.2138 -0.3802
  677TMC3    H110073   3.407   2.553  11.481 -0.4772 -0.0166  0.1047
  677TMC3    H210074   3.570   2.541  11.871 -0.7273 -2.9345  2.7732
  677TMC3    C710075   3.491   2.708  11.694 -0.1944  0.6237 -0.1960
  677TMC3    C810076   3.604   2.280  11.876  0.1203  1.0582  0.1591
  677TMC3    O110077   3.550   2.758  11.788 -0.4988  0.0281  0.6140
  677TMC3    O210078   3.662   2.342  11.961 -0.0775  0.3395  0.4110
  678MPD2     C10079   4.393   3.067   1.228 -0.1422  0.1426 -0.2391
  678MPD2    C110080   4.380   2.956   1.143 -0.4804  0.1885  0.3970
  678MPD2    C210081   4.278   2.865   1.161  0.0364 -0.2772 -0.0770
  678MPD2    C310082   4.179   2.889   1.256  0.3697 -0.0009 -0.3156
  678MPD2    C410083   4.186   3.005   1.337  0.1501  0.3505  0.1089
  678MPD2    C510084   4.297   3.087   1.328  0.1116 -0.6793 -0.0959
  678MPD2     H10085   4.274   2.782   1.091  1.3431 -0.8987  0.5878
  678MPD2    H110086   4.103   3.024   1.403  0.6539  0.3691  0.7387
  678MPD2    H210087   4.466   3.146   1.217 -2.4426  2.5207  1.4213
  678MPD2    H310088   4.303   3.173   1.394  2.2359 -1.3222  0.5373
  678MPD2     N10089   4.066   2.797   1.248 -0.5811 -0.1817 -0.4176
  678MPD2    H510090   4.077   2.723   1.179 -1.4332 -0.6955  0.0012
  678MPD2    N110091   4.488   2.929   1.056  0.2496  0.8006 -0.2368
  678MPD2    H710092   4.552   3.005   1.036  0.4866  1.3079  2.4389
  679TMC3    C110093   0.058   2.770   0.759  0.1624 -0.1176 -0.0162
  679TMC3    C210094   4.701   2.745   0.852 -0.4307 -0.0771 -0.0043
  679TMC3    C310095   4.619   2.851   0.890 -0.7706  0.0073  0.7646
  679TMC3    C410096   0.040   2.871   0.678  0.3912  0.1540 -0.0991
  679TMC3    C510097   4.690   2.968   0.710  0.5124 -0.1051  0.1634
  679TMC3    C610098   4.606   2.965   0.811  0.5227 -0.8992  0.6757
  679TMC3     C10099   0.157   2.670   0.718 -0.1542 -0.3241  0.4851
  679TMC3     O10100   0.268   2.706   0.675 -0.7850 -0.3529 -0.2025
  679TMC3     H10101   4.715   2.680   0.937  0.3128  1.0549  0.7454
  679TMC3    H110102   0.118   2.891   0.606  0.2784  0.5791 -0.0999
  679TMC3    H210103   4.524   3.035   0.827  0.6890 -0.5357 -0.0611
  679TMC3    C710104   4.660   3.054   0.604  0.3562  0.4461  0.4058
  679TMC3    C810105   4.506   2.819   0.971 -0.0437  0.2335 -0.3910
  679TMC3    O110106   4.630   3.172   0.625  0.0500  0.3188  0.4070
  679TMC3    O210107   4.458   2.708   0.972 -0.3721  0.2418  0.1723
  680MPD2     C10108   0.408   1.447  13.772  0.1186  0.2865 -0.3821
  680MPD2    C110109   0.467   1.423  13.892  0.2596  1.0670 -0.2028
  680MPD2    C210110   0.544   1.516  13.957  0.3870  0.8444 -0.5719
  680MPD2    C310111   0.556   1.643  13.898  0.2822 -0.4765  1.1273
  680MPD2    C410112   0.494   1.670  13.776 -0.3249 -0.7324  0.3374
  680MPD2    C510113   0.421   1.570  13.713 -1.0285 -0.5651 -0.1811
  680MPD2     H10114   0.602   1.488  14.044  0.1926  0.0088 -0.7036
  680MPD2    H110115   0.492   1.764  13.722  3.1061 -0.6673  0.3397
  680MPD2    H210116   0.353   1.373  13.716 -3.0818  0.6173  2.2875
  680MPD2    H310117   0.373   1.593  13.619  0.8647 -1.0505 -1.2798
  680MPD2     N10118   0.637   1.744  13.951 -0.1808  0.0812  0.4261
  680MPD2    H510119   0.664   1.822  13.891 -2.8490  0.1484 -0.6878
  680MPD2    N110120   0.469   1.289  13.943 -0.2036 -0.2964  0.4329
  680MPD2    H710121   0.540   1.263  14.011 -1.1270 -1.0416  1.1077
  681TMC3    C110122   0.400   1.067  13.979 -0.2689 -0.3978 -0.1310
  681TMC3    C210123   0.294   1.009  14.043  0.4132  0.6506 -0.2594
  681TMC3    C310124   0.308   0.944  14.160 -1.1220  0.1549  0.6482
  681TMC3    C410125   0.529   1.038  14.024 -0.0999 -0.4122 -0.5068
  681TMC3    C510126   0.541   0.959  14.132  0.0299 -0.5632 -0.2951
  681TMC3    C610127   0.434   0.913  14.204 -0.3987  0.5992 -1.1388
  681TMC3     C10128   0.379   1.189  13.905  0.0021  0.0573  0.0727
  681TMC3     O10129   0.265   1.210  13.865  0.0041 -0.7161 -0.5081
  681TMC3     H10130   0.192   1.032  14.016  0.0919  0.2088  0.5662
  681TMC3    H110131   0.610   1.092  13.975 -0.0913 -1.8160 -2.0510
  681TMC3    H210132   0.450   0.852  14.292  1.4757  1.9789 -0.4910
  681TMC3    C710133   0.674   0.930  14.192 -0.2687 -0.0272 -0.8245
  681TMC3    C810134   0.234   1.021  14.262 -0.1507  0.6805 -0.3546
  681TMC3    O110135   0.670   0.907  14.311 -0.6904  0.1694  0.3118
  681TMC3    O210136   0.122   1.057  14.240 -0.1376  0.4581 -0.4045
  682MPD2     C10137   1.797   2.471  10.601  0.0932  0.2985  1.0030
  682MPD2    C110138   1.884   2.373  10.630 -0.1898  0.0720 -0.3760
  682MPD2    C210139   1.960   2.385  10.747 -0.2420 -0.0234  0.0732
  682MPD2    C310140   1.952   2.500  10.819  0.3148  0.0869  0.0828
  682MPD2    C410141   1.863   2.600  10.790  0.4109  0.6795  0.3733
  682MPD2    C510142   1.784   2.584  10.684 -0.3327  0.2682 -0.4396
  682MPD2     H10143   2.032   2.305  10.759 -0.7748 -0.6059 -0.5971
  682MPD2    H110144   1.853   2.690  10.850 -0.5916  1.1172 -0.4460
  682MPD2    H210145   1.733   2.468  10.513 -1.2765  2.3195  1.9203
  682MPD2    H310146   1.714   2.658  10.647 -1.9532 -0.8715  0.3121
  682MPD2     N10147   2.042   2.526  10.926  0.1325 -0.4004  0.5905
  682MPD2    H510148   2.028   2.611  10.980  1.1475 -0.3542  0.7837
  682MPD2    N110149   1.905   2.258  10.544 -0.2191 -0.1447 -0.5730
  682MPD2    H710150   1.990   2.209  10.573 -0.7793 -0.9978 -0.3892
  683TMC3    C110151   2.281   2.691  11.201 -0.6381  0.8637  0.0139
  683TMC3    C210152   2.314   2.615  11.312  0.4060  0.4471  0.3225
  683TMC3    C310153   2.295   2.474  11.290 -0.5209  0.4200 -0.4365
  683TMC3    C410154   2.232   2.639  11.085 -0.3895 -0.1732  0.0077
  683TMC3    C510155   2.220   2.503  11.076 -0.1975  0.6521 -0.0699
  683TMC3    C610156   2.248   2.417  11.176 -0.2725  0.3680 -0.4506
  683TMC3     C10157   2.286   2.840  11.223 -0.3077  0.2549  0.0859
  683TMC3     O10158   2.396   2.884  11.252  0.3365  0.2831 -0.8107
  683TMC3     H10159   2.344   2.659  11.406  1.3546  1.0467 -0.2646
  683TMC3    H110160   2.213   2.692  10.992 -2.0811  1.0094  1.0377
  683TMC3    H210161   2.216   2.314  11.161 -0.0915  0.3609 -0.7794
  683TMC3    C710162   2.146   2.447  10.965  0.4349 -0.2779 -0.0035
  683TMC3    C810163   2.333   2.389  11.398  0.5379  0.2409  0.1983
  683TMC3    O110164   2.173   2.333  10.935  0.4041 -0.0008  0.8448
  683TMC3    O210165   2.374   2.439  11.502 -0.0384  0.0474 -0.1032
  684MPD2     C10166   0.491   2.460  16.430  0.8712 -0.0033 -0.1360
  684MPD2    C110167   0.590   2.534  16.364  0.8701 -0.6203 -0.1468
  684MPD2    C210168   0.567   2.673  16.355 -0.0048 -0.7790  0.1796
  684MPD2    C310169   0.452   2.728  16.397 -0.2338  0.1655  0.3693
  684MPD2    C410170   0.352   2.652  16.455  0.1328 -0.1007  0.5850
  684MPD2    C510171   0.375   2.516  16.471  0.3182 -0.0785 -0.5204
  684MPD2     H10172   0.651   2.733  16.323  0.2471 -1.8122 -1.0963
  684MPD2    H110173   0.262   2.703  16.486 -0.2739 -0.1548 -0.5101
  684MPD2    H210174   0.487   2.352  16.445 -1.3756  0.0006 -0.6663
  684MPD2    H310175   0.299   2.456  16.519  0.0366  0.1906 -0.6293
  684MPD2     N10176   0.445   2.869  16.398  0.3642  0.0780 -0.0415
  684MPD2    H510177   0.528   2.923  16.375  0.6910 -0.7866 -0.9049
  684MPD2    N110178   0.713   2.474  16.319 -0.2177 -0.0801 -0.3784
  684MPD2    H710179   0.771   2.541  16.270  1.0523  0.0981  1.3759
  685TMC3    C110180   0.865   2.294  16.250  0.2268 -0.0578  0.3099
  685TMC3    C210181   0.858   2.187  16.163 -0.0626 -0.0988  0.4988
  685TMC3    C310182   0.953   2.183  16.061  0.6972  0.1431  0.4226
  685TMC3    C410183   0.973   2.378  16.256 -0.4280  0.5106 -0.0049
  685TMC3    C510184   1.069   2.369  16.155  0.2066 -0.0550  0.0659
  685TMC3    C610185   1.061   2.271  16.058  0.7845  0.3484 -0.0265
  685TMC3     C10186   0.744   2.333  16.319  0.0961 -0.9317  0.5140
  685TMC3     O10187   0.677   2.244  16.369  0.1667 -0.0267 -0.0181
  685TMC3     H10188   0.775   2.118  16.175  0.0091 -0.1731  0.5687
  685TMC3    H110189   0.971   2.460  16.327  1.7769 -0.1761  0.8365
  685TMC3    H210190   1.142   2.256  15.988  3.0054 -0.6553  2.7467
  685TMC3    C710191   1.195   2.435  16.157  0.5624 -0.4445 -0.6571
  685TMC3    C810192   0.909   2.132  15.934  0.6703 -0.1644 -0.0036
  685TMC3    O110193   1.263   2.438  16.056 -1.0839  0.5443 -0.3080
  685TMC3    O210194   0.987   2.161  15.838  0.3076 -0.5345  0.5850
  686MPD2     C10195   1.898   2.658  15.231  0.1861 -0.2044  0.9454
  686MPD2    C110196   1.989   2.578  15.298 -0.6786  0.5130  0.4269
  686MPD2    C210197   2.051   2.475  15.233  0.3764  0.8382  0.8631
  686MPD2    C310198   2.007   2.436  15.104 -0.0804 -0.4673 -0.1006
  686MPD2    C410199   1.924   2.523  15.039  0.1926  1.2939 -0.1544
  686MPD2    C510200   1.867   2.624  15.103  0.3096 -0.1142 -0.0426
  686MPD2     H10201   2.128   2.414  15.280 -0.3000 -0.2366  0.5920
  686MPD2    H110202   1.892   2.507  14.937  0.4636  0.5026 -0.1170
  686MPD2    H210203   1.845   2.745  15.268  0.6286  1.1256 -1.5328
  686MPD2    H310204   1.792   2.680  15.049 -0.2140  0.0399  0.8294
  686MPD2     N10205   2.058   2.324  15.036 -0.1503  0.3583 -0.0323
  686MPD2    H510206   2.048   2.327  14.935  2.8436  1.5533 -0.2748
  686MPD2    N110207   2.002   2.604  15.436 -0.1520  0.1168 -0.0788
  686MPD2    H710208   1.929   2.668  15.466 -0.2078  0.4768 -0.9743
  687TMC3    C110209   2.058   2.169  15.233  0.4665 -0.2549  0.2872
  687TMC3    C210210   1.931   2.193  15.272  0.1146 -0.2025  0.2613
  687TMC3    C310211   1.893   2.172  15.398  0.4594 -0.0283  0.4287
  687TMC3    C410212   2.154   2.115  15.320 -0.6217 -0.5939  0.0826
  687TMC3    C510213   2.120   2.112  15.451 -0.5925  0.1921  0.8509
  687TMC3    C610214   1.990   2.146  15.493 -0.0161  0.0337  0.1592
  687TMC3     C10215   2.104   2.209  15.100  0.4443 -0.5866 -0.8107
  687TMC3     O10216   2.173   2.124  15.042 -0.7536 -0.1920 -0.2258
  687TMC3     H10217   1.863   2.217  15.192 -1.5953 -2.1762  1.1314
  687TMC3    H110218   2.256   2.107  15.284  0.0393  1.7626  1.3999
  687TMC3    H210219   1.965   2.132  15.598 -3.8056  1.6190 -0.5141
  687TMC3    C710220   2.221   2.068  15.549 -0.5778  0.0118 -0.2355
  687TMC3    C810221   1.788   2.270  15.433 -0.4879  0.1259 -0.1846
  687TMC3    O110222   2.217   2.094  15.669  0.2731 -0.5323 -0.0488
  687TMC3    O210223   1.761   2.357  15.357 -0.0378  0.4918 -0.1228
  688MPD2     C10224   1.261   1.420  17.389  0.1265 -0.4549 -0.2857
  688MPD2    C110225   1.270   1.285  17.409  0.5750 -0.3497 -0.0094
  688MPD2    C210226   1.337   1.218  17.316 -0.2422  0.3656  1.0188
  688MPD2    C310227   1.387   1.272  17.198 -0.2350 -0.3398 -0.2326
  688MPD2    C410228   1.358   1.399  17.167  0.7842  0.1377  0.1294
  688MPD2    C510229   1.292   1.470  17.265  0.4989  0.2743 -0.0784
  688MPD2     H10230   1.357   1.113  17.332  0.2589  0.4128  0.6999
  688MPD2    H110231   1.399   1.447  17.080  0.1831 -0.0207 -0.2411
  688MPD2    H210232   1.217   1.489  17.459 -0.1835 -3.6104  2.6536
  688MPD2    H310233   1.279   1.577  17.256 -0.2424  0.1062 -0.9615
  688MPD2     N10234   1.489   1.215  17.117  0.0506  0.2475 -0.3736
  688MPD2    H510235   1.518   1.262  17.032  0.2861 -0.0676 -0.4705
  688MPD2    N110236   1.233   1.220  17.530 -0.1063 -0.3638  0.0771
  688MPD2    H710237   1.229   1.118  17.534 -1.0505 -0.3367 -0.3381
  689TMC3    C110238   1.214   1.202   0.018  0.7254 -0.1190  0.0466
  689TMC3    C210239   1.218   1.262   0.138 -0.5110  0.3745 -0.1339
  689TMC3    C310240   1.189   1.193   0.255 -0.2283 -0.4581  0.3103
  689TMC3    C410241   1.168   1.071   0.015  0.9794  0.9583  0.0340
  689TMC3    C510242   1.118   1.009   0.127  0.2270 -0.0459 -0.7157
  689TMC3    C610243   1.135   1.063   0.250  0.8444 -0.5423  0.1796
  689TMC3     C10244   1.222   1.285  17.648 -0.0589  0.0807  0.0743
  689TMC3     O10245   1.229   1.403  17.669 -0.1929  0.1080  0.1047
  689TMC3     H10246   1.254   1.364   0.143 -0.3265  0.1859  2.4917
  689TMC3    H110247   1.144   1.036  17.660  1.8448 -5.1936  1.9669
  689TMC3    H210248   1.108   1.008   0.339  0.3529 -1.5304 -0.5780
  689TMC3    C710249   1.055   0.876   0.121 -1.2611  0.2396  0.1494
  689TMC3    C810250   1.211   1.259   0.382 -0.9614 -0.2180  0.4022
  689TMC3    O110251   1.033   0.808   0.222 -0.1787  0.2005  0.2522
  689TMC3    O210252   1.205   1.179   0.476  0.1671  0.3112  0.3579
  690MPD2     C10253   3.126   2.851  15.175  0.1842  0.1098 -0.0048
  690MPD2    C110254   3.215   2.812  15.271 -0.7518 -0.0014  0.1956
  690MPD2    C210255   3.342   2.779  15.238 -0.5840 -0.7298 -0.4352
  690MPD2    C310256   3.389   2.790  15.107  0.3961 -0.4952  0.1772
  690MPD2    C410257   3.294   2.814  15.006  0.1675 -0.2220 -0.2257
  690MPD2    C510258   3.170   2.849  15.046 -0.1509 -0.3885 -0.7047
  690MPD2     H10259   3.408   2.750  15.319  1.0752  2.5452 -0.5982
  690MPD2    H110260   3.305   2.827  14.899  0.5799  0.1860 -0.1298
  690MPD2    H210261   3.028   2.893  15.195  0.1210 -0.2432  0.4363
  690MPD2    H310262   3.105   2.885  14.967  0.4955  0.3633 -0.8905
  690MPD2     N10263   3.526   2.781  15.082  0.5490 -0.2002  0.1812
  690MPD2    H510264   3.589   2.791  15.161  2.0481 -0.9484 -0.9437
  690MPD2    N110265   3.177   2.794  15.407  0.1690  0.0103 -0.4233
  690MPD2    H710266   3.237   2.749  15.475 -1.8520 -1.3019  0.4973
  691TMC3    C110267   3.040   2.793  15.602 -0.1368  0.2982  0.2089
  691TMC3    C210268   2.926   2.847  15.652 -0.8800 -0.3889 -0.2712
  691TMC3    C310269   2.865   2.770  15.758  0.4064 -0.2338  0.1389
  691TMC3    C410270   3.085   2.674  15.652  0.3506 -0.0563 -0.4780
  691TMC3    C510271   3.026   2.611  15.760 -0.3855  0.2253 -0.4390
  691TMC3    C610272   2.910   2.659  15.813 -0.1123  0.6028 -0.2170
  691TMC3     C10273   3.056   2.827  15.461 -0.2624  0.1774  0.6286
  691TMC3     O10274   2.955   2.858  15.401 -0.2205  0.6259  0.4395
  691TMC3     H10275   2.887   2.946  15.633 -2.1026 -0.7609  0.3224
  691TMC3    H110276   3.178   2.638  15.609  0.9733  1.6748 -0.5538
  691TMC3    H210277   2.866   2.620  15.904 -1.1168  0.7055 -0.6503
  691TMC3    C710278   3.087   2.497  15.803  0.4429 -0.5613 -0.0479
  691TMC3    C810279   2.766   2.848  15.834 -0.1734  0.6754 -0.4336
  691TMC3    O110280   3.215   2.502  15.817 -0.2920 -0.0538  0.0746
  691TMC3    O210281   2.752   2.823  15.953  0.1334 -0.5212 -0.4215
  692TMC3    C110282   0.170   3.998  15.605 -0.8401  0.3323 -0.1591
  692TMC3    C210283   0.268   4.093  15.603 -0.6490  0.6079  0.8635
  692TMC3    C310284   0.395   4.064  15.642  0.0664  0.2229  0.3971
  692TMC3    C410285   0.209   3.867  15.632  0.0345 -0.0519 -0.4826
  692TMC3    C510286   0.338   3.841  15.657 -0.1046 -0.2812  0.5176
  692TMC3    C610287   0.433   3.933  15.664 -0.4446 -0.6953  1.2234
  692TMC3     C10288   0.034   4.037  15.628  0.0781 -0.2202 -0.0661
  692TMC3     O10289   4.700   3.945  15.668  0.4854  0.3460  0.5788
  692TMC3     H10290   0.254   4.189  15.556  2.6007  0.3895 -0.5751
  692TMC3    H110291   0.126   3.801  15.656 -0.3495  0.5722 -0.0789
  692TMC3    H210292   0.536   3.912  15.689 -0.8863 -0.4726  3.2855
  692TMC3    C710293   0.366   3.710  15.726  0.2245  0.2235 -0.0382
  692TMC3    C810294   0.455   4.162  15.735  0.0248 -0.1190 -0.0057
  692TMC3    O110295   0.466   3.714  15.792  0.4618 -0.0208 -0.0489
  692TMC3    O210296   0.538   4.118  15.810  0.2388  0.7955  0.0284
  693MPD2     C10297   4.635   1.210  10.311  0.6625  0.2608  0.0158
  693MPD2    C110298   4.553   1.211  10.423 -0.2719 -0.6360 -0.6112
  693MPD2    C210299   4.613   1.190  10.546  0.4007  0.4399  0.3315
  693MPD2    C310300   0.010   1.161  10.561 -0.2954  0.8269  0.6001
  693MPD2    C410301   0.090   1.161  10.445  0.0696 -0.1558 -0.2154
  693MPD2    C510302   0.030   1.183  10.325 -0.3480  0.1162  0.0571
  693MPD2     H10303   4.545   1.210  10.628 -0.6444  0.4119 -0.5249
  693MPD2    H110304   0.195   1.136  10.454 -0.0233 -0.8405 -1.0185
  693MPD2    H210305   4.589   1.214  10.213  1.5833  1.1208 -0.3817
  693MPD2    H310306   0.091   1.177  10.236 -2.8165  0.2690 -1.6344
  693MPD2     N10307   0.079   1.135  10.681 -0.2764  0.4929 -0.2477
  693MPD2    H510308   0.180   1.122  10.678 -0.0773  1.6853  1.4367
  693MPD2    N110309   4.414   1.231  10.426  0.1035 -0.2303  0.3542
  693MPD2    H710310   4.375   1.240  10.519 -0.5072 -1.5178  0.2310
  694TMC3    C110311   4.194   1.209  10.363 -0.5336 -0.3588  0.0205
  694TMC3    C210312   4.150   1.087  10.331 -0.5412  0.5466 -0.1186
  694TMC3    C310313   4.097   1.017  10.433 -1.0585  0.1210  0.8866
  694TMC3    C410314   4.180   1.258  10.485 -0.3419 -0.2024  0.2128
  694TMC3    C510315   4.113   1.194  10.582  0.0514  0.8241  0.6738
  694TMC3    C610316   4.067   1.069  10.558  0.0721  0.0408 -0.5852
  694TMC3     C10317   4.330   1.233  10.317  0.0013 -0.1179  0.3230
  694TMC3     O10318   4.351   1.214  10.195 -0.4805  0.4437 -0.0805
  694TMC3     H10319   4.173   1.049  10.233  1.1808  0.5143  0.2859
  694TMC3    H110320   4.218   1.357  10.505  3.5122 -1.7047  0.2821
  694TMC3    H210321   4.014   1.004  10.627 -0.2259  0.0322 -0.8232
  694TMC3    C710322   4.163   1.230  10.715 -0.1008  0.0929  0.6623
  694TMC3    C810323   4.010   0.893  10.397 -0.3592 -0.1438 -0.2053
  694TMC3    O110324   4.257   1.310  10.726  0.4033 -0.5038 -0.1713
  694TMC3    O210325   3.991   0.806  10.481 -0.3169  0.1797 -0.6376
  695MPD2     C10326   1.222   3.163  13.245 -0.2182 -0.2109 -0.1133
  695MPD2    C110327   1.202   3.229  13.360  0.0007  0.7070  0.2197
  695MPD2    C210328   1.078   3.298  13.383 -0.0319 -0.1410 -0.3623
  695MPD2    C310329   0.975   3.285  13.294  0.0191 -0.0923 -0.1493
  695MPD2    C410330   0.999   3.219  13.169 -0.1323  0.0890 -0.2175
  695MPD2    C510331   1.119   3.158  13.153  0.0046 -0.2902 -0.3385
  695MPD2     H10332   1.070   3.351  13.477  2.2495 -1.1684  0.3909
  695MPD2    H110333   0.922   3.214  13.094  2.0542  0.0544 -2.4501
  695MPD2    H210334   1.313   3.110  13.219  0.3556 -0.1021  1.6686
  695MPD2    H310335   1.123   3.103  13.060 -4.5703 -3.2530  1.2231
  695MPD2     N10336   0.845   3.330  13.334 -0.3202 -0.1720 -0.0455
  695MPD2    H510337   0.840   3.383  13.420  1.4174 -2.4900  1.4646
  695MPD2    N110338   1.304   3.246  13.460 -0.1226  0.3009 -0.0138
  695MPD2    H710339   1.288   3.299  13.545  0.0352 -0.5176  0.5276
  696TMC3    C110340   0.614   3.372  13.332  0.9156 -0.8365  0.2447
  696TMC3    C210341   0.593   3.368  13.467 -0.0518 -0.6539 -0.0370
  696TMC3    C310342   0.500   3.450  13.524  0.0189  0.3304 -0.4949
  696TMC3    C410343   0.554   3.474  13.252  0.2572 -0.2935 -0.2014
  696TMC3    C510344   0.463   3.559  13.318 -0.3773 -0.3068  0.2232
  696TMC3    C610345   0.435   3.546  13.455 -0.6493  0.3374 -0.1832
  696TMC3     C10346   0.723   3.309  13.269 -0.4866 -0.0653 -0.0090
  696TMC3     O10347   0.700   3.260  13.160 -0.0943  0.0735 -0.3927
  696TMC3     H10348   0.647   3.294  13.524  1.0900 -0.4026 -0.7950
  696TMC3    H110349   0.589   3.495  13.151  0.8560  1.6502  0.4095
  696TMC3    H210350   0.358   3.601  13.509 -2.6804 -1.6500 -1.0383
  696TMC3    C710351   0.439   3.685  13.256  0.4804 -0.0688 -0.0590
  696TMC3    C810352   0.499   3.454  13.670 -0.4382  0.2792 -0.0244
  696TMC3    O110353   0.460   3.681  13.134 -0.4071 -0.5279 -0.3951
  696TMC3    O210354   0.491   3.353  13.737  0.3949 -1.5211 -0.8184
  697MPD2     C10355   0.075   0.557  15.933 -0.3445 -0.2512  0.6859
  697MPD2    C110356   0.086   0.554  15.798  0.3518 -0.5279 -0.6087
  697MPD2    C210357   0.116   0.671  15.732  0.4791  0.8780 -0.3359
  697MPD2    C310358   0.155   0.783  15.801 -0.0546 -0.1884 -0.4631
  697MPD2    C410359   0.148   0.783  15.940  0.0787  0.5054 -0.3141
  697MPD2    C510360   0.105   0.673  16.003  0.7157 -0.0331 -0.0543
  697MPD2     H10361   0.123   0.666  15.624  1.8135 -0.4815 -0.1861
  697MPD2    H110362   0.179   0.874  15.991 -0.7018  0.6922 -0.1837
  697MPD2    H210363   0.032   0.473  15.987  0.0742 -1.0677 -0.2504
  697MPD2    H310364   0.097   0.671  16.111 -3.0836  0.2595 -0.3382
  697MPD2     N10365   0.196   0.892  15.725  0.9142 -0.0124 -0.1368
  697MPD2    H510366   0.207   0.873  15.625 -0.0085 -0.5941 -0.1288
  697MPD2    N110367   0.064   0.441  15.712  0.1510  0.1884  0.1050
  697MPD2    H710368   0.046   0.467  15.616  1.2302  0.5764  0.0055
  698TMC3    C110369   0.261   1.100  15.660  0.4168  0.0752 -0.5032
  698TMC3    C210370   0.315   1.217  15.693  0.1170 -0.1423 -0.6754
  698TMC3    C310371   0.379   1.297  15.603  0.8355 -0.3662  0.0601
  698TMC3    C410372   0.286   1.051  15.533 -0.4393 -0.4177 -0.2449
  698TMC3    C510373   0.358   1.131  15.444 -0.3673 -0.2068 -0.0288
  698TMC3    C610374   0.411   1.257  15.474  0.7479  0.4610  0.2892
  698TMC3     C10375   0.223   1.016  15.770 -0.0423 -0.0256  0.9165
  698TMC3     O10376   0.229   1.058  15.887 -0.2723 -0.3609 -0.1848
  698TMC3     H10377   0.289   1.254  15.791  1.6608 -2.1027  0.4714
  698TMC3    H110378   0.227   0.970  15.493 -0.1548 -0.6686 -0.1654
  698TMC3    H210379   0.466   1.319  15.404  0.9204 -1.0244 -0.8944
  698TMC3    C710380   0.367   1.085  15.315  0.2554  0.2236 -0.3965
  698TMC3    C810381   0.426   1.426  15.653 -0.2630 -0.8371 -0.1639
  698TMC3    O110382   0.303   0.982  15.296  0.0094 -0.4828 -0.0021
  698TMC3    O210383   0.399   1.451  15.767 -0.6965 -0.3954  0.2948
  699TMC3    C110384   0.139   3.683  12.971  0.8852  0.2732 -0.0320
  699TMC3    C210385   0.172   3.576  13.050  0.6514  0.1826 -0.0899
  699TMC3    C310386   0.078   3.524  13.135  0.1161  0.1401 -0.0244
  699TMC3    C410387   0.015   3.737  12.976  0.3597 -0.0761  1.0449
  699TMC3    C510388   4.658   3.684  13.061 -0.1592  0.1624 -0.4536
  699TMC3    C610389   4.688   3.571  13.131  1.2042  0.1786  0.2849
  699TMC3     C10390   0.223   3.735  12.860 -0.3966  0.5361 -0.7746
  699TMC3     O10391   0.172   3.815  12.783  0.0040 -0.1895 -0.0538
  699TMC3     H10392   0.270   3.531  13.045  0.3832 -0.1361 -2.5146
  699TMC3    H110393   4.721   3.827  12.923  1.3231  0.2480  1.0504
  699TMC3    H210394   4.606   3.524  13.185  0.9966 -2.0356 -1.9278
  699TMC3    C710395   4.522   3.717  13.032 -0.6701  0.7941 -0.0631
  699TMC3    C810396   0.106   3.419  13.236  0.3580 -0.4207  0.6383
  699TMC3    O110397   4.493   3.835  13.013 -1.0921  0.1829  0.1494
  699TMC3    O210398   0.028   3.423  13.332  0.2926 -0.1665 -0.2057
  700TMC3    C110399   3.704   1.711  17.381 -0.3871  0.0465 -0.0186
  700TMC3    C210400   3.730   1.575  17.392  0.6730  0.1488  0.8437
  700TMC3    C310401   3.820   1.539  17.481 -0.3664  0.4855  0.0589
  700TMC3    C410402   3.767   1.791  17.460 -0.7400  0.3686 -0.2531
  700TMC3    C510403   3.844   1.755  17.562  0.0810  0.5364 -0.1706
  700TMC3    C610404   3.881   1.621  17.571 -1.3516  0.2332  0.7805
  700TMC3     C10405   3.673   1.752  17.244 -0.5860 -0.2996  0.4170
  700TMC3     O10406   3.563   1.729  17.191  0.1704 -0.3312 -0.2647
  700TMC3     H10407   3.690   1.507  17.318 -1.0083  0.4319  1.4802
  700TMC3    H110408   3.748   1.896  17.440  2.4612  1.1279  0.6958
  700TMC3    H210409   3.955   1.588  17.642 -0.7651 -0.1798 -0.0212
  700TMC3    C710410   3.931   1.852  17.625 -0.2522 -0.2355 -0.0420
  700TMC3    C810411   3.883   1.408  17.469 -0.9022 -0.0389 -0.0539
  700TMC3    O110412   4.037   1.817  17.677  0.2937  0.0978 -0.0899
  700TMC3    O210413   3.991   1.387  17.523  0.6984  0.4422 -0.3417
  701TMC3    C110414   3.596   0.141  15.480  0.1343  0.5417 -0.6292
  701TMC3    C210415   3.637   0.106  15.353  0.3884 -0.4186  0.2930
  701TMC3    C310416   3.744   0.174  15.313  0.0865 -0.4825  0.1615
  701TMC3    C410417   3.650   0.244  15.555 -0.4164 -0.3172 -0.0239
  701TMC3    C510418   3.753   0.315  15.498  0.7903  0.1129  0.4177
  701TMC3    C610419   3.809   0.278  15.380 -0.2894 -0.2767  0.2313
  701TMC3     C10420   3.484   0.073  15.540 -0.5781  0.2484 -0.5647
  701TMC3     O10421   3.473   0.080  15.664 -0.8353 -0.1707  0.4999
  701TMC3     H10422   3.602   0.018  15.301  1.5863 -0.3867 -0.5645
  701TMC3    H110423   3.593   0.279  15.641 -0.2282 -0.1161  0.0187
  701TMC3    H210424   3.888   0.327  15.324 -0.7863 -1.8554 -1.8511
  701TMC3    C710425   3.799   0.438  15.553 -0.1031 -0.0161 -0.2345
  701TMC3    C810426   3.814   0.126  15.197  0.9656  0.6485  0.4176
  701TMC3    O110427   3.864   0.510  15.475 -0.2319  0.0546 -1.0311
  701TMC3    O210428   3.933   0.147  15.201  0.4427 -0.1356  0.5414
  702MPD2     C10429   3.992   1.609  11.102  0.1724 -0.5536 -0.2283
  702MPD2    C110430   3.893   1.595  11.006 -0.1159 -0.2952 -0.3885
  702MPD2    C210431   3.894   1.679  10.895  0.4297  0.0800 -0.1573
  702MPD2    C310432   3.993   1.776  10.885 -0.1413  0.2371 -0.1209
  702MPD2    C410433   4.086   1.785  10.984  0.4560  0.4179  0.7545
  702MPD2    C510434   4.078   1.714  11.097 -0.2656 -0.2991 -0.2340
  702MPD2     H10435   3.815   1.679  10.820 -0.8857 -0.7524  1.2129
  702MPD2    H110436   4.161   1.863  10.988 -1.1566  2.0885 -1.6331
  702MPD2    H210437   4.002   1.546  11.190 -0.5752 -0.8176 -0.3394
  702MPD2    H310438   4.148   1.727  11.178 -0.5594 -0.7439  0.0900
  702MPD2     N10439   3.998   1.876  10.784  0.0766 -0.1680  0.4393
  702MPD2    H510440   4.054   1.958  10.804  1.5720 -0.5052 -2.4534
  702MPD2    N110441   3.777   1.520  11.037 -0.1429 -0.5936 -0.4609
  702MPD2    H710442   3.782   1.471  11.126 -0.3992  0.1914 -0.0046
  703TMC3    C110443   3.932   2.006  10.603  0.5654 -0.3757  0.0664
  703TMC3    C210444   3.836   2.026  10.507 -0.4527  0.0788 -1.0983
  703TMC3    C310445   3.845   2.142  10.435  0.4792  0.2365  0.1519
  703TMC3    C410446   4.040   2.093  10.623 -0.1536 -0.7394 -0.3625
  703TMC3    C510447   4.041   2.204  10.542  0.0376 -0.3300  0.6829
  703TMC3    C610448   3.950   2.226  10.445 -0.1625  0.4776  0.0094
  703TMC3     C10449   3.925   1.877  10.673  0.8691  0.4302  0.7450
  703TMC3     O10450   3.859   1.792  10.619  0.7407 -1.3838 -0.1000
  703TMC3     H10451   3.763   1.950  10.483 -1.2346  0.2540  0.7126
  703TMC3    H110452   4.103   2.071  10.708 -2.5799 -0.4512  1.5173
  703TMC3    H210453   3.951   2.319  10.388  0.9485 -0.2857 -1.2440
  703TMC3    C710454   4.153   2.284  10.554  0.3537  0.2258 -0.4603
  703TMC3    C810455   3.723   2.214  10.405  0.1539  0.1834 -0.1115
  703TMC3    O110456   4.178   2.357  10.460  0.3858 -0.3757 -0.3552
  703TMC3    O210457   3.740   2.309  10.331  0.1916  0.0572 -0.1202
  704TMC3    C110458   1.552   0.642  12.296 -0.6947  0.4204 -0.0867
  704TMC3    C210459   1.562   0.644  12.158 -0.1179  0.1897  0.3691
  704TMC3    C310460   1.650   0.563  12.087  0.9434 -0.0763  0.3491
  704TMC3    C410461   1.650   0.574  12.362 -0.1866 -0.0444 -0.2110
  704TMC3    C510462   1.752   0.515  12.291  0.0981  0.3932  0.1920
  704TMC3    C610463   1.749   0.505  12.160  0.1749 -0.6598 -0.5150
  704TMC3     C10464   1.420   0.614  12.347  0.5431  0.0587 -0.7958
  704TMC3     O10465   1.398   0.619  12.467  0.5935  0.2321  0.0758
  704TMC3     H10466   1.487   0.690  12.095  0.4939 -0.0258 -0.5115
  704TMC3    H110467   1.638   0.551  12.467  0.4868 -0.8034 -0.3009
  704TMC3    H210468   1.829   0.451  12.112 -0.3001 -2.4064  0.6606
  704TMC3    C710469   1.818   0.403  12.354  0.5382 -0.6363  0.4341
  704TMC3    C810470   1.570   0.463  12.017  0.0797 -0.4185 -0.6626
  704TMC3    O110471   1.763   0.330  12.436  0.3907  0.3692 -0.3122
  704TMC3    O210472   1.445   0.478  12.025 -0.2828 -0.3937  0.0227
  705MPD2     C10473   0.748   3.719  16.229 -0.3068  0.6985  0.7868
  705MPD2    C110474   0.642   3.706  16.140  0.0563  0.2918 -0.3428
  705MPD2    C210475   0.520   3.754  16.168 -0.5219 -0.1124 -0.4439
  705MPD2    C310476   0.486   3.788  16.298 -1.2657  0.4030  0.4619
  705MPD2    C410477   0.589   3.790  16.387 -0.6042 -0.2330 -0.1439
  705MPD2    C510478   0.719   3.764  16.356  0.2892  0.1341 -0.5695
  705MPD2     H10479   0.440   3.755  16.095  0.3120 -0.0622 -1.3665
  705MPD2    H110480   0.576   3.818  16.491 -1.5284  0.0420 -0.3397
  705MPD2    H210481   0.850   3.699  16.199 -1.1044 -1.2903 -0.6005
  705MPD2    H310482   0.792   3.753  16.436 -0.3067 -1.4874 -0.2705
  705MPD2     N10483   0.357   3.830  16.340  0.5294 -0.3108 -0.2581
  705MPD2    H510484   0.282   3.827  16.271 -0.1249  0.9118  0.4050
  705MPD2    N110485   0.674   3.678  16.001  0.0932 -0.0996  0.2558
  705MPD2    H710486   0.592   3.697  15.943  2.6177  0.4685 -3.1261
  706TMC3    C110487   0.963   3.594  15.650 -0.2592  0.2765 -0.2848
  706TMC3    C210488   0.950   3.715  15.604 -0.3655 -0.1173 -0.0906
  706TMC3    C310489   0.842   3.788  15.648 -0.2381 -0.4049  0.2610
  706TMC3    C410490   0.888   3.545  15.750 -0.4166 -0.8912  0.2756
  706TMC3    C510491   0.791   3.626  15.803 -0.0586 -0.4527 -0.2792
  706TMC3    C610492   0.762   3.749  15.744 -0.4091 -0.2104 -0.0683
  706TMC3     C10493   1.097   3.535  15.651 -0.0273 -0.4306  0.0016
  706TMC3     O10494   1.147   3.498  15.759  0.3827  0.3644  0.3904
  706TMC3     H10495   1.011   3.754  15.524 -0.1249  1.4380  0.8475
  706TMC3    H110496   0.914   3.453  15.802  1.6846 -0.7609 -0.5333
  706TMC3    H210497   0.690   3.823  15.779 -0.4742 -1.4869  2.4909
  706TMC3    C710498   0.791   3.626  15.947  0.4616  0.2129  0.8627
  706TMC3    C810499   0.866   3.923  15.615  0.3971  0.2812  0.1080
  706TMC3    O110500   0.875   3.550  15.999  0.5559 -0.3118 -0.3586
  706TMC3    O210501   0.852   3.959  15.499  0.0054  0.2373 -0.1941
  707TMC3    C110502   2.818   2.253   1.369 -0.1866  0.0960  0.0373
  707TMC3    C210503   2.892   2.182   1.457  0.3738 -0.3206  0.4267
  707TMC3    C310504   2.932   2.249   1.567 -0.3563 -0.6214  0.1849
  707TMC3    C410505   2.793   2.384   1.382  0.4015 -0.4185  0.4720
  707TMC3    C510506   2.839   2.444   1.491  0.5562  0.5379 -0.1176
  707TMC3    C610507   2.907   2.379   1.585  0.1802  0.1460  0.1377
  707TMC3     C10508   2.835   2.199   1.232  0.0731  0.3811 -0.6901
  707TMC3     O10509   2.830   2.074   1.227 -0.8085  0.5256 -0.3792
  707TMC3     H10510   2.905   2.077   1.434 -0.3377 -0.9496  2.8828
  707TMC3    H110511   2.720   2.431   1.317 -0.2715 -0.8477  0.9131
  707TMC3    H210512   2.941   2.435   1.671 -0.4791  0.2592  0.3208
  707TMC3    C710513   2.780   2.565   1.533  0.5352 -0.4504  0.4598
  707TMC3    C810514   3.031   2.182   1.659 -0.5434 -0.1340  0.4302
  707TMC3    O110515   2.757   2.581   1.654  0.1769 -0.2795 -0.3040
  707TMC3    O210516   3.081   2.249   1.749  0.9098 -0.4056 -0.0434
  708MPD2     C10517   3.801   1.705  13.913 -0.3934 -0.1623  0.8465
  708MPD2    C110518   3.779   1.567  13.916 -0.4385 -0.3062 -0.5479
  708MPD2    C210519   3.872   1.494  14.001  0.2686  0.1181  0.0693
  708MPD2    C310520   3.969   1.556  14.076 -0.7112 -0.0966 -0.8274
  708MPD2    C410521   3.992   1.690  14.063 -0.0135 -0.3018  0.2129
  708MPD2    C510522   3.904   1.757  13.984  0.2479 -0.1056 -0.1342
  708MPD2     H10523   3.868   1.386  14.000  2.8811  0.0240 -0.0029
  708MPD2    H110524   4.071   1.742  14.117 -0.7410  0.4251  0.5701
  708MPD2    H210525   3.737   1.760  13.846  1.6679 -0.1543 -1.0928
  708MPD2    H310526   3.910   1.865  13.996  1.2898 -0.3448  1.4833
  708MPD2     N10527   4.054   1.491  14.165 -0.0635  0.2194 -0.1279
  708MPD2    H510528   4.129   1.547  14.204 -0.1502 -0.3296  0.8167
  708MPD2    N110529   3.666   1.510  13.842 -0.1367 -0.1246  0.1056
  708MPD2    H710530   3.605   1.573  13.791  3.3402  2.0334 -1.3609
  709TMC3    C110531   3.516   1.349  13.793  0.2087 -0.3245 -0.1777
  709TMC3    C210532   3.500   1.253  13.703 -0.2470  0.3645 -0.1178
  709TMC3    C310533   3.398   1.166  13.720 -0.0727 -0.4792  0.0571
  709TMC3    C410534   3.431   1.370  13.901 -0.5520 -0.0145 -0.3561
  709TMC3    C510535   3.336   1.267  13.923 -0.2880  0.0329 -0.5741
  709TMC3    C610536   3.313   1.175  13.825 -0.3936  0.3318  0.3295
  709TMC3     C10537   3.648   1.377  13.828 -0.2019 -0.3875 -0.1001
  709TMC3     O10538   3.713   1.280  13.868 -0.1635 -0.0605  0.4009
  709TMC3     H10539   3.575   1.242  13.625 -0.4832  2.8790 -0.6946
  709TMC3    H110540   3.464   1.429  13.986 -2.2973  1.2201 -0.5351
  709TMC3    H210541   3.269   1.080  13.851 -1.4064  0.4197 -1.0666
  709TMC3    C710542   3.329   1.209  14.056  0.7375 -0.1193  0.3207
  709TMC3    C810543   3.349   1.077  13.613  0.2097  0.2871  0.5050
  709TMC3    O110544   3.241   1.122  14.084  0.2717 -0.2860  0.1659
  709TMC3    O210545   3.256   1.007  13.643 -0.0229 -0.5452 -0.5000
  710TMC3    C110546   4.293   3.650   0.047 -0.1293  0.4896  0.3248
  710TMC3    C210547   4.384   3.692  17.700  0.3854 -0.3953 -0.1991
  710TMC3    C310548   4.516   3.651  17.718 -0.8813 -1.0511  0.3548
  710TMC3    C410549   4.329   3.572   0.154 -0.4743 -0.7004  0.0351
  710TMC3    C510550   4.459   3.539   0.166  0.4034  0.4232 -0.2883
  710TMC3    C610551   4.553   3.569   0.074  0.6295  0.4071 -0.3843
  710TMC3     C10552   4.156   3.692   0.024  0.1728  0.1091  0.1789
  710TMC3     O10553   4.135   3.754  17.665  0.0080 -0.6561  0.0739
  710TMC3     H10554   4.361   3.744  17.608 -1.0850 -0.1517  0.3075
  710TMC3    H110555   4.267   3.541   0.238 -0.2535  0.8559  0.7779
  710TMC3    H210556   4.657   3.537   0.080  0.3528 -0.6241 -1.1354
  710TMC3    C710557   4.486   3.416   0.241  0.1876 -0.8331  0.4276
  710TMC3    C810558   4.618   3.687  17.626 -1.0230 -0.5215 -0.6140
  710TMC3    O110559   4.426   3.396   0.348  0.0118 -0.6543 -0.1952
  710TMC3    O210560   4.715   3.618  17.611  0.1532  0.2263 -0.6449
  711TMC3    C110561   4.582   4.386  14.376 -0.1254 -0.2911 -0.2575
  711TMC3    C210562   4.599   4.487  14.468 -0.2925 -0.2521  0.8888
  711TMC3    C310563   4.717   4.488  14.543  0.5728 -0.5435  0.5452
  711TMC3    C410564   4.669   4.282  14.361 -0.3363 -0.4226  0.0676
  711TMC3    C510565   0.048   4.284  14.437  0.5050  0.1322  0.4638
  711TMC3    C610566   0.073   4.387  14.527  0.0232 -0.0472 -0.3308
  711TMC3     C10567   4.448   4.352  14.330  0.0833 -0.0940 -0.0620
  711TMC3     O10568   4.445   4.269  14.240  0.6140  0.1853 -0.3434
  711TMC3     H10569   4.538   4.576  14.468 -1.2841 -0.9247 -0.8878
  711TMC3    H110570   4.653   4.194  14.300  2.9660 -0.6648 -0.4742
  711TMC3    H210571   0.136   4.370  14.614  0.1472 -2.6492 -0.9243
  711TMC3    C710572   0.109   4.158  14.483  0.8146  0.0801 -0.4290
  711TMC3    C810573   4.694   4.530  14.680  0.3179  0.2714  0.2043
  711TMC3    O110574   0.214   4.174  14.539  0.4124 -0.1084  0.2065
  711TMC3    O210575   4.587   4.584  14.708 -0.4024  0.6156 -0.5503
  712MPD2     C10576   2.069   0.352  13.797 -0.2393  0.5525 -0.6605
  712MPD2    C110577   1.952   0.359  13.869  0.7391  0.0942 -0.0615
  712MPD2    C210578   1.960   0.435  13.985  0.2723 -0.6834 -0.7800
  712MPD2    C310579   2.082   0.485  14.032  0.0034 -0.1014  0.6965
  712MPD2    C410580   2.202   0.447  13.976  0.2614  0.2721  0.0154
  712MPD2    C510581   2.191   0.371  13.856 -0.6638  0.4346  0.1339
  712MPD2     H10582   1.866   0.448  14.038  0.9220 -0.5843  0.3496
  712MPD2    H110583   2.302   0.476  14.004 -0.5130  0.9830  2.0064
  712MPD2    H210584   2.071   0.305  13.699  1.1825 -0.2411 -0.2484
  712MPD2    H310585   2.276   0.351  13.792 -1.2177  0.8950 -0.7360
  712MPD2     N10586   2.086   0.570  14.146  0.4286  0.1210  0.2608
  712MPD2    H510587   2.177   0.614  14.160  0.0999  0.4145  1.4680
  712MPD2    N110588   1.821   0.324  13.828 -0.1543  0.0542 -0.1855
  712MPD2    H710589   1.747   0.337  13.897 -0.8307 -1.7589 -0.5850
  713TMC3    C110590   1.989   0.758  14.262  0.1303  0.7059 -0.3705
  713TMC3    C210591   2.060   0.847  14.185 -0.1813 -0.1420 -0.5178
  713TMC3    C310592   2.033   0.978  14.193  0.0898  0.0627 -0.1322
  713TMC3    C410593   1.871   0.797  14.318 -0.0391 -0.0441 -0.0094
  713TMC3    C510594   1.842   0.928  14.312 -0.2294  0.1572  0.2658
  713TMC3    C610595   1.924   1.024  14.257  0.4384 -0.4716  0.1126
  713TMC3     C10596   1.981   0.616  14.220 -0.2076 -0.3334  0.1071
  713TMC3     O10597   1.872   0.561  14.248 -0.1673 -0.2555  0.0331
  713TMC3     H10598   2.139   0.819  14.117  1.2755 -1.4911  1.7370
  713TMC3    H110599   1.816   0.724  14.376  0.7698 -0.2310  0.5196
  713TMC3    H210600   1.908   1.130  14.269  0.8679 -0.5806  1.6637
  713TMC3    C710601   1.702   0.959  14.329 -0.5230 -0.8960  0.2307
  713TMC3    C810602   2.086   1.083  14.105 -0.3692  0.0060 -0.2883
  713TMC3    O110603   1.629   0.896  14.400 -0.8350  0.5877 -0.0623
  713TMC3    O210604   2.019   1.183  14.087  0.0233 -0.5219  0.5224
  714MPD2     C10605   3.077   4.158   1.565 -0.4759 -0.3706 -0.1897
  714MPD2    C110606   3.052   4.065   1.470 -0.8224 -0.6693  0.0842
  714MPD2    C210607   2.983   4.090   1.359 -0.4268 -0.0538  0.3962
  714MPD2    C310608   2.926   4.215   1.337  0.0333  0.0481  0.0371
  714MPD2    C410609   2.956   4.314   1.428 -0.2746  0.4549 -0.0705
  714MPD2    C510610   3.034   4.284   1.541  0.3762 -0.3794  0.1339
  714MPD2     H10611   2.969   4.012   1.284  1.2531  0.3252 -0.3056
  714MPD2    H110612   2.932   4.418   1.412 -0.2884  0.4401 -0.1431
  714MPD2    H210613   3.129   4.148   1.660 -0.8795  0.5310  0.1340
  714MPD2    H310614   3.064   4.365   1.607  0.0052 -2.0183  2.3046
  714MPD2     N10615   2.874   4.250   1.211  0.0116 -0.6289  0.3000
  714MPD2    H510616   2.853   4.181   1.140 -1.1008 -0.1559  0.1647
  714MPD2    N110617   3.092   3.932   1.506  0.4128  0.9026 -0.4467
  714MPD2    H710618   3.141   3.921   1.595 -0.3111  0.7957 -0.0652
  715TMC3    C110619   3.156   3.706   1.498  0.7271  0.7646 -0.4912
  715TMC3    C210620   3.213   3.607   1.425 -0.5756  0.1670  0.1617
  715TMC3    C310621   3.315   3.526   1.477  0.0767 -0.4029 -0.5110
  715TMC3    C410622   3.214   3.732   1.620  0.0844  0.5189  0.5631
  715TMC3    C510623   3.323   3.662   1.666  0.2970 -0.1863  0.4341
  715TMC3    C610624   3.374   3.550   1.601  0.2237  0.0086 -0.3462
  715TMC3     C10625   3.081   3.813   1.434 -0.2094 -0.8119  0.5564
  715TMC3     O10626   3.058   3.805   1.317 -0.9288 -0.0173  0.9880
  715TMC3     H10627   3.171   3.588   1.326 -1.8674 -0.5584  0.8429
  715TMC3    H110628   3.176   3.808   1.687  0.8830 -1.0148  2.7636
  715TMC3    H210629   3.474   3.519   1.627  0.4784  1.2922  0.2030
  715TMC3    C710630   3.424   3.744   1.732 -0.0609 -0.3803 -1.0239
  715TMC3    C810631   3.391   3.447   1.380 -0.1590  0.5066 -0.8981
  715TMC3    O110632   3.406   3.870   1.724 -0.3350 -0.6638  0.3889
  715TMC3    O210633   3.342   3.441   1.270 -0.0246 -0.8454 -0.0755
  716MPD2     C10634   3.004   2.213  10.007 -0.4667  0.2494  0.1630
  716MPD2    C110635   2.991   2.112   9.921  0.1655  0.4928  0.2418
  716MPD2    C210636   3.101   2.029   9.906  0.5724 -0.7611 -0.0897
  716MPD2    C310637   3.220   2.061   9.959 -0.3461  0.6992  0.1755
  716MPD2    C410638   3.235   2.167  10.044 -0.7122  0.5907 -0.1152
  716MPD2    C510639   3.124   2.241  10.062 -0.1133 -0.2453 -0.4210
  716MPD2     H10640   3.086   1.941   9.844 -0.7159 -0.9500  0.4875
  716MPD2    H110641   3.327   2.191  10.097  0.0048 -0.0321 -1.0672
  716MPD2    H210642   2.918   2.277  10.023 -0.1303  1.6254 -3.5109
  716MPD2    H310643   3.127   2.330  10.123 -1.3613 -0.1910 -0.4398
  716MPD2     N10644   3.335   1.972   9.943 -0.4963 -0.1282 -0.6501
  716MPD2    H510645   3.306   1.876   9.928  0.3025 -0.5775  0.6202
  716MPD2    N110646   2.871   2.097   9.850 -0.2302 -0.7658  0.7351
  716MPD2    H710647   2.805   2.172   9.869 -1.2966 -0.7507 -3.0126
  717TMC3    C110648   3.560   1.894   9.925  0.2522  0.3330 -0.2365
  717TMC3    C210649   3.506   1.782   9.861 -0.8857 -0.2891 -0.3982
  717TMC3    C310650   3.595   1.684   9.827  0.4994 -0.7869 -0.5766
  717TMC3    C410651   3.699   1.906   9.946  0.0109 -0.1110  0.6250
  717TMC3    C510652   3.780   1.800   9.913 -0.6469  0.2316  0.0119
  717TMC3    C610653   3.731   1.693   9.847 -0.4824  0.2270 -0.9445
  717TMC3     C10654   3.473   1.994   9.978 -0.2659  0.2847 -0.0974
  717TMC3     O10655   3.522   2.085  10.045 -0.4907  0.0586 -0.2999
  717TMC3     H10656   3.406   1.780   9.819 -1.1484 -0.2452  0.2243
  717TMC3    H110657   3.725   1.990  10.010  0.6681 -0.1475  0.4093
  717TMC3    H210658   3.791   1.637   9.776  1.1550 -0.7981  1.2324
  717TMC3    C710659   3.922   1.830   9.907 -0.0493  0.4164 -0.1112
  717TMC3    C810660   3.546   1.563   9.770  0.1363  0.0193 -0.4400
  717TMC3    O110661   3.952   1.942   9.872  0.4332 -0.2641  0.2795
  717TMC3    O210662   3.436   1.576   9.719  0.1418  0.3777 -0.2467
  718MPD2     C10663   2.826   0.548  12.458 -0.3587 -0.2040 -0.3963
  718MPD2    C110664   2.730   0.478  12.396  0.4472 -0.1943 -0.0464
  718MPD2    C210665   2.755   0.342  12.375 -0.3156  0.6987 -0.0764
  718MPD2    C310666   2.870   0.277  12.423 -0.3455 -0.1557 -0.5809
  718MPD2    C410667   2.965   0.353  12.485 -0.2705  0.1742  0.1909
  718MPD2    C510668   2.943   0.486  12.499  0.1195  0.0287  0.5396
  718MPD2     H10669   2.686   0.286  12.313  1.4058 -0.5388 -0.8574
  718MPD2    H110670   3.060   0.309  12.514 -0.7012 -0.8561  0.0532
  718MPD2    H210671   2.820   0.652  12.485 -0.4832 -0.5463  0.9195
  718MPD2    H310672   3.021   0.531  12.560  1.4192 -0.4519 -0.7646
  718MPD2     N10673   2.871   0.141  12.393 -0.4734 -0.4930 -0.0707
  718MPD2    H510674   2.787   0.105  12.348 -1.4722  0.2320  1.2380
  718MPD2    N110675   2.622   0.554  12.349  0.0480 -0.2038 -0.1655
  718MPD2    H710676   2.623   0.655  12.355 -0.2675 -0.1816 -0.5032
  719TMC3    C110677   2.452   0.619  12.184 -0.5719 -0.0425  0.3245
  719TMC3    C210678   2.417   0.543  12.073 -1.3020  0.1842  0.0128
  719TMC3    C310679   2.507   0.538  11.965  0.1729  0.4707 -0.1801
  719TMC3    C410680   2.530   0.729  12.165  0.3464 -0.1966  0.1113
  719TMC3    C510681   2.614   0.733  12.059  0.1742  0.7879  0.3655
  719TMC3    C610682   2.612   0.628  11.967  0.0399  0.5391 -0.1630
  719TMC3     C10683   2.515   0.512  12.270  0.4542  0.6287  0.6605
  719TMC3     O10684   2.493   0.393  12.248 -0.9166 -0.1551  0.0005
  719TMC3     H10685   2.351   0.459  12.090  0.1509 -1.0102 -0.2459
  719TMC3    H110686   2.541   0.811  12.235 -0.7013 -0.3533  0.4566
  719TMC3    H210687   2.687   0.625  11.889 -0.0677  0.5471 -0.2667
  719TMC3    C710688   2.753   0.785  12.080 -0.2304 -0.0949 -0.4445
  719TMC3    C810689   2.542   0.398  11.932 -1.0384  0.1536 -0.1497
  719TMC3    O110690   2.839   0.771  11.996 -0.1142  0.9591  0.3647
  719TMC3    O210691   2.665   0.382  11.922  0.5711 -0.0579  0.1817
  720MPD2     C10692   1.340   2.532  14.412  0.0340 -0.5389 -0.2645
  720MPD2    C110693   1.439   2.546  14.314 -0.1153  0.9273 -0.5228
  720MPD2    C210694   1.567   2.551  14.361 -0.0084 -0.2656 -0.5932
  720MPD2    C310695   1.610   2.571  14.495 -0.2554  0.0723 -0.0446
  720MPD2    C410696   1.512   2.559  14.584 -0.5629 -0.1857  0.3399
  720MPD2    C510697   1.378   2.541  14.544  0.1453  0.4545 -0.2215
  720MPD2     H10698   1.645   2.580  14.291 -0.2108 -1.8099 -1.4660
  720MPD2    H110699   1.529   2.568  14.691  1.8828  1.5182 -0.2082
  720MPD2    H210700   1.236   2.510  14.394 -0.9080  1.6772  2.3649
  720MPD2    H310701   1.308   2.526  14.626 -2.1006  0.6535 -2.0861
  720MPD2     N10702   1.750   2.593  14.526 -0.0727  0.8379 -0.6314
  720MPD2    H510703   1.815   2.588  14.447  0.1954 -2.4091 -0.2047
  720MPD2    N110704   1.407   2.541  14.176 -0.1899 -0.0736 -0.6204
  720MPD2    H710705   1.482   2.505  14.118  0.0259 -0.0760 -0.3394
  721TMC3    C110706   1.952   2.634  14.641 -0.0867  0.6153  0.6280
  721TMC3    C210707   2.013   2.706  14.739  0.1080 -0.6235  0.2664
  721TMC3    C310708   2.144   2.681  14.771  0.0241  0.2839 -0.1816
  721TMC3    C410709   2.022   2.531  14.580 -1.0429  0.0339 -0.2313
  721TMC3    C510710   2.161   2.529  14.599  0.1975 -0.8193 -0.0535
  721TMC3    C610711   2.225   2.600  14.693  0.2217 -0.1665  0.7401
  721TMC3     C10712   1.804   2.628  14.645  0.1047 -0.3006  0.1236
  721TMC3     O10713   1.746   2.659  14.747  0.6055  0.4230  0.5946
  721TMC3     H10714   1.944   2.768  14.795 -0.9940 -0.3432 -1.3644
  721TMC3    H110715   1.983   2.471  14.498  0.4635 -0.2669 -0.7224
  721TMC3    H210716   2.325   2.566  14.716 -0.1999 -1.5718  0.5147
  721TMC3    C710717   2.256   2.436  14.540  0.4522 -0.1328 -0.2846
  721TMC3    C810718   2.197   2.717  14.906  0.1180  0.7876 -0.3360
  721TMC3    O110719   2.325   2.477  14.448  0.0615 -0.2514  0.9504
  721TMC3    O210720   2.297   2.656  14.942 -0.6639 -0.3922  0.0424
  722MPD2     C10721   0.562   0.959  13.693 -0.0413 -0.5866 -0.6647
  722MPD2    C110722   0.590   1.084  13.638  0.0427 -0.3147 -0.2955
  722MPD2    C210723   0.494   1.144  13.559  0.5125  0.4378  0.3736
  722MPD2    C310724   0.365   1.085  13.542  0.3336 -0.5872  0.9363
  722MPD2    C410725   0.343   0.963  13.602 -0.1883 -0.6805  0.1800
  722MPD2    C510726   0.445   0.900  13.676 -0.1992  0.8559  0.1951
  722MPD2     H10727   0.509   1.246  13.524 -0.6209  0.4179 -0.1889
  722MPD2    H110728   0.248   0.916  13.581  0.1516 -0.7892 -1.1050
  722MPD2    H210729   0.637   0.911  13.755  1.2560  0.4447 -1.4324
  722MPD2    H310730   0.423   0.807  13.727  2.1584  0.6300  0.7901
  722MPD2     N10731   0.256   1.167  13.486 -0.0843 -0.4583 -0.2891
  722MPD2    H510732   0.291   1.234  13.418 -0.4140  0.0996  0.0927
  722MPD2    N110733   0.712   1.155  13.660 -0.7469  0.5322 -0.2250
  722MPD2    H710734   0.715   1.248  13.620  0.9390  1.6225  2.4665
  723TMC3    C110735   0.041   1.229  13.415 -0.6061  0.8381  1.0482
  723TMC3    C210736   0.061   1.206  13.277 -0.1739  0.4294 -0.1459
  723TMC3    C310737   4.691   1.195  13.192  0.2139  0.6464 -0.2031
  723TMC3    C410738   4.652   1.261  13.461  0.8827  0.7692 -0.6251
  723TMC3    C510739   4.550   1.253  13.365 -0.2583 -0.0489 -0.0745
  723TMC3    C610740   4.567   1.232  13.231  0.1074  0.2135  0.4632
  723TMC3     C10741   0.123   1.152  13.515 -0.1655  0.9832  0.4308
  723TMC3     O10742   0.068   1.089  13.603  0.4599  0.4394  0.2441
  723TMC3     H10743   0.156   1.162  13.248  1.7858  1.7073  4.2393
  723TMC3    H110744   4.623   1.248  13.565 -2.3732  0.5689 -1.5651
  723TMC3    H210745   4.484   1.237  13.161  1.1533 -0.1785 -0.8025
  723TMC3    C710746   4.410   1.286  13.398 -0.4956  0.3448  1.0498
  723TMC3    C810747   4.711   1.145  13.061 -0.3451 -0.3789 -0.3421
  723TMC3    O110748   4.324   1.234  13.335 -0.1490 -0.1316 -0.0119
  723TMC3    O210749   4.645   1.201  12.972  0.8950  0.4496  1.0235
  724TMC3    C110750   0.280   3.876  10.398  0.0526 -0.4398 -0.4042
  724TMC3    C210751   0.319   3.925  10.272 -0.2797  0.7291 -0.2617
  724TMC3    C310752   0.408   4.030  10.279  0.2965 -0.0068 -0.5373
  724TMC3    C410753   0.332   3.914  10.515  0.0609  1.0556  0.6747
  724TMC3    C510754   0.439   4.004  10.517 -0.8819 -0.0391 -0.1668
  724TMC3    C610755   0.478   4.061  10.399  0.4604  0.0048 -0.4528
  724TMC3     C10756   0.159   3.803  10.400 -0.1860  0.2231 -0.0179
  724TMC3     O10757   0.087   3.799  10.500 -0.2504  0.5051 -0.5068
  724TMC3     H10758   0.259   3.913  10.182  2.0677 -1.8959 -1.4557
  724TMC3    H110759   0.305   3.866  10.608 -0.9773 -0.5011 -0.4102
  724TMC3    H210760   0.557   4.135  10.392 -0.4188  1.1563  2.0782
  724TMC3    C710761   0.457   4.079  10.639  0.3312  0.1064 -0.6523
  724TMC3    C810762   0.452   4.092  10.156 -0.3513 -0.1251  1.1222
  724TMC3    O110763   0.484   4.195  10.612 -0.3394  0.6737  0.7517
  724TMC3    O210764   0.424   4.039  10.050  0.3957  0.3651 -0.4448
  725TMC3    C110765   2.344   2.509  12.511 -0.4900 -0.2052  0.0206
  725TMC3    C210766   2.221   2.544  12.551  0.0975 -0.2935 -0.0486
  725TMC3    C310767   2.151   2.453  12.628  0.1258  0.5526  0.2505
  725TMC3    C410768   2.394   2.379  12.542  0.2983  0.3201  0.8060
  725TMC3    C510769   2.322   2.297  12.622  0.3982 -0.4821  0.3654
  725TMC3    C610770   2.192   2.326  12.671 -0.5027  0.6002 -0.3673
  725TMC3     C10771   2.401   2.585  12.402 -0.4208  0.6668  0.0067
  725TMC3     O10772   2.375   2.705  12.396 -0.2608  0.4260  0.1666
  725TMC3     H10773   2.173   2.636  12.523 -1.2683 -1.4719 -1.5922
  725TMC3    H110774   2.494   2.352  12.509 -0.4693 -0.6558 -0.7258
  725TMC3    H210775   2.139   2.264  12.742 -1.4433 -0.5779 -2.0944
  725TMC3    C710776   2.352   2.161  12.598  0.7714 -0.3785  0.5624
  725TMC3    C810777   2.029   2.493  12.687  0.5349  0.3481  0.3086
  725TMC3    O110778   2.467   2.137  12.580  0.2715  0.2173  0.2769
  725TMC3    O210779   2.018   2.452  12.805  0.0090  0.6054  0.2018
  726MPD2     C10780   4.365   3.999  10.027 -0.6536  0.7519  0.0693
  726MPD2    C110781   4.255   4.075  10.001  0.1093 -0.4958  0.8978
  726MPD2    C210782   4.138   4.017  10.021 -0.0449 -0.5193 -0.4125
  726MPD2    C310783   4.122   3.886  10.073  0.7231 -0.0382  0.1478
  726MPD2    C410784   4.232   3.807  10.087  0.0303  0.6720  0.9212
  726MPD2    C510785   4.353   3.868  10.062  0.0392 -0.5315  0.5936
  726MPD2     H10786   4.045   4.072  10.008 -1.0108 -2.2494 -0.9628
  726MPD2    H110787   4.209   3.703  10.108  2.1616  0.2867  1.3229
  726MPD2    H210788   4.466   4.029  10.003 -0.9302  0.4588 -1.4934
  726MPD2    H310789   4.440   3.803  10.059  1.9877  1.9489  3.0967
  726MPD2     N10790   3.999   3.815  10.084  0.0322 -0.2930 -0.1029
  726MPD2    H510791   4.011   3.714  10.090 -0.0525 -0.3937 -1.6182
  726MPD2    N110792   4.258   4.205   9.941  0.2570  0.1574 -0.7163
  726MPD2    H710793   4.170   4.247   9.915 -0.7439 -0.6298  1.4218
  727TMC3    C110794   4.341   4.431   9.901 -0.3230 -0.0689 -0.5645
  727TMC3    C210795   4.416   4.533   9.946  0.3920 -0.1314  0.0675
  727TMC3    C310796   4.385   4.662   9.908 -0.0906  0.2446 -0.5229
  727TMC3    C410797   4.248   4.448   9.805  0.8052  0.4894 -0.1842
  727TMC3    C510798   4.220   4.573   9.764 -0.3179  0.3519  0.6561
  727TMC3    C610799   4.286   4.688   9.815 -0.1107 -0.1469 -0.0381
  727TMC3     C10800   4.365   4.297   9.955  0.5474  0.0844 -0.2570
  727TMC3     O10801   4.471   4.285  10.013 -0.2313 -0.1540 -0.4470
  727TMC3     H10802   4.483   4.524  10.030 -1.4783  3.2346  1.9278
  727TMC3    H110803   4.197   4.364   9.760  0.4575  0.9726 -0.7005
  727TMC3    H210804   4.272   0.048   9.768  3.1404 -0.3630 -1.4701
  727TMC3    C710805   4.152   4.586   9.637  0.3830  0.3591  0.6985
  727TMC3    C810806   4.430   0.036   9.996  0.1757  0.2471  0.0491
  727TMC3    O110807   4.077   4.682   9.615 -0.1625  0.6986 -0.7933
  727TMC3    O210808   4.486   0.003  10.101 -0.4754  0.0839 -0.1563
  728TMC3    C110809   3.726   2.791  14.959 -0.5380 -0.2963 -0.2638
  728TMC3    C210810   3.797   2.860  15.059  0.3988  0.9484  0.1370
  728TMC3    C310811   3.920   2.898  15.037  0.3517 -0.8444  0.6823
  728TMC3    C410812   3.792   2.749  14.852 -0.1757  0.0107 -0.0477
  728TMC3    C510813   3.915   2.805  14.828  0.3505  0.0135  0.0460
  728TMC3    C610814   3.986   2.878  14.921  0.3275 -0.9861 -0.3438
  728TMC3     C10815   3.582   2.769  14.958  0.6917 -0.8231  0.0121
  728TMC3     O10816   3.519   2.745  14.857  0.0652 -0.0406 -0.0777
  728TMC3     H10817   3.743   2.904  15.142 -1.0591 -0.2415 -0.1931
  728TMC3    H110818   3.739   2.691  14.776  0.5261  1.4217 -1.6032
  728TMC3    H210819   4.088   2.905  14.896  0.3095 -1.2088 -0.6659
  728TMC3    C710820   3.955   2.804  14.689  0.1650  0.0111 -0.1016
  728TMC3    C810821   3.968   3.013  15.109 -0.0338 -0.2477  0.7156
  728TMC3    O110822   3.935   2.701  14.627 -0.5777  0.3633 -0.5303
  728TMC3    O210823   3.877   3.084  15.149 -0.2332 -0.2086 -1.2768
  729MPD2     C10824   0.840   4.546  16.177  0.0388 -0.0400 -0.8273
  729MPD2    C110825   0.896   4.657  16.225 -0.1772  0.3235 -0.1592
  729MPD2    C210826   0.905   4.675  16.362 -0.3046 -0.1535  0.4976
  729MPD2    C310827   0.875   4.571  16.444  0.5662 -0.1712 -0.0474
  729MPD2    C410828   0.818   4.457  16.393  0.1212  0.3971  0.5379
  729MPD2    C510829   0.803   4.441  16.259 -0.2622  0.5553 -0.2911
  729MPD2     H10830   0.950   0.031  16.396  1.4054 -0.6206 -0.4508
  729MPD2    H110831   0.792   4.372  16.455  1.5368 -1.4223 -1.3905
  729MPD2    H210832   0.824   4.523  16.072  2.0432  1.7807 -1.5364
  729MPD2    H310833   0.763   4.351  16.215  0.3714  0.6422 -1.0419
  729MPD2     N10834   0.907   4.577  16.585  0.8251  0.1000  0.6434
  729MPD2    H510835   0.909   4.489  16.636  0.6538 -0.2129  0.1159
  729MPD2    N110836   0.956   0.009  16.134 -0.4656  0.2808  0.2367
  729MPD2    H710837   0.966   4.722  16.035  2.0206  2.0926  0.0318
  730TMC3    C110838   1.009   4.674  16.765 -0.3334  0.6126 -0.1324
  730TMC3    C210839   1.138   4.626  16.747 -0.3920  0.1033  0.2760
  730TMC3    C310840   1.242   4.678  16.830 -0.3363 -0.1211 -0.1333
  730TMC3    C410841   0.989   0.037  16.857  0.2676  0.1068 -0.7895
  730TMC3    C510842   1.080   0.071  16.947  0.7388 -0.4047  0.2208
  730TMC3    C610843   1.207   0.028  16.932 -0.8704  0.8348 -0.1892
  730TMC3     C10844   0.928   4.694  16.647 -0.3297 -0.1983 -1.0071
  730TMC3     O10845   0.897   0.070  16.619  0.2994  0.1134 -0.5570
  730TMC3     H10846   1.152   4.553  16.668 -0.3445  2.2674 -1.7171
  730TMC3    H110847   0.895   0.092  16.848  1.2229  1.8744  0.0463
  730TMC3    H210848   1.283   0.066  16.999  1.1324 -0.6187 -1.6559
  730TMC3    C710849   1.059   0.209  16.996 -0.2521  0.1462 -0.3004
  730TMC3    C810850   1.380   4.671  16.778  0.4345 -0.0653 -0.7529
  730TMC3    O110851   1.015   0.289  16.917 -0.3200 -0.1954  0.4142
  730TMC3    O210852   1.386   4.601  16.680  0.0418  0.5206 -0.2343
  731MPD2     C10853   1.646   2.350  12.352 -0.0943 -0.9786  0.5087
  731MPD2    C110854   1.769   2.288  12.373  0.7834 -0.5348 -0.1991
  731MPD2    C210855   1.791   2.233  12.500  0.8088  0.1275  0.0573
  731MPD2    C310856   1.700   2.258  12.608 -0.6349  0.2389 -0.5768
  731MPD2    C410857   1.575   2.304  12.582 -0.1076 -0.5652 -0.0084
  731MPD2    C510858   1.552   2.349  12.451  0.0841 -0.2792 -0.2404
  731MPD2     H10859   1.881   2.176  12.522 -0.0004 -1.0586  0.2593
  731MPD2    H110860   1.499   2.323  12.657 -1.5880 -1.4488 -1.2799
  731MPD2    H210861   1.632   2.406  12.260 -1.2999  1.3297  2.1219
  731MPD2    H310862   1.462   2.400  12.418 -1.3175 -1.4440  1.7971
  731MPD2     N10863   1.734   2.207  12.729  0.4832 -0.3190  0.1482
  731MPD2    H510864   1.827   2.172  12.747  0.3866 -1.1477 -0.9575
  731MPD2    N110865   1.859   2.267  12.263  0.3322  0.7165  0.5326
  731MPD2    H710866   1.831   2.305  12.173  0.9099  0.5489  0.2828
  732TMC3    C110867   2.063   2.211  12.139  0.5378  0.9822 -0.7616
  732TMC3    C210868   1.987   2.171  12.033  0.4407  0.4279 -0.5367
  732TMC3    C310869   2.058   2.143  11.920 -0.0040 -0.1703  0.2058
  732TMC3    C410870   2.201   2.205  12.148  0.2367 -0.1654 -0.2634
  732TMC3    C510871   2.264   2.181  12.025  0.0683  0.1711  0.7889
  732TMC3    C610872   2.195   2.154  11.910  0.4245 -0.3921 -0.2662
  732TMC3     C10873   1.993   2.235  12.268  0.0970  0.0225  0.4769
  732TMC3     O10874   2.057   2.224  12.368  0.3144  0.2966 -0.4244
  732TMC3     H10875   1.880   2.158  12.043  0.4690  1.3821  1.1392
  732TMC3    H110876   2.252   2.229  12.240  2.3018 -0.5108 -1.3112
  732TMC3    H210877   2.246   2.113  11.823  0.1789  0.9679 -1.0598
  732TMC3    C710878   2.392   2.112  12.029 -0.4244  0.7724  1.1247
  732TMC3    C810879   1.996   2.069  11.814 -0.3386 -0.5266  0.5207
  732TMC3    O110880   2.414   2.043  12.129  0.2160  0.2278 -0.3293
  732TMC3    O210881   2.047   2.082  11.703 -0.3922  0.6713 -0.0468
  733TMC3    C110882   2.805   4.460  12.491  0.6824 -0.0152  0.2776
  733TMC3    C210883   2.904   4.556  12.509  0.1361  0.5648 -0.0630
  733TMC3    C310884   2.918   4.648  12.409  0.8925 -0.3007 -0.2621
  733TMC3    C410885   2.744   4.446  12.367  0.0547 -0.3571 -0.2326
  733TMC3    C510886   2.762   4.539  12.267  0.3184  0.2324 -0.2916
  733TMC3    C610887   2.854   4.642  12.284  0.2298  0.9313  1.0985
  733TMC3     C10888   2.708   4.474  12.599  0.2780 -0.4334 -0.2865
  733TMC3     O10889   2.706   4.587  12.643 -0.1541 -0.3327 -0.4588
  733TMC3     H10890   2.947   4.569  12.607 -1.5782 -1.5456  0.9469
  733TMC3    H110891   2.672   4.365  12.356  0.6453 -0.8297 -0.5976
  733TMC3    H210892   2.874   4.711  12.203 -0.5528 -0.4029 -0.2374
  733TMC3    C710893   2.640   4.554  12.195 -0.1318 -0.1903  0.4473
  733TMC3    C810894   2.947   0.048  12.452 -0.5637  0.4756  0.1370
  733TMC3    O110895   2.547   4.480  12.214 -0.3444  0.0948  0.4422
  733TMC3    O210896   2.995   0.054  12.561 -0.1379 -0.5541 -0.5961
  734MPD2     C10897   4.510   1.953  12.545  0.7721 -0.3875 -0.0002
  734MPD2    C110898   4.490   1.900  12.420  0.0789  0.3207  0.2447
  734MPD2    C210899   4.539   1.974  12.311 -0.0491 -0.0245  0.0521
  734MPD2    C310900   4.578   2.105  12.329 -0.1354  0.5053 -0.1827
  734MPD2    C410901   4.580   2.162  12.461 -0.1009  0.5328 -0.2806
  734MPD2    C510902   4.544   2.081  12.567  0.0692 -0.4846 -0.4119
  734MPD2     H10903   4.547   1.935  12.210 -1.3322 -1.6298  0.5608
  734MPD2    H110904   4.623   2.253  12.500  2.0267  0.3844 -2.2923
  734MPD2    H210905   4.480   1.898  12.633  0.4205 -0.3897 -0.1177
  734MPD2    H310906   4.539   2.130  12.663  2.0350 -1.0908  0.0129
  734MPD2     N10907   4.619   2.174  12.209 -0.2676  0.1741  0.0637
  734MPD2    H510908   4.646   2.116  12.130 -0.4323  0.6273 -0.3299
  734MPD2    N110909   4.426   1.778  12.405  0.3901  0.4869  0.4984
  734MPD2    H710910   4.404   1.724  12.488 -0.8098 -0.3775 -0.3903
  735TMC3    C110911   4.345   1.585  12.304 -0.2573  0.1144 -0.1643
  735TMC3    C210912   4.296   1.543  12.181 -0.6174  0.2633 -0.5431
  735TMC3    C310913   4.359   1.451  12.102 -0.0016  0.2205  0.1437
  735TMC3    C410914   4.446   1.510  12.359 -0.5466  1.3496  0.0976
  735TMC3    C510915   4.502   1.415  12.280 -0.2069 -1.0109 -0.7545
  735TMC3    C610916   4.458   1.378  12.158 -0.4928  0.0366  0.2282
  735TMC3     C10917   4.389   1.718  12.286  0.3167  0.3475 -0.4582
  735TMC3     O10918   4.380   1.771  12.175  0.2549  0.5430  0.2054
  735TMC3     H10919   4.227   1.614  12.137  1.2181  2.1984 -0.2748
  735TMC3    H110920   4.505   1.543  12.444 -0.8000 -0.0855  0.8288
  735TMC3    H210921   4.525   1.318  12.097 -0.2786  1.5327 -1.0350
  735TMC3    C710922   4.645   1.431  12.284 -0.2330 -0.0779  0.3413
  735TMC3    C810923   4.382   1.488  11.965  0.0676 -0.1721 -0.4278
  735TMC3    O110924   4.690   1.547  12.280  0.4076 -0.0117 -0.0574
  735TMC3    O210925   4.393   1.405  11.881 -0.3690 -0.6466  0.4646
  736MPD2     C10926   0.153   1.196  12.369  0.2233  0.5418 -0.0420
  736MPD2    C110927   0.114   1.307  12.315  0.4446  0.7195  0.5671
  736MPD2    C210928   0.209   1.407  12.293  0.0677  0.6924  0.5240
  736MPD2    C310929   0.342   1.386  12.316  0.4998  0.1409  0.2129
  736MPD2    C410930   0.386   1.260  12.347 -0.2637  0.4553  0.7403
  736MPD2    C510931   0.288   1.167  12.386  0.0511  0.0307  0.5293
  736MPD2     H10932   0.173   1.503  12.259  1.7183  1.4486  0.8782
  736MPD2    H110933   0.491   1.235  12.359  0.2443  2.1671 -0.1590
  736MPD2    H210934   0.097   1.113  12.408  1.8414  0.5805  2.3550
  736MPD2    H310935   0.317   1.079  12.442  0.6637 -0.8745 -1.1998
  736MPD2     N10936   0.441   1.479  12.287  0.6264  0.1620 -0.2191
  736MPD2    H510937   0.537   1.448  12.272  0.5158  0.6665 -1.9972
  736MPD2    N110938   4.714   1.316  12.301  0.1530 -0.1407  0.6668
  736MPD2    H710939   4.653   1.235  12.307  0.1853 -0.0904  1.7742
  737TMC3    C110940   0.533   1.684  12.220 -0.3781  0.4426  0.5188
  737TMC3    C210941   0.526   1.819  12.224 -0.2100  0.4227 -0.6302
  737TMC3    C310942   0.599   1.896  12.131 -0.1491 -0.4451  0.2658
  737TMC3    C410943   0.616   1.620  12.123 -0.6922 -0.1790  0.3589
  737TMC3    C510944   0.673   1.699  12.026 -0.3628 -0.3721  0.4002
  737TMC3    C610945   0.663   1.838  12.024 -0.7548  0.5145 -0.6844
  737TMC3     C10946   0.418   1.611  12.274  0.7791 -0.4712 -0.9998
  737TMC3     O10947   0.315   1.675  12.296 -0.3078  0.0955 -0.0772
  737TMC3     H10948   0.456   1.867  12.291 -0.2831  1.4102 -1.4183
  737TMC3    H110949   0.618   1.512  12.113 -0.2087 -0.1361 -0.0293
  737TMC3    H210950   0.715   1.899  11.952  0.1695  1.9433  1.1944
  737TMC3    C710951   0.743   1.624  11.925 -1.1265  0.1920 -0.4156
  737TMC3    C810952   0.584   2.038  12.138 -0.3471 -0.5000  0.3849
  737TMC3    O110953   0.769   1.506  11.940 -0.1114 -0.3769 -0.1103
  737TMC3    O210954   0.565   2.080  12.254  0.7088  1.0236  0.6871
  738MPD2     C10955   0.632   1.621  15.749  0.4096 -0.0080 -0.3108
  738MPD2    C110956   0.583   1.603  15.613 -0.1551 -0.0623  0.3239
  738MPD2    C210957   0.622   1.694  15.521  0.1705  0.4388 -0.3745
  738MPD2    C310958   0.698   1.803  15.559  0.5388  0.0623  0.0919
  738MPD2    C410959   0.745   1.817  15.690 -0.2541  1.0638  0.5565
  738MPD2    C510960   0.707   1.728  15.783 -0.0942 -0.1867  0.5042
  738MPD2     H10961   0.577   1.697  15.423  1.2706  2.4394 -0.8283
  738MPD2    H110962   0.791   1.911  15.716  0.6253  0.9985 -0.7834
  738MPD2    H210963   0.601   1.553  15.828 -0.9701  2.5109  1.2983
  738MPD2    H310964   0.734   1.735  15.888 -1.3997  0.9223  0.7639
  738MPD2     N10965   0.734   1.907  15.470  0.9236  0.8138  0.2579
  738MPD2    H510966   0.802   1.976  15.500  2.7220 -0.9462  0.2756
  738MPD2    N110967   0.497   1.502  15.570  0.2545 -0.5871 -0.3743
  738MPD2    H710968   0.493   1.483  15.470  1.3522 -0.9943 -0.3435
  739TMC3    C110969   0.765   2.021  15.271 -0.1750  0.1352 -0.1085
  739TMC3    C210970   0.792   1.994  15.145  0.0035  0.3915 -0.6674
  739TMC3    C310971   0.853   2.093  15.068 -0.1954  0.1771 -0.0833
  739TMC3    C410972   0.791   2.144  15.333  0.1912 -0.1708 -0.4471
  739TMC3    C510973   0.850   2.237  15.257  0.6342 -0.8633 -0.4850
  739TMC3    C610974   0.890   2.217  15.124 -0.2577  0.6101 -0.5358
  739TMC3     C10975   0.690   1.915  15.338  0.4432  0.2180  0.5522
  739TMC3     O10976   0.601   1.866  15.273 -0.0082 -0.9321 -0.0007
  739TMC3     H10977   0.766   1.900  15.098  1.5367 -1.7590  2.7548
  739TMC3    H110978   0.762   2.165  15.436 -0.0090 -1.1375 -0.3042
  739TMC3    H210979   0.918   2.305  15.068 -1.8765  1.3352 -0.2340
  739TMC3    C710980   0.850   2.366  15.312  0.2028 -0.2543 -0.2752
  739TMC3    C810981   0.915   2.064  14.937 -0.8668  0.1538  0.1569
  739TMC3    O110982   0.797   2.391  15.422 -0.0141  0.1502 -0.3476
  739TMC3    O210983   0.857   1.977  14.875 -0.0019 -0.1005  0.0641
  740TMC3    C110984   1.030   2.788  14.564  0.8734  0.7279  0.5288
  740TMC3    C210985   1.060   2.766  14.693 -0.1327 -0.0294  0.0584
  740TMC3    C310986   1.189   2.786  14.734  0.1801 -0.1322  0.3522
  740TMC3    C410987   1.123   2.826  14.472 -0.8626  0.1977 -0.5182
  740TMC3    C510988   1.245   2.866  14.522  0.4347 -0.5416 -1.1537
  740TMC3    C610989   1.278   2.839  14.650  0.0206  0.2955 -0.4246
  740TMC3     C10990   0.893   2.762  14.514 -0.1297  0.4745 -0.1599
  740TMC3     O10991   0.881   2.765  14.393  0.4402 -0.4803 -0.3173
  740TMC3     H10992   1.005   2.697  14.756  1.3924 -0.5151  0.8608
  740TMC3    H110993   1.094   2.846  14.370 -0.9756  1.0615 -0.3140
  740TMC3    H210994   1.385   2.854  14.664  0.2548  2.3145 -4.1885
  740TMC3    C710995   1.352   2.910  14.433  0.4487  0.0582  0.7832
  740TMC3    C810996   1.253   2.704  14.838 -0.2836  0.1477  0.1642
  740TMC3    O110997   1.436   2.981  14.482 -0.0456 -0.8365  0.0528
  740TMC3    O210998   1.208   2.591  14.823  0.3051 -0.4981  0.3600
  741TMC3    C110999   0.693   2.277  14.734  0.3069 -0.6969  0.4245
  741TMC3    C211000   0.610   2.168  14.718 -0.5893  0.9900  0.4913
  741TMC3    C311001   0.531   2.137  14.821 -0.5187  0.1502  0.4318
  741TMC3    C411002   0.688   2.356  14.843  0.3505  0.5057  0.9018
  741TMC3    C511003   0.604   2.320  14.943 -0.1925 -0.0584 -0.2838
  741TMC3    C611004   0.516   2.219  14.926 -0.4657  0.5277 -0.2245
  741TMC3     C11005   0.777   2.322  14.619  0.0249  0.9024  0.2630
  741TMC3     O11006   0.888   2.361  14.649 -0.0142  0.4186 -0.2034
  741TMC3     H11007   0.615   2.102  14.632  1.4810  2.4077 -0.5110
  741TMC3    H111008   0.751   2.443  14.855  2.3407 -0.5447 -1.9299
  741TMC3    H211009   0.437   2.199  14.998  0.8490 -2.4373  0.3823
  741TMC3    C711010   0.575   2.423  15.042 -0.4772  0.2578 -0.1471
  741TMC3    C811011   0.436   2.030  14.792 -0.2566 -0.2311 -0.3914
  741TMC3    O111012   0.610   2.535  15.011  0.4796  0.1564 -0.7259
  741TMC3    O211013   0.413   2.003  14.675 -0.2431  0.1105  0.4211
  742TMC3    C111014   0.723   0.894  15.475 -0.0160 -0.2316 -0.3355
  742TMC3    C211015   0.637   0.838  15.375  0.4677 -0.1410 -0.1750
  742TMC3    C311016   0.704   0.809  15.258  1.2130 -0.5677 -0.1772
  742TMC3    C411017   0.849   0.939  15.451 -0.4561 -0.3600  0.1485
  742TMC3    C511018   0.902   0.922  15.322  0.2629 -0.5677  0.4662
  742TMC3    C611019   0.826   0.864  15.226  0.5377  0.2075 -0.8363
  742TMC3     C11020   0.659   0.912  15.608  0.0569 -0.2051 -0.5980
  742TMC3     O11021   0.541   0.902  15.611 -0.1110 -0.5425 -0.2090
  742TMC3     H11022   0.556   0.771  15.403 -0.6164  0.9786 -0.6556
  742TMC3    H111023   0.896   1.012  15.517 -1.7632 -0.6421  1.3924
  742TMC3    H211024   0.859   0.842  15.125 -1.2917  1.2136 -1.6470
  742TMC3    C711025   1.042   0.894  15.286  0.3735 -0.2330 -0.3701
  742TMC3    C811026   0.634   0.751  15.145  0.2752 -0.6355 -0.4268
  742TMC3    O111027   1.069   0.853  15.175  0.1148 -0.0815 -0.0289
  742TMC3    O211028   0.698   0.722  15.045 -0.0084 -0.1166 -0.1669
  743MPD2     C11029   3.956   1.485   1.588 -0.0645 -0.0679  0.0580
  743MPD2    C111030   3.908   1.426   1.483  0.5934  0.4829 -1.1372
  743MPD2    C211031   3.988   1.374   1.388 -0.2965  0.9255  0.4323
  743MPD2    C311032   4.124   1.397   1.391 -0.7782  0.6067  0.1499
  743MPD2    C411033   4.176   1.457   1.503 -0.1048  0.4828 -0.0523
  743MPD2    C511034   4.089   1.499   1.597  0.6464  0.2266 -0.2684
  743MPD2     H11035   3.959   1.313   1.304 -0.4357 -0.5627  1.5537
  743MPD2    H111036   4.281   1.482   1.512 -0.0912  0.0925  0.7973
  743MPD2    H211037   3.892   1.520   1.668 -1.0484  1.9781 -1.6407
  743MPD2    H311038   4.132   1.536   1.689 -1.3119  3.0666 -0.5094
  743MPD2     N11039   4.197   1.359   1.277  0.7073  0.0460 -0.7027
  743MPD2    H511040   4.147   1.299   1.212  0.0922 -0.3125  0.1024
  743MPD2    N111041   3.768   1.423   1.461 -0.4935 -0.3568  0.5115
  743MPD2    H711042   3.718   1.484   1.525 -0.5455  0.4777 -0.3277
  744TMC3    C111043   3.561   1.384   1.343 -0.1859 -0.1734 -0.4171
  744TMC3    C211044   3.502   1.485   1.418 -0.3142 -0.1872  0.3291
  744TMC3    C311045   3.372   1.515   1.372 -0.6071 -1.1136  0.4197
  744TMC3    C411046   3.499   1.322   1.239 -0.8786 -0.5174  0.1647
  744TMC3    C511047   3.384   1.365   1.197 -0.6509  0.0251 -0.3185
  744TMC3    C611048   3.319   1.462   1.262 -0.1759 -0.5686  0.3544
  744TMC3     C11049   3.705   1.351   1.360  0.2178  0.2967 -0.0458
  744TMC3     O11050   3.752   1.280   1.268 -0.1456 -0.5310  0.1029
  744TMC3     H11051   3.552   1.541   1.496 -1.2251 -1.1007  1.5534
  744TMC3    H111052   3.551   1.246   1.181 -0.0827 -0.8906  1.3660
  744TMC3    H211053   3.214   1.480   1.244 -1.2268 -1.9515  5.1898
  744TMC3    C711054   3.328   1.345   1.060 -0.0687  0.1349  0.0266
  744TMC3    C811055   3.304   1.635   1.424  0.2114  0.1330  0.1305
  744TMC3    O111056   3.247   1.431   1.029 -0.7375 -0.6965  0.6554
  744TMC3    O211057   3.223   1.695   1.352 -0.0029 -0.6999  0.3050
  745TMC3    C111058   1.636   0.276  13.686 -0.0549 -0.4797 -0.6414
  745TMC3    C211059   1.551   0.327  13.781  0.6777  0.4813 -0.1389
  745TMC3    C311060   1.416   0.303  13.756 -0.7732 -0.6998  0.4323
  745TMC3    C411061   1.586   0.217  13.572  0.0226 -0.2123  0.4910
  745TMC3    C511062   1.459   0.192  13.549 -0.2020  0.1399 -0.2787
  745TMC3    C611063   1.374   0.227  13.648  0.2857  0.0659 -0.0642
  745TMC3     C11064   1.778   0.267  13.707  0.0498  0.2490  0.0773
  745TMC3     O11065   1.858   0.227  13.621 -0.3617 -0.2346  0.1038
  745TMC3     H11066   1.581   0.385  13.867 -1.2639 -0.2153  1.0117
  745TMC3    H111067   1.662   0.178  13.505 -0.0967  0.2932  0.0644
  745TMC3    H211068   1.267   0.214  13.633 -0.1052  2.4475  0.6648
  745TMC3    C711069   1.413   0.145  13.419 -0.6088  0.4534 -0.0532
  745TMC3    C811070   1.316   0.350  13.852  0.8102 -0.3700 -0.2067
  745TMC3    O111071   1.292   0.134  13.399 -0.2945  0.2772 -0.1913
  745TMC3    O211072   1.204   0.355  13.808 -0.3682 -0.1466  0.0504
  746TMC3    C111073   3.404   1.524  11.232 -0.2856  0.9761  0.3727
  746TMC3    C211074   3.531   1.522  11.185  0.0224 -0.5243  0.4886
  746TMC3    C311075   3.549   1.470  11.051  0.5271 -0.6483  0.1015
  746TMC3    C411076   3.302   1.460  11.168  0.2904 -0.3357  0.5591
  746TMC3    C511077   3.330   1.394  11.056  0.3020  0.2289  0.5397
  746TMC3    C611078   3.447   1.410  10.991 -0.2692 -0.0911  0.6768
  746TMC3     C11079   3.370   1.656  11.289 -0.1675 -0.1005 -0.4801
  746TMC3     O11080   3.420   1.679  11.399  0.4175  0.2488  0.4446
  746TMC3     H11081   3.606   1.588  11.228  0.3861 -0.1561 -0.7035
  746TMC3    H111082   3.200   1.482  11.198 -0.4238 -2.3357 -0.4183
  746TMC3    H211083   3.455   1.378  10.887 -2.2898  2.2279 -0.1837
  746TMC3    C711084   3.221   1.333  10.971 -0.2415 -0.3298  0.2823
  746TMC3    C811085   3.662   1.507  10.969 -0.8332  0.1453 -0.0404
  746TMC3    O111086   3.212   1.372  10.858  0.5215 -0.1160  0.2073
  746TMC3    O211087   3.634   1.539  10.852 -0.5795  0.0194  0.5350
  747TMC3    C111088   1.074   2.027  11.007  0.4849 -0.5930  0.1359
  747TMC3    C211089   0.996   1.947  11.092  0.3961 -0.3550 -0.1031
  747TMC3    C311090   1.032   1.956  11.224  0.3140 -0.9024  0.3635
  747TMC3    C411091   1.175   2.107  11.059 -0.2586  0.3312 -0.5121
  747TMC3    C511092   1.195   2.110  11.191  0.1436  0.1738  0.3410
  747TMC3    C611093   1.120   2.038  11.279  0.7281  0.3213  0.0611
  747TMC3     C11094   1.011   2.058  10.876  0.2563 -0.5004 -0.1158
  747TMC3     O11095   1.024   2.171  10.832 -0.2924  0.0622  0.1337
  747TMC3     H11096   0.911   1.888  11.060 -0.9540  1.6526 -0.2511
  747TMC3    H111097   1.218   2.176  10.987  1.2401 -2.1682 -2.0403
  747TMC3    H211098   1.152   2.021  11.381 -2.1941  2.4625  1.3134
  747TMC3    C711099   1.332   2.144  11.233 -0.1830 -0.3996  0.2658
  747TMC3    C811100   1.018   1.828  11.289 -0.0446  1.1201  0.5307
  747TMC3    O111101   1.348   2.161  11.352 -0.3020 -0.5757  0.4554
  747TMC3    O211102   1.033   1.736  11.212 -0.2731 -0.2393 -0.9244
  748MPD2     C11103   2.154   3.325   1.932 -0.0422 -0.3412  0.0293
  748MPD2    C111104   2.193   3.191   1.937 -0.0807  0.3024  0.2655
  748MPD2    C211105   2.302   3.150   1.857  0.6464  0.6111 -0.1730
  748MPD2    C311106   2.366   3.242   1.776 -0.0898  0.4557  0.3907
  748MPD2    C411107   2.321   3.372   1.768  0.8489 -0.6363  0.2070
  748MPD2    C511108   2.217   3.410   1.850  0.4095 -0.3494 -0.1087
  748MPD2     H11109   2.340   3.049   1.866  1.1460  0.8813  0.8314
  748MPD2    H111110   2.380   3.448   1.718  3.1538 -3.0332 -0.7486
  748MPD2    H211111   2.079   3.368   1.998 -0.2628  0.6021 -0.8484
  748MPD2    H311112   2.206   3.518   1.859 -1.5271 -0.4199 -1.4954
  748MPD2     N11113   2.474   3.204   1.698  0.0239  0.3605 -0.2541
  748MPD2    H511114   2.510   3.109   1.698 -0.2380  0.2628 -0.1385
  748MPD2    N111115   2.123   3.099   2.024  0.6567 -0.4200 -0.0120
  748MPD2    H711116   2.034   3.129   2.062  0.2690  1.5510 -2.4730
  749TMC3    C111117   2.630   3.210   1.518 -0.1455  0.5727  0.7595
  749TMC3    C211118   2.713   3.128   1.590 -0.1595  0.1854  0.3263
  749TMC3    C311119   2.820   3.084   1.519 -0.1080  1.0648 -1.3402
  749TMC3    C411120   2.658   3.252   1.391  0.1275 -0.3768 -0.4747
  749TMC3    C511121   2.772   3.204   1.331  0.1469 -0.2750 -0.6863
  749TMC3    C611122   2.848   3.108   1.383 -0.4340  0.3845 -0.5013
  749TMC3     C11123   2.520   3.273   1.587 -0.1312 -0.2166  0.2626
  749TMC3     O11124   2.472   3.364   1.525 -0.1105  0.1980  0.3354
  749TMC3     H11125   2.698   3.106   1.694  2.9074  2.1156  1.1790
  749TMC3    H111126   2.591   3.318   1.338  1.0053 -0.3512 -1.5464
  749TMC3    H211127   2.943   3.075   1.342 -1.2003 -1.6847 -0.6352
  749TMC3    C711128   2.807   3.280   1.212  0.3603  0.4524  0.3122
  749TMC3    C811129   2.904   2.986   1.586  0.0888 -0.4249 -0.1838
  749TMC3    O111130   2.765   3.393   1.198  0.2228  0.0495  0.0919
  749TMC3    O211131   2.892   2.975   1.708  0.2820  0.2908 -0.6287
  750MPD2     C11132   2.977   3.601  10.888  0.1391 -0.0654 -0.1595
  750MPD2    C111133   2.940   3.479  10.933 -0.5152 -0.6048 -0.5522
  750MPD2    C211134   2.964   3.368  10.853  0.2655  0.0897 -0.6351
  750MPD2    C311135   3.024   3.386  10.726 -0.0413  1.0614  0.1159
  750MPD2    C411136   3.060   3.513  10.685 -0.4581  0.1810 -0.8502
  750MPD2    C511137   3.030   3.623  10.766 -0.4240 -0.6455 -0.0656
  750MPD2     H11138   2.928   3.270  10.884  2.9201 -0.4508  0.7702
  750MPD2    H111139   3.093   3.529  10.583 -3.2746 -0.6840 -1.8970
  750MPD2    H211140   2.965   3.687  10.953  1.4840 -0.3788  0.5036
  750MPD2    H311141   3.064   3.718  10.727  0.4583 -1.0217 -0.2198
  750MPD2     N11142   3.053   3.278  10.634  0.5282 -0.3477 -0.1827
  750MPD2    H511143   3.105   3.301  10.550  1.9566  1.7750  1.2676
  750MPD2    N111144   2.895   3.477  11.068  0.1488  0.1214  0.5479
  750MPD2    H711145   2.883   3.562  11.123 -1.4657  0.3473 -0.1600
  751TMC3    C111146   3.042   3.060  10.540 -0.4469  0.4000  0.5830
  751TMC3    C211147   2.956   2.964  10.520 -0.1821  0.0807  0.5560
  751TMC3    C311148   3.006   2.848  10.468 -0.2920 -0.4957  0.2397
  751TMC3    C411149   3.176   3.048  10.500 -0.3639 -0.9473  0.0686
  751TMC3    C511150   3.221   2.921  10.446  0.8066 -0.1368  0.4989
  751TMC3    C611151   3.130   2.818  10.429  0.1053  1.1094 -0.3523
  751TMC3     C11152   2.997   3.155  10.641  0.6871  0.2184  0.3175
  751TMC3     O11153   2.926   3.117  10.733 -0.5628  0.1412 -0.8641
  751TMC3     H11154   2.854   2.971  10.555 -0.6269  0.6472 -0.8363
  751TMC3    H111155   3.245   3.128  10.524  0.1168 -0.9992 -1.1448
  751TMC3    H211156   3.157   2.725  10.380  0.4126 -0.5701  3.0107
  751TMC3    C711157   3.357   2.873  10.470 -0.6568 -0.8623  0.1337
  751TMC3    C811158   2.926   2.735  10.472 -0.4285 -0.2022  0.2765
  751TMC3    O111159   3.454   2.948  10.465 -0.2591 -0.5277  1.0718
  751TMC3    O211160   2.983   2.628  10.474 -0.5085  0.2538  0.4727
  752TMC3    C111161   1.582   4.302  16.772 -0.1032  0.2043  0.8555
  752TMC3    C211162   1.676   4.279  16.872 -0.0891 -0.5916  0.0544
  752TMC3    C311163   1.636   4.257  17.000 -0.5713  0.3137 -0.5585
  752TMC3    C411164   1.447   4.300  16.797 -0.6174 -0.2265 -0.2152
  752TMC3    C511165   1.409   4.278  16.929 -0.2340  0.4426 -0.4188
  752TMC3    C611166   1.499   4.263  17.030 -0.0839  0.4867  0.7878
  752TMC3     C11167   1.631   4.355  16.640  0.5245 -0.6549 -0.0309
  752TMC3     O11168   1.753   4.342  16.627  0.0134  1.0086  0.2849
  752TMC3     H11169   1.783   4.280  16.855  0.1129 -1.1158  1.3476
  752TMC3    H111170   1.366   4.333  16.732 -1.0188 -2.2055 -0.7149
  752TMC3    H211171   1.466   4.233  17.128  1.0517  0.3234  1.1242
  752TMC3    C711172   1.266   4.315  16.963 -0.9737 -0.4457 -0.2504
  752TMC3    C811173   1.699   4.138  17.041  0.2002 -0.1649  0.5452
  752TMC3    O111174   1.194   4.313  16.867  0.5722 -0.1634 -0.1433
  752TMC3    O211175   1.766   4.072  16.964  0.4366  0.2051 -0.0206
  753TMC3    C111176   0.162   0.411  13.500 -0.0749  0.1116 -0.0817
  753TMC3    C211177   0.234   0.384  13.621  0.5902 -0.5022 -0.0437
  753TMC3    C311178   0.248   0.253  13.656  0.1870  0.1895  0.6803
  753TMC3    C411179   0.144   0.309  13.410 -0.2114 -0.2078 -0.2279
  753TMC3    C511180   0.174   0.174  13.445  0.3831  0.1347  0.1740
  753TMC3    C611181   0.212   0.151  13.574 -0.6892 -0.2523  0.5111
  753TMC3     C11182   0.109   0.548  13.488  0.9778 -0.1352 -0.7018
  753TMC3     O11183   0.148   0.628  13.574  0.6473 -0.1901  0.1239
  753TMC3     H11184   0.270   0.462  13.687 -0.6215 -1.1543  1.3903
  753TMC3    H111185   0.101   0.336  13.314  0.1120  1.6268  0.1438
  753TMC3    H211186   0.225   0.050  13.611  0.2509  0.0603  1.0148
  753TMC3    C711187   0.087   0.076  13.387 -0.4242 -0.1162 -0.9029
  753TMC3    C811188   0.285   0.210  13.794  0.7841  0.3903 -1.0418
  753TMC3    O111189   4.712   0.112  13.356  0.2475 -0.5180 -0.6496
  753TMC3    O211190   0.321   0.094  13.806  0.7670 -0.0297 -0.5951
  754MPD2     C11191   2.804   2.362  12.680  0.4012  0.9519  0.0853
  754MPD2    C111192   2.815   2.484  12.741 -0.4659 -0.3559  0.1047
  754MPD2    C211193   2.805   2.601  12.663  0.3540 -0.6340 -0.3327
  754MPD2    C311194   2.776   2.602  12.529 -0.0315 -0.8084 -0.7697
  754MPD2    C411195   2.764   2.474  12.471 -0.1826 -0.0278 -0.1492
  754MPD2    C511196   2.789   2.364  12.544 -0.6138 -0.9342  0.3921
  754MPD2     H11197   2.830   2.695  12.710  2.1713 -1.3048  0.0402
  754MPD2    H111198   2.751   2.449  12.367 -1.1449 -0.2188  0.0143
  754MPD2    H211199   2.812   2.265  12.726  2.1718  1.7186  1.4165
  754MPD2    H311200   2.776   2.269  12.494 -2.2835 -1.3401  1.6076
  754MPD2     N11201   2.751   2.726  12.455  0.2167 -0.2092 -0.0487
  754MPD2    H511202   2.760   2.716  12.355 -1.2415  0.8516 -0.2800
  754MPD2    N111203   2.831   2.480  12.882 -0.4241 -0.0513  0.1609
  754MPD2    H711204   2.830   2.384  12.916  0.0367  0.1052  0.6179
  755MPD2     C11205   2.396   3.556  12.853  0.1792  0.1377  0.3382
  755MPD2    C111206   2.318   3.488  12.761 -0.1543 -0.0826 -0.4085
  755MPD2    C211207   2.385   3.411  12.661  0.4229  0.1301 -0.4023
  755MPD2    C311208   2.523   3.388  12.663  0.2287 -0.1279  0.1542
  755MPD2    C411209   2.596   3.460  12.748  0.6048 -0.2868  0.0003
  755MPD2    C511210   2.531   3.542  12.841 -0.3795  0.2703  0.6245
  755MPD2     H11211   2.316   3.354  12.599  2.7033 -1.5921 -1.3697
  755MPD2    H111212   2.705   3.458  12.751  0.6432  0.9648 -0.3224
  755MPD2    H211213   2.360   3.626  12.927  0.2986  0.2116  0.3259
  755MPD2    H311214   2.596   3.609  12.895  0.4833  0.5302 -0.7343
  755MPD2     N11215   2.591   3.311  12.567 -0.2620 -0.1395  0.1542
  755MPD2    H511216   2.680   3.271  12.594 -0.8951 -0.0566  2.3712
  755MPD2    N111217   2.177   3.491  12.758  0.0193  0.1709  0.1915
  755MPD2    H711218   2.130   3.421  12.701  1.1784 -1.2298  0.9419
  756MPD2     C11219   2.772   4.698   9.781  0.2958  0.8736 -0.5500
  756MPD2    C111220   2.722   4.606   9.874  0.1032 -0.3364  0.0058
  756MPD2    C211221   2.596   4.553   9.856 -0.2703  0.6538 -0.1922
  756MPD2    C311222   2.514   4.586   9.751 -0.6598 -1.0456 -0.0218
  756MPD2    C411223   2.570   4.677   9.658  0.3780 -1.0417 -0.9652
  756MPD2    C511224   2.693   4.726   9.673 -0.0467 -0.1169  0.2143
  756MPD2     H11225   2.549   4.503   9.940  0.6059  1.6475  0.8827
  756MPD2    H111226   2.524   4.722   9.571 -1.1197  2.1929  1.4923
  756MPD2    H211227   2.871   0.006   9.782  1.2532 -1.3337  1.6537
  756MPD2    H311228   2.729   0.067   9.607 -0.8338 -0.3917 -0.5310
  756MPD2     N11229   2.387   4.530   9.736 -0.0815 -0.3668  0.1161
  756MPD2    H511230   2.369   4.456   9.804  0.5781 -1.3906 -0.8082
  756MPD2    N111231   2.796   4.558   9.986 -0.4604  0.5427 -0.0591
  756MPD2    H711232   2.759   4.481  10.042  2.2719 -1.2700 -0.7535
  757MPD2     C11233   2.073   3.731   9.964 -0.2179  0.4765 -0.2391
  757MPD2    C111234   2.190   3.802   9.996  0.1145  0.3199 -0.0811
  757MPD2    C211235   2.205   3.935   9.952 -0.3293 -0.4376  0.3932
  757MPD2    C311236   2.104   3.996   9.883  0.1387  0.3650  0.5232
  757MPD2    C411237   1.994   3.922   9.841 -0.3889 -0.3385 -0.5805
  757MPD2    C511238   1.980   3.792   9.884 -0.0404 -0.4325 -0.1291
  757MPD2     H11239   2.288   4.003   9.968  0.2097 -0.9242 -0.2906
  757MPD2    H111240   1.916   3.953   9.773 -1.9833 -1.4285  0.7567
  757MPD2    H211241   2.061   3.626   9.984 -1.0649  0.1823 -2.3458
  757MPD2    H311242   1.886   3.742   9.860 -0.2719  0.0758 -0.2945
  757MPD2     N11243   2.116   4.131   9.845 -0.2268 -0.3931 -0.2046
  757MPD2    H511244   2.196   4.184   9.876 -1.2800  0.9349  0.2621
  757MPD2    N111245   2.293   3.724  10.057  0.4028  0.1023 -0.0142
  757MPD2    H711246   2.287   3.623  10.062 -1.8888  0.1583 -1.9517
  758MPD2     C11247   2.612   3.522  15.572 -0.1652 -0.2930  0.1774
  758MPD2    C111248   2.670   3.453  15.676  0.5011 -0.3669  0.1276
  758MPD2    C211249   2.618   3.474  15.800  0.8658  0.4047  0.3927
  758MPD2    C311250   2.524   3.570  15.831 -0.4606 -0.3044 -0.1661
  758MPD2    C411251   2.476   3.645  15.725  0.3043 -0.4740  0.2471
  758MPD2    C511252   2.524   3.616  15.596  0.2565  0.4246  0.7199
  758MPD2     H11253   2.643   3.402  15.877  0.1337 -0.1216  0.1370
  758MPD2    H111254   2.402   3.722  15.737  0.0901 -0.3307 -1.9154
  758MPD2    H211255   2.656   3.497  15.476  0.0143  3.4220 -0.7293
  758MPD2    H311256   2.478   3.663  15.511 -2.2546 -2.2959  0.5743
  758MPD2     N11257   2.492   3.611  15.968  0.2367 -0.3126 -0.2873
  758MPD2    H511258   2.416   3.679  15.970 -0.1557 -0.8039  1.8679
  758MPD2    N111259   2.771   3.354  15.650 -0.4733 -0.3810 -0.0001
  758MPD2    H711260   2.781   3.329  15.553 -5.0945 -3.0140  0.1731
  759MPD2     C11261   1.755   2.022  10.044  0.7199  0.5490  0.3574
  759MPD2    C111262   1.801   1.902  10.088  0.2313 -0.2375 -0.6002
  759MPD2    C211263   1.903   1.839  10.021 -0.0404  1.0976 -0.6428
  759MPD2    C311264   1.952   1.893   9.904 -0.0390  0.6004  0.3826
  759MPD2    C411265   1.899   2.014   9.857  0.3776 -1.0649 -0.0767
  759MPD2    C511266   1.791   2.074   9.929  0.2929  0.0540  0.0118
  759MPD2     H11267   1.945   1.748  10.064  1.4491  1.9660 -0.2674
  759MPD2    H111268   1.934   2.067   9.769  0.2493 -1.5000 -0.3911
  759MPD2    H211269   1.675   2.076  10.093 -0.8632 -1.3683 -0.0812
  759MPD2    H311270   1.745   2.162   9.886 -0.2771  0.3543  1.2255
  759MPD2     N11271   2.060   1.825   9.846 -0.5500  0.3780  0.3124
  759MPD2    H511272   2.099   1.747   9.898 -2.9269 -0.0781  1.3750
  759MPD2    N111273   1.761   1.840  10.209 -0.1845  0.2118 -0.4434
  759MPD2    H711274   1.790   1.744  10.223 -0.2529 -0.0118 -1.7963
  760MPD2     C11275   1.004   3.594  12.291  0.3553 -0.0816 -0.1053
  760MPD2    C111276   1.138   3.571  12.253 -0.7240 -0.5712  0.5137
  760MPD2    C211277   1.177   3.441  12.217  0.2801  0.4934  0.6699
  760MPD2    C311278   1.100   3.331  12.232 -1.3771 -0.2973  0.2430
  760MPD2    C411279   0.975   3.353  12.280 -0.7474  0.0242 -0.0260
  760MPD2    C511280   0.925   3.479  12.298 -0.1230  0.7240 -0.7909
  760MPD2     H11281   1.282   3.426  12.194 -0.3637 -1.8392 -0.7044
  760MPD2    H111282   0.897   3.280  12.297 -0.8654  0.1889  0.1443
  760MPD2    H211283   0.979   3.695  12.322  0.7380 -1.1172  3.6764
  760MPD2    H311284   0.819   3.479  12.316 -0.2489 -1.3654 -1.5828
  760MPD2     N11285   1.143   3.191  12.222 -0.6895 -0.0331 -0.6309
  760MPD2    H511286   1.084   3.119  12.262  1.3618 -1.7486 -0.6426
  760MPD2    N111287   1.216   3.689  12.257 -0.1937 -0.9621 -0.5612
  760MPD2    H711288   1.177   3.782  12.266  2.0638 -0.0969  0.2912
  761MPD2     C11289   2.500   2.449  10.507  0.2203  0.4475 -0.6651
  761MPD2    C111290   2.631   2.414  10.528  0.0287  0.3961  0.2187
  761MPD2    C211291   2.731   2.507  10.492  0.1873 -0.1598 -0.1678
  761MPD2    C311292   2.699   2.645  10.460 -0.2421  0.2469 -0.0699
  761MPD2    C411293   2.564   2.665  10.429  0.1503 -0.3798 -0.4599
  761MPD2    C511294   2.470   2.574  10.461  0.3332 -0.1535  0.5985
  761MPD2     H11295   2.830   2.484  10.531 -0.0786 -1.0601 -0.0393
  761MPD2    H111296   2.529   2.761  10.392  2.5015  1.1540  1.2799
  761MPD2    H211297   2.418   2.379  10.521  0.2685  0.5813  0.3357
  761MPD2    H311298   2.369   2.597  10.427  0.6483  1.1900  0.5885
  761MPD2     N11299   2.789   2.751  10.468 -0.0720  0.1590  0.0753
  761MPD2    H511300   2.760   2.848  10.459 -1.1713 -0.1956 -0.1364
  761MPD2    N111301   2.660   2.280  10.573 -0.0379 -1.0848  0.4265
  761MPD2    H711302   2.584   2.225  10.612 -0.9972  0.4507  0.7232
  762MPD2     C11303   3.229   2.320  10.463  0.4845 -0.1491 -0.2049
  762MPD2    C111304   3.253   2.201  10.523  0.2607  0.3394  0.2874
  762MPD2    C211305   3.382   2.151  10.532  0.3819  0.2414  0.0066
  762MPD2    C311306   3.487   2.220  10.474  0.1588  0.1521  0.5155
  762MPD2    C411307   3.451   2.330  10.394 -0.1357  0.1200 -0.2063
  762MPD2    C511308   3.322   2.378  10.381  0.4559 -1.1916  0.1083
  762MPD2     H11309   3.404   2.058  10.584  0.1108 -0.4226 -1.0594
  762MPD2    H111310   3.525   2.391  10.343  1.1069 -1.1973  0.0110
  762MPD2    H211311   3.127   2.357  10.470  0.9033  1.2456 -1.5063
  762MPD2    H311312   3.305   2.465  10.318  0.6836 -0.5131  0.9773
  762MPD2     N11313   3.617   2.174  10.476  0.5229  0.8093  0.9560
  762MPD2    H511314   3.634   2.104  10.548  3.2529  1.3160  0.7914
  762MPD2    N111315   3.143   2.139  10.589  0.0469 -0.0732 -0.0591
  762MPD2    H711316   3.054   2.183  10.569 -0.2659 -1.2837 -1.3200
  763MPD2     C11317   0.167   3.983  16.030 -0.1341 -0.2017  0.7541
  763MPD2    C111318   0.028   3.983  16.012 -0.1734 -0.3168  0.0511
  763MPD2    C211319   4.696   4.092  16.061  0.7171 -0.1187 -0.1457
  763MPD2    C311320   0.034   4.205  16.109 -0.4225  0.0940 -0.0623
  763MPD2    C411321   0.176   4.209  16.119 -0.2240 -0.5739  0.1557
  763MPD2    C511322   0.243   4.094  16.082  0.0883  0.0566 -0.3927
  763MPD2     H11323   4.587   4.089  16.062  0.6803  0.0701 -2.0789
  763MPD2    H111324   0.221   4.292  16.172 -1.3543 -1.0963  1.9206
  763MPD2    H211325   0.230   3.900  15.999  0.3801  0.1917  0.7691
  763MPD2    H311326   0.349   4.091  16.106  0.3712  1.4491 -1.4181
  763MPD2     N11327   4.709   4.322  16.146 -0.2994 -0.0907  0.0624
  763MPD2    H511328   0.034   4.402  16.158  1.6490 -1.5470 -0.1382
  763MPD2    N111329   4.690   3.873  15.968  0.0790  0.3662  0.3954
  763MPD2    H711330   4.590   3.884  15.959  0.3450  0.3108 -2.5329
  764MPD2     C11331   3.032   0.301  17.207  0.3496  0.1039  0.3873
  764MPD2    C111332   2.905   0.340  17.181  0.3315  0.1829 -0.5442
  764MPD2    C211333   2.811   0.318  17.277  0.0190  0.0252  0.0643
  764MPD2    C311334   2.834   0.234  17.383 -1.0111  0.8569  0.1714
  764MPD2    C411335   2.961   0.181  17.403 -0.5509 -0.5646  0.9344
  764MPD2    C511336   3.056   0.232  17.318 -0.0106 -0.5495  0.0194
  764MPD2     H11337   2.712   0.357  17.258  0.0416 -0.4743 -1.0881
  764MPD2    H111338   3.005   0.118  17.479 -0.9984 -0.4522  1.2838
  764MPD2    H211339   3.119   0.333  17.150  0.4378 -1.2975 -0.2530
  764MPD2    H311340   3.160   0.206  17.334  0.0436  0.0740  0.6891
  764MPD2     N11341   2.726   0.204  17.466  0.4955 -0.7701  0.2528
  764MPD2    H511342   2.649   0.270  17.456  1.6001  0.4567 -0.0195
  764MPD2    N111343   2.871   0.413  17.067 -0.4988 -0.1505 -0.0127
  764MPD2    H711344   2.779   0.457  17.066 -1.2735 -1.7226  1.3446
  765MPD2     C11345   2.393   3.212  15.868 -0.7397 -0.0662  0.3070
  765MPD2    C111346   2.420   3.185  15.732  0.4198  0.5271 -0.3448
  765MPD2    C211347   2.526   3.096  15.700  0.3554 -0.9799  0.3334
  765MPD2    C311348   2.591   3.024  15.802 -0.0800  0.3260 -0.1475
  765MPD2    C411349   2.555   3.043  15.932  0.0253  0.0655 -0.0365
  765MPD2    C511350   2.466   3.138  15.963 -0.0917 -0.2786 -0.1955
  765MPD2     H11351   2.554   3.081  15.597  1.9001 -2.0873  0.9218
  765MPD2    H111352   2.603   2.983  16.009  1.0525 -1.7968 -2.1332
  765MPD2    H211353   2.309   3.275  15.892 -0.5114  1.6466 -3.3592
  765MPD2    H311354   2.433   3.143  16.066 -3.6412  1.8114 -1.4151
  765MPD2     N11355   2.686   2.931  15.758  0.0474  0.3977  0.0804
  765MPD2    H511356   2.686   2.910  15.659  0.2332 -0.5948  0.2898
  765MPD2    N111357   2.347   3.259  15.639  0.6697 -0.2371 -0.3457
  765MPD2    H711358   2.268   3.303  15.685  0.9339 -2.3163  2.0927
  766MPD2     C11359   2.114   3.151  14.837  0.8806 -0.0965 -0.7584
  766MPD2    C111360   2.219   3.154  14.915  0.3736 -0.1847  0.3459
  766MPD2    C211361   2.328   3.082  14.880 -0.7721  0.0524 -0.4791
  766MPD2    C311362   2.343   3.002  14.770 -0.0921 -0.4352  0.3587
  766MPD2    C411363   2.230   2.992  14.690 -0.1518  0.9662  0.0454
  766MPD2    C511364   2.115   3.061  14.733  0.1082 -0.2216  0.3149
  766MPD2     H11365   2.411   3.090  14.949  0.0368 -1.6245 -1.2711
  766MPD2    H111366   2.227   2.937  14.597 -0.1529 -0.8379  1.1231
  766MPD2    H211367   2.024   3.206  14.862  1.9042  2.1254 -2.0421
  766MPD2    H311368   2.020   3.054  14.681  0.0407 -1.6637  0.6121
  766MPD2     N11369   2.451   2.915  14.750 -0.4439  0.4168 -0.3609
  766MPD2    H511370   2.455   2.868  14.661  1.6922 -2.9451  1.5167
  766MPD2    N111371   2.222   3.221  15.035 -0.0981  0.6166  0.0538
  766MPD2    H711372   2.298   3.206  15.100  0.8106 -0.5847 -1.2827
  767MPD2     C11373   1.807   3.107  14.569  0.0493 -0.0803 -0.3670
  767MPD2    C111374   1.893   3.187  14.498  0.3752 -0.5328  0.8273
  767MPD2    C211375   1.950   3.137  14.382 -0.5428  0.6819  0.3714
  767MPD2    C311376   1.958   3.002  14.355 -0.1144  0.2422 -0.7050
  767MPD2    C411377   1.881   2.916  14.434  0.2488  0.0597  0.2782
  767MPD2    C511378   1.800   2.968  14.535 -0.4785  0.6045 -0.2831
  767MPD2     H11379   2.023   3.199  14.331 -1.2207  0.7779 -0.4755
  767MPD2    H111380   1.880   2.809  14.422 -0.2774 -0.1096  1.8093
  767MPD2    H211381   1.762   3.150  14.657  1.7233  0.4150  0.2502
  767MPD2    H311382   1.740   2.898  14.592 -0.1101  2.2144  2.1215
  767MPD2     N11383   2.042   2.952  14.255  0.3849  0.8239 -0.6168
  767MPD2    H511384   2.064   3.014  14.177  0.8391  1.0719 -0.2871
  767MPD2    N111385   1.916   3.316  14.547 -0.6425 -0.4889 -0.6980
  767MPD2    H711386   1.866   3.348  14.630 -1.0264 -0.0872 -1.0846
  768MPD2     C11387   3.201   1.402  10.417  0.7507  0.9246 -0.5252
  768MPD2    C111388   3.138   1.288  10.470 -0.2005 -0.9529 -0.2859
  768MPD2    C211389   3.213   1.198  10.547  1.0971  0.2001 -0.1801
  768MPD2    C311390   3.340   1.221  10.573  0.0100  0.4682  0.1930
  768MPD2    C411391   3.408   1.330  10.516  0.2179  0.1964 -0.1118
  768MPD2    C511392   3.337   1.417  10.437  0.1977  0.2095  0.1857
  768MPD2     H11393   3.167   1.106  10.583  2.3516  0.0008  0.8950
  768MPD2    H111394   3.511   1.358  10.533 -0.1998  0.6468  1.6156
  768MPD2    H211395   3.142   1.464  10.351 -0.2059  0.9239  0.3484
  768MPD2    H311396   3.384   1.504  10.391  1.5564  0.7495  2.6306
  768MPD2     N11397   3.429   1.154  10.661  0.2350 -0.2018 -0.5945
  768MPD2    H511398   3.522   1.195  10.659  0.8836 -1.7281 -1.9548
  768MPD2    N111399   2.995   1.257  10.450  0.2158 -0.1847  0.2504
  768MPD2    H711400   2.970   1.172  10.498  1.4714 -0.1649  0.9519
  769MPD2     C11401   3.851   4.655  14.728  0.2212 -0.2370  0.5388
  769MPD2    C111402   3.730   4.632  14.780  0.0200 -0.0772  0.2483
  769MPD2    C211403   3.697   4.671  14.913 -0.2613 -0.9154  0.0706
  769MPD2    C311404   3.784   0.010  14.984 -0.4317 -0.8100 -0.2267
  769MPD2    C411405   3.911   0.028  14.926 -0.6141  0.2982 -0.3359
  769MPD2    C511406   3.941   4.723  14.802 -0.3398  0.5819  0.0861
  769MPD2     H11407   3.600   4.644  14.953 -1.2730  0.1328 -1.7284
  769MPD2    H111408   3.983   0.077  14.991 -1.0537  0.6653 -0.1252
  769MPD2    H211409   3.881   4.609  14.634  1.2174 -0.5717  1.0250
  769MPD2    H311410   4.041   0.009  14.767 -0.0036  0.3136  0.8684
  769MPD2     N11411   3.739   0.056  15.107  0.3195  0.3197 -0.1841
  769MPD2    H511412   3.644   0.034  15.135  0.3297 -0.8402 -1.0578
  769MPD2    N111413   3.654   4.535  14.703 -0.3946  0.6279 -0.4199
  769MPD2    H711414   3.697   4.507  14.615  0.3439  0.5552 -0.0344
  770MPD2     C11415   2.816   3.824  14.533  0.2835 -0.2183 -0.7631
  770MPD2    C111416   2.942   3.766  14.539 -0.2837 -0.2310 -0.7523
  770MPD2    C211417   3.052   3.849  14.554 -0.1871 -0.2231 -0.0197
  770MPD2    C311418   3.040   3.989  14.568  0.2973 -0.6050 -0.0521
  770MPD2    C411419   2.909   4.044  14.556 -0.1496  0.2398 -0.1092
  770MPD2    C511420   2.804   3.963  14.540 -0.2148  0.3214  0.2485
  770MPD2     H11421   3.154   3.813  14.556  0.9773  2.9352 -2.4180
  770MPD2    H111422   2.894   4.151  14.565 -1.1789  0.2930 -2.2767
  770MPD2    H211423   2.729   3.762  14.515  0.1148 -0.7710  1.8563
  770MPD2    H311424   2.708   4.014  14.546 -2.2650 -3.4657 -0.4414
  770MPD2     N11425   3.160   4.063  14.586 -0.5600  0.1198  0.2179
  770MPD2    H511426   3.240   4.001  14.595  0.1156  1.0139  0.4399
  770MPD2    N111427   2.958   3.629  14.527 -0.1966 -0.1112 -0.3485
  770MPD2    H711428   2.872   3.580  14.503  0.1321  0.5707 -2.9919
  771MPD2     C11429   0.073   2.361  13.970 -0.7386  0.0190 -0.2156
  771MPD2    C111430   4.717   2.462  13.950  0.7408  0.4490  0.5791
  771MPD2    C211431   4.583   2.425  13.936 -0.4811  0.0073  0.3844
  771MPD2    C311432   4.545   2.294  13.942  0.1931  0.1816 -0.6163
  771MPD2    C411433   4.640   2.196  13.961  0.7480 -0.6406 -0.4185
  771MPD2    C511434   0.036   2.228  13.964  0.8527 -0.4742  0.1489
  771MPD2     H11435   4.513   2.502  13.907  0.1130  1.3900  2.6058
  771MPD2    H111436   4.614   2.091  13.974 -1.2632 -0.0251  0.5916
  771MPD2    H211437   0.179   2.380  13.967 -0.3331 -2.5532 -3.1427
  771MPD2    H311438   0.114   2.156  13.986  1.7013 -0.4814 -2.8780
  771MPD2     N11439   4.412   2.261  13.908  0.3179 -0.1605  0.1839
  771MPD2    H511440   4.356   2.335  13.869  0.4098 -0.6769 -0.9305
  771MPD2    N111441   0.024   2.598  13.949 -0.2050  0.0489 -0.0042
  771MPD2    H711442   0.124   2.617  13.948 -0.4205  0.9692 -2.5117
  772MPD2     C11443   4.277   3.199  13.808 -0.0656  0.1261  0.6127
  772MPD2    C111444   4.310   3.076  13.857 -0.3223  0.0662 -0.2045
  772MPD2    C211445   4.222   2.971  13.869 -0.2338  0.1673  0.1002
  772MPD2    C311446   4.083   2.987  13.850 -0.0582 -0.1784 -0.6589
  772MPD2    C411447   4.049   3.116  13.815  0.1294  0.3813  0.9763
  772MPD2    C511448   4.144   3.218  13.788 -0.6771  1.0527 -0.4966
  772MPD2     H11449   4.258   2.870  13.884  0.3626  0.3257 -0.2697
  772MPD2    H111450   3.945   3.132  13.790  0.3045  2.1280  1.4095
  772MPD2    H211451   4.344   3.281  13.782 -0.3309  0.1384 -0.0570
  772MPD2    H311452   4.106   3.312  13.749  2.1493  2.8471  1.1074
  772MPD2     N11453   3.983   2.888  13.883 -0.6216  0.4880 -0.0863
  772MPD2    H511454   3.884   2.910  13.874 -1.2289 -1.7249  1.3639
  772MPD2    N111455   4.443   3.043  13.896 -0.1919 -1.8240 -0.3222
  772MPD2    H711456   4.459   2.947  13.927 -1.0932 -1.9044 -0.1110
  773MPD2     C11457   3.074   3.790  17.206 -0.7156  0.9467 -0.4602
  773MPD2    C111458   3.006   3.729  17.308 -0.3581 -0.2217  0.0347
  773MPD2    C211459   3.071   3.639  17.389 -0.4151  0.7107 -0.3958
  773MPD2    C311460   3.208   3.613  17.374  0.2598  0.2063  0.2245
  773MPD2    C411461   3.270   3.667  17.266  0.2693 -0.7680 -0.2242
  773MPD2    C511462   3.209   3.761  17.187 -0.1927 -0.1392  0.1265
  773MPD2     H11463   3.008   3.605  17.470  0.7328 -2.9413 -1.0138
  773MPD2    H111464   3.376   3.644  17.256  0.7134  0.5047  1.4548
  773MPD2    H211465   3.025   3.864  17.143  0.0375  1.9422  0.1304
  773MPD2    H311466   3.264   3.805  17.105  1.5017 -1.0362  0.7766
  773MPD2     N11467   3.293   3.554  17.478  0.0647 -0.3568 -0.4066
  773MPD2    H511468   3.394   3.563  17.470 -0.1905  1.0824 -1.9577
  773MPD2    N111469   2.869   3.760  17.347 -0.1534  0.2489  0.1192
  773MPD2    H711470   2.826   3.701  17.417 -2.5105  1.2647 -0.4707
  774MPD2     C11471   2.670   1.941  13.676 -0.5118 -0.1163  0.4935
  774MPD2    C111472   2.745   2.035  13.741 -0.4042  0.6025  0.4246
  774MPD2    C211473   2.783   2.149  13.665 -0.0936  0.0996  0.2771
  774MPD2    C311474   2.762   2.157  13.529  0.1508 -0.1827 -0.2079
  774MPD2    C411475   2.702   2.045  13.467  0.3287  0.3510  0.4481
  774MPD2    C511476   2.655   1.942  13.538  0.2289 -0.3115 -0.5112
  774MPD2     H11477   2.824   2.237  13.715  3.1393 -1.0709 -0.3208
  774MPD2    H111478   2.692   2.029  13.361 -1.6435  0.6883  0.5881
  774MPD2    H211479   2.635   1.852  13.728  3.5659 -1.6058  0.7014
  774MPD2    H311480   2.623   1.849  13.492 -1.4529 -0.1951  0.4076
  774MPD2     N11481   2.793   2.278  13.465 -0.0751 -0.3556 -0.1592
  774MPD2    H511482   2.816   2.356  13.527 -0.2295 -1.2377  1.0005
  774MPD2    N111483   2.776   2.019  13.876 -0.5857 -0.4474  0.4570
  774MPD2    H711484   2.728   1.942  13.921 -2.1669  0.8672  1.0532
  775MPD2     C11485   3.870   4.691  15.642 -0.3317  0.2950 -0.5507
  775MPD2    C111486   3.951   4.722  15.743 -0.1281  0.3546 -0.5359
  775MPD2    C211487   4.079   0.033  15.714 -0.5283  0.3623 -0.1012
  775MPD2    C311488   4.131   0.021  15.582 -0.0370 -0.1102  0.0044
  775MPD2    C411489   4.044   4.708  15.481  0.0201 -0.5511 -0.2213
  775MPD2    C511490   3.918   4.671  15.515 -0.2808 -0.3627 -0.0078
  775MPD2     H11491   4.136   0.079  15.794  0.1946 -0.2525 -0.2701
  775MPD2    H111492   4.081   4.708  15.379  0.8051  2.2361  0.0431
  775MPD2    H211493   3.765   4.672  15.662 -0.1937  1.2903  1.1375
  775MPD2    H311494   3.850   4.629  15.441  1.1234 -0.7148 -1.0929
  775MPD2     N11495   4.273   0.041  15.548 -0.2581  0.4137  0.0446
  775MPD2    H511496   4.310   0.026  15.455 -1.9484 -2.5039 -0.1593
  775MPD2    N111497   3.888   4.719  15.866 -0.2999  0.4102  0.0567
  775MPD2    H711498   3.803   4.665  15.878  1.5511 -3.0137 -2.2535
  776MPD2     C11499   2.522   3.823  11.700 -0.4121  0.0465 -0.2421
  776MPD2    C111500   2.653   3.799  11.648  0.7035 -0.5130 -0.0411
  776MPD2    C211501   2.748   3.904  11.651  0.0543  0.8329  0.2282
  776MPD2    C311502   2.717   4.036  11.680  0.0852 -0.5816 -0.4531
  776MPD2    C411503   2.584   4.056  11.711 -0.6655  0.3693 -0.3450
  776MPD2    C511504   2.485   3.955  11.728 -0.3217  0.7844  0.8119
  776MPD2     H11505   2.853   3.884  11.635 -0.0488  0.6252 -0.2174
  776MPD2    H111506   2.552   4.159  11.725  0.8823  0.8899 -0.6348
  776MPD2    H211507   2.446   3.748  11.685  0.6675 -1.0559 -0.2452
  776MPD2    H311508   2.380   3.977  11.745 -0.3340  1.6308 -0.3145
  776MPD2     N11509   2.808   4.141  11.703 -0.3156 -0.2655  0.4796
  776MPD2    H511510   2.772   4.232  11.731 -0.3732 -0.5508  1.3444
  776MPD2    N111511   2.683   3.666  11.602 -0.1433 -0.7144 -0.0033
  776MPD2    H711512   2.603   3.603  11.599 -1.7185  1.3908 -1.4775
  777MPD2     C11513   3.187   2.365   0.647 -0.5954 -0.2052 -0.2767
  777MPD2    C111514   3.244   2.264   0.716 -0.2156 -0.7080  0.4838
  777MPD2    C211515   3.230   2.133   0.669 -0.4913  0.0399  0.4292
  777MPD2    C311516   3.142   2.106   0.564 -0.2565 -0.3337 -0.1516
  777MPD2    C411517   3.087   2.207   0.493 -0.0575  0.0390 -0.7874
  777MPD2    C511518   3.109   2.341   0.537  0.6538 -0.0138  0.1851
  777MPD2     H11519   3.283   2.052   0.719  0.6511  1.5462  1.6404
  777MPD2    H111520   3.017   2.184   0.414 -0.8257  0.3551 -0.2006
  777MPD2    H211521   3.185   2.464   0.693 -0.0570 -1.1747  1.8596
  777MPD2    H311522   3.061   2.422   0.484  0.8709  0.5321  0.8194
  777MPD2     N11523   3.130   1.969   0.526  0.1434  0.0498 -0.1982
  777MPD2    H511524   3.179   1.905   0.588  0.8341 -0.0837 -0.8960
  777MPD2    N111525   3.307   2.302   0.830  0.0017  0.1609  0.4226
  777MPD2    H711526   3.315   2.402   0.850  0.8322  0.0559  0.6031
  778MPD2     C11527   4.518   2.663  15.188 -0.1731  0.5672 -0.5549
  778MPD2    C111528   4.526   2.541  15.131  0.6097 -0.4958 -0.3566
  778MPD2    C211529   4.576   2.523  15.008 -0.0109  0.7615  0.2303
  778MPD2    C311530   4.613   2.629  14.926  0.4006  0.3215 -0.1816
  778MPD2    C411531   4.608   2.753  14.985 -0.2261 -0.2584 -0.2191
  778MPD2    C511532   4.566   2.769  15.113 -0.2101  1.0572  0.6995
  778MPD2     H11533   4.571   2.425  14.961 -3.1802  1.0068  0.0602
  778MPD2    H111534   4.653   2.839  14.936  0.2080  0.2782  1.1175
  778MPD2    H211535   4.488   2.685  15.290  1.4146 -0.5773  0.1525
  778MPD2    H311536   4.578   2.864  15.162 -0.0677  0.0256  2.6813
  778MPD2     N11537   4.654   2.599  14.797  0.7942  0.3418  0.0044
  778MPD2    H511538   4.644   2.504  14.763 -1.8613  1.2382 -1.7662
  778MPD2    N111539   4.473   2.428  15.197  0.3036 -0.0323 -0.6227
  778MPD2    H711540   4.478   2.342  15.143  0.0059 -0.0589 -0.6075
  779MPD2     C11541   4.478   1.102  14.222 -0.3902  0.2071  0.6643
  779MPD2    C111542   4.549   1.121  14.338 -0.0086 -0.2129 -0.3052
  779MPD2    C211543   4.554   1.253  14.389 -0.2971  0.0755  0.7872
  779MPD2    C311544   4.493   1.353  14.321  0.8114 -0.4809  0.7083
  779MPD2    C411545   4.430   1.334  14.196  0.9461  0.2945  0.0410
  779MPD2    C511546   4.428   1.207  14.148 -0.1971  0.2494 -0.6638
  779MPD2     H11547   4.602   1.273  14.484 -0.5935 -0.4386  1.0479
  779MPD2    H111548   4.383   1.406  14.131 -1.1931 -0.4449  0.7794
  779MPD2    H211549   4.472   1.003  14.177 -0.2528  0.5531 -0.0994
  779MPD2    H311550   4.393   1.183  14.048  1.9223 -1.6229 -0.9518
  779MPD2     N11551   4.498   1.486  14.371  0.1437  0.5238  0.2560
  779MPD2    H511552   4.554   1.492  14.455 -1.1331 -3.9760  1.4342
  779MPD2    N111553   4.611   1.011  14.395  0.2371 -0.0033 -0.1427
  779MPD2    H711554   4.653   0.944  14.332  0.0803  0.5472 -0.8212
  780MPD2     C11555   4.544   1.458   0.821  0.4573 -0.0444 -0.4131
  780MPD2    C111556   4.517   1.349   0.736  0.0558  0.0138  0.6652
  780MPD2    C211557   4.424   1.354   0.629 -0.3161  0.1043 -0.7781
  780MPD2    C311558   4.365   1.472   0.607 -0.1944 -0.6063 -0.2378
  780MPD2    C411559   4.397   1.582   0.685 -0.0332 -0.2557 -0.4930
  780MPD2    C511560   4.488   1.581   0.785 -0.0876  0.3064 -0.2309
  780MPD2     H11561   4.404   1.270   0.564  0.2078 -1.1896  0.7433
  780MPD2    H111562   4.360   1.683   0.672 -1.8464 -0.7663  0.5217
  780MPD2    H211563   4.607   1.453   0.908 -1.0689 -1.5278  0.6198
  780MPD2    H311564   4.508   1.669   0.846 -0.8099 -1.5710  2.7194
  780MPD2     N11565   4.266   1.481   0.513  0.1213 -0.1517 -0.2328
  780MPD2    H511566   4.248   1.397   0.459  0.7933 -0.2829 -0.2482
  780MPD2    N111567   4.590   1.232   0.753  0.4187 -0.3566  0.1219
  780MPD2    H711568   4.578   1.165   0.678  0.1982 -1.9573  1.5795
  781MPD2     C11569   1.227   2.555  12.063  0.1020 -0.0428  0.0361
  781MPD2    C111570   1.304   2.462  12.132  0.0235  0.2509  0.1934
  781MPD2    C211571   1.420   2.415  12.068  0.4624  0.0410  0.7002
  781MPD2    C311572   1.455   2.449  11.931  0.5871 -0.4016  0.6614
  781MPD2    C411573   1.368   2.532  11.864  0.4059  0.1692  0.4161
  781MPD2    C511574   1.258   2.581  11.935 -0.5132 -0.2793  0.0062
  781MPD2     H11575   1.481   2.342  12.120 -2.1823 -2.7321 -0.1140
  781MPD2    H111576   1.378   2.547  11.757  0.0748 -0.4304  0.3005
  781MPD2    H211577   1.130   2.590  12.094 -0.3020 -1.0924 -0.0453
  781MPD2    H311578   1.195   2.655  11.885 -0.1622  1.5334  2.2611
  781MPD2     N11579   1.566   2.408  11.858  0.2264 -0.3274 -0.5497
  781MPD2    H511580   1.574   2.431  11.760  0.2163 -0.3544 -0.5571
  781MPD2    N111581   1.261   2.411  12.257  0.1950  0.8230 -0.0969
  781MPD2    H711582   1.301   2.329  12.302  0.4787  1.0135 -0.0053
  782MPD2     C11583   3.993   2.987  10.008  0.4145 -0.1788 -0.4359
  782MPD2    C111584   3.983   3.042  10.141  0.7381  0.5001  0.4472
  782MPD2    C211585   3.921   3.167  10.153 -0.3090  0.1514 -0.0446
  782MPD2    C311586   3.879   3.231  10.042 -0.4503  0.1524  0.0211
  782MPD2    C411587   3.886   3.177   9.914  0.0941 -0.6411 -0.2099
  782MPD2    C511588   3.953   3.057   9.902 -0.0288 -0.0855 -0.3189
  782MPD2     H11589   3.901   3.217  10.246  5.0203  0.4502  0.9681
  782MPD2    H111590   3.848   3.220   9.822 -0.6631  0.8547  0.8130
  782MPD2    H211591   4.040   2.897   9.971 -0.6942 -0.8359 -0.2634
  782MPD2    H311592   3.970   3.010   9.806 -0.8916  2.3898 -1.6680
  782MPD2     N11593   3.811   3.357  10.058 -0.1762  0.2053  0.4505
  782MPD2    H511594   3.801   3.389  10.153 -1.5133  1.6717 -0.1682
  782MPD2    N111595   4.031   2.976  10.255 -0.2345 -0.5047  0.5328
  782MPD2    H711596   4.023   3.012  10.350 -1.7870  3.2288 -1.0401
  783MPD2     C11597   3.459   2.555  10.621  0.3814 -0.4122 -0.0873
  783MPD2    C111598   3.483   2.678  10.561 -0.1188 -0.0149 -0.3784
  783MPD2    C211599   3.616   2.720  10.552 -0.5838  0.1012  0.0393
  783MPD2    C311600   3.716   2.641  10.592  0.4589  0.7445 -0.0063
  783MPD2    C411601   3.694   2.519  10.654  0.2946 -0.8380 -0.0709
  783MPD2    C511602   3.565   2.481  10.663 -0.4870 -0.0220 -0.4776
  783MPD2     H11603   3.649   2.814  10.508  1.0043 -0.8660 -0.8214
  783MPD2    H111604   3.768   2.456  10.703 -0.6787 -0.7263  1.5369
  783MPD2    H211605   3.359   2.513  10.616  0.0429  0.7162 -2.6830
  783MPD2    H311606   3.541   2.383  10.703 -1.5112  0.2363 -0.4598
  783MPD2     N11607   3.855   2.677  10.573 -0.0046 -0.1129 -0.5169
  783MPD2    H511608   3.868   2.757  10.512  2.1485  0.5735  0.8407
  783MPD2    N111609   3.365   2.749  10.520 -0.8232 -0.8653  0.3414
  783MPD2    H711610   3.281   2.699  10.546 -1.5026  0.8024  1.3768
  784MPD2     C11611   1.477   4.140   0.264 -0.1139  0.5130 -0.1002
  784MPD2    C111612   1.482   4.222   0.371 -0.6747  0.9716  0.5100
  784MPD2    C211613   1.382   4.311   0.397  0.5866  0.2232  0.2126
  784MPD2    C311614   1.266   4.316   0.320 -0.2783  0.7374 -0.3064
  784MPD2    C411615   1.266   4.238   0.209  0.2479  0.1698 -0.6034
  784MPD2    C511616   1.367   4.147   0.187 -0.4571 -0.2801  0.3673
  784MPD2     H11617   1.377   4.367   0.490  0.9113  2.5120 -1.1640
  784MPD2    H111618   1.190   4.236   0.131 -1.6966 -1.4216  1.3423
  784MPD2    H211619   1.562   4.082   0.231 -1.7638 -0.4156 -2.7404
  784MPD2    H311620   1.368   4.091   0.094  1.1637 -1.4940  1.1236
  784MPD2     N11621   1.147   4.394   0.355 -0.1829  0.3793  0.1829
  784MPD2    H511622   1.176   4.445   0.438 -2.0335  0.7299  0.5962
  784MPD2    N111623   1.585   4.213   0.462 -0.1636 -0.7364 -0.2040
  784MPD2    H711624   1.595   4.285   0.533 -2.2651 -0.4013 -0.2547
  785MPD2     C11625   0.726   2.838  10.189  0.0811  0.5651  0.0665
  785MPD2    C111626   0.721   2.978  10.181 -0.1283 -0.3290  0.3772
  785MPD2    C211627   0.691   3.039  10.053  0.9441 -0.2608  0.5659
  785MPD2    C311628   0.684   2.960   9.943 -0.1571  0.5302  0.1668
  785MPD2    C411629   0.695   2.824   9.949 -0.4694 -0.3457 -0.9927
  785MPD2    C511630   0.715   2.759  10.076 -0.0330 -0.4220 -0.2238
  785MPD2     H11631   0.685   3.146  10.039  1.8789 -0.3428 -0.4236
  785MPD2    H111632   0.669   2.756   9.869 -0.9177  0.9365 -1.9331
  785MPD2    H211633   0.748   2.791  10.284  1.0945  1.1933  0.1424
  785MPD2    H311634   0.712   2.651  10.084 -0.4811 -0.5859 -2.4334
  785MPD2     N11635   0.670   3.036   9.821 -0.1659  0.1241  0.7318
  785MPD2    H511636   0.675   3.136   9.836  0.8231  0.4771 -1.9344
  785MPD2    N111637   0.749   3.052  10.301  0.9368  0.0309  0.3587
  785MPD2    H711638   0.769   2.998  10.384 -0.8696 -1.8001 -0.4007
  786MPD2     C11639   0.258   0.509  14.901 -0.1708  0.1807  0.4406
  786MPD2    C111640   0.392   0.488  14.898  0.3707 -0.1998 -0.3092
  786MPD2    C211641   0.472   0.551  14.989 -0.3623  1.0711 -0.6525
  786MPD2    C311642   0.421   0.643  15.079  0.2685 -0.9381 -0.2957
  786MPD2    C411643   0.281   0.651  15.100 -0.0326 -0.2228 -0.2976
  786MPD2    C511644   0.206   0.593  14.997  0.4851  0.2774 -0.3505
  786MPD2     H11645   0.580   0.545  14.982 -0.4518 -1.9867  0.7976
  786MPD2    H111646   0.233   0.715  15.173  2.8859  2.1436 -0.4296
  786MPD2    H211647   0.184   0.457  14.840  1.5739 -1.7172 -0.0379
  786MPD2    H311648   0.101   0.620  14.995  0.2359 -0.7094 -0.4170
  786MPD2     N11649   0.498   0.717  15.175  0.6192  0.4016  0.4020
  786MPD2    H511650   0.453   0.768  15.250 -2.3501 -0.5312 -0.7511
  786MPD2    N111651   0.456   0.418  14.793 -0.7499 -0.1407 -0.0549
  786MPD2    H711652   0.554   0.399  14.812 -1.0795 -0.1864  1.6433
  787MPD2     C11653   0.858   4.735  14.999  0.0122  0.1777 -0.0564
  787MPD2    C111654   0.854   4.705  14.862 -0.3067  0.1930 -0.0373
  787MPD2    C211655   0.927   4.597  14.817 -0.0143 -0.6034 -0.0960
  787MPD2    C311656   1.002   4.523  14.905  0.1286  0.3375  0.6058
  787MPD2    C411657   1.008   4.551  15.039  0.3167 -0.3129 -0.5068
  787MPD2    C511658   0.937   4.657  15.086  0.1226 -0.0253  0.4108
  787MPD2     H11659   0.923   4.576  14.710 -0.9784  2.1188 -0.6049
  787MPD2    H111660   1.071   4.495  15.107 -0.0480  0.2982  0.3286
  787MPD2    H211661   0.787   0.070  15.040  0.0996  0.4280 -0.3439
  787MPD2    H311662   0.929   4.676  15.192 -1.5938 -1.3987  0.5152
  787MPD2     N11663   1.078   4.417  14.847 -0.1721 -0.2303 -0.1127
  787MPD2    H511664   1.068   4.399  14.748 -1.3244 -2.7579  0.4726
  787MPD2    N111665   0.776   0.057  14.787 -0.1903 -0.8032  0.0804
  787MPD2    H711666   0.722   0.127  14.837  0.6599 -0.0861 -0.0075
  788MPD2     C11667   2.372   4.303   0.571 -0.2394  0.2162  0.2853
  788MPD2    C111668   2.290   4.218   0.499 -0.0872 -0.3759 -0.1265
  788MPD2    C211669   2.203   4.277   0.411 -0.5702 -0.1052 -0.1373
  788MPD2    C311670   2.188   4.412   0.399  0.0582  0.0465  0.4287
  788MPD2    C411671   2.269   4.491   0.475  0.2130 -0.3442  0.3774
  788MPD2    C511672   2.353   4.436   0.565 -0.1301  0.4144  0.0449
  788MPD2     H11673   2.144   4.208   0.352 -1.6612 -0.4461  1.3626
  788MPD2    H111674   2.275   4.599   0.460 -0.8672 -0.8514 -3.6960
  788MPD2    H211675   2.443   4.269   0.646  0.9056 -2.0277 -1.8264
  788MPD2    H311676   2.409   4.508   0.623  1.5269  1.6501 -3.0797
  788MPD2     N11677   2.096   4.475   0.308  0.9426  0.1083 -0.5879
  788MPD2    H511678   2.101   4.576   0.303 -0.7116  0.2631  0.7431
  788MPD2    N111679   2.295   4.078   0.501  0.7788  0.2596  0.3733
  788MPD2    H711680   2.240   4.026   0.434  2.5456  1.6761 -2.1525
  789MPD2     C11681   2.259   3.457  16.296 -0.7048 -0.2001  0.3167
  789MPD2    C111682   2.245   3.491  16.429  0.2547 -0.9225  0.8342
  789MPD2    C211683   2.131   3.568  16.460  0.0682  0.2634 -0.3415
  789MPD2    C311684   2.042   3.620  16.363 -0.1596 -0.2261  0.6906
  789MPD2    C411685   2.058   3.581  16.236 -0.8982 -0.2624  0.1754
  789MPD2    C511686   2.163   3.494  16.209  0.7200  1.1233  0.2703
  789MPD2     H11687   2.120   3.601  16.563  0.2335  2.1764 -0.9337
  789MPD2    H111688   1.990   3.620  16.161 -0.4793  1.4808  0.7143
  789MPD2    H211689   2.343   3.395  16.266  2.1490  3.1688  1.3232
  789MPD2    H311690   2.183   3.458  16.109  0.9570 -1.5325  1.2737
  789MPD2     N11691   1.925   3.696  16.396  0.2582 -0.5575 -0.8258
  789MPD2    H511692   1.866   3.731  16.321 -0.3273 -1.1475 -0.6383
  789MPD2    N111693   2.328   3.455  16.537 -0.8149  0.0304 -0.2744
  789MPD2    H711694   2.292   3.481  16.628 -0.5930 -1.9491  0.3882
  790MPD2     C11695   4.060   0.753  13.009  0.7414 -0.9196 -0.6709
  790MPD2    C111696   4.088   0.656  13.103  0.2415  0.7968 -0.1909
  790MPD2    C211697   4.053   0.529  13.073  0.0194  0.0330  0.2829
  790MPD2    C311698   3.985   0.493  12.959 -0.7607 -0.0313  0.5639
  790MPD2    C411699   3.964   0.589  12.862  0.0547 -0.0693  0.1678
  790MPD2    C511700   3.998   0.721  12.884 -0.7179 -0.5202  0.7142
  790MPD2     H11701   4.073   0.457  13.152 -1.8698 -1.5859 -0.7185
  790MPD2    H111702   3.929   0.562  12.763 -1.5327 -2.1755  1.3103
  790MPD2    H211703   4.085   0.856  13.032 -3.1581 -0.1593  0.2530
  790MPD2    H311704   3.971   0.801  12.817  2.5026 -0.3392 -0.3717
  790MPD2     N11705   3.944   0.356  12.941 -0.4237 -0.1387 -0.1083
  790MPD2    H511706   3.954   0.298  13.023 -2.2225 -0.9510 -0.4562
  790MPD2    N111707   4.149   0.696  13.221  0.2163  0.2859  0.2292
  790MPD2    H711708   4.159   0.795  13.241  0.6049  0.8648 -2.8429
  791MPD2     C11709   3.417   0.013  12.503  0.3619 -0.6838  0.3364
  791MPD2    C111710   3.490   4.651  12.571  0.6937  0.2291 -0.2563
  791MPD2    C211711   3.445   4.518  12.555 -0.5044  0.0897 -0.0180
  791MPD2    C311712   3.337   4.484  12.475 -0.0766 -0.6192 -0.1035
  791MPD2    C411713   3.263   4.583  12.411  0.5650  0.0662  0.0306
  791MPD2    C511714   3.309   4.711  12.415 -0.6889 -0.2021 -0.6062
  791MPD2     H11715   3.497   4.438  12.607 -2.3959 -0.2320  1.4069
  791MPD2    H111716   3.176   4.557  12.351  0.5845  1.4833 -0.5994
  791MPD2    H211717   3.446   0.117  12.496 -0.4267 -0.6396 -2.4726
  791MPD2    H311718   3.257   0.060  12.375  0.8306  1.0513  0.1079
  791MPD2     N11719   3.292   4.349  12.486 -0.3793  0.4743  0.0460
  791MPD2    H511720   3.344   4.275  12.534  1.9014  0.9723 -1.7070
  791MPD2    N111721   3.600   4.691  12.643 -0.0325  0.2891  0.1784
  791MPD2    H711722   3.630   0.051  12.653  1.4668 -0.2526  0.9572
  792MPD2     C11723   3.471   4.272  11.429  0.0769  0.2387  0.1492
  792MPD2    C111724   3.409   4.303  11.310 -1.0894 -0.2458 -0.2091
  792MPD2    C211725   3.286   4.247  11.278 -0.2650 -0.3560  0.7337
  792MPD2    C311726   3.226   4.158  11.364 -1.1273 -0.3687  0.2625
  792MPD2    C411727   3.290   4.125  11.481  0.0088 -0.2120  0.1603
  792MPD2    C511728   3.413   4.182  11.512 -0.4173  0.2832  0.4020
  792MPD2     H11729   3.240   4.297  11.194 -1.1418  0.3303  1.6117
  792MPD2    H111730   3.245   4.062  11.557 -0.1309  1.9549  1.8873
  792MPD2    H211731   3.557   4.323  11.470  0.5375 -0.9002  0.5977
  792MPD2    H311732   3.471   4.157  11.600  0.6757  0.6297 -0.2301
  792MPD2     N11733   3.096   4.107  11.344 -0.1876  0.2699  0.0601
  792MPD2    H511734   3.047   4.066  11.423 -1.8768  2.5018  0.1852
  792MPD2    N111735   3.479   4.404  11.233 -0.2294 -0.2241  0.3145
  792MPD2    H711736   3.562   4.447  11.272  0.6945 -1.3797 -0.3720
  793MPD2     C11737   2.544   4.343  10.590  0.0749  0.5160 -0.2398
  793MPD2    C111738   2.678   4.325  10.627  0.2033  0.9434 -0.2679
  793MPD2    C211739   2.712   4.302  10.761 -0.1358  0.3717  0.7978
  793MPD2    C311740   2.606   4.288  10.854  0.5003 -0.1975 -0.0177
  793MPD2    C411741   2.473   4.293  10.815  1.2408  0.3565 -0.7303
  793MPD2    C511742   2.450   4.331  10.687 -0.5171  0.7563 -0.0942
  793MPD2     H11743   2.815   4.311  10.794  0.2766  1.9767 -0.9088
  793MPD2    H111744   2.391   4.282  10.885  2.0046 -0.0690  0.1052
  793MPD2    H211745   2.517   4.390  10.496  1.1490  1.1994 -0.2026
  793MPD2    H311746   2.346   4.355  10.673  0.1382  2.6808 -1.5470
  793MPD2     N11747   2.646   4.257  10.986  0.2016 -0.6497  0.4615
  793MPD2    H511748   2.746   4.262  11.001 -0.0418  0.7230  1.7779
  793MPD2    N111749   2.787   4.344  10.539 -0.1872  0.4401 -0.4415
  793MPD2    H711750   2.882   4.360  10.571 -0.4959  2.9888 -0.7407
  794MPD2     C11751   2.298   4.387  17.235  0.0071 -0.5164  0.4196
  794MPD2    C111752   2.342   4.278  17.160 -0.8397 -0.3431 -0.4498
  794MPD2    C211753   2.350   4.285  17.025  0.6904  0.2374  0.1033
  794MPD2    C311754   2.303   4.392  16.956 -0.3157 -0.7059  0.0060
  794MPD2    C411755   2.251   4.500  17.025 -0.6669  0.3475 -0.1510
  794MPD2    C511756   2.253   4.496  17.164 -0.8840  0.3933 -0.1815
  794MPD2     H11757   2.391   4.201  16.970 -0.9347  0.7371 -1.8839
  794MPD2    H111758   2.206   4.586  16.977 -0.8832  1.0781  1.3471
  794MPD2    H211759   2.297   4.389  17.343  1.9747  2.8920  0.3768
  794MPD2    H311760   2.211   4.572  17.229 -0.4869  0.3009  0.1834
  794MPD2     N11761   2.307   4.396  16.812 -0.1523  0.0321 -0.1415
  794MPD2    H511762   2.261   4.475  16.769  1.2338  1.7771  1.5825
  794MPD2    N111763   2.398   4.158  17.216 -0.1086  0.8351 -0.1542
  794MPD2    H711764   2.441   4.087  17.158 -0.6617  0.0164  0.4534
  795MPD2     C11765   1.291   1.249  14.273 -0.0672 -0.0721 -0.1697
  795MPD2    C111766   1.354   1.235  14.152  0.5272 -0.2887  0.2665
  795MPD2    C211767   1.482   1.178  14.138 -0.1179 -0.2187 -0.0613
  795MPD2    C311768   1.545   1.131  14.244  0.6494 -0.6341 -0.7366
  795MPD2    C411769   1.479   1.133  14.368 -0.3817 -0.0515 -0.3144
  795MPD2    C511770   1.353   1.189  14.381 -1.0751  0.4860 -0.6767
  795MPD2     H11771   1.525   1.170  14.039  0.6028  1.5259  0.1008
  795MPD2    H111772   1.528   1.088  14.453 -0.1250  1.1256  0.1535
  795MPD2    H211773   1.188   1.274  14.298 -0.0755  0.9418 -1.1948
  795MPD2    H311774   1.304   1.194  14.477  1.0980  1.8484  0.3397
  795MPD2     N11775   1.669   1.055  14.235 -0.2173 -0.1514 -0.3583
  795MPD2    H511776   1.736   1.082  14.163 -0.2789 -0.2237 -0.4429
  795MPD2    N111777   1.291   1.266  14.028  0.1262 -0.3446  0.3184
  795MPD2    H711778   1.333   1.263  13.936  0.9130  0.7473  0.6368
  796MPD2     C11779   0.292   3.221  15.824  0.5636 -0.9978  0.0727
  796MPD2    C111780   0.306   3.326  15.918 -0.3138  0.2674 -0.5989
  796MPD2    C211781   0.312   3.460  15.871  0.0163  1.1145  0.4677
  796MPD2    C311782   0.309   3.474  15.729 -1.0866 -0.3404  0.6116
  796MPD2    C411783   0.288   3.370  15.641  0.5084 -0.6485 -0.3159
  796MPD2    C511784   0.272   3.240  15.689 -0.4597 -0.2364 -0.1165
  796MPD2     H11785   0.323   3.544  15.939  1.5599  0.4489  1.0607
  796MPD2    H111786   0.252   3.392  15.541  0.7506 -0.7378 -0.4237
  796MPD2    H211787   0.289   3.117  15.854 -0.5218 -0.8961  0.3305
  796MPD2    H311788   0.241   3.159  15.623  1.5738  0.9231 -2.5340
  796MPD2     N11789   0.295   3.603  15.676  0.4698  0.7189  0.5626
  796MPD2    H511790   0.254   3.611  15.583  3.1972 -1.1527 -0.7859
  796MPD2    N111791   0.315   3.285  16.051 -0.1110  0.5940  0.8015
  796MPD2    H711792   0.312   3.184  16.065  1.0551  0.2772 -1.2754
  797MPD2     C11793   1.069   2.723  17.318 -0.3727  0.4380 -0.3903
  797MPD2    C111794   1.185   2.795  17.322  0.1928 -0.6144 -0.0157
  797MPD2    C211795   1.202   2.926  17.276 -0.1442  0.4805  0.0806
  797MPD2    C311796   1.090   2.989  17.227 -0.5242 -0.1568  0.0455
  797MPD2    C411797   0.977   2.914  17.217  0.2309 -0.3271  0.2116
  797MPD2    C511798   0.961   2.790  17.266  0.6042 -0.3885 -0.1793
  797MPD2     H11799   1.302   2.968  17.275 -0.8051  2.0982  3.0493
  797MPD2    H111800   0.885   2.965  17.192  0.6382 -0.0017 -0.6433
  797MPD2    H211801   1.069   2.622  17.357  1.3243  0.8890  0.7451
  797MPD2    H311802   0.861   2.747  17.261 -0.7864  2.4519  3.2872
  797MPD2     N11803   1.091   3.123  17.182  0.0406  0.0317 -0.0792
  797MPD2    H511804   1.016   3.159  17.124  0.0143  1.2614  0.7042
  797MPD2    N111805   1.300   2.748  17.386  0.8093 -0.7643 -0.4109
  797MPD2    H711806   1.371   2.820  17.396 -2.0208  1.8427  0.9505
  798MPD2     C11807   1.715   3.429  17.396  0.1886  0.0077 -0.2648
  798MPD2    C111808   1.595   3.358  17.389 -0.9212  0.3907  0.0690
  798MPD2    C211809   1.584   3.235  17.456  0.3481  0.5773 -0.3011
  798MPD2    C311810   1.687   3.177  17.526 -0.2904 -0.3513 -0.9867
  798MPD2    C411811   1.801   3.252  17.539 -0.1160 -0.4557 -0.2202
  798MPD2    C511812   1.807   3.378  17.488 -0.5394 -0.2893  0.1550
  798MPD2     H11813   1.485   3.193  17.465  0.5534 -0.0028 -0.7417
  798MPD2    H111814   1.888   3.211  17.589 -0.5287  0.2237  1.0711
  798MPD2    H211815   1.731   3.524  17.346  4.7201 -0.7623 -0.2924
  798MPD2    H311816   1.903   3.428  17.498 -1.8044  2.1443  0.1957
  798MPD2     N11817   1.681   3.042  17.577 -0.1115 -0.1561  0.5685
  798MPD2    H511818   1.761   3.015  17.633  1.2432  1.2770 -0.6458
  798MPD2    N111819   1.479   3.394  17.314  0.4984 -0.2466 -0.2027
  798MPD2    H711820   1.401   3.330  17.316  0.4799 -0.2350 -0.6079
  799MPD2     C11821   0.632   4.328  14.480 -0.2177  0.3308  0.5426
  799MPD2    C111822   0.564   4.243  14.385  0.1503 -0.1019 -1.0178
  799MPD2    C211823   0.538   4.294  14.252 -0.7144 -0.2081 -0.6794
  799MPD2    C311824   0.591   4.413  14.215 -0.2060  0.0045 -0.1193
  799MPD2    C411825   0.655   4.487  14.307 -0.1402  0.6333 -0.3035
  799MPD2    C511826   0.680   4.449  14.435 -0.6715 -0.9281  0.2575
  799MPD2     H11827   0.488   4.228  14.181  3.1005 -1.5688 -2.0801
  799MPD2    H111828   0.686   4.583  14.268 -0.5756  0.8388 -0.1375
  799MPD2    H211829   0.650   4.295  14.582 -0.0025  0.2170  0.4680
  799MPD2    H311830   0.731   4.509  14.509  0.3509  0.2234 -1.3874
  799MPD2     N11831   0.575   4.471  14.087  0.3200 -0.2743  0.6886
  799MPD2    H511832   0.601   4.567  14.066  2.6613 -1.0770 -0.0331
  799MPD2    N111833   0.527   4.112  14.421 -0.3972  0.2970  0.1687
  799MPD2    H711834   0.488   4.051  14.349  0.1291  1.8762 -1.4639
  800MPD2     C11835   1.189   0.576  14.306  0.8536 -0.6408 -0.1231
  800MPD2    C111836   1.318   0.523  14.321 -0.8400 -0.2196  0.6745
  800MPD2    C211837   1.372   0.457  14.210  0.2106 -0.1642 -0.7199
  800MPD2    C311838   1.296   0.440  14.087 -0.1679 -0.3939  0.3339
  800MPD2    C411839   1.170   0.498  14.080 -0.1219 -0.0885  0.4482
  800MPD2    C511840   1.118   0.559  14.191  0.7393  0.7074  0.3263
  800MPD2     H11841   1.464   0.400  14.218 -0.0574 -0.4980 -0.0541
  800MPD2    H111842   1.118   0.499  13.984 -2.0060  2.3773  1.4929
  800MPD2    H211843   1.143   0.637  14.383  0.5398 -0.9797 -0.0400
  800MPD2    H311844   1.023   0.609  14.176 -0.7769 -1.3783  2.9825
  800MPD2     N11845   1.363   0.375  13.981  0.4481 -0.5168  0.3557
  800MPD2    H511846   1.451   0.334  14.009 -0.0835 -1.0752  1.1931
  800MPD2    N111847   1.399   0.567  14.430  0.2606 -0.4557  0.7227
  800MPD2    H711848   1.369   0.626  14.507  1.3562 -1.3182  1.8191
  801MPD2     C11849   1.600   1.177  14.810  0.0487  0.0813 -0.5494
  801MPD2    C111850   1.507   1.095  14.738 -0.0507 -0.2520 -0.8514
  801MPD2    C211851   1.378   1.149  14.724 -0.2213 -0.5930  0.5576
  801MPD2    C311852   1.349   1.276  14.767 -0.5558 -0.1987 -0.0052
  801MPD2    C411853   1.446   1.354  14.817 -0.7793 -0.0705  0.0669
  801MPD2    C511854   1.569   1.300  14.850  0.5728  0.2686  0.0661
  801MPD2     H11855   1.296   1.090  14.685 -0.7113  1.3082 -1.3013
  801MPD2    H111856   1.408   1.446  14.860  1.1139  0.6385  0.2112
  801MPD2    H211857   1.693   1.139  14.850 -0.6557  0.6234  1.5618
  801MPD2    H311858   1.641   1.354  14.912  1.9079  0.4582 -1.6367
  801MPD2     N11859   1.216   1.326  14.787 -0.0731 -0.1166  0.3235
  801MPD2    H511860   1.214   1.414  14.838 -0.0974  1.1011 -1.7424
  801MPD2    N111861   1.535   0.963  14.704  0.0400 -0.3560 -0.4374
  801MPD2    H711862   1.465   0.908  14.655  0.6639  0.5621 -2.4056
  802MPD2     C11863   0.073   2.554   0.313 -1.1564  0.1196 -0.4524
  802MPD2    C111864   0.023   2.431   0.349  0.2717 -0.4969  0.5372
  802MPD2    C211865   0.073   2.320   0.289 -0.5171 -0.5129 -0.0494
  802MPD2    C311866   0.179   2.330   0.200  0.6531 -0.2964  0.0140
  802MPD2    C411867   0.230   2.458   0.165 -0.0602 -0.0645  0.5083
  802MPD2    C511868   0.170   2.566   0.216 -0.5390 -0.0560 -0.0621
  802MPD2     H11869   0.040   2.224   0.327 -0.1663 -0.2481  0.9233
  802MPD2    H111870   0.304   2.480   0.090 -1.6504 -0.0532 -1.0753
  802MPD2    H211871   0.021   2.645   0.341  1.2452  1.5082 -0.5574
  802MPD2    H311872   0.198   2.664   0.180  0.7156  0.1126  1.3718
  802MPD2     N11873   0.235   2.210   0.151  0.6761  0.1258 -0.0074
  802MPD2    H511874   0.176   2.128   0.162  2.4836 -1.0009  1.1609
  802MPD2    N111875   4.652   2.417   0.439  0.2033 -0.6229 -0.2430
  802MPD2    H711876   4.615   2.326   0.462 -0.9197  0.2555  1.4635
  803MPD2     C11877   1.243   4.206  12.564 -0.1688  0.0184  1.2230
  803MPD2    C111878   1.301   4.276  12.462 -0.3767 -0.1440 -0.1543
  803MPD2    C211879   1.441   4.285  12.462  0.3947 -0.2814  0.2323
  803MPD2    C311880   1.518   4.251  12.570 -0.0235 -0.3215  0.0695
  803MPD2    C411881   1.451   4.187  12.672 -0.1189 -0.4776  0.2868
  803MPD2    C511882   1.317   4.158  12.665  0.4451 -0.0623 -0.1116
  803MPD2     H11883   1.481   4.331  12.373 -0.6385 -0.8877 -0.5452
  803MPD2    H111884   1.504   4.153  12.760  3.0104 -0.9028 -1.7423
  803MPD2    H211885   1.136   4.199  12.584  0.0030 -3.5881  0.8655
  803MPD2    H311886   1.269   4.111  12.750  0.7181 -0.2904 -0.0823
  803MPD2     N11887   1.660   4.262  12.575  0.0318 -0.5124 -0.5918
  803MPD2    H511888   1.716   4.227  12.651 -1.7382  3.3988  2.4908
  803MPD2    N111889   1.232   4.349  12.367 -0.8463 -0.0644  0.1644
  803MPD2    H711890   1.286   4.410  12.306  1.1272 -3.5605 -1.6083
  804MPD2     C11891   0.876   1.747  17.054 -0.3150  0.3003  0.6017
  804MPD2    C111892   0.953   1.687  17.154 -0.7309 -0.1036 -0.1530
  804MPD2    C211893   1.037   1.764  17.234  0.1845 -0.0488  0.3208
  804MPD2    C311894   1.034   1.904  17.218 -0.4030  0.5012  0.7345
  804MPD2    C411895   0.954   1.959  17.118  0.4034  0.3241  0.5047
  804MPD2    C511896   0.881   1.880  17.039 -0.3900  0.6300 -0.1400
  804MPD2     H11897   1.097   1.730  17.318  1.0640  0.3671 -0.1515
  804MPD2    H111898   0.961   2.067  17.111 -1.2353  0.3973  0.0152
  804MPD2    H211899   0.817   1.691  16.982  0.6595  0.0725 -0.0222
  804MPD2    H311900   0.828   1.922  16.955 -1.4583 -1.5780 -0.5736
  804MPD2     N11901   1.127   1.982  17.296 -0.0225 -0.5869 -0.2462
  804MPD2    H511902   1.206   1.932  17.336 -0.2465 -1.0344 -0.3662
  804MPD2    N111903   0.951   1.548  17.193  1.1233  0.4101 -0.3639
  804MPD2    H711904   0.990   1.535  17.286 -2.6532 -0.2911  1.1254
  805MPD2     C11905   4.671   4.513  14.957 -0.2637 -0.0780 -0.6226
  805MPD2    C111906   0.055   4.542  14.895  0.0960  0.7361 -0.5315
  805MPD2    C211907   0.169   4.581  14.968  0.3183 -0.5404 -0.0776
  805MPD2    C311908   0.174   4.561  15.109 -0.3989 -0.7858  0.5047
  805MPD2    C411909   0.056   4.525  15.164  0.1523  0.4205  0.7552
  805MPD2    C511910   4.677   4.507  15.096 -0.0226  0.3560  0.6260
  805MPD2     H11911   0.263   4.593  14.914  0.1103  0.3684 -0.2445
  805MPD2    H111912   0.055   4.506  15.271 -0.3814  0.3456  0.7405
  805MPD2    H211913   4.575   4.490  14.912 -0.5459  4.6361 -2.3537
  805MPD2    H311914   4.594   4.460  15.147 -1.6332  1.2391 -1.1650
  805MPD2     N11915   0.290   4.587  15.186  0.1507 -0.9213 -0.0562
  805MPD2    H511916   0.368   4.618  15.129 -2.3762  1.7922 -2.0603
  805MPD2    N111917   0.070   4.532  14.758  0.0555  0.3647  0.1183
  805MPD2    H711918   0.155   4.544  14.704 -0.7125 -1.0971 -1.4225
  806MPD2     C11919   0.314   4.182   0.432  0.7540 -0.1149  0.2167
  806MPD2    C111920   0.379   4.303   0.448 -0.2652  0.2285  0.3115
  806MPD2    C211921   0.398   4.382   0.341 -0.4376  1.1834 -0.1263
  806MPD2    C311922   0.347   4.347   0.216  0.1190  0.2239 -0.0476
  806MPD2    C411923   0.284   4.222   0.200  0.0123  0.5876  0.1162
  806MPD2    C511924   0.271   4.139   0.305 -0.2047  0.2593 -0.1299
  806MPD2     H11925   0.440   4.481   0.355  1.5056  0.1425  1.3936
  806MPD2    H111926   0.249   4.170   0.112  2.2891  0.6771 -0.8347
  806MPD2    H211927   0.301   4.118   0.519 -0.0279 -5.0090 -3.5337
  806MPD2    H311928   0.238   4.037   0.290  0.9125 -0.2405  0.8477
  806MPD2     N11929   0.384   4.423   0.104 -0.7430 -0.8643 -0.4005
  806MPD2    H511930   0.445   4.503   0.120 -0.3236 -1.3557  0.4580
  806MPD2    N111931   0.421   4.332   0.583 -0.2726 -0.3919  0.3055
  806MPD2    H711932   0.391   4.261   0.649  1.2919 -2.5751 -1.3496
  807MPD2     C11933   0.314   4.055   1.239 -0.2796 -0.4793  0.3011
  807MPD2    C111934   0.337   4.058   1.104  0.0192  0.3933  0.2368
  807MPD2    C211935   0.294   3.952   1.025 -0.1743  0.2909 -0.1453
  807MPD2    C311936   0.249   3.832   1.080 -0.7133  0.3150  0.5866
  807MPD2    C411937   0.237   3.827   1.221  0.0647  0.4119 -0.3215
  807MPD2    C511938   0.277   3.935   1.299 -0.3064  0.6390 -0.1694
  807MPD2     H11939   0.330   3.947   0.923 -0.0045  0.2636 -0.0842
  807MPD2    H111940   0.203   3.738   1.273 -1.6363  0.4746 -1.3163
  807MPD2    H211941   0.341   4.134   1.308 -1.5601  1.6046 -1.5836
  807MPD2    H311942   0.271   3.938   1.407  1.3449 -1.9608 -0.0071
  807MPD2     N11943   0.216   3.723   0.994  0.1058  0.0143  0.2822
  807MPD2    H511944   0.226   3.744   0.896 -1.7322 -1.5946 -0.2649
  807MPD2    N111945   0.395   4.173   1.036 -0.0476 -0.5050  0.0775
  807MPD2    H711946   0.381   4.169   0.936 -0.7059  0.1599  0.1463
  808MPD2     C11947   1.041   0.507   9.733  1.0331 -0.0394 -0.3571
  808MPD2    C111948   0.957   0.562   9.828 -0.0049  0.1053 -0.9180
  808MPD2    C211949   0.939   0.698   9.832  0.0959  0.4267  0.6841
  808MPD2    C311950   1.001   0.782   9.737  0.3244  0.3565 -0.1954
  808MPD2    C411951   1.062   0.720   9.626 -0.4465 -0.3370 -0.2062
  808MPD2    C511952   1.090   0.590   9.637 -0.4088  0.0410  0.1616
  808MPD2     H11953   0.874   0.726   9.914 -2.6385  2.0608 -2.0272
  808MPD2    H111954   1.110   0.777   9.547  1.2460  0.7866  1.6102
  808MPD2    H211955   1.064   0.401   9.733  1.9798  0.1728  0.4293
  808MPD2    H311956   1.144   0.563   9.547 -3.5339 -1.2243 -1.3689
  808MPD2     N11957   0.993   0.926   9.740  0.3852  0.2649  0.1317
  808MPD2    H511958   1.039   0.964   9.659  1.4974 -0.9011  0.2119
  808MPD2    N111959   0.880   0.491   9.924  0.4077  0.1714 -0.1164
  808MPD2    H711960   0.816   0.546   9.980 -0.3669 -1.3366  0.4828
  809MPD2     C11961   1.106   1.725   9.184 -0.3802  0.3646  0.1891
  809MPD2    C111962   1.173   1.607   9.209  0.9062 -0.0913  0.5834
  809MPD2    C211963   1.132   1.530   9.318  0.5726  0.1594 -0.2724
  809MPD2    C311964   1.033   1.578   9.413 -0.1148  0.1752  0.6621
  809MPD2    C411965   0.986   1.711   9.387  1.0696 -0.1217 -0.0090
  809MPD2    C511966   1.020   1.779   9.276 -1.3088  1.2129  0.2266
  809MPD2     H11967   1.174   1.431   9.333 -3.9475 -1.9987 -1.9587
  809MPD2    H111968   0.925   1.762   9.460 -0.3071 -0.2973 -1.0519
  809MPD2    H211969   1.140   1.793   9.107  2.5336 -0.2979  0.9140
  809MPD2    H311970   0.975   1.875   9.254 -1.5763  0.9954 -0.1812
  809MPD2     N11971   1.002   1.511   9.533  0.5866 -0.6426  0.3869
  809MPD2    H511972   0.941   1.558   9.599 -0.0504 -0.7373 -0.1208
  809MPD2    N111973   1.274   1.551   9.132  0.4781  0.2197 -0.2995
  809MPD2    H711974   1.304   1.464   9.175 -2.1751 -1.5426 -1.9804
  810MPD2     C11975   0.122   4.653  11.100 -0.2774  0.3587 -0.2432
  810MPD2    C111976   0.138   4.618  10.971 -1.0123  0.3054  0.1607
  810MPD2    C211977   0.140   4.724  10.880 -0.5042 -0.4600  0.5191
  810MPD2    C311978   0.162   0.122  10.926 -0.0498  0.3769  0.6876
  810MPD2    C411979   0.161   0.153  11.057  0.6051  0.1792 -0.0858
  810MPD2    C511980   0.142   0.048  11.143  0.0766 -0.0085 -0.5706
  810MPD2     H11981   0.139   4.708  10.773  0.8723 -1.8134  0.7224
  810MPD2    H111982   0.175   0.257  11.087 -2.1470  0.1211  1.3775
  810MPD2    H211983   0.102   4.579  11.177 -0.3771  2.1732  1.4911
  810MPD2    H311984   0.133   0.063  11.250 -3.3918  0.2635 -0.8957
  810MPD2     N11985   0.183   0.227  10.834 -0.0111  0.1246 -0.4633
  810MPD2    H511986   0.242   0.302  10.868  1.4318 -0.0389 -2.6601
  810MPD2    N111987   0.135   4.484  10.938 -0.2844  0.4196  0.4088
  810MPD2    H711988   0.109   4.412  11.005 -0.9996  0.6129  0.3385
  811MPD2     C11989   4.702   3.973  10.193 -0.1598 -0.6551 -0.5404
  811MPD2    C111990   4.733   4.085  10.265 -0.1271  0.5631  0.7235
  811MPD2    C211991   0.052   4.193  10.195 -0.7281  0.2449 -0.1383
  811MPD2    C311992   0.086   4.188  10.061 -0.2991  0.1103 -0.1866
  811MPD2    C411993   0.053   4.071   9.994 -0.0657  0.4153  1.0152
  811MPD2    C511994   0.002   3.967  10.058 -0.1101  0.6899 -0.4831
  811MPD2     H11995   0.079   4.283  10.248  1.4026 -1.0728  0.9862
  811MPD2    H111996   0.074   4.063   9.888 -1.5167 -3.0099  0.9858
  811MPD2    H211997   4.663   3.880  10.232  0.6883 -1.8532 -2.5900
  811MPD2    H311998   4.729   3.867  10.017  2.1577  0.5319 -0.6624
  811MPD2     N11999   0.151   4.304  10.010  0.1899  0.6238 -0.1134
  811MPD2    H512000   0.175   4.377  10.076 -1.3533  0.5674  0.5027
  811MPD2    N112001   4.703   4.085  10.406 -0.2140  0.1555 -0.6882
  811MPD2    H712002   4.679   3.998  10.453  2.1557 -1.4675 -2.4683
  812MPD2     C12003   4.194   0.258  12.688 -0.3945 -0.3270 -0.3684
  812MPD2    C112004   4.151   0.153  12.615 -0.1457  0.1529  0.3619
  812MPD2    C212005   4.230   0.038  12.624  0.4601 -0.0275 -0.1592
  812MPD2    C312006   4.367   0.043  12.663  0.1966  0.4483  0.4650
  812MPD2    C412007   4.409   0.163  12.709  0.1512  0.0429  1.0425
  812MPD2    C512008   4.323   0.265  12.723 -0.7395 -0.2502  0.2265
  812MPD2     H12009   4.208   4.675  12.587 -3.0360 -0.4362  3.0401
  812MPD2    H112010   4.505   0.184  12.755 -0.7610 -2.0771  3.8475
  812MPD2    H212011   4.139   0.349  12.704  0.9026  0.2174  1.0516
  812MPD2    H312012   4.355   0.354  12.776  1.5790 -1.0865  0.2197
  812MPD2     N12013   4.443   4.664  12.683  0.1812 -0.3956  0.0418
  812MPD2    H512014   4.391   4.577  12.679 -1.8546  0.7566  0.8684
  812MPD2    N112015   4.030   0.170  12.541 -0.0716  0.0234 -0.2247
  812MPD2    H712016   3.993   0.263  12.527 -1.6422 -0.4409  0.9143
  813MPD2     C12017   3.062   0.968  12.799 -0.4085 -0.1531  0.5438
  813MPD2    C112018   3.096   1.104  12.828 -0.2512  0.0430 -0.0627
  813MPD2    C212019   3.057   1.158  12.949 -0.0411 -0.1270  0.4506
  813MPD2    C312020   2.986   1.084  13.043  0.3892 -0.0882  0.0341
  813MPD2    C412021   2.966   0.949  13.020 -0.2237 -0.3346  0.2042
  813MPD2    C512022   2.999   0.897  12.893 -0.7895 -0.3496  0.2014
  813MPD2     H12023   3.079   1.263  12.964  1.3886 -0.5924  1.5833
  813MPD2    H112024   2.921   0.887  13.098  0.6608 -0.3046  0.7396
  813MPD2    H212025   3.081   0.917  12.705 -0.2213 -0.0234  0.5098
  813MPD2    H312026   2.965   0.798  12.868 -0.4713 -0.0963 -1.2424
  813MPD2     N12027   2.962   1.149  13.166  0.8453  0.1722 -0.4364
  813MPD2    H512028   2.985   1.247  13.165 -1.0760  0.6346  0.5893
  813MPD2    N112029   3.181   1.189  12.743  0.5407  0.5873 -0.3254
  813MPD2    H712030   3.208   1.282  12.772  1.2729  0.1476  0.3761
  814MPD2     C12031   4.061   2.531  12.656  0.5625  0.8692  0.3832
  814MPD2    C112032   4.120   2.534  12.532  0.3294 -0.1667 -0.7047
  814MPD2    C212033   4.166   2.650  12.480 -0.4857  0.0392 -0.1267
  814MPD2    C312034   4.168   2.770  12.550  0.0821  0.1991  0.0360
  814MPD2    C412035   4.106   2.768  12.673 -0.0941  0.5041 -0.0743
  814MPD2    C512036   4.049   2.651  12.720 -0.0065  0.2822 -0.4229
  814MPD2     H12037   4.224   2.640  12.389 -3.6591  1.6300 -2.3196
  814MPD2    H112038   4.100   2.862  12.728  3.2839  0.1409  0.9335
  814MPD2    H212039   4.005   2.444  12.690  2.1965  0.4949  2.1074
  814MPD2    H312040   4.000   2.661  12.816  1.0415 -0.7449  0.2235
  814MPD2     N12041   4.223   2.897  12.514  0.5422  0.0466  0.2068
  814MPD2    H512042   4.211   2.965  12.588 -1.9741 -1.5766  1.2852
  814MPD2    N112043   4.128   2.429  12.442  0.0210 -0.8247  0.5795
  814MPD2    H712044   4.148   2.451  12.345  0.3187  0.3493  0.8987
  815MPD2     C12045   4.215   1.150  11.944  0.4283  0.4453  0.4190
  815MPD2    C112046   4.171   1.110  11.824 -0.7361  0.5434  0.7178
  815MPD2    C212047   4.034   1.125  11.800 -0.5272 -0.0852  0.1906
  815MPD2    C312048   3.946   1.186  11.898  0.1347 -0.1072  0.0703
  815MPD2    C412049   3.994   1.223  12.016  0.2855 -1.0750 -0.3733
  815MPD2    C512050   4.131   1.214  12.033  0.1727 -0.3940  0.4442
  815MPD2     H12051   3.996   1.095  11.703 -2.1988 -0.2374  0.8809
  815MPD2    H112052   3.934   1.267  12.096  0.2686 -0.9949 -0.4295
  815MPD2    H212053   4.320   1.146  11.973 -0.0254 -0.2600  1.9205
  815MPD2    H312054   4.159   1.258  12.128  1.3250  1.2118 -0.6445
  815MPD2     N12055   3.811   1.204  11.859  0.0129 -0.1565 -0.1014
  815MPD2    H512056   3.784   1.161  11.771 -1.1221  0.3205  0.0197
  815MPD2    N112057   4.266   1.060  11.729 -0.5014 -0.4239  0.0021
  815MPD2    H712058   4.356   1.034  11.768 -0.2877  0.0888 -0.1513
  816MPD2     C12059   3.730   1.091  17.358 -0.3992  0.3967  0.6403
  816MPD2    C112060   3.833   1.177  17.377  0.0357 -0.2031  0.7850
  816MPD2    C212061   3.962   1.134  17.341  0.8984  0.1106  0.0351
  816MPD2    C312062   3.984   1.010  17.281 -0.3961  0.8193  0.0574
  816MPD2    C412063   3.875   0.930  17.252  0.2852  0.0413 -0.5208
  816MPD2    C512064   3.750   0.965  17.296  0.4999  0.4201 -0.6980
  816MPD2     H12065   4.051   1.195  17.345 -0.1264  1.5878  0.0104
  816MPD2    H112066   3.882   0.829  17.212 -0.9164 -0.1400 -0.2736
  816MPD2    H212067   3.632   1.129  17.383  0.1805  1.0550  1.9143
  816MPD2    H312068   3.662   0.904  17.281  0.1184  0.2926  1.9474
  816MPD2     N12069   4.111   0.978  17.232 -0.2135  0.2053 -0.1628
  816MPD2    H512070   4.185   1.041  17.259  0.7479  0.8300 -4.2362
  816MPD2    N112071   3.792   1.313  17.409  0.0164 -0.6026 -0.4999
  816MPD2    H712072   3.697   1.346  17.395  0.3508  1.6875  2.6265
  817MPD2     C12073   3.794   1.781   9.515  0.6595  0.3321 -0.4397
  817MPD2    C112074   3.665   1.755   9.467  0.4292  0.2067 -0.5193
  817MPD2    C212075   3.565   1.845   9.500  0.0831 -1.0913 -0.8111
  817MPD2    C312076   3.590   1.962   9.570  0.1869  0.1671  0.0094
  817MPD2    C412077   3.717   1.987   9.605  0.0163 -0.0048 -0.4326
  817MPD2    C512078   3.817   1.905   9.578  0.1299 -0.3934  0.3518
  817MPD2     H12079   3.464   1.822   9.468  0.3516 -1.8770 -1.0947
  817MPD2    H112080   3.744   2.070   9.669 -2.3491  0.1421  0.3919
  817MPD2    H212081   3.883   1.721   9.502  0.7342  0.4797 -0.6179
  817MPD2    H312082   3.918   1.943   9.592 -0.5993  0.9706  1.8767
  817MPD2     N12083   3.479   2.043   9.617  0.2155  0.0297  0.0456
  817MPD2    H512084   3.386   2.013   9.590  0.6516 -0.0975 -1.3380
  817MPD2    N112085   3.625   1.639   9.391 -0.4567 -0.2031  0.3364
  817MPD2    H712086   3.525   1.628   9.376 -0.4421 -1.5953  1.2944
  818MPD2     C12087   2.508   2.198  10.172 -0.0363  0.1266 -0.3334
  818MPD2    C112088   2.443   2.090  10.108  0.3768  0.3331 -0.7612
  818MPD2    C212089   2.524   1.994  10.048  0.1603  0.1194 -0.0230
  818MPD2    C312090   2.657   1.983  10.074  0.4106 -0.2237 -0.2642
  818MPD2    C412091   2.715   2.082  10.149  0.3701  0.5240 -0.4058
  818MPD2    C512092   2.645   2.194  10.188 -0.3537  0.1074  0.7555
  818MPD2     H12093   2.474   1.915   9.993  1.0803 -0.7510  0.3906
  818MPD2    H112094   2.819   2.087  10.182  0.4888 -0.0263 -0.6917
  818MPD2    H212095   2.457   2.275  10.228  1.4227  2.2736 -1.9183
  818MPD2    H312096   2.700   2.265  10.248  0.7921 -1.9221  2.1321
  818MPD2     N12097   2.733   1.862  10.043 -0.6111 -0.7154  0.0008
  818MPD2    H512098   2.832   1.869  10.066 -1.3434 -0.8449  3.1420
  818MPD2    N112099   2.304   2.075  10.097  0.3059  0.2903  0.1076
  818MPD2    H712100   2.270   1.983  10.069 -0.3588  1.3352 -2.4831
  819MPD2     C12101   0.678   4.311  15.159 -0.8760 -0.5081 -0.2658
  819MPD2    C112102   0.737   4.191  15.180 -0.2113 -0.3573  0.5278
  819MPD2    C212103   0.855   4.178  15.256 -0.0268 -0.1729 -0.0701
  819MPD2    C312104   0.904   4.284  15.319  0.1982  0.3352 -0.6798
  819MPD2    C412105   0.843   4.408  15.306  0.7748  0.0110  0.4349
  819MPD2    C512106   0.726   4.414  15.232  0.0849  0.2267 -0.2349
  819MPD2     H12107   0.912   4.088  15.278  1.7629  0.7238 -1.0420
  819MPD2    H112108   0.890   4.502  15.333  0.1717  0.4161  0.0889
  819MPD2    H212109   0.600   4.342  15.091 -0.5716  0.3355 -0.2315
  819MPD2    H312110   0.680   4.509  15.206  1.0964  0.7240 -0.2394
  819MPD2     N12111   1.022   4.264  15.393 -1.1844 -0.0068  0.6556
  819MPD2    H512112   1.065   4.174  15.377  1.0942  1.1520  0.3408
  819MPD2    N112113   0.690   4.077  15.106  0.4624  0.0404 -0.2483
  819MPD2    H712114   0.614   4.103  15.045 -0.2989  1.2174  1.1827
  820MPD2     C12115   4.712   3.824  14.529 -0.1602  0.5323 -0.0707
  820MPD2    C112116   0.056   3.927  14.557  0.3437 -0.1579 -0.7587
  820MPD2    C212117   0.159   3.908  14.650  0.4055 -0.7385  0.2662
  820MPD2    C312118   0.171   3.785  14.712  0.2077  0.5659  0.2560
  820MPD2    C412119   0.082   3.686  14.695  0.0564  0.1563  0.1342
  820MPD2    C512120   4.730   3.700  14.598  0.3434  0.5618 -0.4752
  820MPD2     H12121   0.225   3.988  14.682  1.0619 -0.8342 -0.8649
  820MPD2    H112122   0.095   3.588  14.740  0.4228  1.4259  2.8022
  820MPD2    H212123   4.637   3.830  14.451  0.3506 -1.4859 -0.7321
  820MPD2    H312124   4.664   3.620  14.566  1.6028 -0.9383  0.6951
  820MPD2     N12125   0.282   3.758  14.791  0.9211 -0.4433 -0.5545
  820MPD2    H512126   0.291   3.661  14.823 -0.5214 -0.6669 -0.8147
  820MPD2    N112127   0.022   4.053  14.500  0.2827  0.5778  0.0971
  820MPD2    H712128   4.660   4.064  14.477  0.3487  0.1028 -0.4312
  821MPD2     C12129   1.374   0.170  13.123  0.3769  0.1525 -0.9258
  821MPD2    C112130   1.500   0.159  13.186 -0.6650 -0.7746  0.4367
  821MPD2    C212131   1.618   0.142  13.122 -0.4932 -0.3952 -0.3182
  821MPD2    C312132   1.613   0.171  12.986  0.1728 -0.5339  0.1692
  821MPD2    C412133   1.496   0.187  12.917  0.4235  0.0053  0.1026
  821MPD2    C512134   1.374   0.167  12.984 -0.8928 -0.3899 -0.6069
  821MPD2     H12135   1.704   0.136  13.187 -1.1492  0.7048  0.6600
  821MPD2    H112136   1.495   0.198  12.810  0.6274 -1.7117 -0.0693
  821MPD2    H212137   1.283   0.187  13.179  0.4751  1.2895 -1.1057
  821MPD2    H312138   1.280   0.159  12.931 -1.2456 -0.9510  0.0971
  821MPD2     N12139   1.734   0.178  12.914  0.8604 -0.1759  0.0584
  821MPD2    H512140   1.733   0.206  12.817 -0.7532  0.1084  0.1519
  821MPD2    N112141   1.515   0.147  13.323  0.4860  0.5231 -0.1297
  821MPD2    H712142   1.606   0.174  13.360  0.1643  0.1014  0.9625
  822MPD2     C12143   1.614   1.129  15.671 -0.3242 -0.1246 -0.1095
  822MPD2    C112144   1.625   1.087  15.803 -0.5243  0.4207  0.5389
  822MPD2    C212145   1.564   1.172  15.892  0.4327 -0.2843 -0.4048
  822MPD2    C312146   1.504   1.290  15.850 -0.8909  0.0134  0.2695
  822MPD2    C412147   1.496   1.326  15.712  0.3206  0.0754 -0.1013
  822MPD2    C512148   1.550   1.240  15.627 -0.3612 -0.3235  0.5323
  822MPD2     H12149   1.571   1.144  15.996 -0.6979  1.9956  0.2674
  822MPD2    H112150   1.461   1.423  15.679  0.0258  0.5892  1.7173
  822MPD2    H212151   1.657   1.065  15.595  3.4208  2.5335 -0.2334
  822MPD2    H312152   1.552   1.262  15.521  0.6869 -1.6697  0.2742
  822MPD2     N12153   1.453   1.375  15.948 -0.8473  0.6039 -0.2276
  822MPD2    H512154   1.437   1.341  16.042 -0.3692  2.5577  0.5813
  822MPD2    N112155   1.694   0.969  15.844  0.5990 -0.6641 -0.7804
  822MPD2    H712156   1.692   0.952  15.944  0.4583 -2.4918 -1.0866
  823MPD2     C12157   1.161   1.682  16.725  0.4163  0.4708 -1.3369
  823MPD2    C112158   1.181   1.590  16.627 -0.4791  0.0176 -0.6162
  823MPD2    C212159   1.196   1.456  16.654  0.1575 -0.1146 -0.3613
  823MPD2    C312160   1.196   1.419  16.788  0.2708 -0.1922  0.1495
  823MPD2    C412161   1.165   1.511  16.888 -0.2130 -0.2510 -0.7050
  823MPD2    C512162   1.155   1.646  16.856  0.7012  0.4378  0.0971
  823MPD2     H12163   1.222   1.378  16.584 -2.0697 -0.5303 -0.7279
  823MPD2    H112164   1.133   1.489  16.989 -0.5818 -0.0995 -0.7906
  823MPD2    H212165   1.142   1.788  16.709 -1.5986  0.6860  2.3854
  823MPD2    H312166   1.125   1.718  16.931 -0.1723 -0.7698  0.8897
  823MPD2     N12167   1.226   1.287  16.838 -0.2061  0.2562  0.5594
  823MPD2    H512168   1.240   1.268  16.937 -1.5147 -0.2441  0.6535
  823MPD2    N112169   1.200   1.636  16.496 -0.0455  0.2261  0.3271
  823MPD2    H712170   1.196   1.736  16.481 -0.2319  0.5016  2.2127
  824MPD2     C12171   1.702   0.235  15.576 -0.2694  0.1789 -0.6021
  824MPD2    C112172   1.826   0.277  15.628  0.8680 -0.5002 -0.2183
  824MPD2    C212173   1.930   0.191  15.626 -0.2397  0.6295 -0.9024
  824MPD2    C312174   1.911   0.069  15.567  0.6693 -0.5781 -0.7388
  824MPD2    C412175   1.799   0.021  15.506  0.5380  0.2088 -0.6644
  824MPD2    C512176   1.693   0.106  15.519 -0.7728 -0.0622  0.3742
  824MPD2     H12177   2.027   0.226  15.658  0.5849 -2.8832  0.4941
  824MPD2    H112178   1.794   4.664  15.452  1.3896 -0.1919 -0.0632
  824MPD2    H212179   1.612   0.294  15.566  0.0433  1.2485  3.0182
  824MPD2    H312180   1.611   0.078  15.454 -1.0418 -0.3502  0.8386
  824MPD2     N12181   2.033   4.728  15.551  0.4161  0.3378  0.1642
  824MPD2    H512182   2.123   0.029  15.576  0.4567 -0.5290  1.3108
  824MPD2    N112183   1.832   0.402  15.685  0.2505  0.6063 -0.6244
  824MPD2    H712184   1.753   0.466  15.681  0.4388  0.9954  2.0433
  825MPD2     C12185   2.793   4.628  15.838 -0.1285 -0.4226 -0.1024
  825MPD2    C112186   2.702   4.686  15.750  0.3953  0.2659 -0.2107
  825MPD2    C212187   2.721   0.082  15.715  0.5792 -0.5973 -0.1463
  825MPD2    C312188   2.829   0.161  15.750 -0.5677 -0.5977  0.3825
  825MPD2    C412189   2.924   0.089  15.819  1.1889 -0.0188  0.4331
  825MPD2    C512190   2.908   4.699  15.866 -0.1327  0.7410 -0.3474
  825MPD2     H12191   2.646   0.127  15.651  1.8226  2.0109  0.2179
  825MPD2    H112192   3.016   0.140  15.847  0.1486  2.1549 -0.0627
  825MPD2    H212193   2.783   4.529  15.880 -2.8304  0.5093  1.4266
  825MPD2    H312194   2.992   4.661  15.923  0.9517 -1.4736 -3.4343
  825MPD2     N12195   2.839   0.299  15.728 -0.6759  0.2563  0.9280
  825MPD2    H512196   2.922   0.343  15.766 -0.7747  1.7783 -0.6421
  825MPD2    N112197   2.592   4.608  15.702 -0.2632  0.5969 -0.1324
  825MPD2    H712198   2.590   4.509  15.724 -2.5946  0.0985 -2.7092
  826MPD2     C12199   2.467   3.825  13.467 -0.3531  1.1132  0.0932
  826MPD2    C112200   2.578   3.875  13.405  0.1016 -0.2295  0.1792
  826MPD2    C212201   2.615   4.010  13.422 -0.2299 -0.8042  0.1824
  826MPD2    C312202   2.537   4.093  13.500 -0.6161  0.9759 -0.1784
  826MPD2    C412203   2.425   4.042  13.563  0.7237  0.7084 -0.3325
  826MPD2    C512204   2.396   3.910  13.548  0.5207 -0.6787  0.4220
  826MPD2     H12205   2.709   4.048  13.383  0.3914 -2.3766  0.1624
  826MPD2    H112206   2.363   4.114  13.615  2.0841  0.5488  1.5142
  826MPD2    H212207   2.441   3.720  13.462  0.2437  0.9941 -0.5551
  826MPD2    H312208   2.302   3.879  13.592  0.1271 -1.3493 -0.8868
  826MPD2     N12209   2.572   4.230  13.528 -0.0888 -0.7365  0.6770
  826MPD2    H512210   2.508   4.280  13.590  0.6395  1.5287 -0.3927
  826MPD2    N112211   2.651   3.795  13.310 -0.2259 -0.3424  0.4013
  826MPD2    H712212   2.616   3.700  13.305 -0.6910 -0.2298  1.3931
  827MPD2     C12213   3.079   0.546  10.034  0.3387  0.5019 -0.0693
  827MPD2    C112214   3.056   0.490  10.158  0.1647  0.0258 -0.0027
  827MPD2    C212215   2.920   0.489  10.203 -0.0685 -0.2690  0.7894
  827MPD2    C312216   2.819   0.545  10.126  0.1675 -0.9978  0.0937
  827MPD2    C412217   2.847   0.606  10.008  0.1290  0.3588  0.2178
  827MPD2    C512218   2.974   0.596   9.960  0.0093 -0.5616  0.1229
  827MPD2     H12219   2.889   0.437  10.293  0.2245 -0.3995  0.8163
  827MPD2    H112220   2.776   0.657   9.945 -0.2913 -0.5800 -0.0668
  827MPD2    H212221   3.174   0.542   9.982  0.1700  2.7805 -0.5756
  827MPD2    H312222   3.006   0.644   9.868 -1.9887  0.8280  0.1578
  827MPD2     N12223   2.689   0.542  10.181  0.3475 -0.4247  0.2904
  827MPD2    H512224   2.680   0.505  10.275  2.5862 -0.0209  0.6491
  827MPD2    N112225   3.166   0.438  10.231  0.4663 -0.4192 -0.2288
  827MPD2    H712226   3.262   0.454  10.200 -0.4101  1.8378 -1.7971
  828MPD2     C12227   1.936   1.027  11.833 -0.3099  0.5614 -0.0724
  828MPD2    C112228   1.808   0.986  11.827  0.2025 -0.1682  0.1305
  828MPD2    C212229   1.759   0.944  11.707  0.6287 -0.3931  0.3310
  828MPD2    C312230   1.825   0.959  11.587 -0.0936  0.2795  0.0689
  828MPD2    C412231   1.957   1.012  11.598 -0.4976 -0.7135 -0.8572
  828MPD2    C512232   2.013   1.041  11.721  0.2205  0.6401 -0.1919
  828MPD2     H12233   1.655   0.916  11.700  0.3478  1.4255 -2.6069
  828MPD2    H112234   2.023   1.023  11.512 -0.5762 -0.3445 -0.8694
  828MPD2    H212235   1.984   1.053  11.926 -3.7514  3.7777  0.7987
  828MPD2    H312236   2.115   1.076  11.720  0.1153  1.0476  2.1117
  828MPD2     N12237   1.774   0.926  11.461 -0.1018  0.4212  0.1813
  828MPD2    H512238   1.819   0.979  11.386  0.3261 -1.3630 -0.8359
  828MPD2    N112239   1.728   0.969  11.942  0.4078  0.0392 -0.2302
  828MPD2    H712240   1.641   0.917  11.930 -0.5881  1.6365 -0.0019
  829MPD2     C12241   0.958   1.179  11.738 -0.7300 -1.0732 -0.6448
  829MPD2    C112242   0.932   1.140  11.871  0.1340 -0.2873  0.4393
  829MPD2    C212243   1.031   1.144  11.959  0.3395 -0.7413 -0.2213
  829MPD2    C312244   1.160   1.177  11.916 -0.2157  0.1215 -0.1565
  829MPD2    C412245   1.183   1.214  11.782 -0.0928  0.2490 -0.8842
  829MPD2    C512246   1.080   1.210  11.699  0.8403 -0.0321 -0.2173
  829MPD2     H12247   1.013   1.107  12.060 -0.7233 -0.7347 -0.4080
  829MPD2    H112248   1.282   1.240  11.748  0.9303  1.2513  2.8295
  829MPD2    H212249   0.880   1.183  11.663 -0.2673  0.1979 -1.0666
  829MPD2    H312250   1.099   1.226  11.594 -1.3111  1.1035 -0.4494
  829MPD2     N12251   1.272   1.145  11.984 -0.7722  0.3179  0.3268
  829MPD2    H512252   1.356   1.129  11.929 -0.3248  2.2269  0.4589
  829MPD2    N112253   0.801   1.094  11.907 -0.7082  0.2106  0.1081
  829MPD2    H712254   0.732   1.092  11.832  0.9246  0.7560 -1.3939
  830MPD2     C12255   1.708   3.819  15.372 -0.2676  0.6091 -1.0791
  830MPD2    C112256   1.675   3.954  15.359  0.8881  0.6963  0.2730
  830MPD2    C212257   1.746   4.024  15.262 -0.9375  0.2121 -0.7163
  830MPD2    C312258   1.851   3.969  15.194 -0.1234 -0.4968 -0.1415
  830MPD2    C412259   1.884   3.835  15.211 -0.2213  0.2196  0.2268
  830MPD2    C512260   1.807   3.766  15.296  0.3724  0.0284  0.2270
  830MPD2     H12261   1.723   4.128  15.241  0.9493  0.7500 -0.1413
  830MPD2    H112262   1.975   3.784  15.179 -0.6591 -0.4656  0.0661
  830MPD2    H212263   1.657   3.749  15.438  0.0476 -0.1375 -1.6197
  830MPD2    H312264   1.827   3.660  15.308 -0.9853 -0.3077 -0.5089
  830MPD2     N12265   1.920   4.055  15.110  0.3550  0.0896 -0.4668
  830MPD2    H512266   1.902   4.155  15.107 -1.5931 -0.1823  2.6816
  830MPD2    N112267   1.566   4.010  15.436 -0.1901 -0.5759  0.3132
  830MPD2    H712268   1.511   3.955  15.502 -1.7680  3.5003  2.4375
  831MPD2     C12269   1.718   1.410  16.378  0.1438 -0.1482 -0.8591
  831MPD2    C112270   1.712   1.318  16.276 -0.5288  0.2043 -0.3308
  831MPD2    C212271   1.596   1.243  16.272 -0.5596  0.1562 -0.3750
  831MPD2    C312272   1.486   1.258  16.364 -0.1806  0.8699  0.8050
  831MPD2    C412273   1.502   1.353  16.463  0.2311  0.5791  0.6564
  831MPD2    C512274   1.616   1.433  16.462  1.0337  0.2833  0.3219
  831MPD2     H12275   1.584   1.166  16.196  1.0592 -0.6783  0.2261
  831MPD2    H112276   1.428   1.380  16.537 -0.5345 -1.7983  0.7563
  831MPD2    H212277   1.809   1.467  16.391  0.3121 -0.8731  1.1217
  831MPD2    H312278   1.638   1.518  16.525  0.6706 -1.0836  2.2910
  831MPD2     N12279   1.368   1.182  16.356 -0.6127  0.3419  0.6854
  831MPD2    H512280   1.301   1.197  16.430  0.8643 -0.2584  2.1443
  831MPD2    N112281   1.830   1.284  16.202  0.2756 -0.4792  0.6626
  831MPD2    H712282   1.910   1.346  16.208 -1.4799  1.8727 -0.2365
  832MPD2     C12283   0.155   2.239  17.330  0.6860  0.1615  0.0618
  832MPD2    C112284   0.090   2.350  17.283 -0.2159 -0.3131 -0.1394
  832MPD2    C212285   4.730   2.330  17.181 -0.2181 -0.6800  0.1523
  832MPD2    C312286   4.695   2.205  17.137  0.5938  0.1173  0.2927
  832MPD2    C412287   0.033   2.096  17.183  0.4504 -0.5985 -0.1652
  832MPD2    C512288   0.129   2.115  17.279  0.8862 -0.2755 -0.2627
  832MPD2     H12289   4.663   2.412  17.157  1.7619  0.9016  0.0577
  832MPD2    H112290   0.017   1.993  17.154 -0.2453 -0.3474 -0.6732
  832MPD2    H212291   0.233   2.244  17.405  0.7573  0.3547 -0.0253
  832MPD2    H312292   0.185   2.028  17.309 -0.5072 -0.8037  0.8140
  832MPD2     N12293   4.593   2.185  17.048 -0.0376  0.4019  0.5030
  832MPD2    H512294   4.553   2.091  17.039  1.2741 -0.2531  1.5844
  832MPD2    N112295   0.117   2.467  17.343  0.2133  0.1434 -0.0760
  832MPD2    H712296   0.205   2.467  17.393  0.2873  2.0063 -0.2299
  833MPD2     C12297   2.008   2.878  12.185  0.2495  0.1523  0.0155
  833MPD2    C112298   1.983   3.014  12.188 -0.5261  0.1407  0.2750
  833MPD2    C212299   2.068   3.105  12.138 -0.4301  0.6745 -0.2856
  833MPD2    C312300   2.191   3.069  12.097 -0.1179  0.2955  0.8768
  833MPD2    C412301   2.229   2.934  12.108  1.2014  0.1091  0.1550
  833MPD2    C512302   2.135   2.841  12.138 -0.4051  0.6366 -0.1321
  833MPD2     H12303   2.049   3.212  12.148 -1.7123  0.5243 -1.1103
  833MPD2    H112304   2.329   2.907  12.077  1.8163  2.9075 -0.3079
  833MPD2    H212305   1.945   2.798  12.222  0.0061  0.8994  1.2128
  833MPD2    H312306   2.160   2.736  12.133  1.1599  0.9039  2.0503
  833MPD2     N12307   2.279   3.154  12.033  0.2382 -0.1692 -0.0800
  833MPD2    H512308   2.360   3.114  11.987 -0.0064  1.3763 -1.8241
  833MPD2    N112309   1.862   3.064  12.249  0.0389 -0.0695  0.4680
  833MPD2    H712310   1.863   3.165  12.240  1.2682 -0.1691 -0.5760
  834MPD2     C12311   1.982   3.008  11.326  0.7542 -0.5134 -0.1055
  834MPD2    C112312   2.120   2.997  11.325 -0.0710  0.4242 -0.2243
  834MPD2    C212313   2.208   3.080  11.400 -0.5158  0.2570  0.4791
  834MPD2    C312314   2.158   3.188  11.478 -1.0513  0.7103 -0.1941
  834MPD2    C412315   2.016   3.192  11.484  0.5051 -0.2756  0.1783
  834MPD2    C512316   1.937   3.105  11.414 -0.2494 -0.0794  0.7518
  834MPD2     H12317   2.313   3.056  11.409 -0.0489  2.6872  1.5159
  834MPD2    H112318   1.977   3.272  11.547 -0.2615 -0.2075 -0.3887
  834MPD2    H212319   1.920   2.947  11.262  0.8859 -0.5669 -0.1817
  834MPD2    H312320   1.830   3.118  11.425 -0.1802  0.6464  0.5890
  834MPD2     N12321   2.248   3.256  11.565 -0.5538 -0.3552 -0.2358
  834MPD2    H512322   2.348   3.257  11.545 -0.4703  1.4999  0.2684
  834MPD2    N112323   2.160   2.884  11.249  0.2105  0.4321  1.1611
  834MPD2    H712324   2.086   2.828  11.209  1.3197 -0.1847 -0.0279
  835MPD2     C12325   2.173   1.041  10.459  0.2505 -0.1678 -0.4859
  835MPD2    C112326   2.125   1.086  10.584 -0.3783  0.4104 -0.6015
  835MPD2    C212327   2.209   1.062  10.696 -0.2158  0.0309 -0.4038
  835MPD2    C312328   2.318   0.984  10.684  0.3975  0.6852  0.4670
  835MPD2    C412329   2.372   0.948  10.561  0.3349  0.4817  0.7093
  835MPD2    C512330   2.297   0.983  10.455 -1.1182 -0.1887 -0.0208
  835MPD2     H12331   2.176   1.103  10.791 -1.0239  2.4503 -1.7340
  835MPD2    H112332   2.463   0.891  10.546  0.1761 -0.3753  2.9958
  835MPD2    H212333   2.112   1.058  10.371  0.6029 -0.5525 -0.8030
  835MPD2    H312334   2.324   0.961  10.352  2.2178  0.3700  0.7237
  835MPD2     N12335   2.384   0.937  10.799  0.1087  0.1856 -0.2460
  835MPD2    H512336   2.481   0.912  10.790  0.0760 -0.7593  1.9245
  835MPD2    N112337   2.002   1.146  10.599  0.3111  0.9258  0.2290
  835MPD2    H712338   1.987   1.198  10.685  0.5525  1.5709 -0.1156
  836MPD2     C12339   2.292   1.292  11.474 -0.7351 -0.3168  0.1403
  836MPD2    C112340   2.367   1.178  11.503  0.0683 -0.7805 -0.9180
  836MPD2    C212341   2.384   1.133  11.634 -0.1003 -0.7907 -0.7325
  836MPD2    C312342   2.341   1.221  11.737 -0.0802  0.4104  0.0323
  836MPD2    C412343   2.292   1.346  11.703 -0.1604  0.4808  0.7205
  836MPD2    C512344   2.255   1.375  11.573  0.2091  0.7905 -0.2029
  836MPD2     H12345   2.445   1.045  11.648 -2.4908 -2.1183  1.2040
  836MPD2    H112346   2.268   1.414  11.784  0.8362  1.0496  0.5280
  836MPD2    H212347   2.256   1.316  11.375  1.6430 -1.2406 -0.9572
  836MPD2    H312348   2.186   1.458  11.562 -1.7340 -0.8760 -0.4043
  836MPD2     N12349   2.336   1.193  11.876  0.3802  0.5672  0.0941
  836MPD2    H512350   2.288   1.258  11.937  1.1801  1.1834  0.0586
  836MPD2    N112351   2.404   1.104  11.386 -0.3021 -0.6824  1.2121
  836MPD2    H712352   2.388   1.136  11.291  4.4023  0.2756  0.7240
  837MPD2     C12353   0.460   0.210  10.190 -0.1505  0.1034  0.6999
  837MPD2    C112354   0.425   0.221  10.058 -0.0973  0.7323  0.5318
  837MPD2    C212355   0.405   0.352  10.012 -0.2250 -0.3497  0.1845
  837MPD2    C312356   0.407   0.460  10.091 -0.4466  0.6053 -0.4437
  837MPD2    C412357   0.462   0.451  10.215 -0.2532 -0.2301  0.5736
  837MPD2    C512358   0.480   0.324  10.260 -0.4923  0.4731 -1.0965
  837MPD2     H12359   0.372   0.366   9.910  0.0355  2.3879  0.4798
  837MPD2    H112360   0.481   0.543  10.268 -1.0789  1.5870 -2.2882
  837MPD2    H212361   0.470   0.112  10.236  0.8508 -0.5054 -0.8356
  837MPD2    H312362   0.518   0.310  10.360 -0.9133 -0.5447 -1.0708
  837MPD2     N12363   0.359   0.582  10.027  0.1790 -0.4001 -0.2190
  837MPD2    H512364   0.310   0.576   9.938  2.4741 -1.4342 -1.3985
  837MPD2    N112365   0.393   0.119   9.965 -0.6352  0.0174  0.3718
  837MPD2    H712366   0.378   0.146   9.868  0.9833 -0.5790 -0.0469
  838MPD2     C12367   3.104   2.696  10.789 -0.4131  0.2955 -0.2376
  838MPD2    C112368   3.068   2.768  10.902  0.0940 -0.3956 -0.9797
  838MPD2    C212369   2.988   2.696  10.993 -0.5107 -0.2038 -0.6576
  838MPD2    C312370   2.973   2.557  10.977  0.3955  0.0971  0.3182
  838MPD2    C412371   3.013   2.490  10.865 -0.5136 -0.2355  0.2772
  838MPD2    C512372   3.077   2.562  10.774  0.0759  0.0721  0.2284
  838MPD2     H12373   2.941   2.750  11.075  0.9045 -2.4210  1.5951
  838MPD2    H112374   2.998   2.383  10.851  0.0332 -0.1660 -0.7980
  838MPD2    H212375   3.166   2.734  10.708  0.0192 -0.6970 -0.3788
  838MPD2    H312376   3.108   2.514  10.682  1.1550 -2.9439  2.1789
  838MPD2     N12377   2.916   2.490  11.089 -0.5031  0.1733  0.0753
  838MPD2    H512378   2.883   2.543  11.169  2.5887  0.3658  1.2172
  838MPD2    N112379   3.094   2.904  10.928  0.2887 -0.0560 -0.9566
  838MPD2    H712380   3.032   2.938  11.001  0.9963  1.4740 -1.0681
  839MPD2     C12381   3.418   2.986  11.672 -0.6941 -0.4400 -0.5687
  839MPD2    C112382   3.416   2.900  11.567 -0.5936 -1.0470  0.0271
  839MPD2    C212383   3.362   2.940  11.446 -0.5354  0.4359  0.4727
  839MPD2    C312384   3.324   3.072  11.425 -0.1521  0.0529 -0.0701
  839MPD2    C412385   3.319   3.158  11.533  0.1240 -0.0328 -0.7375
  839MPD2    C512386   3.362   3.113  11.657  0.1339  0.6314  0.0220
  839MPD2     H12387   3.345   2.872  11.363  0.0873  0.3502  0.4148
  839MPD2    H112388   3.305   3.266  11.531  1.2593  0.1329  0.5227
  839MPD2    H212389   3.452   2.957  11.770 -0.6075 -0.1784 -0.5216
  839MPD2    H312390   3.359   3.182  11.741  0.0124 -0.6334  1.0605
  839MPD2     N12391   3.300   3.118  11.291 -0.2528  0.2577  0.4727
  839MPD2    H512392   3.301   3.040  11.225 -0.7096  1.2719 -0.7374
  839MPD2    N112393   3.441   2.762  11.578 -0.0628 -0.4531 -0.3595
  839MPD2    H712394   3.419   2.706  11.496 -0.8592 -1.4473  0.5374
  840MPD2     C12395   3.681   0.642  10.098  0.4497  0.4226 -0.2706
  840MPD2    C112396   3.707   0.626  10.230 -0.5770  0.0326  0.5814
  840MPD2    C212397   3.803   0.705  10.289  0.1391 -0.0625  0.2879
  840MPD2    C312398   3.855   0.820  10.223  0.7110  0.1136 -0.0375
  840MPD2    C412399   3.811   0.848  10.099  0.7838  0.6764 -0.2187
  840MPD2    C512400   3.721   0.759  10.039 -0.6722 -0.3648 -0.5728
  840MPD2     H12401   3.826   0.681  10.393  2.5126  0.4349 -0.1236
  840MPD2    H112402   3.846   0.931  10.038 -1.6685  2.7589  1.2153
  840MPD2    H212403   3.612   0.574  10.048 -1.4783  1.2789  1.1933
  840MPD2    H312404   3.705   0.768   9.932  2.4991 -0.1231 -1.0147
  840MPD2     N12405   3.952   0.904  10.277  0.1378  0.2950 -0.0808
  840MPD2    H512406   3.969   0.991  10.228  2.9362 -1.4013 -2.1027
  840MPD2    N112407   3.643   0.524  10.299  0.4630 -0.3071  0.3091
  840MPD2    H712408   3.578   0.467  10.245  0.6817 -1.8726  1.7066
  841MPD2     C12409   4.141   0.849  14.361 -1.1061 -0.1183 -0.0261
  841MPD2    C112410   4.035   0.800  14.430 -0.1453  0.1079 -0.1740
  841MPD2    C212411   4.026   0.818  14.572  0.3372 -0.3359  0.0164
  841MPD2    C312412   4.131   0.873  14.637  0.8490 -0.7927  0.2295
  841MPD2    C412413   4.237   0.923  14.563 -0.5544 -0.3001  0.6580
  841MPD2    C512414   4.244   0.906  14.433  0.8866 -0.2039  0.1134
  841MPD2     H12415   3.935   0.799  14.627 -0.3757  0.3026 -0.9434
  841MPD2    H112416   4.321   0.962  14.620 -0.4329 -3.2691  2.5167
  841MPD2    H212417   4.156   0.856  14.254 -0.9281  3.1117  0.2100
  841MPD2    H312418   4.339   0.935  14.389  0.9360  2.1223  1.7848
  841MPD2     N12419   4.103   0.907  14.775 -0.0886 -0.3332  0.6634
  841MPD2    H512420   4.009   0.889  14.808  0.6854 -2.1757  1.8238
  841MPD2    N112421   3.923   0.736  14.370 -0.6944  0.3258 -0.2742
  841MPD2    H712422   3.854   0.692  14.429 -1.0820  1.1626 -0.1007
  842MPD2     C12423   4.015   2.437  16.906 -0.8993  0.4285 -0.5657
  842MPD2    C112424   3.885   2.467  16.888 -0.3306 -1.2037  0.4183
  842MPD2    C212425   3.800   2.469  16.994  0.3995  0.5637 -0.2533
  842MPD2    C312426   3.842   2.427  17.118  0.6691 -0.0151  0.6740
  842MPD2    C412427   3.975   2.390  17.137  0.6689  0.5719 -0.2738
  842MPD2    C512428   4.063   2.404  17.027  0.2938  0.7884 -0.7571
  842MPD2     H12429   3.697   2.499  16.977  0.8340  0.5034 -3.1104
  842MPD2    H112430   4.009   2.349  17.231  1.2521  0.8927 -0.3454
  842MPD2    H212431   4.074   2.446  16.815 -3.2120  0.1766 -2.0800
  842MPD2    H312432   4.169   2.383  17.042 -0.1271 -0.3577  0.4990
  842MPD2     N12433   3.735   2.401  17.212 -0.5009  0.1625  0.0463
  842MPD2    H512434   3.652   2.450  17.179 -1.3781 -0.6999  0.9967
  842MPD2    N112435   3.843   2.490  16.754 -0.8890 -0.3531  0.0054
  842MPD2    H712436   3.920   2.516  16.693 -1.6754  0.8059 -0.4755
  843MPD2     C12437   0.746   3.581  16.850  0.3888  0.2140 -0.0196
  843MPD2    C112438   0.762   3.492  16.950 -0.0762 -0.0029  1.0153
  843MPD2    C212439   0.827   3.532  17.059 -0.2843 -0.3741  0.5929
  843MPD2    C312440   0.881   3.658  17.072  0.2564 -0.2378 -0.2790
  843MPD2    C412441   0.888   3.732  16.961  0.3282 -0.5072  0.3363
  843MPD2    C512442   0.819   3.698  16.850 -0.6251 -0.5652 -0.0331
  843MPD2     H12443   0.819   3.458  17.138  0.2561  0.4668  1.4479
  843MPD2    H112444   0.954   3.817  16.956 -1.1621  0.6231 -0.1094
  843MPD2    H212445   0.696   3.556  16.758 -0.4671 -0.3096  0.5882
  843MPD2    H312446   0.808   3.763  16.765  1.3761 -1.8145 -1.2509
  843MPD2     N12447   0.954   3.702  17.186 -0.3787  0.1426 -0.2510
  843MPD2    H512448   1.015   3.783  17.181 -1.4094  0.9407 -0.0477
  843MPD2    N112449   0.710   3.357  16.944  0.1021 -0.1893 -0.0029
  843MPD2    H712450   0.625   3.346  16.890  0.0664  1.5708 -0.2941
  844MPD2     C12451   4.193   1.473  16.635  0.6400  0.2420  0.2367
  844MPD2    C112452   4.243   1.510  16.506 -0.1994  0.1892  0.1965
  844MPD2    C212453   4.347   1.608  16.510  0.2922 -0.0303 -0.1840
  844MPD2    C312454   4.384   1.660  16.633  0.1394 -0.1215  0.2945
  844MPD2    C412455   4.322   1.627  16.753 -0.2681 -0.4084 -0.4422
  844MPD2    C512456   4.233   1.530  16.752  0.3305 -0.2305 -0.4143
  844MPD2     H12457   4.399   1.646  16.423  1.5107 -0.9626  0.1387
  844MPD2    H112458   4.353   1.655  16.853  0.3920  0.2432 -0.8302
  844MPD2    H212459   4.104   1.411  16.628  0.1276  1.1959 -1.7182
  844MPD2    H312460   4.173   1.510  16.840  0.8371  2.0739  0.4749
  844MPD2     N12461   4.493   1.750  16.630 -0.5287 -0.6529  0.0727
  844MPD2    H512462   4.522   1.780  16.537  2.0238  2.3023  1.8086
  844MPD2    N112463   4.211   1.440  16.390  0.6539 -0.6924 -0.1543
  844MPD2    H712464   4.259   1.461  16.303 -0.4706 -0.7925 -0.7906
  845MPD2     C12465   4.688   2.723  16.484 -0.0883 -0.5754 -0.0749
  845MPD2    C112466   4.723   2.698  16.618 -0.1088 -0.0192  0.2001
  845MPD2    C212467   0.017   2.566  16.653 -0.1423 -0.2142  0.5397
  845MPD2    C312468   0.005   2.458  16.562  0.8967  0.0718  0.2169
  845MPD2    C412469   4.703   2.487  16.431  0.1000  0.2137 -0.2017
  845MPD2    C512470   4.680   2.621  16.394  0.0580  0.1087 -0.3404
  845MPD2     H12471   0.049   2.549  16.755 -2.3149  0.3581  1.3277
  845MPD2    H112472   4.695   2.410  16.356 -0.7825 -0.4647  0.5932
  845MPD2    H212473   4.654   2.821  16.452 -0.7486 -0.6674  0.3269
  845MPD2    H312474   4.647   2.648  16.294  0.8926 -0.4080 -0.7586
  845MPD2     N12475   0.023   2.325  16.604 -0.1207  0.6285 -0.5435
  845MPD2    H512476   0.059   2.313  16.698  2.7969  2.1801 -1.4757
  845MPD2    N112477   4.715   2.807  16.709 -0.2729 -0.2611 -0.0875
  845MPD2    H712478   4.701   2.897  16.665  4.1123  0.0988 -0.7270
  846MPD2     C12479   1.657   2.849  14.034 -0.2896 -0.0309  0.5127
  846MPD2    C112480   1.535   2.864  13.975  0.0560 -0.5420  0.4521
  846MPD2    C212481   1.433   2.865  14.071  0.7089 -0.0199 -0.0433
  846MPD2    C312482   1.452   2.873  14.208  1.1098  0.1989  0.0180
  846MPD2    C412483   1.580   2.873  14.259 -0.3156  0.6299 -0.1884
  846MPD2    C512484   1.680   2.863  14.171 -0.2380 -0.3705  0.2232
  846MPD2     H12485   1.328   2.862  14.044  1.2204  2.7322 -2.3702
  846MPD2    H112486   1.601   2.881  14.365  1.1394  2.6961 -0.6318
  846MPD2    H212487   1.748   2.836  13.975 -0.6772  1.0348 -0.3169
  846MPD2    H312488   1.783   2.870  14.203 -0.2415  1.1085 -0.0938
  846MPD2     N12489   1.338   2.871  14.297 -0.1118 -0.0521 -0.5239
  846MPD2    H512490   1.257   2.819  14.265  0.2587 -0.6051 -0.5577
  846MPD2    N112491   1.511   2.863  13.839 -0.3640 -0.1853  1.0514
  846MPD2    H712492   1.413   2.867  13.813 -0.5387 -0.0295  1.7216
  847MPD2     C12493   1.617   3.718  13.442 -0.2936  0.7235  0.1247
  847MPD2    C112494   1.660   3.762  13.560 -0.1025 -0.5448  0.1115
  847MPD2    C212495   1.781   3.708  13.609 -0.1111  0.5060  0.1525
  847MPD2    C312496   1.861   3.619  13.532 -0.2184  0.1581 -0.0476
  847MPD2    C412497   1.812   3.585  13.408 -0.2227  0.3136  0.1180
  847MPD2    C512498   1.688   3.632  13.365  0.3981 -0.2681 -0.2985
  847MPD2     H12499   1.820   3.748  13.702  3.9002  2.7103 -2.4716
  847MPD2    H112500   1.857   3.515  13.338  0.6004  2.7132 -1.7317
  847MPD2    H212501   1.524   3.759  13.402 -0.9612 -0.6574  0.2860
  847MPD2    H312502   1.648   3.590  13.273 -2.2802 -0.9264  1.1618
  847MPD2     N12503   1.985   3.562  13.578 -0.2270  0.0983 -0.5322
  847MPD2    H512504   2.031   3.510  13.504  1.0938  1.5041 -0.7130
  847MPD2    N112505   1.599   3.871  13.632 -0.3958 -0.1672 -0.3088
  847MPD2    H712506   1.631   3.886  13.727  3.3120  0.8039 -1.7352
  848MPD2     C12507   4.370   2.233  16.226  0.0318  0.5010  0.0464
  848MPD2    C112508   4.367   2.332  16.323  0.1248 -0.3746 -0.0326
  848MPD2    C212509   4.381   2.463  16.274  0.3971  0.0089  0.5887
  848MPD2    C312510   4.395   2.490  16.142 -0.5254 -0.1027  0.3595
  848MPD2    C412511   4.408   2.385  16.054 -0.4677  0.5039 -0.4982
  848MPD2    C512512   4.394   2.256  16.097 -0.4877 -0.0513  0.0797
  848MPD2     H12513   4.371   2.547  16.342  2.4989  0.5725  0.1827
  848MPD2    H112514   4.416   2.409  15.948 -0.7570  0.9308 -0.4247
  848MPD2    H212515   4.356   2.130  16.254  2.4757 -0.3936 -2.0347
  848MPD2    H312516   4.399   2.177  16.022  2.4168 -1.0987  1.3811
  848MPD2     N12517   4.410   2.626  16.105  0.8068 -0.1091  0.7767
  848MPD2    H512518   4.389   2.688  16.182  2.8682 -0.5640  1.7118
  848MPD2    N112519   4.366   2.312  16.465  0.6090  0.0810 -0.1532
  848MPD2    H712520   4.374   2.390  16.529  0.1747 -0.1654  0.2013
  849MPD2     C12521   3.421   1.137  14.333 -0.4084 -0.3600 -0.1311
  849MPD2    C112522   3.508   1.156  14.226  0.5829 -0.1178  0.3620
  849MPD2    C212523   3.639   1.166  14.255 -0.2373 -0.3633 -0.6881
  849MPD2    C312524   3.690   1.121  14.379 -0.3001  0.3074  0.4260
  849MPD2    C412525   3.603   1.073  14.474  0.5039  0.3232 -0.5213
  849MPD2    C512526   3.472   1.082  14.456 -0.0777  0.1572  0.2294
  849MPD2     H12527   3.706   1.207  14.180 -0.6483  0.4348 -0.6137
  849MPD2    H112528   3.635   1.022  14.564 -1.5803  1.3682  0.8074
  849MPD2    H212529   3.314   1.152  14.334 -0.3528  0.0977 -0.9257
  849MPD2    H312530   3.406   1.047  14.534 -1.6486  1.0299 -0.7150
  849MPD2     N12531   3.824   1.143  14.402 -0.4437  0.3771  0.5779
  849MPD2    H512532   3.877   1.184  14.326 -0.7645 -1.0268 -0.4074
  849MPD2    N112533   3.462   1.203  14.101  0.2130  0.1015 -0.2088
  849MPD2    H712534   3.540   1.216  14.038 -0.6739 -0.6732 -1.4949
  850MPD2     C12535   1.739   0.120  14.727  0.6744  1.1348  0.9444
  850MPD2    C112536   1.701   0.239  14.790 -0.4226 -0.4810 -0.4067
  850MPD2    C212537   1.800   0.311  14.861 -0.4545  0.0594 -0.0477
  850MPD2    C312538   1.932   0.273  14.863 -0.0510 -1.8155  1.2425
  850MPD2    C412539   1.967   0.151  14.805  0.3502  0.7853 -0.3137
  850MPD2    C512540   1.867   0.068  14.747  0.3593 -0.3252 -0.5515
  850MPD2     H12541   1.779   0.406  14.908 -1.0259 -0.7983  1.4323
  850MPD2    H112542   2.065   0.110  14.825  0.7641  0.9396 -2.0422
  850MPD2    H212543   1.668   0.057  14.673  1.0057 -0.4201  2.3246
  850MPD2    H312544   1.888   4.704  14.712  0.6163 -0.1809 -0.8138
  850MPD2     N12545   2.033   0.352  14.922  0.1868 -0.3280 -0.6926
  850MPD2    H512546   2.122   0.306  14.938 -0.6409 -0.8044  2.5662
  850MPD2    N112547   1.565   0.279  14.779  0.0059 -0.2538 -0.6437
  850MPD2    H712548   1.517   0.256  14.692  0.7466  1.0969 -1.4029
  851MPD2     C12549   2.093   0.121  15.260  0.9535  0.0862 -0.2505
  851MPD2    C112550   1.981   0.093  15.185 -0.3334  0.2061  0.3853
  851MPD2    C212551   1.984   4.718  15.101  0.0316  0.7279  0.0152
  851MPD2    C312552   2.097   4.633  15.100  1.2440 -0.1968 -0.4083
  851MPD2    C412553   2.206   4.665  15.180 -0.2250 -0.2607  0.2246
  851MPD2    C512554   2.198   0.035  15.261  0.3510  0.6352  0.3307
  851MPD2     H12555   1.901   4.701  15.034 -0.9120  1.0545  1.0877
  851MPD2    H112556   2.292   4.599  15.189 -0.0481  0.0218  0.6163
  851MPD2    H212557   2.101   0.212  15.318 -0.7986  0.2910 -0.3175
  851MPD2    H312558   2.287   0.058  15.319  1.4665 -1.3791 -0.5658
  851MPD2     N12559   2.091   4.521  15.017 -0.1350  0.4602 -0.7000
  851MPD2    H512560   2.010   4.514  14.956 -0.7082  0.6942  0.0245
  851MPD2    N112561   1.868   0.180  15.202 -0.4681 -0.1186 -0.2978
  851MPD2    H712562   1.892   0.264  15.253  0.3823 -1.3624  1.3553
  852MPD2     C12563   1.219   2.826   9.372  0.0287 -0.2169  0.4567
  852MPD2    C112564   1.181   2.918   9.464 -0.1830 -0.1276 -0.4465
  852MPD2    C212565   1.260   2.935   9.578  1.1310  0.3932 -0.4494
  852MPD2    C312566   1.381   2.869   9.589  0.1888  0.2749 -0.1585
  852MPD2    C412567   1.413   2.770   9.492  0.5443  0.5092  0.0977
  852MPD2    C512568   1.330   2.752   9.382 -0.6032 -0.1308  0.5301
  852MPD2     H12569   1.224   2.990   9.664 -1.3441 -3.4857  0.9928
  852MPD2    H112570   1.500   2.706   9.502 -1.5054 -1.9909  1.7570
  852MPD2    H212571   1.159   2.820   9.282  0.9805  0.5664 -0.2301
  852MPD2    H312572   1.345   2.668   9.315  2.5931  1.6027 -0.9208
  852MPD2     N12573   1.459   2.896   9.701 -0.3127  0.3056 -0.4964
  852MPD2    H512574   1.422   2.977   9.750 -0.5558  0.1853 -0.4837
  852MPD2    N112575   1.067   2.996   9.442 -0.2970  0.7538 -0.6450
  852MPD2    H712576   0.995   2.976   9.373 -0.4177 -0.4651 -0.1607
  853MPD2     C12577   3.085   1.473  12.435  0.0365 -0.8954  0.4169
  853MPD2    C112578   3.093   1.596  12.371 -0.8378  1.0312 -0.3439
  853MPD2    C212579   3.123   1.607  12.230 -0.3743 -0.0124  0.5943
  853MPD2    C312580   3.118   1.490  12.150 -0.4819  0.0081 -0.4370
  853MPD2    C412581   3.118   1.372  12.218 -0.4659  0.7733  0.3612
  853MPD2    C512582   3.098   1.366  12.350 -0.0804  0.2073 -0.0382
  853MPD2     H12583   3.135   1.705  12.185  0.1849 -0.2801  0.1523
  853MPD2    H112584   3.136   1.277  12.168  0.4146  1.2741 -0.2522
  853MPD2    H212585   3.064   1.458  12.540 -0.1421 -1.0436  0.3598
  853MPD2    H312586   3.081   1.267  12.389  0.6834 -0.3305 -1.0697
  853MPD2     N12587   3.138   1.486  12.013  1.0782  0.3404  0.3544
  853MPD2    H512588   3.145   1.391  11.979 -0.1870  0.1739  0.5408
  853MPD2    N112589   3.088   1.712  12.455  0.2434 -0.1570 -0.2003
  853MPD2    H712590   3.056   1.689  12.548 -0.7342 -1.1907 -0.7855
  854MPD2     C12591   0.435   1.564  12.617 -0.5128  0.1338  0.4034
  854MPD2    C112592   0.446   1.694  12.664  0.5115  0.3953 -0.5076
  854MPD2    C212593   0.542   1.718  12.756 -0.2615 -0.6202  0.3400
  854MPD2    C312594   0.634   1.617  12.797  0.1369 -0.8237 -0.2867
  854MPD2    C412595   0.621   1.489  12.750  0.0896 -0.0769 -0.2053
  854MPD2    C512596   0.519   1.468  12.660 -0.2797 -0.3388 -0.4232
  854MPD2     H12597   0.554   1.822  12.785  1.5888 -0.0950 -2.2561
  854MPD2    H112598   0.676   1.402  12.783  2.2332  2.3741  2.6763
  854MPD2    H212599   0.356   1.534  12.549 -0.7810  1.8493 -0.0461
  854MPD2    H312600   0.495   1.364  12.641  0.8930  0.0573 -4.1002
  854MPD2     N12601   0.748   1.634  12.882 -0.0580  0.0302  0.9394
  854MPD2    H512602   0.813   1.556  12.891  0.2372  0.4882  2.6765
  854MPD2    N112603   0.354   1.793  12.613  0.2579 -0.5499  0.6406
  854MPD2    H712604   0.278   1.756  12.557  0.9854  0.3913 -0.9501
  855MPD2     C12605   1.237   2.118  13.731  0.4350  0.2503 -0.1039
  855MPD2    C112606   1.118   2.057  13.709 -0.7589 -0.0258  0.3871
  855MPD2    C212607   1.083   2.015  13.585 -0.0442  0.2092 -0.0123
  855MPD2    C312608   1.172   2.016  13.479  0.9250  0.0398 -0.6211
  855MPD2    C412609   1.289   2.077  13.500  0.5154  0.0951 -0.0698
  855MPD2    C512610   1.325   2.127  13.621 -0.9537 -0.3207  0.0266
  855MPD2     H12611   0.991   1.957  13.585 -1.4875  2.4741  0.6298
  855MPD2    H112612   1.363   2.075  13.421  0.1356 -1.9934 -0.3609
  855MPD2    H212613   1.278   2.130  13.830 -0.1184  0.9941  0.0376
  855MPD2    H312614   1.427   2.160  13.634 -1.7857  2.3943 -0.4860
  855MPD2     N12615   1.148   1.950  13.357  0.3454 -0.0939 -0.5466
  855MPD2    H512616   1.221   1.950  13.286 -0.2189  1.4504 -1.1086
  855MPD2    N112617   1.039   2.009  13.812  0.3193 -0.2752  0.0739
  855MPD2    H712618   1.013   1.911  13.807 -0.6885  0.1560 -2.8088
  856MPD2     C12619   2.484   2.540  13.487 -0.4457  0.7224 -0.4367
  856MPD2    C112620   2.538   2.662  13.528 -0.0596  0.0985 -0.3161
  856MPD2    C212621   2.534   2.768  13.439 -0.0394  0.3622 -0.2750
  856MPD2    C312622   2.474   2.758  13.311 -0.3625 -0.4687  0.0579
  856MPD2    C412623   2.417   2.640  13.276  0.5092 -0.1205  0.0535
  856MPD2    C512624   2.412   2.540  13.369 -0.1406 -0.9421 -0.5062
  856MPD2     H12625   2.578   2.856  13.484 -1.3922  0.6568  0.4749
  856MPD2    H112626   2.360   2.628  13.185  1.2222  1.3183 -0.5782
  856MPD2    H212627   2.486   2.446  13.541 -1.2840 -0.8197 -3.0743
  856MPD2    H312628   2.373   2.442  13.346  0.3807 -1.3143  0.1867
  856MPD2     N12629   2.470   2.860  13.212 -0.2806 -0.3182 -0.3225
  856MPD2    H512630   2.432   2.824  13.126 -1.4244 -1.0460  0.4883
  856MPD2    N112631   2.609   2.682  13.649  0.0906  0.0643  0.1592
  856MPD2    H712632   2.627   2.777  13.680  1.6968  0.1650 -1.0861
  857MPD2     C12633   0.032   0.769  12.716 -0.4072 -0.6725 -0.2623
  857MPD2    C112634   0.059   0.723  12.840 -0.1628  0.2170 -0.3515
  857MPD2    C212635   0.058   0.806  12.949 -0.8416  0.2775  0.6136
  857MPD2    C312636   0.036   0.941  12.937  0.0598 -0.0509 -0.3287
  857MPD2    C412637   0.013   0.989  12.808 -0.1603 -0.2113 -0.3008
  857MPD2    C512638   0.003   0.900  12.706  0.9705  0.2713  0.0542
  857MPD2     H12639   0.078   0.758  13.045 -3.0022 -1.0559  0.3935
  857MPD2    H112640   4.725   1.093  12.793 -0.4010 -0.3325 -0.7493
  857MPD2    H212641   0.020   0.702  12.632 -3.3971 -0.6771  0.1626
  857MPD2    H312642   4.732   0.951  12.611  0.9388  0.1460 -0.0104
  857MPD2     N12643   0.033   1.018  13.058  0.1094  0.5862 -0.2320
  857MPD2    H512644   0.071   0.976  13.142 -0.2020  1.9330  0.5933
  857MPD2    N112645   0.087   0.582  12.850 -0.0300  0.3676 -0.1963
  857MPD2    H712646   0.082   0.526  12.765  1.4172 -2.0674  1.3482
  858MPD2     C12647   4.622   0.417  16.217  0.0010  0.0908  0.3274
  858MPD2    C112648   4.642   0.303  16.291  0.0189  0.2247  0.3046
  858MPD2    C212649   4.702   0.309  16.413 -0.0102  0.4173 -0.1784
  858MPD2    C312650   0.017   0.434  16.464 -0.3961  0.2938 -0.9476
  858MPD2    C412651   4.726   0.548  16.391  0.3824  0.0096  0.1521
  858MPD2    C512652   4.654   0.532  16.271  0.3409  0.3240 -0.3442
  858MPD2     H12653   4.713   0.218  16.471  1.2081  1.2823  0.9626
  858MPD2    H112654   0.026   0.643  16.428  1.1426 -0.3482  0.3230
  858MPD2    H212655   4.583   0.404  16.117  0.6331 -1.5663  0.2908
  858MPD2    H312656   4.622   0.623  16.222 -0.2501 -0.0723 -0.6973
  858MPD2     N12657   0.077   0.455  16.592 -0.4907  0.7451  0.4275
  858MPD2    H512658   0.115   0.546  16.617 -0.2441  0.7827 -0.0966
  858MPD2    N112659   4.612   0.187  16.225 -0.4600  0.3387 -0.2997
  858MPD2    H712660   4.572   0.193  16.133  1.1127  1.5175 -0.9032
  859MPD2     C12661   3.694   1.410  16.086  0.3178  0.2777 -0.3057
  859MPD2    C112662   3.618   1.392  15.967 -0.0637  0.5980 -0.0992
  859MPD2    C212663   3.574   1.263  15.935 -0.6541 -0.1023  0.3750
  859MPD2    C312664   3.599   1.151  16.010  0.1226  0.9302  0.4839
  859MPD2    C412665   3.675   1.173  16.124 -0.4951  0.1262 -0.0020
  859MPD2    C512666   3.726   1.296  16.159  0.5249  0.3517 -0.6631
  859MPD2     H12667   3.505   1.254  15.851 -0.0334  0.5335 -0.2044
  859MPD2    H112668   3.696   1.087  16.186 -1.1669  0.4335  0.6631
  859MPD2    H212669   3.729   1.505  16.126 -1.4497  1.2073 -0.9770
  859MPD2    H312670   3.794   1.318  16.241 -1.8386 -0.2216  1.4756
  859MPD2     N12671   3.551   1.020  15.981  0.1507 -0.0397  0.2747
  859MPD2    H512672   3.546   0.950  16.054 -5.2141 -0.9903 -0.9929
  859MPD2    N112673   3.591   1.507  15.894 -0.3540  0.8069 -0.1601
  859MPD2    H712674   3.642   1.588  15.928  0.5488  0.4811 -0.7568
  860MPD2     C12675   1.795   1.921  11.627 -0.0880  0.6951 -0.0974
  860MPD2    C112676   1.809   1.908  11.768 -0.1047 -0.3358  0.3622
  860MPD2    C212677   1.723   1.822  11.837  0.5193  0.0129 -0.0100
  860MPD2    C312678   1.629   1.747  11.772 -0.3760 -0.4463 -0.3849
  860MPD2    C412679   1.618   1.757  11.634  0.2136 -0.0111 -0.0603
  860MPD2    C512680   1.697   1.846  11.570  0.1081  0.2693 -0.2161
  860MPD2     H12681   1.714   1.829  11.944 -2.2959  1.9885 -0.3786
  860MPD2    H112682   1.543   1.712  11.570  1.7351 -0.6125 -1.4456
  860MPD2    H212683   1.859   1.983  11.566  1.5476  0.3707  1.2887
  860MPD2    H312684   1.683   1.851  11.463 -2.7039  0.1249  0.1460
  860MPD2     N12685   1.544   1.669  11.847 -0.2613 -0.4325 -0.1946
  860MPD2    H512686   1.561   1.662  11.947  1.0095  1.6683 -0.2462
  860MPD2    N112687   1.896   1.983  11.851  0.0442 -0.6689 -0.5779
  860MPD2    H712688   1.884   1.961  11.950 -0.2274  2.1399 -0.0035
  861MPD2     C12689   4.478   4.720  10.953  0.2081 -0.2702  0.3257
  861MPD2    C112690   4.349   4.701  10.995 -0.0462  0.4927 -0.2042
  861MPD2    C212691   4.240   0.031  10.933  0.1240 -0.0682  0.1513
  861MPD2    C312692   4.274   0.107  10.819  0.2162 -0.3779 -1.2774
  861MPD2    C412693   4.407   0.134  10.782  0.1690  0.5534  0.2710
  861MPD2    C512694   4.507   0.069  10.852 -0.1858  0.3815 -0.7179
  861MPD2     H12695   4.138   0.010  10.962 -0.3321  1.9894  0.0816
  861MPD2    H112696   4.433   0.196  10.697  1.5483 -1.0679 -0.4956
  861MPD2    H212697   4.571   4.678  10.989  0.4094  1.3153  1.6395
  861MPD2    H312698   4.613   0.082  10.836  0.1951  1.6878  2.8384
  861MPD2     N12699   4.181   0.176  10.743  0.2047 -0.0650  0.3207
  861MPD2    H512700   4.207   0.233  10.663 -0.2621 -0.0643  0.1732
  861MPD2    N112701   4.324   4.635  11.115  0.2909  0.5097 -0.2456
  861MPD2    H712702   4.226   4.632  11.142  0.0868  0.9973 -0.9471
  862MPD2     C12703   4.017   0.171  10.067  0.2165 -0.3631 -0.3363
  862MPD2    C112704   4.085   0.126  10.180  0.6801 -0.0966  0.8113
  862MPD2    C212705   4.117   4.730  10.202 -0.4775  0.2545 -0.2811
  862MPD2    C312706   4.068   4.639  10.108  0.4678 -0.3040  0.1734
  862MPD2    C412707   4.003   4.686   9.994 -0.0116  0.0296 -0.3564
  862MPD2    C512708   3.968   0.079   9.978 -0.2782 -0.0100  0.0625
  862MPD2     H12709   4.166   4.695  10.292  2.5224  0.7054 -1.7467
  862MPD2    H112710   3.969   4.613   9.921  0.6638 -0.9339  0.2929
  862MPD2    H212711   3.982   0.273  10.053  3.4655  0.6867 -0.6748
  862MPD2    H312712   3.924   0.117   9.886 -0.3121  2.0159  0.9248
  862MPD2     N12713   4.079   4.500  10.130  0.5993  0.2198 -0.2698
  862MPD2    H512714   4.046   4.435  10.060  0.6428 -1.6281  1.4204
  862MPD2    N112715   4.115   0.211  10.292  0.4978  0.0063 -0.0035
  862MPD2    H712716   4.175   0.173  10.364  2.1887 -0.3800 -1.6162
  863MPD2     C12717   2.631   3.662  16.880 -0.4509 -0.9344 -0.2771
  863MPD2    C112718   2.706   3.641  16.764  0.7800 -0.4534  0.5325
  863MPD2    C212719   2.843   3.598  16.783  0.3081  0.3658  0.1503
  863MPD2    C312720   2.895   3.566  16.908 -0.6118 -0.1896  0.4963
  863MPD2    C412721   2.811   3.586  17.023  0.0535  0.3848 -0.6039
  863MPD2    C512722   2.682   3.630  17.006 -0.0413  0.2258 -0.0827
  863MPD2     H12723   2.917   3.581  16.706  0.0753  2.1139 -0.4476
  863MPD2    H112724   2.842   3.568  17.125  0.7824 -0.2403 -0.9410
  863MPD2    H212725   2.537   3.715  16.869 -0.5689 -1.1594 -0.3506
  863MPD2    H312726   2.624   3.649  17.096  1.6861 -1.9935  1.5000
  863MPD2     N12727   3.023   3.516  16.927  0.3329  0.1083 -0.0792
  863MPD2    H512728   3.052   3.488  17.020  0.1002  2.7690  0.7812
  863MPD2    N112729   2.639   3.669  16.644 -0.1999  0.1179  0.2126
  863MPD2    H712730   2.553   3.720  16.656 -0.7439 -0.7196 -0.1545
  864MPD2     C12731   3.441   4.454  17.280 -0.5468  0.9903 -1.0216
  864MPD2    C112732   3.493   4.388  17.175  0.1168 -0.0173  0.0467
  864MPD2    C212733   3.596   4.455  17.099  0.4111  0.1424 -0.8279
  864MPD2    C312734   3.632   4.581  17.142  0.3835  0.2372  0.0134
  864MPD2    C412735   3.574   4.646  17.244  0.3500 -0.3739 -0.1198
  864MPD2    C512736   3.484   4.578  17.318 -0.8913 -0.2898  0.8660
  864MPD2     H12737   3.651   4.403  17.020  2.3584  0.0879  0.5540
  864MPD2    H112738   3.603   0.008  17.276  0.8438 -0.4867 -0.2175
  864MPD2    H212739   3.365   4.408  17.343  1.8433 -3.0920 -1.1243
  864MPD2    H312740   3.442   4.626  17.407 -3.1758  1.3442 -1.0983
  864MPD2     N12741   3.723   4.659  17.080 -0.1406 -0.0292  0.1588
  864MPD2    H512742   3.720   0.019  17.112  1.1754 -0.3332  1.2229
  864MPD2    N112743   3.435   4.262  17.128 -0.3038 -0.8241  0.1891
  864MPD2    H712744   3.349   4.236  17.175  0.9815 -3.7942  0.9055
  865MPD2     C12745   3.636   0.466  16.403 -0.3142 -0.4977 -0.2754
  865MPD2    C112746   3.678   0.349  16.461  0.3649  0.5433  0.0515
  865MPD2    C212747   3.703   0.342  16.597  0.7600 -0.7959  0.0341
  865MPD2    C312748   3.698   0.459  16.669  0.1243 -0.6533  0.0152
  865MPD2    C412749   3.662   0.577  16.607  0.5627  0.4841 -0.3132
  865MPD2    C512750   3.639   0.585  16.472  0.9614 -0.0955 -0.2234
  865MPD2     H12751   3.746   0.249  16.633  1.4167 -1.1435 -1.6805
  865MPD2    H112752   3.678   0.668  16.664  1.6008  0.8001 -1.1002
  865MPD2    H212753   3.616   0.469  16.296  1.2292  0.3107 -0.5423
  865MPD2    H312754   3.606   0.677  16.425  0.3841  0.4706  1.3046
  865MPD2     N12755   3.714   0.468  16.813 -0.1486 -0.3452  0.0082
  865MPD2    H512756   3.685   0.559  16.848  1.4772  1.2223 -2.6299
  865MPD2    N112757   3.696   0.236  16.380 -0.2410 -0.3634  0.4195
  865MPD2    H712758   3.680   0.251  16.281  1.9867  0.8698  0.2520
  866MPD2     C12759   0.499   0.556  11.146 -0.1028 -0.3944 -0.2686
  866MPD2    C112760   0.477   0.621  11.024  0.5280  0.5977 -0.4770
  866MPD2    C212761   0.345   0.622  10.977  0.5733  0.3922  0.3587
  866MPD2    C312762   0.238   0.573  11.054  0.6817 -0.0759  0.6010
  866MPD2    C412763   0.263   0.523  11.184  0.1152  0.4327  0.1679
  866MPD2    C512764   0.395   0.506  11.224  1.2062  0.1576 -0.6058
  866MPD2     H12765   0.322   0.675  10.886 -2.4828 -0.0233  0.9000
  866MPD2    H112766   0.192   0.477  11.253  0.4537  0.8981  0.8310
  866MPD2    H212767   0.593   0.549  11.199  0.2841 -0.4227 -0.9533
  866MPD2    H312768   0.406   0.448  11.315  0.8315  1.3986  0.2356
  866MPD2     N12769   0.104   0.585  11.017  0.0764  0.1041  0.4479
  866MPD2    H512770   0.031   0.549  11.079 -0.0199  0.8764  0.7795
  866MPD2    N112771   0.591   0.679  10.953  0.3899  0.6075  1.1734
  866MPD2    H712772   0.680   0.650  10.992  0.1456 -1.2056  0.3291
  867MPD2     C12773   2.405   0.224  16.249  0.1685 -0.9775  0.1132
  867MPD2    C112774   2.447   0.162  16.366  0.5510 -0.4921  0.0057
  867MPD2    C212775   2.490   0.240  16.468  0.1182  0.0397  0.0087
  867MPD2    C312776   2.478   0.381  16.464  0.1310 -0.0700 -0.2844
  867MPD2    C412777   2.440   0.441  16.344 -0.2775 -1.2100 -0.0383
  867MPD2    C512778   2.404   0.358  16.238  0.3555  0.0731  0.3615
  867MPD2     H12779   2.518   0.200  16.565  1.5500 -1.8760 -1.2158
  867MPD2    H112780   2.457   0.547  16.326 -0.8594 -1.1317 -0.1261
  867MPD2    H212781   2.378   0.169  16.160  1.3306 -0.1544 -0.7563
  867MPD2    H312782   2.386   0.399  16.139 -0.8852  0.7801  0.8718
  867MPD2     N12783   2.527   0.465  16.564  0.0513  0.3619  0.4772
  867MPD2    H512784   2.524   0.565  16.547 -0.4978  0.5784  1.9213
  867MPD2    N112785   2.434   0.026  16.373  0.1080  1.3975  0.9651
  867MPD2    H712786   2.375   4.721  16.302  2.4168  0.8732 -0.6439
  868MPD2     C12787   4.284   3.462  12.916  0.1173 -0.6079  1.0627
  868MPD2    C112788   4.319   3.584  12.975  0.3724 -0.3511 -0.0491
  868MPD2    C212789   4.221   3.673  12.999  0.1631 -0.1104  0.5502
  868MPD2    C312790   4.090   3.636  12.974 -0.4178 -0.7683 -0.3782
  868MPD2    C412791   4.057   3.512  12.919  0.0011 -0.0340  0.1457
  868MPD2    C512792   4.153   3.429  12.877  0.0638 -0.4906  0.0198
  868MPD2     H12793   4.243   3.775  13.029  0.0239 -0.0289  0.3737
  868MPD2    H112794   3.957   3.475  12.901  0.7097 -4.0235  4.2663
  868MPD2    H212795   4.360   3.386  12.901  0.5340 -0.1328  0.7415
  868MPD2    H312796   4.126   3.331  12.839 -1.1212 -0.3254  0.4137
  868MPD2     N12797   3.985   3.725  13.019 -0.3455  0.2143  0.3701
  868MPD2    H512798   4.007   3.809  13.071  2.3407  0.1365 -0.6385
  868MPD2    N112799   4.448   3.601  13.014  0.4886  0.2113  0.4567
  868MPD2    H712800   4.509   3.521  12.996  1.7790  0.6591  2.9094
  869MPD2     C12801   0.708   1.770  17.480  0.0327  0.7054  0.5934
  869MPD2    C112802   0.693   1.757  17.616 -0.1407 -0.5727 -0.0113
  869MPD2    C212803   0.719   1.868  17.698 -0.3778 -0.0984 -1.3846
  869MPD2    C312804   0.755   1.988  17.646 -0.2986  0.4610 -0.1608
  869MPD2    C412805   0.786   1.993  17.511  0.1517 -0.3418  0.6424
  869MPD2    C512806   0.756   1.886  17.427  0.4026 -0.7164  0.0130
  869MPD2     H12807   0.675   1.868   0.052  0.0069  0.3900 -1.2125
  869MPD2    H112808   0.831   2.081  17.465  0.6538 -0.8520  0.1534
  869MPD2    H212809   0.681   1.690  17.412 -1.0376  1.0626  0.5958
  869MPD2    H312810   0.767   1.887  17.320  0.0364 -1.8940 -0.0422
  869MPD2     N12811   0.774   2.109  17.716 -0.0386 -0.0622  0.2458
  869MPD2    H512812   0.789   2.195  17.664  1.8661 -0.8025 -0.4192
  869MPD2    N112813   0.639   1.638  17.659  0.3092  0.3378  0.3285
  869MPD2    H712814   0.615   1.571  17.587  2.5710 -0.0117 -0.1186
  870MPD2     C12815   1.073   0.402   1.486 -0.4792  0.4920 -0.1867
  870MPD2    C112816   0.973   0.325   1.430  0.1744  0.9308  0.4929
  870MPD2    C212817   0.841   0.372   1.416  0.5538  0.2481  0.1820
  870MPD2    C312818   0.811   0.505   1.454 -0.0380 -0.1798  0.3149
  870MPD2    C412819   0.909   0.578   1.511 -0.1797  0.1301 -0.0396
  870MPD2    C512820   1.035   0.529   1.527  0.1030  0.8776  0.4352
  870MPD2     H12821   0.769   0.323   1.352  2.7321  0.4489 -2.4170
  870MPD2    H112822   0.891   0.681   1.540  1.9609  0.0605  1.5513
  870MPD2    H212823   1.177   0.376   1.495 -0.8528 -0.2484  2.1288
  870MPD2    H312824   1.116   0.587   1.569  0.4843  1.1884 -0.7173
  870MPD2     N12825   0.680   0.546   1.429  0.1012  0.2188  0.3093
  870MPD2    H512826   0.618   0.476   1.390 -0.4172 -0.0493  1.5860
  870MPD2    N112827   1.008   0.195   1.381  0.1435  0.0579 -0.4116
  870MPD2    H712828   0.923   0.145   1.358  0.2002 -0.1669 -0.1249
  871MPD2     C12829   1.510   0.858  16.294  0.2427 -0.3263  0.2275
  871MPD2    C112830   1.440   0.776  16.378  0.7330 -0.4202 -0.5355
  871MPD2    C212831   1.385   0.652  16.334 -0.3504 -0.2654  0.0251
  871MPD2    C312832   1.399   0.615  16.201 -0.6010  0.3425 -0.0801
  871MPD2    C412833   1.476   0.693  16.122 -0.8044 -0.5077  0.0445
  871MPD2    C512834   1.524   0.817  16.165 -0.8468 -0.0645  0.3130
  871MPD2     H12835   1.332   0.585  16.401  0.4569 -1.2036 -0.2692
  871MPD2    H112836   1.500   0.656  16.023  0.8819  0.0011  0.2683
  871MPD2    H212837   1.530   0.961  16.321  1.1105 -0.4148 -0.0935
  871MPD2    H312838   1.590   0.880  16.107 -1.7989  3.1596  2.7087
  871MPD2     N12839   1.343   0.489  16.160  0.1158  0.5000 -0.4657
  871MPD2    H512840   1.285   0.449  16.233  0.2471 -0.1494 -0.7115
  871MPD2    N112841   1.439   0.823  16.509 -1.0960  0.0984 -0.4788
  871MPD2    H712842   1.493   0.904  16.538 -0.1100 -1.3710  1.7943
  872MPD2     C12843   2.506   1.997  14.588 -0.2822 -0.0610 -0.1965
  872MPD2    C112844   2.534   2.095  14.488 -0.2943  0.3070 -0.5512
  872MPD2    C212845   2.445   2.201  14.495 -0.0776 -0.5579 -0.0581
  872MPD2    C312846   2.341   2.206  14.582  0.7565 -0.0843 -0.3426
  872MPD2    C412847   2.320   2.116  14.682 -0.2945  0.2512  0.6859
  872MPD2    C512848   2.412   2.017  14.689 -0.9004 -0.0427  0.2976
  872MPD2     H12849   2.436   2.280  14.420 -2.0185 -1.0877 -0.3882
  872MPD2    H112850   2.244   2.127  14.759 -1.2122  2.3256 -0.5016
  872MPD2    H212851   2.568   1.907  14.582  0.1884  0.1607  1.2320
  872MPD2    H312852   2.397   1.947  14.771  1.6549 -2.1425 -1.0579
  872MPD2     N12853   2.252   2.316  14.601  0.2612 -0.3086  0.4650
  872MPD2    H512854   2.174   2.301  14.664 -1.0473 -0.1116 -1.1081
  872MPD2    N112855   2.634   2.084  14.392 -0.2763  0.5478  0.3094
  872MPD2    H712856   2.627   2.149  14.315 -1.4833 -0.3923 -0.3821
  873MPD2     C12857   4.047   2.335   0.869 -0.2429  0.2782 -0.1822
  873MPD2    C112858   3.915   2.367   0.873 -0.1487  0.0911  0.0172
  873MPD2    C212859   3.822   2.286   0.803 -0.6610 -0.2753 -0.4254
  873MPD2    C312860   3.869   2.173   0.738 -0.7212 -0.5978 -1.1645
  873MPD2    C412861   3.999   2.142   0.735 -1.0356 -0.2622 -0.4947
  873MPD2    C512862   4.094   2.229   0.797 -0.0509  0.2714  0.6458
  873MPD2     H12863   3.716   2.309   0.806 -0.2920  1.1530  1.7988
  873MPD2    H112864   4.050   2.067   0.675 -0.0760  0.7143 -0.9190
  873MPD2    H212865   4.124   2.397   0.913 -0.0228 -1.0062  1.2479
  873MPD2    H312866   4.200   2.207   0.801 -0.0750  0.6688  3.3062
  873MPD2     N12867   3.783   2.079   0.675 -0.0489 -0.5431 -0.5969
  873MPD2    H512868   3.821   1.991   0.641 -0.3597 -1.4124  1.2974
  873MPD2    N112869   3.878   2.483   0.947 -0.7855 -0.1752  0.2377
  873MPD2    H712870   3.951   2.540   0.988  2.3513 -2.8814 -1.6167
  874MPD2     C12871   3.681   2.882  15.980 -0.3574  0.1127  0.2851
  874MPD2    C112872   3.765   2.856  16.093  0.7803  0.2907  0.1116
  874MPD2    C212873   3.901   2.895  16.092  0.3257 -0.6974  0.0438
  874MPD2    C312874   3.948   2.953  15.973  0.2634 -0.1236  0.1405
  874MPD2    C412875   3.869   2.963  15.860 -0.1344 -0.1904  0.2343
  874MPD2    C512876   3.731   2.938  15.866  0.2866 -0.0943  0.3513
  874MPD2     H12877   3.972   2.893  16.174  1.7508 -0.1550 -1.1697
  874MPD2    H112878   3.907   3.007  15.768 -0.7557  0.2435  0.1819
  874MPD2    H212879   3.574   2.868  15.970 -0.1604 -1.0799 -0.1584
  874MPD2    H312880   3.669   2.971  15.784  0.5483  0.2449  0.2880
  874MPD2     N12881   4.084   2.985  15.976  0.0385 -0.1540  0.1618
  874MPD2    H512882   4.136   2.984  16.064 -0.8702  0.3419  0.6970
  874MPD2    N112883   3.707   2.782  16.199 -0.1418  0.4200  0.6016
  874MPD2    H712884   3.609   2.760  16.190 -0.4276  2.2147 -0.7215
  875MPD2     C12885   0.542   1.004  14.844  0.0376  0.2785 -0.3323
  875MPD2    C112886   0.414   0.980  14.896  1.1144  0.1792 -0.3535
  875MPD2    C212887   0.396   1.018  15.031  0.2045 -0.0561 -0.2183
  875MPD2    C312888   0.486   1.091  15.106  0.3606 -0.2046 -0.8646
  875MPD2    C412889   0.601   1.134  15.040  0.0601 -0.6350  0.2761
  875MPD2    C512890   0.632   1.082  14.916  0.2728  0.1422 -0.9619
  875MPD2     H12891   0.297   0.993  15.067  0.4664  2.7170  2.4580
  875MPD2    H112892   0.682   1.171  15.102 -0.3618  1.9512 -0.7405
  875MPD2    H212893   0.558   0.967  14.743  1.7311 -0.5080  0.2218
  875MPD2    H312894   0.737   1.085  14.889  0.9603  0.2314  1.7044
  875MPD2     N12895   0.468   1.134  15.237 -0.0150 -0.5044  0.1941
  875MPD2    H512896   0.533   1.200  15.279  0.1281 -0.1883 -0.5162
  875MPD2    N112897   0.315   0.913  14.826 -0.2441  0.0585  0.0471
  875MPD2    H712898   0.219   0.907  14.860  0.8398  0.5740  3.1703
  876MPD2     C12899   3.594   2.412  16.088 -0.5990  0.5838 -0.5844
  876MPD2    C112900   3.727   2.407  16.113  0.2339 -1.0106  0.4763
  876MPD2    C212901   3.780   2.325  16.199 -0.1026 -0.5030  0.0207
  876MPD2    C312902   3.695   2.239  16.267  0.0827 -0.8054 -0.3397
  876MPD2    C412903   3.559   2.236  16.236 -0.5572  0.0466  0.1727
  876MPD2    C512904   3.510   2.332  16.155  0.9607 -0.2643 -0.2202
  876MPD2     H12905   3.888   2.322  16.209  0.1651 -1.3399 -2.8322
  876MPD2    H112906   3.486   2.174  16.286 -2.3318  0.3034 -2.1279
  876MPD2    H212907   3.541   2.477  16.020 -1.5798  2.1344  1.6358
  876MPD2    H312908   3.404   2.347  16.143  1.0778  0.6177 -0.1811
  876MPD2     N12909   3.752   2.154  16.364 -0.3512  0.0913  0.0690
  876MPD2    H512910   3.853   2.151  16.359 -0.3511  2.0118 -0.8129
  876MPD2    N112911   3.802   2.493  16.029  0.3331  0.0889  0.4361
  876MPD2    H712912   3.753   2.518  15.944  0.6264 -0.2717  0.1624
  877MPD2     C12913   3.724   2.603  15.352 -0.2805 -0.0063  1.0680
  877MPD2    C112914   3.858   2.615  15.362 -0.7502  0.1543  0.7949
  877MPD2    C212915   3.940   2.585  15.256 -0.6551  0.0081 -0.5119
  877MPD2    C312916   3.886   2.527  15.139  0.0307  0.1503  0.3910
  877MPD2    C412917   3.745   2.521  15.133 -0.0688 -0.3702  0.4051
  877MPD2    C512918   3.664   2.549  15.239  0.2955  0.1237  0.0670
  877MPD2     H12919   4.046   2.597  15.277 -0.8780  1.4794 -0.1771
  877MPD2    H112920   3.693   2.488  15.043  1.8905 -0.6371 -0.6510
  877MPD2    H212921   3.653   2.621  15.432 -0.1169 -2.7038  1.8242
  877MPD2    H312922   3.559   2.523  15.247 -0.3037  1.8527 -2.1764
  877MPD2     N12923   3.962   2.487  15.022 -0.0771 -0.2146  0.0691
  877MPD2    H512924   3.909   2.428  14.959 -0.8457  0.3212  0.2046
  877MPD2    N112925   3.916   2.668  15.475  0.2409 -0.5218 -0.0265
  877MPD2    H712926   4.015   2.691  15.477  0.1036 -0.1471  2.3579
  878MPD2     C12927   3.308   0.937  13.130  0.5787 -0.4231  0.4851
  878MPD2    C112928   3.398   1.045  13.135 -0.1576  0.2239 -0.2527
  878MPD2    C212929   3.430   1.102  13.259  0.5422  0.8231 -0.3916
  878MPD2    C312930   3.376   1.047  13.372  0.0238 -0.3942  1.2718
  878MPD2    C412931   3.286   0.943  13.364  0.5365 -0.3184 -0.1651
  878MPD2    C512932   3.251   0.883  13.243  0.5411 -0.4665 -0.0371
  878MPD2     H12933   3.494   1.190  13.264 -0.6211  1.6002  0.9429
  878MPD2    H112934   3.257   0.888  13.453 -0.3646  0.9940  0.3379
  878MPD2    H212935   3.285   0.892  13.035  0.5268 -0.8680  0.7067
  878MPD2    H312936   3.187   0.796  13.232  0.7852 -0.6398 -0.0720
  878MPD2     N12937   3.403   1.107  13.494  0.6498  0.0657  0.1037
  878MPD2    H512938   3.469   1.183  13.486  0.3771  0.0965 -1.8337
  878MPD2    N112939   3.440   1.095  13.012 -0.7013 -0.3473 -0.2969
  878MPD2    H712940   3.396   1.047  12.934  1.0142  0.5569 -1.8134
  879MPD2     C12941   4.094   3.644  16.737  0.8930  0.5012 -0.5248
  879MPD2    C112942   4.080   3.549  16.827  0.2165  0.2396 -0.2443
  879MPD2    C212943   3.984   3.454  16.811 -0.1534 -0.7284 -0.8914
  879MPD2    C312944   3.901   3.447  16.700  0.2830 -0.1171 -0.5527
  879MPD2    C412945   3.932   3.541  16.607 -0.3492  0.2464 -0.6965
  879MPD2    C512946   4.017   3.650  16.627  0.6233 -0.1509 -0.9075
  879MPD2     H12947   3.968   3.386  16.894 -3.5075  0.3835 -0.5958
  879MPD2    H112948   3.883   3.547  16.510  0.4718 -1.9320 -1.2423
  879MPD2    H212949   4.166   3.724  16.750  0.9423  0.6064 -1.3859
  879MPD2    H312950   4.035   3.732  16.559  0.5704  0.4407 -0.1955
  879MPD2     N12951   3.802   3.358  16.670  0.2629  0.2458  0.2235
  879MPD2    H512952   3.766   3.364  16.576  0.9788  0.1204 -0.0574
  879MPD2    N112953   4.168   3.559  16.939 -0.0629 -0.0027 -0.3050
  879MPD2    H712954   4.226   3.642  16.945  0.2082  0.0848 -4.3662
  880MPD2     C12955   0.480   0.394   0.035  0.8418  0.8601  0.1637
  880MPD2    C112956   0.537   0.407   0.161  1.1149  0.0772 -0.3858
  880MPD2    C212957   0.593   0.299   0.221  0.2803  0.6832 -0.1596
  880MPD2    C312958   0.586   0.172   0.162  0.2787 -0.1119  0.2205
  880MPD2    C412959   0.525   0.157   0.043  0.3238 -0.0912  0.4502
  880MPD2    C512960   0.472   0.271  17.717  0.5089  0.8698  0.1391
  880MPD2     H12961   0.634   0.308   0.321 -0.7211 -0.8781  0.3787
  880MPD2    H112962   0.516   0.063  17.735  1.9425 -0.8901  1.6131
  880MPD2    H212963   0.426   0.476  17.736  0.8645  1.1101  0.6055
  880MPD2    H312964   0.423   0.255  17.622  0.0104 -0.8453  0.6762
  880MPD2     N12965   0.655   0.075   0.240  0.2151 -0.3008 -0.2637
  880MPD2    H512966   0.708   0.120   0.314 -0.0868 -3.2535  1.7499
  880MPD2    N112967   0.533   0.541   0.214 -0.9793 -0.2109  0.4470
  880MPD2    H712968   0.500   0.615   0.153 -0.0887  0.3736  0.6764
  881MPD2     C12969   0.911   1.434   0.070  0.0879 -0.4072  0.6737
  881MPD2    C112970   0.892   1.316   0.001  0.7618 -0.5671  0.2657
  881MPD2    C212971   0.815   1.217   0.071  0.1659  0.4347  0.4597
  881MPD2    C312972   0.791   1.232   0.208  0.2224 -0.1524 -0.3251
  881MPD2    C412973   0.829   1.352   0.271 -0.0503 -0.8195  0.7615
  881MPD2    C512974   0.883   1.457   0.201  0.0055  0.3022  0.0896
  881MPD2     H12975   0.768   1.134   0.019  0.7136 -0.2701  1.0761
  881MPD2    H112976   0.823   1.365   0.379 -0.5919  0.8874  0.5300
  881MPD2    H212977   0.974   1.508   0.021 -2.7131  0.4189 -1.7031
  881MPD2    H312978   0.920   1.550   0.242  0.6347  0.3853 -0.6628
  881MPD2     N12979   0.724   1.134   0.286  0.0731 -0.2501 -0.3276
  881MPD2    H512980   0.740   1.153   0.385  2.7161  2.0267 -1.1910
  881MPD2    N112981   0.906   1.315  17.607  0.2278 -0.1113 -0.1387
  881MPD2    H712982   0.929   1.403  17.562  2.0315 -0.8650 -0.6899
  882MPD2     C12983   3.685   2.504  14.532  0.0919  0.1215 -0.2575
  882MPD2    C112984   3.761   2.390  14.542 -0.4044 -0.5460 -0.1404
  882MPD2    C212985   3.704   2.263  14.519  0.6420  0.0525  0.5794
  882MPD2    C312986   3.564   2.258  14.518  0.5244 -0.3875 -0.2614
  882MPD2    C412987   3.487   2.369  14.513  0.3736 -0.0392  0.6999
  882MPD2    C512988   3.552   2.494  14.520 -0.6447  0.5178  0.7589
  882MPD2     H12989   3.768   2.176  14.512  0.3193 -0.2710  1.6563
  882MPD2    H112990   3.380   2.357  14.527  0.4033  0.4935  1.3966
  882MPD2    H212991   3.729   2.603  14.530 -0.1569  0.2263 -0.4079
  882MPD2    H312992   3.492   2.584  14.525 -1.4220 -0.0492  1.5701
  882MPD2     N12993   3.499   2.134  14.507  0.1446 -0.1206 -0.2194
  882MPD2    H512994   3.400   2.155  14.508  0.4352  1.2608  0.3138
  882MPD2    N112995   3.901   2.418  14.570  0.1347 -0.6230 -0.2105
  882MPD2    H712996   3.923   2.511  14.603 -2.0150 -0.2252  0.0511
  883MPD2     C12997   0.876   2.964  16.560 -0.1141  0.0663  0.4474
  883MPD2    C112998   0.956   3.030  16.471  0.4612 -0.6726 -0.0846
  883MPD2    C212999   1.080   3.068  16.515  0.4193 -0.0354  0.2248
  883MPD2    C313000   1.126   3.051  16.647  0.1510 -0.1876 -0.4496
  883MPD2    C413001   1.046   2.972  16.729 -1.6413  0.0248 -0.4895
  883MPD2    C513002   0.920   2.934  16.682  0.4903 -0.1851  0.8114
  883MPD2     H13003   1.136   3.131  16.446  0.3095  1.2970  1.3623
  883MPD2    H113004   1.082   2.956  16.830 -1.9215  3.3647  0.1185
  883MPD2    H213005   0.771   2.941  16.549 -0.2091  1.0436 -0.6052
  883MPD2    H313006   0.851   2.887  16.751 -0.9207  0.7371  0.0185
  883MPD2     N13007   1.242   3.130  16.688  0.1017  0.5115  0.0008
  883MPD2    H513008   1.286   3.177  16.610  3.1646 -3.5784 -0.7238
  883MPD2    N113009   0.915   3.080  16.344  0.2266  0.1122  0.3205
  883MPD2    H713010   0.990   3.127  16.294 -1.6438  0.5154 -2.0810
  884MPD2     C13011   2.634   3.329  14.986 -0.0237 -0.2942  0.2367
  884MPD2    C113012   2.617   3.318  14.844  0.3984  0.0048  0.5738
  884MPD2    C213013   2.508   3.378  14.783 -0.3836 -0.8954  0.6786
  884MPD2    C313014   2.409   3.445  14.858  0.0617 -0.0040  0.3158
  884MPD2    C413015   2.441   3.475  14.993 -0.0628  0.7340  0.3042
  884MPD2    C513016   2.552   3.417  15.047  0.1428 -0.3560  0.9670
  884MPD2     H13017   2.503   3.374  14.675  2.8436 -0.6455  0.5175
  884MPD2    H113018   2.398   3.558  15.047  0.3015  0.1854  1.4222
  884MPD2    H213019   2.716   3.289  15.044 -0.7795 -1.0369  0.8126
  884MPD2    H313020   2.576   3.448  15.148 -1.1645 -0.6440  1.3603
  884MPD2     N13021   2.302   3.506  14.788 -0.4689 -0.2712 -0.2558
  884MPD2    H513022   2.290   3.487  14.689 -0.7570 -0.4821 -0.1798
  884MPD2    N113023   2.728   3.287  14.761 -0.5502 -0.3568 -0.5059
  884MPD2    H713024   2.715   3.298  14.661 -0.1580  3.2147 -0.1480
  885MPD2     C13025   0.773   4.123   0.218  0.5653  0.6712  0.3289
  885MPD2    C113026   0.884   4.070   0.161  0.2980 -0.4892  0.7239
  885MPD2    C213027   0.892   4.076   0.017 -0.1375 -0.2449 -0.2182
  885MPD2    C313028   0.793   4.140  17.691 -0.5109 -0.6818  0.0578
  885MPD2    C413029   0.683   4.186   0.009  0.1278 -0.2360 -0.3349
  885MPD2    C513030   0.669   4.183   0.149 -0.1019 -0.1397  0.0499
  885MPD2     H13031   0.983   4.037  17.717 -0.5916 -1.3728 -0.1535
  885MPD2    H113032   0.589   4.219  17.711  0.0366 -1.8495 -1.3921
  885MPD2    H213033   0.751   4.121   0.324 -0.0585 -1.5598  0.1448
  885MPD2    H313034   0.579   4.212   0.203  1.1237 -0.7323  2.4355
  885MPD2     N13035   0.812   4.157  17.551  0.5887 -0.5466 -0.2955
  885MPD2    H513036   0.900   4.129  17.508  1.4482  1.7009 -0.0074
  885MPD2    N113037   0.977   4.002   0.248 -0.3953  0.0432  0.1458
  885MPD2    H713038   0.956   4.005   0.347  0.6090  2.5122  0.2817
  886MPD2     C13039   2.694   1.678  15.105 -0.7229  0.0542 -0.3821
  886MPD2    C113040   2.705   1.755  15.214  0.3509  0.4173 -0.2614
  886MPD2    C213041   2.642   1.881  15.215 -0.1499  0.1345  0.2695
  886MPD2    C313042   2.585   1.937  15.101 -0.0508  0.2594  0.3644
  886MPD2    C413043   2.598   1.869  14.982  0.1415 -0.3523 -0.8791
  886MPD2    C513044   2.651   1.743  14.987 -0.3122 -0.1985 -0.0436
  886MPD2     H13045   2.651   1.939  15.306  1.3488 -0.9933  0.8412
  886MPD2    H113046   2.568   1.919  14.890 -1.0717 -2.1180 -1.4571
  886MPD2    H213047   2.745   1.584  15.091  0.8916  0.9539 -0.5707
  886MPD2    H313048   2.659   1.691  14.892  0.3396 -1.3741  0.6609
  886MPD2     N13049   2.521   2.063  15.103  0.1183 -0.7475 -0.3943
  886MPD2    H513050   2.490   2.099  15.013 -0.7494  1.8090  0.9378
  886MPD2    N113051   2.758   1.711  15.341 -0.3947  0.0035  0.2615
  886MPD2    H713052   2.751   1.773  15.421  2.4123 -0.4761  0.8890
  887MPD2     C13053   3.119   2.010  15.888  0.1107 -0.2087 -0.0684
  887MPD2    C113054   3.018   2.021  15.797 -0.2673 -0.0985 -0.1862
  887MPD2    C213055   2.962   2.155  15.771 -0.1824 -0.5296 -0.1600
  887MPD2    C313056   3.037   2.263  15.830 -0.0593 -0.0368 -0.1708
  887MPD2    C413057   3.144   2.245  15.915  0.1487  0.3908 -0.2256
  887MPD2    C513058   3.185   2.116  15.939  0.0180  0.0212  0.6441
  887MPD2     H13059   2.882   2.176  15.701 -0.4629  0.5188  0.4833
  887MPD2    H113060   3.203   2.324  15.959  0.4376  0.2674 -0.3892
  887MPD2    H213061   3.168   1.915  15.902  1.7062  0.8611  1.6674
  887MPD2    H313062   3.266   2.094  16.007  1.0824 -0.6488 -0.8249
  887MPD2     N13063   3.007   2.390  15.784  0.7629 -0.5004 -0.2085
  887MPD2    H513064   2.922   2.415  15.735  0.5293 -1.3501 -0.2391
  887MPD2    N113065   2.968   1.905  15.736  0.6017  0.0457  0.0304
  887MPD2    H713066   2.889   1.911  15.673  0.4226 -1.6724  0.0950
  888MPD2     C13067   0.032   1.904  15.234 -0.2708 -0.1033  0.3579
  888MPD2    C113068   0.076   1.963  15.352 -0.1260  0.1161 -0.0518
  888MPD2    C213069   0.080   2.095  15.351  0.4921 -0.0777 -0.5148
  888MPD2    C313070   0.063   2.173  15.237 -0.1418  0.0778 -0.4066
  888MPD2    C413071   0.010   2.107  15.130 -0.1059 -0.1346  0.5733
  888MPD2    C513072   4.724   1.974  15.129  0.6237  0.0828  0.0516
  888MPD2     H13073   0.108   2.148  15.442 -1.4262  0.4038 -0.2116
  888MPD2    H113074   4.710   2.157  15.041  5.6733  2.2962 -0.4260
  888MPD2    H213075   0.040   1.797  15.221  0.5091  0.0299 -0.2225
  888MPD2    H313076   4.683   1.916  15.047  1.1099 -0.7815  0.4212
  888MPD2     N13077   0.089   2.311  15.234 -0.1168 -0.2551 -0.1547
  888MPD2    H513078   0.101   2.362  15.321 -0.3700 -0.9771  0.3065
  888MPD2    N113079   0.108   1.892  15.470 -0.2831  0.2880  0.2202
  888MPD2    H713080   0.116   1.937  15.561 -1.3796 -0.5987  0.7474
  889MPD2     C13081   4.153   1.395  13.505 -0.1159  0.0245  0.2770
  889MPD2    C113082   4.272   1.466  13.508 -0.0296  0.3428  0.4814
  889MPD2    C213083   4.278   1.581  13.579  0.5661  0.6457  0.6257
  889MPD2    C313084   4.160   1.644  13.619  0.6310  0.6381  0.1446
  889MPD2    C413085   4.043   1.575  13.612 -0.6625 -0.8898 -0.3236
  889MPD2    C513086   4.043   1.446  13.562 -0.6469  0.4588 -0.1723
  889MPD2     H13087   4.368   1.640  13.589  0.2217  1.5750 -1.7406
  889MPD2    H113088   3.957   1.616  13.663  1.2611  2.8072 -0.0313
  889MPD2    H213089   4.149   1.288  13.489  2.3047 -0.1348  0.8684
  889MPD2    H313090   3.964   1.374  13.581 -0.0551  0.1568  1.0946
  889MPD2     N13091   4.164   1.778  13.674  0.2606  0.4432  0.8882
  889MPD2    H513092   4.257   1.814  13.690  0.3738  1.2535 -1.5422
  889MPD2    N113093   4.391   1.397  13.489 -0.1247 -0.0606  0.2729
  889MPD2    H713094   4.473   1.443  13.528 -0.3925  0.5524  0.1037
  890MPD2     C13095   4.070   3.062  14.263  0.7207  0.6282  0.8892
  890MPD2    C113096   4.043   3.154  14.361 -0.1381  0.1633 -0.0811
  890MPD2    C213097   4.009   3.102  14.488  0.0365  0.2021 -0.2528
  890MPD2    C313098   4.015   2.964  14.511  0.2902 -0.5432  0.5941
  890MPD2    C413099   4.046   2.875  14.404  0.7507  0.1387  0.2765
  890MPD2    C513100   4.058   2.925  14.275 -0.3935  0.1188  0.0682
  890MPD2     H13101   3.970   3.163  14.568 -0.0850 -0.6331  0.3234
  890MPD2    H113102   4.060   2.769  14.425 -0.3820 -0.2679 -0.9799
  890MPD2    H213103   4.108   3.090  14.166  2.8337 -0.8835  1.2741
  890MPD2    H313104   4.086   2.858  14.194  0.2325 -0.5636  0.8534
  890MPD2     N13105   3.986   2.924  14.647 -0.0712 -0.1435  0.5490
  890MPD2    H513106   3.982   3.004  14.710 -4.1128  0.8194 -0.9351
  890MPD2    N113107   4.049   3.289  14.318 -0.9249 -0.0008 -0.0837
  890MPD2    H713108   4.101   3.310  14.233  1.0085 -2.6500  0.4111
  891MPD2     C13109   2.196   2.290  17.053  0.4976 -0.1055 -0.1027
  891MPD2    C113110   2.074   2.229  17.078  0.0040  0.2332  0.3212
  891MPD2    C213111   2.067   2.105  17.139  0.1697 -0.6595 -0.3682
  891MPD2    C313112   2.186   2.039  17.161 -0.5599  0.4944 -0.1488
  891MPD2    C413113   2.307   2.100  17.138  0.3275  0.0794 -0.0550
  891MPD2    C513114   2.312   2.227  17.085  0.1195  0.4792  0.0597
  891MPD2     H13115   1.970   2.062  17.159  0.8703 -1.5077  1.3066
  891MPD2    H113116   2.401   2.053  17.165 -0.0909 -0.6080  0.2038
  891MPD2    H213117   2.191   2.389  17.010  0.1262  0.5363  1.4421
  891MPD2    H313118   2.401   2.288  17.070  0.2236  0.0429 -1.1018
  891MPD2     N13119   2.172   1.905  17.221 -0.2167 -0.0086 -0.0194
  891MPD2    H513120   2.083   1.858  17.208 -0.9273  0.5526  2.7432
  891MPD2    N113121   1.963   2.306  17.048 -0.1080  0.1605  0.4359
  891MPD2    H713122   1.977   2.401  17.014 -0.0565 -0.4677 -1.2821
  892MPD2     C13123   3.135   2.453  15.045 -0.1026 -0.0372 -1.0452
  892MPD2    C113124   3.087   2.434  14.913  0.1387 -0.1686  0.2526
  892MPD2    C213125   3.125   2.317  14.855  0.0843 -0.0511 -0.4123
  892MPD2    C313126   3.205   2.218  14.920  0.5086 -0.2333 -0.3762
  892MPD2    C413127   3.245   2.243  15.046  0.0613 -0.7097 -0.2143
  892MPD2    C513128   3.204   2.353  15.115  0.3524 -1.0275 -0.1419
  892MPD2     H13129   3.103   2.301  14.750 -1.9782 -2.1625  0.3374
  892MPD2    H113130   3.304   2.166  15.095 -0.6040  0.3124  2.1837
  892MPD2    H213131   3.103   2.542  15.098  0.6500  0.6437 -1.7555
  892MPD2    H313132   3.236   2.369  15.218  0.6648 -0.4109 -0.3312
  892MPD2     N13133   3.244   2.098  14.865 -0.3619 -0.2572 -0.0809
  892MPD2    H513134   3.323   2.048  14.906 -1.3886 -2.7878 -1.1664
  892MPD2    N113135   3.015   2.538  14.848 -0.2518 -0.4847 -0.2312
  892MPD2    H713136   3.001   2.532  14.748 -1.0875  0.1820 -0.1526
  893MPD2     C13137   4.528   1.833   1.535  0.4537 -0.3121 -0.1381
  893MPD2    C113138   4.521   1.788   1.404  0.1066 -0.1685  0.3425
  893MPD2    C213139   4.391   1.774   1.351  0.6688 -0.2541  0.0879
  893MPD2    C313140   4.275   1.820   1.418 -0.2316 -0.5755 -0.0186
  893MPD2    C413141   4.289   1.867   1.549  0.1230  0.2110  0.3496
  893MPD2    C513142   4.416   1.870   1.604 -0.1634 -0.1056  0.1011
  893MPD2     H13143   4.383   1.719   1.259 -0.4783  1.7358 -0.9859
  893MPD2    H113144   4.212   1.920   1.604 -0.0505 -0.2982  0.5968
  893MPD2    H213145   4.621   1.872   1.576  1.4043 -0.0272 -2.6058
  893MPD2    H313146   4.426   1.915   1.702  0.0469 -3.1639  1.4925
  893MPD2     N13147   4.145   1.816   1.367 -0.1531 -0.8344 -0.4392
  893MPD2    H513148   4.076   1.864   1.424 -0.6657 -1.0773 -0.8617
  893MPD2    N113149   4.633   1.745   1.333 -0.2528  0.1666 -0.3096
  893MPD2    H713150   4.720   1.753   1.384  0.3840  0.9920 -1.5282
  894MPD2     C13151   2.886   3.750   0.540 -0.0149 -0.4362  0.1798
  894MPD2    C113152   2.821   3.746   0.661  0.7992  0.5893  0.7739
  894MPD2    C213153   2.801   3.858   0.727 -0.9234 -0.2553 -0.1538
  894MPD2    C313154   2.852   3.983   0.685 -0.1077  0.3920 -0.4311
  894MPD2    C413155   2.922   3.984   0.563 -0.9494 -0.0990  0.1603
  894MPD2    C513156   2.927   3.869   0.493 -0.2238 -0.0709  0.3845
  894MPD2     H13157   2.762   3.858   0.828  0.8080 -0.4368  0.5219
  894MPD2    H113158   2.975   4.069   0.521  1.6904 -0.9451  1.7757
  894MPD2    H213159   2.894   3.662   0.477 -0.3083 -1.2078  1.2139
  894MPD2    H313160   2.987   3.869   0.403 -1.9426  1.6187 -0.7612
  894MPD2     N13161   2.842   4.097   0.765  0.1821  0.1097 -0.1268
  894MPD2    H513162   2.807   4.079   0.859  0.2644 -2.5859 -0.6307
  894MPD2    N113163   2.763   3.626   0.704  0.9042 -0.0928  0.6976
  894MPD2    H713164   2.691   3.635   0.776  1.0961  0.5998  0.8086
  895MPD2     C13165   2.345   2.287  13.703  0.4172 -0.2889  0.4063
  895MPD2    C113166   2.210   2.291  13.711  0.4219 -0.0779  0.2390
  895MPD2    C213167   2.142   2.188  13.647  0.2694 -0.5110 -0.5979
  895MPD2    C313168   2.198   2.102  13.556  0.0528  0.7662  0.1306
  895MPD2    C413169   2.329   2.121  13.524 -0.4185 -0.1313  0.9815
  895MPD2    C513170   2.400   2.209  13.601 -0.4075  0.0561  0.4168
  895MPD2     H13171   2.034   2.192  13.654  0.2449  1.6764 -2.2370
  895MPD2    H113172   2.383   2.072  13.443 -0.7552  1.7560 -0.3677
  895MPD2    H213173   2.406   2.357  13.759 -0.2274  2.2328 -2.0189
  895MPD2    H313174   2.503   2.234  13.579  0.0960 -0.2047  2.4579
  895MPD2     N13175   2.119   1.993  13.500  0.3707 -1.5939 -0.7202
  895MPD2    H513176   2.029   1.968  13.539 -0.8651  3.0322 -0.6841
  895MPD2    N113177   2.133   2.382  13.785  0.2618 -0.7605 -0.0567
  895MPD2    H713178   2.038   2.374  13.752  0.5180  1.9765 -1.4314
  896MPD2     C13179   4.432   4.728   1.644 -0.4869 -0.2528  0.8510
  896MPD2    C113180   4.416   4.692   1.512  0.3474 -0.3251 -0.5352
  896MPD2    C213181   4.287   4.668   1.464  0.3731 -0.7014  0.5711
  896MPD2    C313182   4.181   4.658   1.561 -0.3703  0.4231  1.2547
  896MPD2    C413183   4.202   4.682   1.696  0.2728 -0.0181  0.7350
  896MPD2    C513184   4.325   4.729   1.732 -0.0292 -0.5720 -0.1878
  896MPD2     H13185   4.266   4.647   1.360  1.1735  2.0605 -0.1607
  896MPD2    H113186   4.122   4.686   1.768 -0.1093  2.3545  0.1951
  896MPD2    H213187   4.526   0.027   1.687 -1.0154 -0.1396  1.9095
  896MPD2    H313188   4.349   0.016   1.835  2.3281  0.8671 -1.0788
  896MPD2     N13189   4.058   4.621   1.516 -0.7205  0.7540 -0.5191
  896MPD2    H513190   4.034   4.606   1.419 -1.5679 -1.7642  0.0797
  896MPD2    N113191   4.529   4.698   1.424  0.1310  0.5018 -0.6544
  896MPD2    H713192   4.621   4.705   1.465 -0.2748  0.9647  0.1753
  897MPD2     C13193   0.890   1.163  10.755 -0.4550 -0.2011  0.8131
  897MPD2    C113194   0.785   1.185  10.670 -0.2689 -0.3054  0.6905
  897MPD2    C213195   0.664   1.144  10.711  0.3575  0.3323 -0.0992
  897MPD2    C313196   0.634   1.122  10.845 -0.6355 -0.2700  0.3931
  897MPD2    C413197   0.741   1.115  10.938 -0.6119  0.3795  0.2147
  897MPD2    C513198   0.868   1.130  10.885  0.3088  0.2820 -0.4884
  897MPD2     H13199   0.576   1.153  10.649  1.7983  0.1141 -2.1628
  897MPD2    H113200   0.746   1.092  11.044 -0.0051 -0.9970 -0.1030
  897MPD2    H213201   0.991   1.178  10.718 -0.4844  1.4030  1.4048
  897MPD2    H313202   0.945   1.122  10.962  1.9068  0.6700 -2.0360
  897MPD2     N13203   0.500   1.091  10.887 -0.7971  0.1173  0.3511
  897MPD2    H513204   0.437   1.073  10.809  0.3640 -0.0991 -0.5314
  897MPD2    N113205   0.810   1.228  10.535  0.7215  0.5199  0.3322
  897MPD2    H713206   0.896   1.272  10.503  0.3067  3.9624  3.9739
  898MPD2     C13207   1.802   2.499   0.204 -0.1601 -0.6714  0.0814
  898MPD2    C113208   1.875   2.441   0.105  1.0081 -0.5532  0.1488
  898MPD2    C213209   1.946   2.519   0.017 -0.0067 -0.0534  0.6201
  898MPD2    C313210   1.939   2.652   0.023  0.1416  0.9078 -0.2155
  898MPD2    C413211   1.864   2.710   0.125  0.0591 -0.5167  0.2184
  898MPD2    C513212   1.788   2.634   0.211  0.2413  0.0780 -0.2013
  898MPD2     H13213   2.001   2.467  17.684 -2.2345  1.7995 -2.2045
  898MPD2    H113214   1.849   2.815   0.146 -0.6263 -1.1584  3.0615
  898MPD2    H213215   1.743   2.438   0.272 -0.9940 -1.0131 -0.9540
  898MPD2    H313216   1.726   2.679   0.287  0.0035 -2.0181  0.8352
  898MPD2     N13217   2.023   2.734  17.686  0.5137  0.3471  0.0937
  898MPD2    H513218   2.104   2.696  17.637  0.6967  0.5620  0.2247
  898MPD2    N113219   1.860   2.306   0.074  0.2173 -0.4730 -0.3707
  898MPD2    H713220   1.930   2.276   0.006  0.5839 -0.2150 -0.1060
  899MPD2     C13221   3.547   3.109  17.436 -0.5583  0.0700  0.2698
  899MPD2    C113222   3.423   3.158  17.393  0.4135  0.1316 -0.2590
  899MPD2    C213223   3.310   3.128  17.464 -1.3077  0.1880 -0.0625
  899MPD2    C313224   3.318   3.036  17.569 -0.4848 -1.0733 -0.6039
  899MPD2    C413225   3.438   2.977  17.596 -0.6871  0.3503  0.8551
  899MPD2    C513226   3.553   3.017  17.535  0.1666  0.0858 -0.4700
  899MPD2     H13227   3.211   3.159  17.432 -1.9132 -0.0370  1.5718
  899MPD2    H113228   3.442   2.908  17.679 -0.1137 -0.1944  0.3843
  899MPD2    H213229   3.647   3.130  17.400 -1.1979 -0.3902 -1.7575
  899MPD2    H313230   3.646   2.972  17.566  0.4515  1.3151  0.4942
  899MPD2     N13231   3.203   3.005  17.646 -0.0410  0.0918 -0.1777
  899MPD2    H513232   3.211   2.918  17.697  0.3557 -0.9652 -2.0323
  899MPD2    N113233   3.420   3.247  17.278  0.0595  0.5477 -0.1460
  899MPD2    H713234   3.510   3.263  17.234  1.3912 -2.0809  1.6068
  900MPD2     C13235   3.256   3.942  12.152  0.3482 -0.0898 -0.0162
  900MPD2    C113236   3.175   3.834  12.160 -0.7679 -0.1381  0.2223
  900MPD2    C213237   3.043   3.855  12.143  0.3768 -0.7674  1.1683
  900MPD2    C313238   2.986   3.983  12.133 -0.7298  0.7710  0.0577
  900MPD2    C413239   3.070   4.093  12.139  0.0912 -0.2137 -0.0670
  900MPD2    C513240   3.203   4.067  12.140 -0.1253  0.2865 -0.2753
  900MPD2     H13241   2.968   3.778  12.155 -0.8035  0.1290 -0.4395
  900MPD2    H113242   3.036   4.194  12.119  0.0504 -0.0981  0.5929
  900MPD2    H213243   3.364   3.937  12.161  0.4217  0.6263 -0.4879
  900MPD2    H313244   3.265   4.155  12.148 -1.9145  1.5637 -0.4412
  900MPD2     N13245   2.846   3.990  12.135 -0.0332 -0.1647 -0.5203
  900MPD2    H513246   2.793   3.904  12.125 -1.2361  0.4983  0.0722
  900MPD2    N113247   3.243   3.711  12.190  0.5197  0.1224 -0.7840
  900MPD2    H713248   3.345   3.711  12.191  0.5050  0.2946  0.7882
  901MPD2     C13249   3.236   2.666  11.936  0.1722  0.6109 -0.4561
  901MPD2    C113250   3.317   2.670  12.050  0.2503 -0.7666  0.3415
  901MPD2    C213251   3.347   2.794  12.106 -0.0250  0.1777 -0.6541
  901MPD2    C313252   3.288   2.906  12.052  0.2182  0.2077  0.1440
  901MPD2    C413253   3.214   2.901  11.927  0.3707 -0.4606  0.0165
  901MPD2    C513254   3.193   2.778  11.874  0.3243  0.1459 -0.7928
  901MPD2     H13255   3.397   2.799  12.202 -0.2816  1.9514 -0.5980
  901MPD2    H113256   3.181   2.982  11.863 -0.6275 -1.0241 -0.1663
  901MPD2    H213257   3.223   2.567  11.893 -1.2998 -0.1341  1.6817
  901MPD2    H313258   3.137   2.756  11.784  1.5907 -1.5302 -1.1693
  901MPD2     N13259   3.315   3.025  12.120 -0.6053  0.1279  0.6566
  901MPD2    H513260   3.364   3.019  12.208  2.2619  1.9715 -0.8212
  901MPD2    N113261   3.357   2.542  12.091  0.1647 -0.8709  1.3467
  901MPD2    H713262   3.295   2.465  12.068 -0.3120  0.1475 -0.7690
  902MPD2     C13263   2.123   1.900  12.473  0.0971  0.7064  0.4765
  902MPD2    C113264   2.243   1.957  12.518  0.3377  0.6498 -0.5559
  902MPD2    C213265   2.355   1.876  12.499  0.2322  0.4961  0.0609
  902MPD2    C313266   2.354   1.747  12.448  0.3423  0.0088  0.0762
  902MPD2    C413267   2.234   1.693  12.410 -0.0620 -0.2130  0.3388
  902MPD2    C513268   2.122   1.777  12.417  0.1840 -0.0368 -0.1129
  902MPD2     H13269   2.447   1.925  12.529 -0.4880  0.9098  1.5756
  902MPD2    H113270   2.231   1.597  12.361 -0.4480  0.3580 -0.7595
  902MPD2    H213271   2.028   1.951  12.466 -0.5408 -0.5280  0.1938
  902MPD2    H313272   2.024   1.745  12.384 -0.5078  2.2947 -0.3026
  902MPD2     N13273   2.480   1.674  12.440  0.7211 -0.3121 -0.0787
  902MPD2    H513274   2.478   1.598  12.373 -0.9885  2.3284 -3.0691
  902MPD2    N113275   2.241   2.089  12.570  0.2233 -0.9393  0.5058
  902MPD2    H713276   2.152   2.134  12.588  0.0606 -1.2922  0.5716
  903MPD2     C13277   2.845   1.991  11.849  0.9688 -0.5894  0.5200
  903MPD2    C113278   2.786   1.948  11.960 -0.1457  0.5869 -0.7393
  903MPD2    C213279   2.655   1.996  11.982 -1.0061 -0.0175  0.0801
  903MPD2    C313280   2.598   2.103  11.903  0.4734  0.4655 -0.3038
  903MPD2    C413281   2.672   2.159  11.799 -0.0436  0.7637  0.3536
  903MPD2    C513282   2.794   2.095  11.776  0.3375 -0.0915 -0.2625
  903MPD2     H13283   2.600   1.946  12.060 -2.2739 -0.6266 -1.1972
  903MPD2    H113284   2.628   2.234  11.734  2.1385 -1.3857 -3.5704
  903MPD2    H213285   2.948   1.964  11.827  1.0907 -0.8312  1.3994
  903MPD2    H313286   2.843   2.146  11.694  1.3696  0.6350  0.8070
  903MPD2     N13287   2.473   2.151  11.925 -0.4289 -0.2902  0.2470
  903MPD2    H513288   2.442   2.232  11.872 -0.3490  0.0865  0.7834
  903MPD2    N113289   2.845   1.848  12.041 -0.1209  0.6342  0.1869
  903MPD2    H713290   2.920   1.789  12.006  0.7446  0.9287  1.5479
  904MPD2     C13291   1.601   1.446  14.480  0.6736 -0.1220  0.4631
  904MPD2    C113292   1.612   1.497  14.349 -0.4443 -0.4048 -0.3387
  904MPD2    C213293   1.726   1.486  14.281 -0.1988 -0.2203  0.5928
  904MPD2    C313294   1.835   1.419  14.331  0.1927  0.2051  0.2275
  904MPD2    C413295   1.821   1.358  14.459  0.4010  0.2336 -0.2901
  904MPD2    C513296   1.706   1.372  14.527 -0.3002  0.5973  0.0127
  904MPD2     H13297   1.741   1.547  14.192  0.7103 -1.5229 -0.1621
  904MPD2    H113298   1.901   1.300  14.502 -1.0168 -2.4612 -1.3379
  904MPD2    H213299   1.510   1.462  14.536  0.0282 -1.5524 -0.1786
  904MPD2    H313300   1.697   1.327  14.625 -1.0326 -0.4511 -0.5411
  904MPD2     N13301   1.958   1.436  14.263  0.5922 -0.3594  0.6206
  904MPD2    H513302   1.951   1.483  14.173 -0.9950  2.1348  2.0407
  904MPD2    N113303   1.520   1.583  14.299  0.1162 -0.0313 -0.3099
  904MPD2    H713304   1.533   1.602  14.201 -0.1573  1.0450 -0.1337
  905MPD2     C13305   1.296   1.683  13.602  0.5264 -0.0422  0.5122
  905MPD2    C113306   1.379   1.698  13.709  0.6580  0.2812  0.1276
  905MPD2    C213307   1.516   1.685  13.692  0.1208 -0.5226 -0.2917
  905MPD2    C313308   1.564   1.667  13.562 -0.5051 -0.0501  0.3233
  905MPD2    C413309   1.481   1.656  13.458  0.1523  0.1039  0.3390
  905MPD2    C513310   1.345   1.662  13.481  0.4129 -0.1622 -0.1056
  905MPD2     H13311   1.590   1.690  13.771 -1.1084 -3.4504  1.0177
  905MPD2    H113312   1.510   1.645  13.354 -2.1012  0.0039 -0.2867
  905MPD2    H213313   1.193   1.714  13.619  0.8715  0.4459  1.6916
  905MPD2    H313314   1.276   1.663  13.398 -0.4028  0.9484  0.6056
  905MPD2     N13315   1.707   1.676  13.530  0.1552 -0.1440  0.1020
  905MPD2    H513316   1.736   1.678  13.433 -1.0453 -0.5715 -0.2599
  905MPD2    N113317   1.332   1.730  13.834 -0.3651 -0.2078 -0.6000
  905MPD2    H713318   1.242   1.777  13.835 -1.1749 -1.7703 -0.2366
  906MPD2     C13319   4.179   1.289  11.006 -0.1049  1.1183  0.0782
  906MPD2    C113320   4.128   1.164  10.956 -0.0175 -0.7132  0.5824
  906MPD2    C213321   4.083   1.071  11.046 -0.6591  0.5517  0.1115
  906MPD2    C313322   4.093   1.088  11.180  0.1686 -0.5108  0.1046
  906MPD2    C413323   4.143   1.207  11.234 -0.8372 -0.0664 -0.5121
  906MPD2    C513324   4.182   1.307  11.145  0.2826  0.5025 -0.2324
  906MPD2     H13325   4.068   0.971  11.006  1.4400 -0.2751  1.3916
  906MPD2    H113326   4.151   1.225  11.341 -0.5434 -2.3612 -0.1326
  906MPD2    H213327   4.208   1.376  10.948  1.9695  0.5504  0.2632
  906MPD2    H313328   4.229   1.398  11.180  1.3345 -0.1031 -0.0600
  906MPD2     N13329   4.048   0.996  11.270  0.0081 -0.2638  0.0222
  906MPD2    H513330   4.043   1.038  11.362  1.6466 -2.7092  1.2380
  906MPD2    N113331   4.114   1.150  10.815 -0.3898  0.4302 -0.1335
  906MPD2    H713332   4.052   1.073  10.793  2.7061 -1.2205 -3.0486
  907MPD2     C13333   3.150   0.844  16.071 -0.6331  0.0778  0.3353
  907MPD2    C113334   3.070   0.729  16.074 -0.0008  0.1090 -0.8826
  907MPD2    C213335   3.085   0.639  16.174 -0.1531  0.1358 -0.2453
  907MPD2    C313336   3.166   0.672  16.281  0.7561  0.4226  0.0834
  907MPD2    C413337   3.222   0.793  16.298 -0.3905  0.0635 -0.0263
  907MPD2    C513338   3.218   0.878  16.184  0.4488 -0.3745 -0.3257
  907MPD2     H13339   3.036   0.544  16.161 -0.2911  0.0200  1.0993
  907MPD2    H113340   3.296   0.818  16.373  0.0586 -3.0757  0.5674
  907MPD2    H213341   3.145   0.914  15.988 -2.8241  0.0864  0.4862
  907MPD2    H313342   3.274   0.971  16.195  2.6423 -1.8279  0.7743
  907MPD2     N13343   3.180   0.571  16.382 -0.5693 -0.1858 -0.4078
  907MPD2    H513344   3.151   0.482  16.342 -3.3724  1.1938 -1.4371
  907MPD2    N113345   2.984   0.691  15.965 -0.5208  0.4695 -0.1682
  907MPD2    H713346   2.952   0.594  15.970 -0.9649  0.5782 -0.8614
  908MPD2     C13347   0.627   1.075   9.533  0.5720 -0.2122  0.0163
  908MPD2    C113348   0.618   0.993   9.644  0.3100 -0.5062 -0.1949
  908MPD2    C213349   0.626   1.048   9.772 -0.0052  0.1295  0.7318
  908MPD2    C313350   0.639   1.180   9.792 -0.0169  0.3609  0.2258
  908MPD2    C413351   0.644   1.267   9.676 -0.0101  0.1357  0.6835
  908MPD2    C513352   0.653   1.209   9.552 -0.6904 -0.4114 -0.4392
  908MPD2     H13353   0.623   0.981   9.857  0.9868  1.9820  2.2388
  908MPD2    H113354   0.673   1.370   9.691  0.3950  0.0550  0.4460
  908MPD2    H213355   0.640   1.036   9.433 -0.5006  0.7094 -0.4686
  908MPD2    H313356   0.675   1.275   9.470 -1.0120  0.2539  0.0125
  908MPD2     N13357   0.641   1.228   9.930  0.3031 -1.0303 -0.0549
  908MPD2    H513358   0.621   1.157  10.000 -0.8656  0.5861  1.2605
  908MPD2    N113359   0.613   0.851   9.617  0.3399  0.0929 -0.2755
  908MPD2    H713360   0.627   0.825   9.520  0.7119 -0.6264 -0.0273
  909MPD2     C13361   0.874   4.010  11.977 -1.0805 -0.2876  0.1941
  909MPD2    C113362   0.830   4.121  11.909  0.6752 -0.0770  0.1781
  909MPD2    C213363   0.723   4.190  11.966 -0.3199 -1.1822 -0.4662
  909MPD2    C313364   0.658   4.152  12.083 -0.6232  0.1693 -0.6337
  909MPD2    C413365   0.702   4.037  12.154  0.2038  0.6941  0.2089
  909MPD2    C513366   0.809   3.967  12.093  0.6508 -0.1641  0.2000
  909MPD2     H13367   0.696   4.282  11.916 -1.4166  1.0962  4.3797
  909MPD2    H113368   0.658   3.999  12.245  1.0539  0.8763  0.6947
  909MPD2    H213369   0.955   3.950  11.937 -1.6564 -0.1151 -1.2228
  909MPD2    H313370   0.835   3.872  12.136 -0.6417  0.9815  3.5176
  909MPD2     N13371   0.538   4.229  12.112  0.6300 -0.4043 -0.3753
  909MPD2    H513372   0.515   4.300  12.043  2.5156 -1.2886 -1.9399
  909MPD2    N113373   0.889   4.177  11.799  0.1258 -0.5031  0.0459
  909MPD2    H713374   0.846   4.259  11.758  0.4981 -1.8900 -3.0955
  910MPD2     C13375   2.379   1.836  16.368  0.2168  0.5424 -0.2339
  910MPD2    C113376   2.398   1.737  16.281  0.6481  0.0175 -0.7709
  910MPD2    C213377   2.340   1.737  16.155  0.6472 -0.2823  0.5594
  910MPD2    C313378   2.261   1.843  16.121  0.1228  0.6384 -0.3010
  910MPD2    C413379   2.236   1.948  16.206  0.4634 -0.2622  0.0340
  910MPD2    C513380   2.300   1.948  16.330  0.7605  0.0219  0.1882
  910MPD2     H13381   2.362   1.652  16.093 -0.5899 -0.1440 -0.0683
  910MPD2    H113382   2.187   2.038  16.169 -1.0294 -0.1641  2.2385
  910MPD2    H213383   2.417   1.838  16.469 -0.7565 -1.3531  0.1702
  910MPD2    H313384   2.281   2.026  16.403 -0.1751 -0.4180  0.4164
  910MPD2     N13385   2.196   1.861  15.994 -0.3269  0.1537 -0.1203
  910MPD2    H513386   2.162   1.953  15.969  0.4054  0.0772 -1.4076
  910MPD2    N113387   2.455   1.614  16.323 -0.4917 -1.1466 -0.4641
  910MPD2    H713388   2.444   1.543  16.252  0.4175 -0.5224 -1.2281
  911MPD2     C13389   0.326   1.763  16.568  0.0481  0.7678  0.3826
  911MPD2    C113390   0.366   1.891  16.535  0.0175 -0.2927 -0.4387
  911MPD2    C213391   0.296   1.979  16.454  0.4687  0.2372  0.0426
  911MPD2    C313392   0.184   1.930  16.391  0.0438 -0.2143 -1.0333
  911MPD2    C413393   0.144   1.804  16.429  0.3609  0.2080 -0.2795
  911MPD2    C513394   0.208   1.719  16.513 -0.8684  0.3033  0.0512
  911MPD2     H13395   0.329   2.079  16.432  1.3683 -0.0513  0.0690
  911MPD2    H113396   0.045   1.776  16.394  0.7586 -1.1181 -0.3391
  911MPD2    H213397   0.390   1.697  16.625  0.0331  0.5550  0.1600
  911MPD2    H313398   0.163   1.625  16.542 -0.6668 -0.2769 -1.5597
  911MPD2     N13399   0.110   1.992  16.290 -0.5376 -0.0723  0.7032
  911MPD2    H513400   0.042   1.935  16.241  0.7442  0.5362 -1.7635
  911MPD2    N113401   0.487   1.926  16.598 -0.1364  0.5926 -0.6093
  911MPD2    H713402   0.537   1.855  16.651 -0.4720  1.3165  0.6758
  912MPD2     C13403   4.473   1.707  15.661 -0.2506  0.2466 -0.1811
  912MPD2    C113404   4.497   1.734  15.795  0.1661  0.1354 -0.5750
  912MPD2    C213405   4.459   1.638  15.882  0.0816  0.0707  0.2159
  912MPD2    C313406   4.401   1.517  15.845  0.0400  0.5141  0.1638
  912MPD2    C413407   4.398   1.488  15.707 -0.1305 -0.1210  0.0730
  912MPD2    C513408   4.428   1.584  15.618  0.5031 -0.2698  0.4027
  912MPD2     H13409   4.456   1.655  15.989  0.0207  0.3204  0.1725
  912MPD2    H113410   4.376   1.392  15.662  3.0188 -0.8352  0.0889
  912MPD2    H213411   4.504   1.775  15.582 -1.7339  1.8304  0.5907
  912MPD2    H313412   4.448   1.558  15.515  1.4108 -3.5886  1.4141
  912MPD2     N13413   4.358   1.430  15.949  0.6072  0.4672 -0.0362
  912MPD2    H513414   4.359   1.456  16.047 -0.3664 -1.3517  0.4665
  912MPD2    N113415   4.548   1.864  15.820 -0.2751  0.2681 -0.0168
  912MPD2    H713416   4.567   1.922  15.739  0.9882 -1.3271 -0.8560
  913MPD2     C13417   0.223   2.523  10.435  0.2066 -0.3925  0.0359
  913MPD2    C113418   0.329   2.593  10.482 -0.7969 -0.2648  0.4943
  913MPD2    C213419   0.351   2.713  10.428 -0.3236 -0.3094 -0.1248
  913MPD2    C313420   0.288   2.755  10.312 -0.0684  0.4475  0.8121
  913MPD2    C413421   0.197   2.675  10.252  0.0337  0.0740  0.5554
  913MPD2    C513422   0.154   2.566  10.321  0.0372  0.2250 -0.1347
  913MPD2     H13423   0.429   2.773  10.473 -1.5148  1.0335  0.1855
  913MPD2    H113424   0.139   2.711  10.168 -2.3058 -1.0317  1.6915
  913MPD2    H213425   0.201   2.426  10.477  1.3440 -1.1171 -1.0358
  913MPD2    H313426   0.069   2.507  10.289  2.1004 -2.5740 -0.5024
  913MPD2     N13427   0.316   2.874  10.244  0.0478 -0.0774 -0.1127
  913MPD2    H513428   0.287   2.876  10.146  0.6670  0.3144 -0.2856
  913MPD2    N113429   0.410   2.532  10.583 -0.2517 -0.0480 -0.2844
  913MPD2    H713430   0.381   2.441  10.616  1.4762 -0.1002  1.1264
  914MPD2     C13431   3.201   1.956  11.598  0.1962  0.1097  0.2186
  914MPD2    C113432   3.157   2.077  11.635  0.1894 -0.3965  0.1902
  914MPD2    C213433   3.186   2.123  11.763  0.7891 -0.1767 -0.2339
  914MPD2    C313434   3.257   2.044  11.854  0.7232  0.1417 -0.6910
  914MPD2    C413435   3.321   1.935  11.806 -0.4021  0.1278 -0.3682
  914MPD2    C513436   3.278   1.882  11.685  0.1958  0.1249 -0.2790
  914MPD2     H13437   3.143   2.217  11.796 -1.0703 -1.2855  0.5470
  914MPD2    H113438   3.385   1.884  11.878  1.0235 -0.2418 -1.9135
  914MPD2    H213439   3.176   1.920  11.498  0.8505  3.8533 -1.3089
  914MPD2    H313440   3.330   1.792  11.655  1.9301  0.6464  1.0912
  914MPD2     N13441   3.292   2.109  11.973  0.6480 -0.1328  0.0624
  914MPD2    H513442   3.251   2.200  11.990 -0.5091 -0.4937 -0.7605
  914MPD2    N113443   3.080   2.153  11.544  0.4811 -0.1050 -0.4164
  914MPD2    H713444   3.068   2.109  11.454 -2.5330 -1.4016  0.6379
  915MPD2     C13445   1.549   3.450  15.429 -0.3397 -0.1985 -0.0765
  915MPD2    C113446   1.458   3.484  15.328  0.3164 -0.0499 -0.1445
  915MPD2    C213447   1.323   3.514  15.372  0.1609 -0.2355  0.5293
  915MPD2    C313448   1.290   3.512  15.504 -0.0540  0.1271  0.8708
  915MPD2    C413449   1.386   3.489  15.599 -0.5578  0.2843  0.7484
  915MPD2    C513450   1.517   3.458  15.565 -0.2458  0.3727  0.3816
  915MPD2     H13451   1.242   3.521  15.300  0.2782 -3.2338  0.0828
  915MPD2    H113452   1.357   3.496  15.703 -0.8766  1.8602  0.5549
  915MPD2    H213453   1.651   3.430  15.400  0.0764  3.4830 -1.1116
  915MPD2    H313454   1.591   3.446  15.643 -0.8476  0.3053  0.9490
  915MPD2     N13455   1.157   3.551  15.530 -0.5613  0.0346  0.3097
  915MPD2    H513456   1.093   3.578  15.456  1.1734  1.1827 -0.7717
  915MPD2    N113457   1.508   3.475  15.194 -0.1418 -0.8853  0.1126
  915MPD2    H713458   1.602   3.440  15.177  1.3061  2.5699  0.9342
  916MPD2     C13459   4.165   1.842  16.025  0.6820 -0.6728  0.8166
  916MPD2    C113460   4.091   1.763  16.102 -0.2471  0.2012  0.3194
  916MPD2    C213461   4.035   1.646  16.046  0.0939 -0.4302  0.8577
  916MPD2    C313462   4.048   1.634  15.907 -0.3221 -0.4146 -0.0634
  916MPD2    C413463   4.134   1.711  15.832 -0.1235  0.4942  0.6663
  916MPD2    C513464   4.195   1.814  15.896 -0.5360 -0.2255 -0.1249
  916MPD2     H13465   3.973   1.579  16.105  1.0536 -0.7896  1.4532
  916MPD2    H113466   4.165   1.694  15.730 -0.0727  1.0388  0.5916
  916MPD2    H213467   4.220   1.927  16.065  0.2862 -1.3497  2.7875
  916MPD2    H313468   4.263   1.881  15.846 -1.4339  0.1772 -0.7913
  916MPD2     N13469   3.985   1.521  15.842 -0.6123 -0.8404 -0.2528
  916MPD2    H513470   3.943   1.447  15.898 -1.7640 -0.3781 -0.5022
  916MPD2    N113471   4.078   1.792  16.238 -0.4210  0.1286  0.2866
  916MPD2    H713472   4.112   1.883  16.266 -1.9373  0.5202  0.8537
  917MPD2     C13473   4.319   3.157  11.231  0.5129  0.5112 -0.5193
  917MPD2    C113474   4.369   3.219  11.342 -0.0849 -0.8347 -0.0424
  917MPD2    C213475   4.400   3.353  11.329 -0.2731  1.0863  0.2998
  917MPD2    C313476   4.392   3.418  11.208 -0.0013 -0.0026  0.1240
  917MPD2    C413477   4.351   3.350  11.097 -0.1105 -0.0643  0.5460
  917MPD2    C513478   4.307   3.220  11.109  0.0284  0.5221 -0.2227
  917MPD2     H13479   4.420   3.414  11.417 -1.7882  1.5210  0.3450
  917MPD2    H113480   4.369   3.389  10.997 -0.0306  0.8175  0.9041
  917MPD2    H213481   4.275   3.058  11.237 -0.5442  1.0160  0.0340
  917MPD2    H313482   4.257   3.189  11.018 -0.7797  1.5299 -0.1199
  917MPD2     N13483   4.407   3.564  11.198 -0.2060 -0.2231  0.6249
  917MPD2    H513484   4.410   3.607  11.106 -1.2769  1.0149  1.1589
  917MPD2    N113485   4.386   3.148  11.464  0.5295 -0.1158 -0.8473
  917MPD2    H713486   4.345   3.055  11.461  1.0780 -0.4313  1.4470
  918MPD2     C13487   4.432   3.749  12.238  0.0327  0.2408  0.3821
  918MPD2    C113488   4.531   3.728  12.140 -0.6010  0.1955  0.8295
  918MPD2    C213489   4.529   3.606  12.075  0.3632  0.6060 -0.2741
  918MPD2    C313490   4.435   3.509  12.105 -0.2101  0.2702 -0.1788
  918MPD2    C413491   4.345   3.531  12.199  0.0905 -0.1742 -0.2937
  918MPD2    C513492   4.349   3.648  12.270 -0.4953 -0.1642 -0.0766
  918MPD2     H13493   4.591   3.598  11.987 -0.1318 -0.6379 -0.5152
  918MPD2    H113494   4.273   3.457  12.233  0.2654 -0.2649 -0.1172
  918MPD2    H213495   4.436   3.832  12.308  1.3758 -0.7099  1.4436
  918MPD2    H313496   4.286   3.667  12.356 -1.3262 -0.7010 -0.5663
  918MPD2     N13497   4.427   3.396  12.017  0.4757 -0.0602 -0.2812
  918MPD2    H513498   4.500   3.389  11.946 -0.3647 -1.2419 -1.0401
  918MPD2    N113499   4.628   3.828  12.125 -0.7622 -0.3727  0.7187
  918MPD2    H713500   4.629   3.884  12.209 -0.0202 -0.0054  0.4703
  919MPD2     C13501   0.555   2.324  12.101  1.4027  0.3589 -0.5320
  919MPD2    C113502   0.519   2.233  12.002  0.2136  0.2182 -0.7947
  919MPD2    C213503   0.458   2.279  11.888 -0.0292  0.0992  0.2227
  919MPD2    C313504   0.441   2.414  11.857 -0.2778  0.3939  0.8016
  919MPD2    C413505   0.481   2.505  11.951 -0.1410  0.1348  0.3108
  919MPD2    C513506   0.528   2.455  12.071 -0.4083  0.2319 -0.1307
  919MPD2     H13507   0.443   2.208  11.808 -0.8563  1.7439 -1.0676
  919MPD2    H113508   0.475   2.610  11.926 -0.4649  0.4196  1.5845
  919MPD2    H213509   0.584   2.290  12.199 -1.0247 -2.0595 -0.6513
  919MPD2    H313510   0.549   2.537  12.137 -0.7728 -0.6443  1.0788
  919MPD2     N13511   0.366   2.461  11.743 -0.1010  0.4010  0.3971
  919MPD2    H513512   0.345   2.560  11.739  0.7607  0.4999 -2.1663
  919MPD2    N113513   0.547   2.094  12.018  0.2084 -0.2771 -0.0265
  919MPD2    H713514   0.525   2.042  11.934  0.2062 -0.4147  0.0602
  920MPD2     C13515   0.265   3.028  10.916 -0.0419 -0.2032 -0.7877
  920MPD2    C113516   0.195   2.912  10.886 -0.2073 -0.1502 -0.7364
  920MPD2    C213517   0.175   2.826  10.994 -0.3762 -0.4517 -0.0579
  920MPD2    C313518   0.214   2.841  11.123 -0.4121 -0.3435 -0.5394
  920MPD2    C413519   0.297   2.955  11.148 -0.5333 -0.9085  0.3076
  920MPD2    C513520   0.313   3.048  11.040 -0.9806 -0.7113 -0.3151
  920MPD2     H13521   0.118   2.736  10.970 -1.7549  0.3313  0.2523
  920MPD2    H113522   0.348   2.981  11.240  1.3314 -2.1518 -0.3908
  920MPD2    H213523   0.299   3.105  10.848  0.7247  0.5704  0.4962
  920MPD2    H313524   0.376   3.134  11.056  0.7677 -1.6867 -1.9291
  920MPD2     N13525   0.181   2.748  11.222 -1.2335 -0.5973  0.1526
  920MPD2    H513526   0.129   2.668  11.187  0.0829 -1.6876  0.6861
  920MPD2    N113527   0.131   2.882  10.766 -0.1674  0.0559  0.6401
  920MPD2    H713528   0.084   2.792  10.764 -1.6271  0.8074  0.2787
  921MPD2     C13529   1.102   2.675  16.981 -0.1311 -0.0807 -0.4903
  921MPD2    C113530   1.163   2.552  16.991 -0.2398 -0.5109  0.6239
  921MPD2    C213531   1.092   2.433  16.958  0.6870  0.5273 -0.2462
  921MPD2    C313532   0.964   2.441  16.904 -0.3462  0.8896  0.7209
  921MPD2    C413533   0.902   2.560  16.903  0.3886 -0.5101  0.3377
  921MPD2    C513534   0.969   2.673  16.945  0.2787 -0.4741 -0.8353
  921MPD2     H13535   1.151   2.343  16.965  0.4722  0.3976 -0.1080
  921MPD2    H113536   0.799   2.568  16.871  0.3605  1.2244  0.8493
  921MPD2    H213537   1.152   2.768  17.007 -1.5731  0.7314 -0.6134
  921MPD2    H313538   0.920   2.770  16.937  0.7526 -0.0447  1.5095
  921MPD2     N13539   0.885   2.329  16.858  0.7004 -0.2562  0.0511
  921MPD2    H513540   0.797   2.351  16.813 -0.9513 -0.5270  3.1492
  921MPD2    N113541   1.301   2.543  17.024  0.4780 -0.7242 -0.1225
  921MPD2    H713542   1.335   2.638  17.032 -1.6831  0.1329 -1.2705
  922MPD2     C13543   1.850   0.125  16.699 -0.1226  0.4138  0.0844
  922MPD2    C113544   1.805   0.186  16.811 -0.2268 -0.0752 -0.1274
  922MPD2    C213545   1.678   0.144  16.856 -0.6633 -0.0887 -0.0661
  922MPD2    C313546   1.598   0.053  16.790 -0.7552  0.4596 -0.3745
  922MPD2    C413547   1.644   0.010  16.674 -0.1051 -0.2860 -0.3936
  922MPD2    C513548   1.775   0.039  16.630  0.6192 -0.4998 -0.1393
  922MPD2     H13549   1.642   0.186  16.949 -2.6551 -2.0957  0.0706
  922MPD2    H113550   1.588   4.683  16.606 -3.0393  0.2130  1.5834
  922MPD2    H213551   1.945   0.155  16.654  0.6650 -0.9801  0.8315
  922MPD2    H313552   1.821   4.736  16.540 -1.7885  0.5151 -1.8148
  922MPD2     N13553   1.468   0.019  16.835  0.1723  0.7522 -0.0085
  922MPD2    H513554   1.438   0.064  16.920 -1.3293  0.4133 -0.3685
  922MPD2    N113555   1.880   0.293  16.875 -0.2147  0.4074  0.3632
  922MPD2    H713556   1.965   0.327  16.831 -0.9254  2.0731  0.2878
  923MPD2     C13557   3.535   1.054   9.677 -0.5113  0.4175 -0.0540
  923MPD2    C113558   3.472   1.155   9.609 -0.6894  0.5779  0.0289
  923MPD2    C213559   3.496   1.290   9.647 -0.7254 -0.3297  0.7138
  923MPD2    C313560   3.580   1.320   9.760  0.0404 -1.4452  0.0837
  923MPD2    C413561   3.640   1.208   9.814  0.5244 -0.5758 -0.2464
  923MPD2    C513562   3.614   1.081   9.784 -0.2276  0.3537 -0.8572
  923MPD2     H13563   3.460   1.380   9.598  1.2611 -0.3086 -0.6823
  923MPD2    H113564   3.698   1.224   9.905  0.2649  0.7248 -0.3083
  923MPD2    H213565   3.534   0.951   9.645 -2.0634  0.4017  0.0415
  923MPD2    H313566   3.666   0.996   9.826 -0.5788  0.5567  0.0089
  923MPD2     N13567   3.616   1.447   9.806  0.5932 -0.1764  0.1225
  923MPD2    H513568   3.694   1.458   9.871  0.6883 -2.6509  0.4054
  923MPD2    N113569   3.374   1.120   9.512  0.8613  0.0066  0.1825
  923MPD2    H713570   3.344   1.024   9.504 -2.9389  1.2038 -0.2441
  924MPD2     C13571   2.820   4.506  16.442  0.4382 -0.2373  0.2659
  924MPD2    C113572   2.850   4.603  16.351 -0.5004  0.6547 -0.4726
  924MPD2    C213573   2.969   4.672  16.354 -0.3863  0.3025  0.1970
  924MPD2    C313574   3.057   4.648  16.457 -0.3208  0.0743  0.6618
  924MPD2    C413575   3.032   4.546  16.550  0.3313  0.0606  0.6973
  924MPD2    C513576   2.916   4.473  16.537 -0.7127 -0.4133 -0.6388
  924MPD2     H13577   2.989   0.000  16.269  1.5643  1.6196  1.6873
  924MPD2    H113578   3.100   4.514  16.628  1.3822  0.2579 -0.1402
  924MPD2    H213579   2.734   4.441  16.430  2.6516 -3.4264  1.5682
  924MPD2    H313580   2.896   4.393  16.608 -0.8492 -1.1777 -1.5367
  924MPD2     N13581   3.157   0.003  16.492 -0.6118 -0.3909 -0.1575
  924MPD2    H513582   3.217   4.726  16.572 -0.7784 -2.0496 -0.3142
  924MPD2    N113583   2.749   4.624  16.257  0.3878 -0.2891 -0.0754
  924MPD2    H713584   2.688   4.546  16.234  0.9732 -0.8905  0.4340
  925MPD2     C13585   2.289   2.852  15.157 -0.8653 -0.0607 -0.8832
  925MPD2    C113586   2.158   2.857  15.104 -0.2092  0.4144 -0.7958
  925MPD2    C213587   2.056   2.912  15.170 -0.2506  0.2026 -0.2614
  925MPD2    C313588   2.073   2.952  15.305 -0.1463 -0.3305 -0.0621
  925MPD2    C413589   2.196   2.936  15.370  0.8610  0.8266  0.0581
  925MPD2    C513590   2.306   2.888  15.293  0.1913 -0.4855 -0.3959
  925MPD2     H13591   1.962   2.911  15.115 -0.0315  0.2446 -0.6332
  925MPD2    H113592   2.211   2.968  15.472  2.7707 -0.3125  0.1460
  925MPD2    H213593   2.379   2.828  15.101  0.1158  0.1907  0.5609
  925MPD2    H313594   2.403   2.883  15.341  0.7043 -1.0319 -1.4939
  925MPD2     N13595   1.961   2.998  15.376 -0.2057 -0.4560  0.2082
  925MPD2    H513596   1.975   3.018  15.474  0.0562 -1.3023  0.3392
  925MPD2    N113597   2.121   2.813  14.978  0.0192 -0.1614 -0.1925
  925MPD2    H713598   2.027   2.842  14.954  0.2553  0.9481  0.2442
  926MPD2     C13599   0.945   0.934  14.310  0.2924  0.6439 -0.7720
  926MPD2    C113600   0.918   0.938  14.172  0.3638  0.6826 -0.1656
  926MPD2    C213601   1.024   0.923  14.092  0.0882  0.3317  0.3989
  926MPD2    C313602   1.150   0.916  14.136  0.0133  0.5047 -0.3707
  926MPD2    C413603   1.174   0.928  14.271 -0.1657 -0.2046 -0.0450
  926MPD2    C513604   1.070   0.934  14.356 -0.2296 -0.1242  0.3981
  926MPD2     H13605   1.001   0.913  13.987  0.5703 -1.6936  0.4993
  926MPD2    H113606   1.278   0.939  14.300  0.1235  0.5036 -1.3211
  926MPD2    H213607   0.870   0.960  14.384  1.2621 -1.6893  1.0358
  926MPD2    H313608   1.089   0.950  14.461  1.8902 -0.1267  0.0323
  926MPD2     N13609   1.259   0.895  14.051 -0.2385 -0.0819  0.6658
  926MPD2    H513610   1.345   0.875  14.101 -0.8400  0.2550  1.8325
  926MPD2    N113611   0.787   0.944  14.117  0.3438 -0.4369 -0.3028
  926MPD2    H713612   0.773   0.959  14.018  0.7276 -1.1945 -0.4690
  927MPD2     C13613   4.627   4.004  17.434  0.5743 -0.5533  0.1630
  927MPD2    C113614   4.675   3.879  17.483  0.4492 -0.3342 -0.3736
  927MPD2    C213615   0.056   3.825  17.423  0.2090 -0.1039  0.5908
  927MPD2    C313616   0.129   3.899  17.336 -0.4814 -0.5065 -0.1133
  927MPD2    C413617   0.084   4.025  17.292 -0.8436  0.6410  0.4978
  927MPD2    C513618   4.702   4.075  17.341 -0.2227 -0.7018  0.3687
  927MPD2     H13619   0.085   3.722  17.440  1.3646  0.1259  0.0224
  927MPD2    H113620   0.126   4.083  17.210  1.8333 -0.4080  1.1142
  927MPD2    H213621   4.532   4.047  17.464 -0.2473 -1.9233 -0.4417
  927MPD2    H313622   4.664   4.171  17.308 -0.2080 -1.0054 -0.5156
  927MPD2     N13623   0.243   3.843  17.289  0.0593 -0.0998 -0.1646
  927MPD2    H513624   0.267   3.746  17.309 -1.2757 -0.2115  0.9562
  927MPD2    N113625   4.592   3.810  17.570 -0.3091 -0.0887  0.7690
  927MPD2    H713626   4.515   3.865  17.608  0.8935  2.1393 -0.0033
  928MPD2     C13627   3.424   1.096   0.802 -0.2747  0.0755 -0.4598
  928MPD2    C113628   3.367   1.212   0.849 -0.3548 -0.0582  0.0807
  928MPD2    C213629   3.309   1.299   0.761  0.3864 -0.0193  0.0859
  928MPD2    C313630   3.310   1.279   0.626 -0.0938 -0.0170  0.2552
  928MPD2    C413631   3.374   1.169   0.584  0.6991 -0.1670 -0.0121
  928MPD2    C513632   3.421   1.074   0.671 -0.2286  0.0065 -0.4334
  928MPD2     H13633   3.256   1.387   0.799  0.0148  0.0839 -0.6791
  928MPD2    H113634   3.403   1.150   0.481 -1.4203 -0.5628 -0.5231
  928MPD2    H213635   3.466   1.021   0.868 -0.8126 -0.4168 -0.6777
  928MPD2    H313636   3.475   0.985   0.640  1.8980  0.6347  1.4478
  928MPD2     N13637   3.244   1.363   0.532  0.1632  0.2877  0.1599
  928MPD2    H513638   3.262   1.341   0.434  0.0060 -1.3709  0.5013
  928MPD2    N113639   3.376   1.239   0.992 -0.3841  0.1516 -0.6348
  928MPD2    H713640   3.434   1.177   1.048 -0.6916  0.2277 -0.2364
  929MPD2     C13641   3.581   1.428  10.171 -0.3361  0.2865  0.5730
  929MPD2    C113642   3.501   1.324  10.134 -0.0148  0.5494 -0.0657
  929MPD2    C213643   3.375   1.352  10.087 -0.4077  0.1741 -0.9080
  929MPD2    C313644   3.334   1.482  10.064  0.0462  0.5593  0.1521
  929MPD2    C413645   3.419   1.587  10.087 -0.0802 -0.4719 -0.6458
  929MPD2    C513646   3.543   1.559  10.146  0.2401  0.5614 -0.7073
  929MPD2     H13647   3.301   1.273  10.084  0.4053 -0.6107 -0.5770
  929MPD2    H113648   3.392   1.692  10.081  1.7205 -0.0699 -1.6517
  929MPD2    H213649   3.679   1.407  10.212 -1.3278 -1.0662  2.2485
  929MPD2    H313650   3.617   1.634  10.171  1.0062 -0.8439  1.2163
  929MPD2     N13651   3.209   1.495  10.004  0.0021 -0.4624  0.0546
  929MPD2    H513652   3.163   1.406   9.997  2.0412 -1.5241  0.0598
  929MPD2    N113653   3.537   1.199  10.188 -0.1910  0.5432  0.3922
  929MPD2    H713654   3.628   1.191  10.233 -0.4638  0.8066  0.9942
  930MPD2     C13655   0.606   3.721  14.099 -0.0975 -0.1251  0.3350
  930MPD2    C113656   0.636   3.800  13.994  0.4541 -0.5264  1.2606
  930MPD2    C213657   0.617   3.742  13.867  0.2402  0.4413  0.5057
  930MPD2    C313658   0.559   3.621  13.847  0.5771 -0.0532 -0.2998
  930MPD2    C413659   0.522   3.548  13.953  0.1882  0.4026  0.8050
  930MPD2    C513660   0.552   3.594  14.079  0.3864 -0.0162 -0.2817
  930MPD2     H13661   0.628   3.801  13.776  2.2090  1.3863  1.3762
  930MPD2    H113662   0.471   3.453  13.956  1.6674 -0.4083  0.5110
  930MPD2    H213663   0.622   3.758  14.199  1.1638 -1.5512  0.6549
  930MPD2    H313664   0.523   3.535  14.166 -0.5568  0.5371 -0.2220
  930MPD2     N13665   0.518   3.586  13.716  0.3034 -0.0235 -0.1928
  930MPD2    H513666   0.508   3.661  13.649  0.4907  0.0780 -0.1072
  930MPD2    N113667   0.699   3.927  13.998  0.8898 -0.0132  0.5791
  930MPD2    H713668   0.704   3.981  13.912 -1.8430  0.0933  0.5127
  931MPD2     C13669   4.654   3.140   0.099 -0.4494 -0.1874 -0.2191
  931MPD2    C113670   4.618   3.216   0.204 -0.4402  0.0246 -0.6629
  931MPD2    C213671   4.624   3.170   0.335  0.0158  0.0368 -0.2136
  931MPD2    C313672   4.665   3.041   0.362 -0.6390 -1.1101 -0.1022
  931MPD2    C413673   4.710   2.967   0.250 -1.0015 -0.1097  0.3123
  931MPD2    C513674   4.699   3.015   0.123 -0.5729  0.2723  0.2761
  931MPD2     H13675   4.609   3.242   0.415  0.9161 -1.6329  1.4726
  931MPD2    H113676   0.019   2.870   0.266 -0.4191 -0.2387 -2.1637
  931MPD2    H213677   4.641   3.179  17.743 -0.8922  0.8569  0.2435
  931MPD2    H313678   4.728   2.956   0.037 -0.9792  1.1493 -0.4719
  931MPD2     N13679   4.668   2.979   0.484 -0.2991 -0.0813 -0.2390
  931MPD2    H513680   4.708   2.886   0.493 -1.1261 -0.4623 -0.4824
  931MPD2    N113681   4.562   3.333   0.160  0.4895  0.7081 -0.1481
  931MPD2    H713682   4.570   3.351   0.060 -0.4054 -1.3362 -0.5819
  932MPD2     C13683   2.361   2.136  11.547  0.3184  0.1536 -0.1987
  932MPD2    C113684   2.371   2.146  11.415  0.2673 -0.0961  0.9884
  932MPD2    C213685   2.408   2.029  11.343 -0.4288  0.3652  0.5773
  932MPD2    C313686   2.452   1.918  11.410  0.0026  0.0671 -0.3151
  932MPD2    C413687   2.446   1.927  11.549 -0.9187 -0.1453  0.0782
  932MPD2    C513688   2.394   2.030  11.620 -0.2977 -0.7062 -0.1443
  932MPD2     H13689   2.410   2.023  11.235 -0.0586 -2.5898  0.7473
  932MPD2    H113690   2.460   1.836  11.606  2.9162  0.2008 -0.2988
  932MPD2    H213691   2.326   2.224  11.600  2.8128  1.8094 -1.2711
  932MPD2    H313692   2.395   2.031  11.728 -0.0951  1.9021 -0.1722
  932MPD2     N13693   2.512   1.799  11.350 -0.0834  0.4406 -0.1662
  932MPD2    H513694   2.526   1.723  11.415  0.4481  1.3589  0.7962
  932MPD2    N113695   2.346   2.262  11.345 -0.4107 -0.6179  0.4591
  932MPD2    H713696   2.348   2.269  11.244  2.0456 -0.0966  0.5417
  933MPD2     C13697   3.346   1.796   1.753 -0.3954  0.7339  0.1487
  933MPD2    C113698   3.316   1.780   1.622 -0.4073  0.7181  0.1453
  933MPD2    C213699   3.223   1.875   1.572  0.5753 -0.2882  0.0621
  933MPD2    C313700   3.171   1.981   1.652  0.4282  0.0685  0.3491
  933MPD2    C413701   3.203   1.982   1.783 -0.7219  0.1637 -0.2584
  933MPD2    C513702   3.295   1.891   1.832 -0.3740 -0.1454 -0.2527
  933MPD2     H13703   3.188   1.876   1.470  1.1619  0.8872 -0.1265
  933MPD2    H113704   3.154   2.044   1.857  2.2891  1.7472  0.4123
  933MPD2    H213705   3.413   1.725   1.801 -1.5584 -0.2348  0.3131
  933MPD2    H313706   3.310   1.885   1.940 -0.3027  0.6127 -0.2193
  933MPD2     N13707   3.076   2.066   1.596 -0.2228  0.3540 -0.0963
  933MPD2    H513708   3.051   2.059   1.498  1.1257  1.1821 -0.5003
  933MPD2    N113709   3.355   1.665   1.550 -0.1731 -0.5995  0.1644
  933MPD2    H713710   3.404   1.593   1.602 -1.0252 -1.7992 -0.6838
  934MPD2     C13711   3.895   3.802   1.928  0.2830 -0.1381 -0.5727
  934MPD2    C113712   3.821   3.879   1.839  1.0656 -0.2796  0.1584
  934MPD2    C213713   3.695   3.843   1.804  0.6277  0.0843 -0.9426
  934MPD2    C313714   3.639   3.729   1.858  0.3885  0.7257 -0.3116
  934MPD2    C413715   3.715   3.646   1.933  0.6211  0.6098 -0.3914
  934MPD2    C513716   3.841   3.682   1.969  0.5766  0.7494  0.2342
  934MPD2     H13717   3.632   3.905   1.742  0.9585 -0.2908 -1.6590
  934MPD2    H113718   3.673   3.552   1.968 -1.6961  1.1937 -1.6034
  934MPD2    H213719   3.997   3.833   1.948 -0.1786 -0.0690  1.5794
  934MPD2    H313720   3.892   3.610   2.033  0.1284 -0.9793 -1.3529
  934MPD2     N13721   3.513   3.676   1.813  0.4963 -0.1589 -0.2406
  934MPD2    H513722   3.490   3.586   1.852 -2.0885 -0.0060 -1.3658
  934MPD2    N113723   3.882   3.992   1.780 -0.1631  0.0064  0.2795
  934MPD2    H713724   3.818   4.050   1.727  1.6029 -0.6090 -2.5673
  935MPD2     C13725   3.793   3.142   1.224  0.7956 -0.9795 -0.0744
  935MPD2    C113726   3.681   3.202   1.146 -0.0555  1.6450  0.2285
  935MPD2    C213727   3.585   3.273   1.218 -0.6829  0.8179 -0.2440
  935MPD2    C313728   3.584   3.289   1.353  0.0032  0.2139  0.2224
  935MPD2    C413729   3.692   3.234   1.420  0.4648 -0.4471 -0.8342
  935MPD2    C513730   3.799   3.177   1.354 -0.6493 -0.3419 -0.0853
  935MPD2     H13731   3.500   3.313   1.163 -1.2119 -0.5313 -0.4015
  935MPD2    H113732   3.703   3.242   1.528 -0.5791 -1.2188 -0.6693
  935MPD2    H213733   3.881   3.101   1.176  0.1891 -0.7215 -1.4204
  935MPD2    H313734   3.878   3.133   1.414 -0.4439 -0.3278 -0.3465
  935MPD2     N13735   3.492   3.366   1.427 -0.1856 -0.1113  0.2800
  935MPD2    H513736   3.504   3.361   1.527  0.2539 -2.0096  0.1460
  935MPD2    N113737   3.655   3.167   1.011  0.0276  0.0239 -0.6909
  935MPD2    H713738   3.575   3.214   0.970 -0.0722  0.7667  0.3470
  936MPD2     C13739   2.394   4.671  12.061 -0.4484  0.1451  0.3882
  936MPD2    C113740   2.523   4.727  12.060  0.2892 -0.2703 -0.0420
  936MPD2    C213741   2.535   0.117  12.011 -0.2293  0.0376 -0.0507
  936MPD2    C313742   2.429   0.186  11.950  0.2024  0.3616 -0.4210
  936MPD2    C413743   2.306   0.125  11.953 -0.7725  0.4598 -0.8172
  936MPD2    C513744   2.285   0.003  12.008  0.3809 -0.2471 -0.3356
  936MPD2     H13745   2.635   0.157  12.010  0.6900 -2.2782 -1.3025
  936MPD2    H113746   2.227   0.184  11.907 -0.5569  1.9981  0.7972
  936MPD2    H213747   2.371   4.568  12.088 -0.5113  0.0161 -0.1532
  936MPD2    H313748   2.181   4.711  12.006 -0.1379  1.6082  0.1467
  936MPD2     N13749   2.431   0.320  11.917 -0.0825 -0.0250 -0.5874
  936MPD2    H513750   2.345   0.374  11.910 -0.0044  0.0468 -0.9744
  936MPD2    N113751   2.641   4.668  12.121 -0.3882  0.0496 -0.2850
  936MPD2    H713752   2.728   4.721  12.113 -0.2844  0.0393  0.7334
  937MPD2     C13753   0.917   1.543  11.697 -0.4034 -0.1153  0.6207
  937MPD2    C113754   0.888   1.670  11.729 -0.2260 -0.3428  1.0817
  937MPD2    C213755   0.912   1.771  11.633 -0.5131 -0.4804  0.1378
  937MPD2    C313756   0.978   1.739  11.516  0.3701 -0.2778  0.2668
  937MPD2    C413757   1.015   1.611  11.489 -0.0093  0.1090 -0.5770
  937MPD2    C513758   0.975   1.512  11.579  0.0237 -0.3939 -0.3873
  937MPD2     H13759   0.884   1.874  11.651  0.9266  0.5637 -3.5866
  937MPD2    H113760   1.066   1.584  11.397 -0.7655  1.1366 -1.3129
  937MPD2    H213761   0.890   1.458  11.759 -1.9715 -1.2998 -1.6616
  937MPD2    H313762   0.995   1.409  11.552  0.3163  0.0841 -1.9745
  937MPD2     N13763   0.985   1.839  11.422  0.3641 -0.0472 -0.1369
  937MPD2    H513764   0.956   1.923  11.471  1.2846  1.0643 -1.4884
  937MPD2    N113765   0.790   1.704  11.831 -0.8028  0.5116  0.0925
  937MPD2    H713766   0.758   1.800  11.833  0.6314  0.9820  0.2697
  938MPD2     C13767   3.166   3.357   0.824  0.5143  0.2933  0.5859
  938MPD2    C113768   3.090   3.443   0.899  0.9787 -0.0026 -0.6959
  938MPD2    C213769   3.003   3.405   1.002 -0.1000  0.3430  0.2641
  938MPD2    C313770   2.989   3.273   1.031  0.2728 -0.9252  0.1255
  938MPD2    C413771   3.069   3.188   0.958  1.0193 -0.1543  0.4010
  938MPD2    C513772   3.158   3.223   0.858  0.7065  0.2571  0.2083
  938MPD2     H13773   2.945   3.473   1.063 -0.6254  0.6783 -0.6101
  938MPD2    H113774   3.065   3.082   0.978  1.7647 -0.5203 -1.4316
  938MPD2    H213775   3.238   3.391   0.750  0.2379 -0.4241 -0.0198
  938MPD2    H313776   3.209   3.144   0.805 -1.7359 -0.7516 -0.6292
  938MPD2     N13777   2.909   3.218   1.136 -0.1998  0.6876 -0.3533
  938MPD2    H513778   2.917   3.119   1.156  0.5967  1.0351  1.0227
  938MPD2    N113779   3.092   3.584   0.868  0.2609  0.2976  0.1785
  938MPD2    H713780   3.038   3.644   0.930  0.3314  0.7709 -0.2160
  939MPD2     C13781   4.280   4.336   0.529  0.3142 -0.3407 -0.0624
  939MPD2    C113782   4.222   4.461   0.536 -0.0901 -0.0935  0.7225
  939MPD2    C213783   4.186   4.523   0.416 -0.4619 -0.1100 -0.0672
  939MPD2    C313784   4.214   4.475   0.291 -0.3896 -0.3177  0.0801
  939MPD2    C413785   4.278   4.347   0.286  0.3302 -0.1253  0.4828
  939MPD2    C513786   4.307   4.277   0.408 -0.6543 -0.0193  0.6246
  939MPD2     H13787   4.127   4.613   0.427  1.0779  1.0658 -1.4172
  939MPD2    H113788   4.303   4.307   0.188 -1.4319  2.8574 -1.2306
  939MPD2    H213789   4.304   4.295   0.626  0.7143  1.1958  0.4937
  939MPD2    H313790   4.355   4.179   0.405  2.8128  1.7856 -2.7846
  939MPD2     N13791   4.180   4.558   0.184  1.0953  0.8133 -0.0719
  939MPD2    H513792   4.167   4.655   0.210 -0.6840  0.4762  0.2954
  939MPD2    N113793   4.229   4.529   0.658  0.0639 -0.5900  0.6203
  939MPD2    H713794   4.260   4.480   0.741 -0.2394  0.1222  1.1498
  940MPD2     C13795   3.286   0.613  12.850 -0.5577  0.1928  0.1140
  940MPD2    C113796   3.301   0.478  12.819  0.3620  0.2140 -0.0909
  940MPD2    C213797   3.328   0.444  12.686 -0.2148  0.2868 -0.7863
  940MPD2    C313798   3.336   0.545  12.589  0.4599  0.5434 -0.6488
  940MPD2    C413799   3.318   0.675  12.624  0.1486 -0.5864 -0.4843
  940MPD2    C513800   3.297   0.708  12.754 -0.3062  0.0188  0.7459
  940MPD2     H13801   3.338   0.340  12.659 -1.0435  0.5893 -2.2387
  940MPD2    H113802   3.327   0.755  12.552 -2.0339 -0.3759 -0.5410
  940MPD2    H213803   3.260   0.649  12.949 -0.2952 -0.4896  0.4294
  940MPD2    H313804   3.298   0.811  12.786 -1.6522  0.2511  0.0110
  940MPD2     N13805   3.364   0.518  12.449  0.2266 -0.1561 -0.3190
  940MPD2    H513806   3.371   0.599  12.388 -3.3113  0.2887 -0.1139
  940MPD2    N113807   3.274   0.374  12.914  0.1440  0.0721 -0.3290
  940MPD2    H713808   3.282   0.277  12.886 -0.1695  0.4783 -1.8035
  941MPD2     C13809   2.029   0.008  10.103  0.1761 -0.4125 -0.4628
  941MPD2    C113810   2.144   4.674  10.083  0.1275 -1.2430 -0.7236
  941MPD2    C213811   2.156   4.544  10.119  0.6154  0.1438  0.0432
  941MPD2    C313812   2.047   4.476  10.157 -0.0223 -0.0422  0.2749
  941MPD2    C413813   1.929   4.543  10.164 -0.5308 -0.5582 -0.1716
  941MPD2    C513814   1.923   4.675  10.144 -0.0721  0.6001  0.5043
  941MPD2     H13815   2.241   4.481  10.097 -1.3255 -1.2156 -3.5341
  941MPD2    H113816   1.844   4.492  10.208 -0.7838  1.1479  1.2901
  941MPD2    H213817   2.012   0.110  10.071 -0.3732 -0.5501 -0.6137
  941MPD2    H313818   1.823   4.716  10.159  0.0276  1.9239 -2.5240
  941MPD2     N13819   2.042   4.343  10.195  0.1854  0.1089  0.5181
  941MPD2    H513820   1.951   4.303  10.213 -0.3543  0.2394 -1.9266
  941MPD2    N113821   2.267   4.734  10.037  0.0104  0.0861 -0.0124
  941MPD2    H713822   2.355   4.687  10.056 -0.8826 -0.4406  2.7234
  942MPD2     C13823   1.143   2.190  10.016  0.6434  0.2199  0.1789
  942MPD2    C113824   1.138   2.192   9.874  0.4919 -0.2035  0.5837
  942MPD2    C213825   1.242   2.135   9.795  0.1471  0.1454  0.5740
  942MPD2    C313826   1.341   2.071   9.861  0.1293  0.2922  0.2910
  942MPD2    C413827   1.346   2.064   9.998  0.1213  0.4851 -0.3521
  942MPD2    C513828   1.244   2.121  10.075  0.1829  0.2905  0.5454
  942MPD2     H13829   1.241   2.130   9.687 -1.1133 -0.2321  0.6078
  942MPD2    H113830   1.436   2.025  10.046 -2.2550 -1.1394  2.7708
  942MPD2    H213831   1.071   2.228  10.088 -1.1611  0.0546 -1.5409
  942MPD2    H313832   1.251   2.114  10.183 -2.4277 -0.2734  0.6659
  942MPD2     N13833   1.456   2.017   9.794  0.2568 -0.5328 -0.3520
  942MPD2    H513834   1.522   1.963   9.849 -0.4221  0.0623  1.0492
  942MPD2    N113835   1.027   2.240   9.801 -0.6063  0.4520  0.3759
  942MPD2    H713836   1.029   2.252   9.700 -1.1268  2.0813  0.5427
  943MPD2     C13837   1.031   4.666  10.490 -0.4148 -0.2132 -0.4494
  943MPD2    C113838   0.935   4.575  10.514 -0.4550 -1.1574 -0.7546
  943MPD2    C213839   0.837   4.593  10.610 -0.2188 -0.2384  0.3747
  943MPD2    C313840   0.838   4.710  10.688  0.2902 -0.5322  0.2818
  943MPD2    C413841   0.942   0.060  10.673 -0.7010 -0.4167 -0.9360
  943MPD2    C513842   1.041   0.028  10.584  0.6319  0.2576 -0.4235
  943MPD2     H13843   0.764   4.518  10.638 -2.5231  1.2639 -1.6415
  943MPD2    H113844   0.960   0.140  10.744  2.4317 -1.2989 -0.6914
  943MPD2    H213845   1.095   4.663  10.403  1.0079  1.8489  0.5313
  943MPD2    H313846   1.124   0.097  10.573  1.1088 -0.4525 -1.2740
  943MPD2     N13847   0.747   0.005  10.792 -0.4716  0.0227 -0.6465
  943MPD2    H513848   0.765   0.100  10.823  0.7959 -1.0727  1.9430
  943MPD2    N113849   0.943   4.453  10.436  0.2845 -0.3100 -0.0635
  943MPD2    H713850   1.018   4.456  10.368  0.0687  2.1197 -0.1912
  944MPD2     C13851   0.806   3.456  10.910  0.2365  0.0990  0.2628
  944MPD2    C113852   0.717   3.466  11.013 -0.2642 -0.2313  0.2828
  944MPD2    C213853   0.694   3.588  11.070 -0.4151  0.0974 -0.2410
  944MPD2    C313854   0.743   3.700  11.002 -0.2845  0.2365 -0.2110
  944MPD2    C413855   0.837   3.688  10.903 -0.1253  0.5406  0.1023
  944MPD2    C513856   0.870   3.564  10.857  0.0409  0.2932  0.2444
  944MPD2     H13857   0.637   3.601  11.161  0.8778  1.7453  0.3220
  944MPD2    H113858   0.891   3.776  10.869 -0.3226  0.4147 -0.5338
  944MPD2    H213859   0.828   3.357  10.872 -0.6358  0.5087 -1.3074
  944MPD2    H313860   0.951   3.548  10.787 -2.5808 -0.4936 -2.6116
  944MPD2     N13861   0.704   3.825  11.049  0.2078 -0.1843 -1.0171
  944MPD2    H513862   0.640   3.832  11.128  1.6398  0.4456  0.0829
  944MPD2    N113863   0.661   3.350  11.063  0.0088 -0.2785 -0.6096
  944MPD2    H713864   0.688   3.263  11.018  3.2970  0.1712  0.5164
    1TMC1    C113865   3.649   4.228  13.351  0.3018 -0.3280 -0.6598
    1TMC1    C213866   3.602   4.244  13.480  0.4537  0.0379 -0.2121
    1TMC1    C313867   3.465   4.244  13.497  0.0642 -0.1484 -0.3513
    1TMC1    C413868   3.564   4.209  13.242  0.5985 -0.2674 -0.1011
    1TMC1    C513869   3.427   4.222  13.267  0.0115  0.6160  0.4743
    1TMC1    C613870   3.374   4.244  13.393 -0.3726  0.4903  0.1095
    1TMC1     C13871   3.785   4.195  13.333  0.4013  0.4172  0.1874
    1TMC1     O13872   3.818   4.120  13.243  0.3888  0.7882  0.5480
    1TMC1     H13873   3.673   4.260  13.561 -2.1995  1.6583  1.8082
    1TMC1    H113874   3.597   4.195  13.140  1.0723  0.2019 -0.0107
    1TMC1    H213875   3.272   4.279  13.409 -0.0177  0.8166  1.6742
    1TMC1    C713876   3.336   4.193  13.162  0.1044 -0.4897  0.4479
    1TMC1    C813877   3.411   4.282  13.627  0.3811  0.0087  0.2039
    1TMC1    O113878   3.383   4.173  13.051 -0.8090  0.0258  0.0786
    1TMC1    O213879   3.479   4.326  13.713  0.5168 -0.0838  0.2618
    1TMC1    O313880   3.230   4.121  13.215 -0.2179 -0.1997  0.3696
    1TMC1    H313881   3.229   4.123  13.313 -1.9732 -1.6284  0.3774
    1TMC1    O513882   3.282   4.247  13.651  0.3215 -0.0531  0.4174
    1TMC1    H513883   3.240   4.209  13.571 -0.1113  1.3037  0.0058
    2MPD2     C13884   4.264   4.221  13.541  0.0217  0.4776 -0.1034
    2MPD2    C113885   4.193   4.339  13.559 -0.4229 -0.0778 -0.1841
    2MPD2    C213886   4.061   4.356  13.520 -0.1087  0.0749  0.8538
    2MPD2    C313887   4.002   4.250  13.449 -0.1169  0.3103  0.2479
    2MPD2    C413888   4.076   4.137  13.415 -0.0108 -0.8240  0.5109
    2MPD2    C513889   4.203   4.130  13.450  0.4874  0.1610 -0.0133
    2MPD2     H13890   4.007   4.443  13.555 -1.7638 -0.9347  0.7958
    2MPD2    H113891   4.033   4.054  13.361  0.2559 -0.5527 -0.1149
    2MPD2    H213892   4.365   4.217  13.579  0.7172  2.5656 -1.7369
    2MPD2    H313893   4.253   4.039  13.419 -0.2549 -0.0359 -0.6460
    2MPD2     N13894   3.865   4.268  13.420  0.1221 -0.1588  0.4005
    2MPD2    H513895   3.822   4.344  13.472 -0.3105  0.0606 -0.2799
    2MPD2    N113896   4.261   4.444  13.631  0.0737 -0.3306 -0.1677
    2MPD2    H713897   4.353   4.419  13.665 -0.5065 -2.2784 -0.0062
    3TMC2    C113898   4.290   4.651  13.744 -0.2283 -0.2005 -0.3045
    3TMC2    C213899   4.363   4.594  13.844 -0.3427  0.0340  1.0133
    3TMC2    C313900   4.382   4.664  13.952  0.2950  0.5226 -0.3950
    3TMC2    C413901   4.275   0.050  13.741 -0.3607 -0.1458  0.4997
    3TMC2    C513902   4.312   0.126  13.845 -0.2249  0.4449 -0.0729
    3TMC2    C613903   4.361   0.065  13.960  0.1972 -0.0052 -0.0845
    3TMC2     C13904   4.218   4.572  13.646 -0.2194 -0.1388 -0.0295
    3TMC2     O13905   4.127   4.629  13.589  0.4335  0.4851 -0.1037
    3TMC2     H13906   4.384   4.488  13.843  2.3713  0.5791 -0.0713
    3TMC2    H113907   4.248   0.095  13.646 -0.1696 -0.2251  0.4076
    3TMC2    H213908   4.387   0.123  14.047 -0.3636 -0.5272  0.4331
    3TMC2    C713909   4.272   0.266  13.864  0.1217  0.6280  0.5017
    3TMC2    C813910   4.461   4.600  14.048  0.1361 -0.6225  1.0322
    3TMC2    O113911   4.261   0.313  13.979  0.0430 -0.7886 -0.5639
    3TMC2    O213912   4.517   4.494  14.031  0.3802 -0.3155  0.6408
    3TMC2    O513913   4.430   4.654  14.168  0.3777  0.5194  0.2725
    3TMC2    H513914   4.353   4.715  14.165 -1.1029 -1.3829 -0.2231
    4TMC2    C113915   3.493   0.591  13.389  0.2913  0.1256 -0.2274
    4TMC2    C213916   3.494   0.625  13.258  0.3237 -0.4856 -0.0596
    4TMC2    C313917   3.594   0.578  13.181  0.0512 -0.0523 -0.3624
    4TMC2    C413918   3.596   0.534  13.450 -0.9012 -0.0763  0.1232
    4TMC2    C513919   3.708   0.514  13.373 -0.4733  0.1563 -0.0631
    4TMC2    C613920   3.707   0.526  13.239  0.3697  0.0982  0.4672
    4TMC2     C13921   3.368   0.586  13.461 -0.3731 -0.4817  0.4526
    4TMC2     O13922   3.380   0.576  13.585 -0.4172 -0.0106 -0.1059
    4TMC2     H13923   3.412   0.668  13.203  1.2830 -0.6284 -1.6088
    4TMC2    H113924   3.593   0.514  13.556 -2.8958 -1.0233 -0.0920
    4TMC2    H213925   3.795   0.497  13.182  1.5949 -2.5822  3.6684
    4TMC2    C713926   3.834   0.488  13.438 -0.7281 -0.8669 -0.1903
    4TMC2    C813927   3.605   0.607  13.041 -0.2914  0.1034  0.4335
    4TMC2    O113928   3.912   0.428  13.369  0.9003  0.0210  0.0881
    4TMC2    O213929   3.546   0.700  12.988 -0.2076 -0.0387  0.5375
    4TMC2    O513930   3.631   0.491  12.977 -0.0075  0.2094  0.2719
    4TMC2    H513931   3.643   0.415  13.038 -1.9234 -0.1235  0.2133
    5MPD2     C13932   2.858   0.622  13.504 -0.1166 -0.3796  0.2914
    5MPD2    C113933   2.889   0.620  13.369 -1.3835 -0.3259 -0.1935
    5MPD2    C213934   3.021   0.606  13.328 -0.4741 -0.2602 -0.4442
    5MPD2    C313935   3.126   0.600  13.424 -0.2214  0.0725  0.3049
    5MPD2    C413936   3.088   0.594  13.555  0.3321 -0.0338 -0.2060
    5MPD2    C513937   2.957   0.609  13.594 -0.8117 -0.2466  0.0726
    5MPD2     H13938   3.048   0.608  13.223 -1.0180 -0.2740 -0.5855
    5MPD2    H113939   3.157   0.595  13.639 -0.6788  1.0013  0.6072
    5MPD2    H213940   2.756   0.633  13.537 -0.9773 -0.4441 -2.2997
    5MPD2    H313941   2.926   0.600  13.697 -1.5753 -0.8393 -0.2041
    5MPD2     N13942   3.258   0.588  13.380  0.2209  0.8156  0.0944
    5MPD2    H513943   3.271   0.585  13.279  0.6144  0.0970  0.1591
    5MPD2    N113944   2.779   0.635  13.283 -0.3149  0.7020 -0.0738
    5MPD2    H713945   2.689   0.639  13.329  0.2088  0.5254  0.9629
    6MPD1     C13946   2.338   2.373  13.065 -0.8794 -0.3388  0.1988
    6MPD1    C113947   2.434   2.372  12.966  0.1505 -0.3246 -0.3367
    6MPD1    C213948   2.517   2.258  12.960  0.2991 -0.7879 -0.1593
    6MPD1    C313949   2.509   2.152  13.051  0.2217  0.2605  0.4382
    6MPD1    C413950   2.401   2.158  13.149 -0.5519 -0.5132  0.0654
    6MPD1    C513951   2.327   2.271  13.155  1.0584  0.3888 -0.2214
    6MPD1     H13952   2.582   2.256  12.874  0.9921  0.8925  0.3164
    6MPD1    H113953   2.393   2.076  13.218  2.1634 -1.9859 -1.3666
    6MPD1    H213954   2.273   2.459  13.058 -1.4979 -0.7960  0.3529
    6MPD1    H313955   2.253   2.270  13.234  0.5865 -0.7443 -0.6774
    6MPD1     N13956   2.592   2.035  13.046  0.2116 -0.9057 -0.1068
    6MPD1    H513957   2.572   1.962  13.114 -0.3573 -0.7869 -0.1447
    6MPD1    N113958   2.453   2.479  12.870 -0.3344  0.1135 -0.1041
    6MPD1    H613959   2.420   2.568  12.907  0.1806  0.6428 -0.9329
    6MPD1    H713960   2.536   2.483  12.812  0.5373 -1.0267  1.0784
    7MPD2     C13961   2.734   1.449  13.432  0.3786  0.1070  0.0655
    7MPD2    C113962   2.747   1.418  13.299  0.0665 -0.1757  0.2922
    7MPD2    C213963   2.713   1.302  13.251 -0.1576 -0.1842  0.8623
    7MPD2    C313964   2.644   1.204  13.332 -0.1480 -0.6304  0.3681
    7MPD2    C413965   2.627   1.236  13.462  0.1771 -0.1357 -0.1379
    7MPD2    C513966   2.674   1.355  13.512 -0.2036 -0.7699 -0.5030
    7MPD2     H13967   2.715   1.283  13.145 -0.8092  0.0603  0.8119
    7MPD2    H113968   2.584   1.163  13.530 -0.4363 -1.1860 -1.6389
    7MPD2    H213969   2.773   1.542  13.471  0.8073  0.9300 -2.3619
    7MPD2    H313970   2.667   1.372  13.619 -0.0715  0.9173 -0.7678
    7MPD2     N13971   2.597   1.080  13.286 -0.4815 -0.3361 -0.0244
    7MPD2    H513972   2.595   1.009  13.358  1.3221 -0.4070 -0.0529
    7MPD2    N113973   2.791   1.524  13.212  0.2919 -0.4452 -0.1183
    7MPD2    H713974   2.778   1.504  13.114 -2.3198 -0.2006  0.1743
    8TMC3    C113975   2.536   0.922  13.118  0.0190  0.7438  0.0653
    8TMC3    C213976   2.619   0.830  13.182 -0.4278 -0.1258  0.3665
    8TMC3    C313977   2.671   0.730  13.105  0.8297 -0.2736  0.0667
    8TMC3    C413978   2.502   0.924  12.987  0.6501  0.3573 -0.4186
    8TMC3    C513979   2.577   0.838  12.911 -0.2309 -0.0181 -0.0524
    8TMC3    C613980   2.647   0.739  12.972 -0.0398 -0.0611  0.2969
    8TMC3     C13981   2.545   1.061  13.158 -0.1558  0.1686  0.0471
    8TMC3     O13982   2.529   1.148  13.075  0.3605 -0.4552  0.1599
    8TMC3     H13983   2.653   0.852  13.283 -0.0409 -1.1049  0.4565
    8TMC3    H113984   2.437   0.997  12.941  0.3272  0.1841 -0.2386
    8TMC3    H213985   2.716   0.674  12.919 -0.0634 -1.5060  2.0084
    8TMC3    C713986   2.638   0.898  12.792  0.0230 -0.5590  0.7761
    8TMC3    C813987   2.780   0.644  13.149 -0.1770 -0.3508 -0.8517
    8TMC3    O113988   2.676   0.834  12.694 -0.2440 -0.0403 -0.4409
    8TMC3    O213989   2.870   0.611  13.077  0.5431  0.1908  0.2612
    9TMC3    C113990   2.768   1.899  12.976  0.8923  0.8844  1.0225
    9TMC3    C213991   2.807   1.826  12.864  0.4677  0.4882 -0.2053
    9TMC3    C313992   2.862   1.703  12.889 -0.3121  0.1493 -0.7233
    9TMC3    C413993   2.774   1.847  13.103  0.3505 -0.4575 -0.2287
    9TMC3    C513994   2.833   1.727  13.118  0.2671 -0.2516 -0.1236
    9TMC3    C613995   2.878   1.653  13.011 -0.2771  0.2566  0.2841
    9TMC3     C13996   2.692   2.015  12.956  0.4650 -0.5739 -0.4442
    9TMC3     O13997   2.730   2.076  12.856  0.3283  0.0649 -0.2168
    9TMC3     H13998   2.782   1.868  12.768 -1.0173  0.7662  0.2985
    9TMC3    H113999   2.742   1.906  13.188 -1.6018 -0.7893 -0.7401
    9TMC3    H214000   2.940   1.565  13.019 -0.5342  0.1266  0.8053
    9TMC3    C714001   2.835   1.649  13.244  0.0499  0.4469  0.7540
    9TMC3    C814002   2.855   1.608  12.777  0.2701  0.0443 -0.2817
    9TMC3    O114003   2.841   1.710  13.350  0.1045 -0.0851 -0.0155
    9TMC3    O214004   2.907   1.632  12.668  0.2251 -0.0375  0.0134
   10MPD2     C14005   2.768   1.120  12.619 -0.9431  0.1416  0.0363
   10MPD2    C114006   2.734   1.129  12.751 -0.3146  1.1879 -0.3917
   10MPD2    C214007   2.761   1.254  12.814 -0.2159 -0.1546 -0.1255
   10MPD2    C314008   2.803   1.369  12.747 -0.1728  0.4092 -0.9379
   10MPD2    C414009   2.837   1.354  12.611  0.1130 -0.3047 -0.0669
   10MPD2    C514010   2.823   1.231  12.550  0.5389  0.1622 -0.2498
   10MPD2     H14011   2.732   1.257  12.918  1.5297 -2.7818  0.4561
   10MPD2    H114012   2.873   1.441  12.557 -0.3079  0.2905  0.6173
   10MPD2    H214013   2.761   1.030  12.560  0.5319  2.0728 -3.1041
   10MPD2    H314014   2.838   1.220  12.444  0.6384  0.3719 -0.2585
   10MPD2     N14015   2.813   1.486  12.822  0.0559 -0.5529  0.2408
   10MPD2    H514016   2.773   1.487  12.915 -2.5986 -0.5938 -0.9170
   10MPD2    N114017   2.668   1.030  12.825 -1.3022  0.0103 -0.1973
   10MPD2    H714018   2.640   1.043  12.921  0.0486  2.2093 -0.1126
   11MPD2     C14019   4.168   0.547  13.835  0.3039  0.3356  0.4457
   11MPD2    C114020   4.151   0.444  13.736  0.8126 -0.0151 -0.0244
   11MPD2    C214021   4.053   0.455  13.638  0.3596 -0.6304  0.1643
   11MPD2    C314022   3.971   0.564  13.630 -0.0485  0.1298 -0.2009
   11MPD2    C414023   3.981   0.658  13.724  0.3429 -0.7031 -0.4199
   11MPD2    C514024   4.074   0.646  13.824  0.1609  0.3827  0.1198
   11MPD2     H14025   4.044   0.371  13.570  2.0003 -0.2857 -0.4857
   11MPD2    H114026   3.918   0.746  13.716  1.4980  0.3637  2.1568
   11MPD2    H214027   4.238   0.536  13.917  1.0277 -0.4446 -0.2736
   11MPD2    H314028   4.080   0.725  13.899 -1.6990 -1.6336  2.4137
   11MPD2     N14029   3.860   0.569  13.545  0.2998  0.7527  0.2449
   11MPD2    H514030   3.794   0.643  13.564  0.1543  0.7179 -0.1232
   11MPD2    N114031   4.219   0.320  13.744  0.2891  0.1914  0.7564
   11MPD2    H714032   4.214   0.259  13.663 -2.3984  0.0808  0.9892
    1MPD1     C14033   1.449   2.964  16.498  0.3382  0.2579 -0.0213
    1MPD1    C114034   1.571   3.032  16.509  0.2951 -0.0005  0.2560
    1MPD1    C214035   1.646   3.018  16.623 -0.7964 -0.0015  0.1649
    1MPD1    C314036   1.598   2.935  16.719 -0.1700  0.1196  0.3183
    1MPD1    C414037   1.496   2.852  16.693  1.1265 -0.0831  0.2466
    1MPD1    C514038   1.411   2.872  16.589  0.0403 -0.2334 -0.5966
    1MPD1     H14039   1.746   3.058  16.620 -0.0331 -1.8569  0.5265
    1MPD1    H114040   1.459   2.778  16.763  0.6585 -1.0643 -1.0282
    1MPD1    H214041   1.377   2.986  16.420 -0.8337 -1.2526  0.6285
    1MPD1    H314042   1.317   2.821  16.568 -0.6300  0.3481  1.0007
    1MPD1     N14043   1.671   2.898  16.841  0.3029 -0.0598  0.3034
    1MPD1    H514044   1.632   2.831  16.907 -0.2671  0.6548  0.6915
    1MPD1    N114045   1.597   3.134  16.417 -0.0248 -0.0905  0.4668
    1MPD1    H614046   1.565   3.113  16.322  2.0700  0.0511 -0.2754
    1MPD1    H714047   1.693   3.168  16.415 -0.7002  1.8427  0.5289
    2MPD1     C14048   1.840   2.213  17.488  0.1897  0.0354  0.0285
    2MPD1    C114049   1.967   2.240  17.439 -0.3427  0.5598 -0.1430
    2MPD1    C214050   1.983   2.366  17.380 -0.1630  0.7348  0.0350
    2MPD1    C314051   1.880   2.454  17.357  0.2037  0.2341 -0.2826
    2MPD1    C414052   1.759   2.421  17.407 -0.9206  0.3008 -0.4007
    2MPD1    C514053   1.742   2.307  17.474  0.0769  0.4290  0.0129
    2MPD1     H14054   2.082   2.392  17.345  0.0164 -0.6007 -0.4652
    2MPD1    H114055   1.678   2.492  17.396  0.0981  1.2038 -2.1152
    2MPD1    H214056   1.815   2.124  17.545 -1.2370  0.0378 -0.6032
    2MPD1    H314057   1.639   2.292  17.505  0.9975 -1.7633  2.0519
    2MPD1     N14058   1.908   2.570  17.288  0.1390  0.3243  0.1618
    2MPD1    H514059   2.006   2.592  17.275  0.3605  0.3345  1.9404
    2MPD1    N114060   2.072   2.164  17.485 -0.6033  0.3116 -0.3221
    2MPD1    H614061   2.151   2.170  17.421  1.1514  0.1916  1.8349
    2MPD1    H714062   2.052   2.070  17.518 -1.4935  0.2557 -1.0299
    3TMC3    C114063   1.849   2.773  17.182 -0.4505 -0.8328 -1.0857
    3TMC3    C214064   1.979   2.809  17.214  0.1045  0.0915 -0.2630
    3TMC3    C314065   2.043   2.896  17.132 -0.1185 -0.0456  0.5481
    3TMC3    C414066   1.788   2.812  17.070  1.0274  0.0835  0.2896
    3TMC3    C514067   1.857   2.902  16.992  0.0334  0.4050  0.0733
    3TMC3    C614068   1.982   2.950  17.022  0.4751 -0.0062  0.3328
    3TMC3     C14069   1.808   2.648  17.231  0.8003  0.6617 -0.2054
    3TMC3     O14070   1.694   2.617  17.202  0.1965 -0.2131 -0.0743
    3TMC3     H14071   2.021   2.775  17.308  1.2897 -0.8952 -1.1439
    3TMC3    H114072   1.704   2.769  17.017  2.1553  0.4757 -1.8376
    3TMC3    H214073   2.030   3.026  16.962  2.1791 -1.8874 -0.6860
    3TMC3    C714074   1.797   2.951  16.872  0.2960 -0.5154 -0.7492
    3TMC3    C814075   2.192   2.896  17.142  0.6438  0.4732  0.2925
    3TMC3    O114076   1.858   3.035  16.805 -0.2406  0.8029  0.1781
    3TMC3    O214077   2.249   2.842  17.235  0.2167 -0.2235  0.4068
    4MPD1     C14078   2.629   2.908  16.878  0.9304 -0.1725  0.7677
    4MPD1    C114079   2.529   2.948  16.789 -0.0156  0.0326  0.0565
    4MPD1    C214080   2.403   2.950  16.836 -0.1287 -0.4011  0.0865
    4MPD1    C314081   2.374   2.926  16.969 -0.2180  0.4470 -0.1477
    4MPD1    C414082   2.480   2.881  17.051  0.0029 -0.2203 -0.3789
    4MPD1    C514083   2.607   2.869  17.008 -0.5660  0.0400  0.1117
    4MPD1     H14084   2.321   2.994  16.780 -0.7704 -1.9292 -0.1763
    4MPD1    H114085   2.460   2.853  17.154 -0.6254 -0.8185 -0.6651
    4MPD1    H214086   2.728   2.891  16.836 -0.3709 -1.1310 -1.9296
    4MPD1    H314087   2.684   2.830  17.073  1.7303  1.6324 -1.6393
    4MPD1     N14088   2.236   2.931  17.016 -0.1303 -0.5257 -0.0144
    4MPD1    H514089   2.163   2.971  16.958  0.1158 -0.1162 -0.0366
    4MPD1    N114090   2.570   2.977  16.658 -0.4427  0.1712  0.0202
    4MPD1    H614091   2.669   2.999  16.647 -0.3826  0.6047  1.4309
    4MPD1    H714092   2.520   3.051  16.609  1.5092  1.7715  0.4450
    1TCq1    O114093   2.441   1.913  10.428  0.3213 -0.1098  0.3320
    1TCq1    C114094   2.498   1.886  10.548  0.0675 -0.4590  0.3050
    1TCq1    O214095   2.475   1.940  10.654  0.1342 -0.1960 -0.3631
    1TCq1    C214096   2.587   1.782  10.530 -0.6451  0.4607 -0.0237
    1TCq1    C314097   2.604   1.690  10.633 -0.1394 -0.0112 -0.4716
    1TCq1    C414098   2.728   1.624  10.650  0.5294  1.1420  0.2102
    1TCq1    C514099   2.808   1.630  10.539 -0.3234 -0.0860 -0.2788
    1TCq1    C614100   2.795   1.712  10.437 -0.9503  0.0834  0.5704
    1TCq1    C714101   2.688   1.797  10.440 -0.2805  0.0566 -0.2123
    1TCq1    C814102   2.917   1.768  10.377  0.0249 -0.6991  0.7447
    1TCq1    O414103   2.896   1.852  10.289 -0.2111 -0.2299 -0.0701
    1TCq1    C914104   2.735   1.507  10.741  0.3046 -0.0401  0.7831
    1TCq1    O514105   2.828   1.432  10.726 -0.2985 -0.1996 -0.2415
    1TCq1    O614106   2.645   1.495  10.830 -0.2877 -0.3631 -0.7472
    1TCq1    H114107   2.465   1.839  10.369 -0.0394 -0.5171  0.6914
    1TCq1    H214108   2.528   1.692  10.710  0.9751  1.3968  0.5700
    1TCq1    H314109   2.891   1.560  10.533  1.0310  1.4405  0.3768
    1TCq1    H414110   2.672   1.871  10.362  1.6603  0.3539 -0.3238
    2MPD1     C14111   3.414   1.862  10.395  0.1825 -0.1402 -0.4462
    2MPD1    C114112   3.386   1.785  10.504  0.2241 -0.2316 -0.3200
    2MPD1    C214113   3.256   1.735  10.515  0.0287  0.2225  0.7007
    2MPD1    C314114   3.156   1.787  10.440 -0.9505 -0.6994  0.5043
    2MPD1    C414115   3.187   1.866  10.333 -0.1304  0.3010 -1.0547
    2MPD1    C514116   3.317   1.901  10.312 -0.5688  0.0503 -0.3361
    2MPD1     H14117   3.223   1.680  10.602  1.6853  1.6022  2.2069
    2MPD1    H114118   3.114   1.891  10.257 -0.4068 -1.2606 -1.3081
    2MPD1    H214119   3.508   1.908  10.367 -0.3590  1.0356 -0.3483
    2MPD1    H314120   3.346   1.964  10.229 -1.1955  0.1540 -0.4776
    2MPD1     N14121   3.026   1.738  10.458 -0.0444  0.4231  0.6248
    2MPD1    H514122   3.013   1.674  10.536 -2.7173  2.9577  2.2272
    2MPD1    N114123   3.492   1.751  10.591  0.3778 -0.8042  0.0842
    2MPD1    H614124   3.568   1.818  10.597 -2.1025  2.1041 -1.2638
    2MPD1    H714125   3.455   1.737  10.684 -0.7900  1.2956 -0.0700
    1TMC1    C114126   0.557   3.761   0.111  0.0855 -0.1199 -0.7097
    1TMC1    C214127   0.615   3.773  17.734 -0.4276  0.3397  0.0145
    1TMC1    C314128   0.525   3.786  17.629 -0.4209  0.4129 -1.2917
    1TMC1    C414129   0.423   3.761   0.133  0.2341 -0.5717  0.0828
    1TMC1    C514130   0.336   3.778   0.026  0.0635  0.4452  0.2124
    1TMC1    C614131   0.389   3.795  17.642 -1.1982 -0.4617  0.5683
    1TMC1     C14132   0.631   3.728   0.231 -0.4105 -0.7976 -0.6909
    1TMC1     O14133   0.575   3.759   0.338 -0.5039 -0.0898  0.3763
    1TMC1     H14134   0.722   3.790  17.733 -0.5375  0.9525 -0.5962
    1TMC1    H114135   0.368   3.750   0.226 -1.2096  0.7785 -0.6269
    1TMC1    H214136   0.328   3.804  17.553 -0.6877  1.7924  0.4406
    1TMC1    C714137   0.195   3.820   0.058  0.3268  0.0048  0.0987
    1TMC1    C814138   0.587   3.771  17.501  0.1924  0.4688 -0.2739
    1TMC1    O114139   0.152   3.792   0.167 -0.7367 -0.3004  0.1683
    1TMC1    O214140   0.701   3.728  17.505 -0.4069 -0.1263 -0.5504
    1TMC1    O314141   0.184   3.944  17.739  0.4844  0.7250  0.1933
    1TMC1    H314142   0.257   3.953  17.674  1.2275 -0.1953  0.9169
    1TMC1    O514143   0.545   3.878  17.431 -0.2970 -0.3522  0.7544
    1TMC1    H514144   0.472   3.922  17.480 -0.9280 -1.2827  0.6480
    2MPD1     C14145   1.090   3.619   0.430 -0.3211  0.5613 -0.5070
    2MPD1    C114146   1.080   3.551   0.313  0.2648  0.3612  0.2388
    2MPD1    C214147   0.958   3.563   0.251  0.2867  0.1859  0.0734
    2MPD1    C314148   0.856   3.637   0.294 -0.2946  0.4107 -0.9834
    2MPD1    C414149   0.871   3.715   0.409  0.4493 -0.6120 -0.1872
    2MPD1    C514150   0.992   3.705   0.475 -1.3983  0.0974 -0.0401
    2MPD1     H14151   0.945   3.507   0.158 -0.6415 -0.2714  0.4777
    2MPD1    H114152   0.793   3.770   0.460  0.2490 -0.5306 -0.5849
    2MPD1    H214153   1.172   3.623   0.502 -1.0974  2.5889  0.2621
    2MPD1    H314154   0.995   3.752   0.573 -0.5080 -1.5794  0.7447
    2MPD1     N14155   0.744   3.652   0.203 -0.1302 -0.4142  0.1629
    2MPD1    H514156   0.751   3.617   0.108 -0.2922 -1.1539  0.4263
    2MPD1    N114157   1.179   3.464   0.265 -0.2842 -0.0379 -0.3185
    2MPD1    H614158   1.265   3.507   0.298 -1.1340  1.1683  0.3541
    2MPD1    H714159   1.176   3.466   0.163  0.6559  0.7539 -0.3262
    1MPD1     C14160   3.979   1.620  11.643 -0.0919 -0.0046  0.1775
    1MPD1    C114161   4.015   1.530  11.740  0.0538 -0.1410  0.1156
    1MPD1    C214162   4.126   1.451  11.711 -0.4351 -0.3620 -1.3209
    1MPD1    C314163   4.196   1.459  11.592  0.7274  0.0183  0.3360
    1MPD1    C414164   4.153   1.548  11.499 -0.8265 -0.5189 -0.1957
    1MPD1    C514165   4.043   1.632  11.523 -0.3260 -0.2721 -0.3754
    1MPD1     H14166   4.163   1.381  11.785  0.6994  1.1744 -0.4416
    1MPD1    H114167   4.201   1.572  11.405 -0.7741  0.5252  0.0912
    1MPD1    H214168   3.910   1.701  11.661 -2.1969 -1.9788  1.0621
    1MPD1    H314169   3.993   1.687  11.444 -1.9358 -1.1097  0.0497
    1MPD1     N14170   4.309   1.380  11.576  0.1625  0.7070  0.7587
    1MPD1    H514171   4.328   1.317  11.653  1.1539  0.8710  0.6458
    1MPD1    N114172   3.955   1.529  11.868 -0.7047 -0.0242  0.3500
    1MPD1    H614173   3.950   1.437  11.910 -0.8017 -0.5232 -0.7583
    1MPD1    H714174   3.865   1.577  11.875  1.0342  3.6144 -2.3027
    2MPD1     C14175   4.331   1.900  10.555 -0.4080 -0.0288 -0.0027
    2MPD1    C114176   4.410   1.998  10.508  0.1578  0.6102  0.3738
    2MPD1    C214177   4.506   2.047  10.600  0.0472 -0.1714  0.2479
    2MPD1    C314178   4.513   2.003  10.732  0.6964  0.4072  0.1835
    2MPD1    C414179   4.426   1.907  10.771  0.1061 -0.3855  0.2353
    2MPD1    C514180   4.337   1.865  10.683  1.2838 -0.2792 -0.1723
    2MPD1     H14181   4.586   2.115  10.572  1.1555 -2.0372 -1.0950
    2MPD1    H114182   4.432   1.866  10.871 -1.4055 -1.8616 -0.2851
    2MPD1    H214183   4.259   1.851  10.491 -0.8033  0.5393  0.0113
    2MPD1    H314184   4.262   1.792  10.709  1.1696  0.1682  0.7741
    2MPD1     N14185   4.608   2.048  10.825 -0.0030  0.2243 -0.2435
    2MPD1    H514186   4.613   1.995  10.912 -0.6374 -1.9197 -1.4960
    2MPD1    N114187   4.410   2.034  10.374  0.1333 -0.4683 -0.3844
    2MPD1    H614188   4.322   2.015  10.325  1.1817 -0.0343 -2.4531
    2MPD1    H714189   4.426   2.134  10.370  1.2494 -0.6552 -0.6204
    3MPD1     C14190   0.654   2.775  11.077  0.9187 -0.7462  0.5402
    3MPD1    C114191   0.577   2.762  10.965 -0.7402  0.1175  0.2454
    3MPD1    C214192   0.481   2.661  10.969 -1.0027 -0.7723  0.8099
    3MPD1    C314193   0.482   2.562  11.070  0.0863 -0.1215 -0.8998
    3MPD1    C414194   0.568   2.582  11.178 -0.4925  0.1188  0.0434
    3MPD1    C514195   0.645   2.691  11.179 -0.6310  0.1859  0.2204
    3MPD1     H14196   0.425   2.652  10.876 -1.3198 -0.9207  1.0116
    3MPD1    H114197   0.576   2.516  11.263 -0.4542  0.6360  0.4459
    3MPD1    H214198   0.719   2.861  11.086 -0.4429  0.5267 -1.8174
    3MPD1    H314199   0.714   2.707  11.261  0.1136 -2.2374  0.0714
    3MPD1     N14200   0.390   2.456  11.076  0.4752 -0.0029 -0.0311
    3MPD1    H514201   0.396   2.396  11.157 -0.8094  2.5490  1.9609
    3MPD1    N114202   0.570   2.869  10.871 -0.5491  0.2383  0.0913
    3MPD1    H614203   0.662   2.908  10.854 -0.1542 -1.0295 -0.6631
    3MPD1    H714204   0.527   2.838  10.784  0.3078  1.6074 -0.8153
    4MPD2     C14205   0.226   1.293  11.871  0.0201  0.1827  0.3153
    4MPD2    C114206   0.233   1.245  11.739  0.4169 -0.9446  0.3322
    4MPD2    C214207   0.344   1.269  11.663  0.2571  0.3479  0.1574
    4MPD2    C314208   0.452   1.338  11.713  0.2891  0.0322  0.1610
    4MPD2    C414209   0.452   1.371  11.849 -0.0250 -0.2467  0.6153
    4MPD2    C514210   0.345   1.337  11.926 -0.2477 -0.9535  0.7030
    4MPD2     H14211   0.340   1.239  11.559  0.0745 -1.4275  0.6671
    4MPD2    H114212   0.531   1.427  11.899  0.6391  0.3921 -1.1448
    4MPD2    H214213   0.143   1.275  11.939  0.5434 -0.8400  0.7005
    4MPD2    H314214   0.344   1.357  12.033 -0.6921  1.5756  0.2128
    4MPD2     N14215   0.561   1.375  11.633 -0.0892 -0.5359  0.0590
    4MPD2    H514216   0.636   1.428  11.675 -1.0719 -0.1002  1.2616
    4MPD2    N114217   0.127   1.178  11.669 -0.0098  0.5962  0.2178
    4MPD2    H714218   0.145   1.151  11.572  2.5170 -1.6731  1.3225
    5TMC3    C114219   4.644   1.141  11.608 -0.0503 -0.5452 -0.5909
    5TMC3    C214220   4.536   1.225  11.601 -0.2100 -0.1513  0.0795
    5TMC3    C314221   4.507   1.292  11.485  0.7298 -0.4629 -0.3364
    5TMC3    C414222   4.700   1.109  11.493  0.4479  0.5112  0.3170
    5TMC3    C514223   4.674   1.173  11.381 -0.1164  0.4532 -0.0575
    5TMC3    C614224   4.579   1.272  11.376 -0.0108 -0.5037  0.1457
    5TMC3     C14225   4.734   1.168  11.715  0.9595  0.0175  0.2789
    5TMC3     O14226   4.692   1.215  11.816 -0.5760  0.5684  0.0351
    5TMC3     H14227   4.501   1.272  11.692 -0.5286  1.6988 -0.9987
    5TMC3    H114228   0.034   1.027  11.484 -1.8944 -1.5999  1.5190
    5TMC3    H214229   4.543   1.311  11.282 -0.1925 -1.3293 -0.1230
    5TMC3    C714230   0.068   1.211  11.317  0.1377 -0.5318 -0.7023
    5TMC3    C814231   4.398   1.384  11.467 -0.7130 -0.2059 -0.3113
    5TMC3    O114232   0.169   1.159  11.368 -0.0081 -0.1780 -0.1171
    5TMC3    O214233   4.408   1.469  11.375 -0.0668  0.1457 -0.1364
    6TMC3    C114234   0.052   2.173  10.917  0.8809  0.4841  0.4856
    6TMC3    C214235   0.145   2.271  10.897 -0.7738  0.2847  0.1962
    6TMC3    C314236   0.216   2.317  11.004 -0.3331  0.2190  0.5127
    6TMC3    C414237   0.023   2.119  11.040 -0.1459 -0.9146 -0.3031
    6TMC3    C514238   0.106   2.158  11.144  0.4375  0.2225 -0.2690
    6TMC3    C614239   0.192   2.261  11.128 -0.1336 -0.3915  0.4384
    6TMC3     C14240   4.710   2.139  10.802  1.3285 -0.1001 -0.1002
    6TMC3     O14241   0.005   2.191  10.696  0.0421 -0.1036  0.2775
    6TMC3     H14242   0.154   2.319  10.800  0.8339 -0.7061 -0.1318
    6TMC3    H114243   4.672   2.059  11.058  0.1605 -1.7388 -1.5459
    6TMC3    H214244   0.244   2.302  11.214  0.1740 -1.8124  0.9301
    6TMC3    C714245   0.153   2.063  11.247  0.2699  0.0065  0.2240
    6TMC3    C814246   0.292   2.438  10.984  0.2702  1.0962  0.1648
    6TMC3    O114247   0.228   2.108  11.335 -0.1434 -0.1330 -0.4945
    6TMC3    O214248   0.277   2.495  10.875  0.2924 -0.2253  0.2890
    7MPD2     C14249   0.337   1.470  10.973 -0.5101  0.6230  0.7624
    7MPD2    C114250   0.376   1.413  11.092  0.8107 -0.2140 -0.3782
    7MPD2    C214251   0.275   1.348  11.164 -0.0780 -0.1075 -0.3355
    7MPD2    C314252   0.145   1.341  11.121  0.3277  0.4333  0.8097
    7MPD2    C414253   0.120   1.385  10.998 -0.0960  0.4991  0.0875
    7MPD2    C514254   0.215   1.446  10.918  0.7149  0.2115 -0.3325
    7MPD2     H14255   0.304   1.302  11.258  1.6753 -0.7965 -1.2109
    7MPD2    H114256   0.018   1.391  10.962  0.0518  1.3615 -0.1854
    7MPD2    H214257   0.409   1.524  10.912 -0.2923 -2.3693 -1.6566
    7MPD2    H314258   0.184   1.483  10.821 -0.4666  0.8428  0.2802
    7MPD2     N14259   0.045   1.277  11.197 -0.1271  0.0502  0.1941
    7MPD2    H514260   4.687   1.277  11.159  0.6024  0.4833 -1.6250
    7MPD2    N114261   0.504   1.422  11.156  0.3906  0.5644  0.0011
    7MPD2    H714262   0.506   1.373  11.245 -0.4145 -1.0081 -0.8498
    8TMC3    C114263   0.711   1.508  11.211 -0.2952 -0.3433 -0.5328
    8TMC3    C214264   0.705   1.638  11.253 -1.4385  0.4963 -0.5288
    8TMC3    C314265   0.675   1.670  11.384 -0.2981 -0.3541 -0.3858
    8TMC3    C414266   0.701   1.411  11.308  0.4158  0.3919 -1.3130
    8TMC3    C514267   0.678   1.442  11.442 -0.1888  0.1630  0.0198
    8TMC3    C614268   0.668   1.569  11.477  0.3369  0.6467  0.5004
    8TMC3     C14269   0.615   1.484  11.104 -0.8155 -0.7075  1.2528
    8TMC3     O14270   0.624   1.560  11.009 -0.1079  0.0954 -0.5251
    8TMC3     H14271   0.701   1.716  11.179  2.0188 -0.1017 -1.3285
    8TMC3    H114272   0.700   1.307  11.278  0.3095 -0.4713  1.6892
    8TMC3    H214273   0.654   1.603  11.579 -0.4340  0.9412  0.2973
    8TMC3    C714274   0.565   1.360  11.493  0.2284  0.8358  0.4650
    8TMC3    C814275   0.560   1.754  11.392  0.4907 -0.6321 -0.1683
    8TMC3    O114276   0.483   1.326  11.410 -0.0667  0.0562 -0.2000
    8TMC3    O214277   0.558   1.858  11.330  0.5027 -0.4667  0.1456
    9MPD2     C14278   0.232   1.598  11.429 -0.3361  0.0604  0.1164
    9MPD2    C114279   0.312   1.706  11.405  0.4142 -0.2063  0.3477
    9MPD2    C214280   0.257   1.825  11.354  0.3269 -0.0541 -0.4595
    9MPD2    C314281   0.127   1.831  11.316 -0.3420 -0.0512 -0.4388
    9MPD2    C414282   0.049   1.719  11.335 -0.0491 -1.2912  0.0679
    9MPD2    C514283   0.098   1.608  11.400 -0.5068  0.2906 -1.3374
    9MPD2     H14284   0.333   1.896  11.326 -0.2646  0.9346  0.4174
    9MPD2    H114285   4.690   1.717  11.284  0.8697  2.4023 -1.7516
    9MPD2    H214286   0.275   1.515  11.485 -0.3387 -0.3365 -0.4664
    9MPD2    H314287   0.039   1.518  11.411 -1.4198  0.9604 -0.7586
    9MPD2     N14288   0.085   1.946  11.243  0.2811 -0.8523  0.2771
    9MPD2    H514289   0.004   1.942  11.181  0.9319  0.4859 -0.6413
    9MPD2    N114290   0.454   1.679  11.429 -0.5394  0.1029  0.8242
    9MPD2    H714291   0.469   1.593  11.481  0.2794  0.6447  1.4875
    1MPD1     C14292   4.393   1.359  17.101 -0.3250  0.3562  0.0218
    1MPD1    C114293   4.438   1.295  16.989 -0.2142  0.4467  0.3027
    1MPD1    C214294   4.336   1.232  16.914 -0.5206  0.4551 -0.2882
    1MPD1    C314295   4.201   1.252  16.945  0.3384 -0.2418 -0.3301
    1MPD1    C414296   4.168   1.311  17.064  0.1517 -0.1362  0.5458
    1MPD1    C514297   4.261   1.366  17.144  0.0943 -1.4032 -0.5040
    1MPD1     H14298   4.364   1.180  16.822  0.1960 -1.2678  0.8915
    1MPD1    H114299   4.066   1.317  17.099 -0.4501  0.7341 -1.3969
    1MPD1    H214300   4.453   1.410  17.175  2.4511 -0.5015 -1.6236
    1MPD1    H314301   4.240   1.399  17.246  0.5120 -0.3476 -0.7565
    1MPD1     N14302   4.091   1.201  16.869  0.8179  0.4613 -0.2422
    1MPD1    H514303   4.003   1.221  16.915  0.1967 -0.2519 -1.1090
    1MPD1    N114304   4.578   1.277  16.955  0.3890 -0.0582 -0.3284
    1MPD1    H614305   4.596   1.257  16.857  1.7020  2.9668 -0.6928
    1MPD1    H714306   4.639   1.350  16.990 -2.1848  1.0095  1.9619
    2TMC2    C114307   3.853   0.968  16.537  0.9207 -0.4266 -0.2817
    2TMC2    C214308   3.757   1.065  16.533 -0.6391 -0.2271 -0.6707
    2TMC2    C314309   3.779   1.181  16.602  0.2985  0.3775  0.6076
    2TMC2    C414310   3.958   0.979  16.628 -0.2747 -0.3310 -0.0479
    2TMC2    C514311   3.972   1.096  16.697  0.7279  0.3337 -0.3768
    2TMC2    C614312   3.881   1.199  16.690 -0.1879 -0.0851 -0.1726
    2TMC2     C14313   3.868   0.871  16.429 -0.5465  0.0029  0.3526
    2TMC2     O14314   3.811   0.898  16.324  0.1409  1.0122  0.3016
    2TMC2     H14315   3.674   1.060  16.462 -2.3939 -3.5396  1.6379
    2TMC2    H114316   4.039   0.909  16.615 -0.5036 -0.5161 -0.4720
    2TMC2    H214317   3.881   1.287  16.753 -0.1227 -1.4820  1.7693
    2TMC2    C714318   4.102   1.119  16.756 -0.8032  0.0667  0.7434
    2TMC2    C814319   3.683   1.282  16.570 -0.2528 -0.3371 -0.0707
    2TMC2    O114320   4.204   1.084  16.699 -0.2246  0.1810  0.5509
    2TMC2    O214321   3.571   1.267  16.525  0.4452  0.1996  0.2575
    2TMC2    O514322   3.761   1.382  16.524  0.8208 -0.2269  0.2968
    2TMC2    H514323   3.853   1.356  16.549  0.1386 -0.7414  2.2601
    3MPD1     C14324   4.054   0.402  16.287 -0.3207 -0.0300 -0.4621
    3MPD1    C114325   4.012   0.504  16.206  0.1951 -0.1347  0.0871
    3MPD1    C214326   3.972   0.623  16.265  0.6114  0.1973  0.4777
    3MPD1    C314327   3.978   0.641  16.401  0.0861  0.7902 -0.0027
    3MPD1    C414328   4.016   0.539  16.479  0.6188  1.1468  0.4081
    3MPD1    C514329   4.037   0.423  16.422 -0.3149  0.7606  0.0762
    3MPD1     H14330   3.954   0.717  16.214  3.5794  1.1717  1.2663
    3MPD1    H114331   4.012   0.541  16.587  3.0675  1.5979  0.4835
    3MPD1    H214332   4.086   0.307  16.245  0.9938 -0.3123  1.2113
    3MPD1    H314333   4.059   0.336  16.482 -0.5204  0.1824 -0.6737
    3MPD1     N14334   3.936   0.759  16.473  0.4972  0.5961  0.1471
    3MPD1    H514335   3.968   0.765  16.569  1.1515  1.2918 -0.1164
    3MPD1    N114336   4.017   0.500  16.065  0.6947 -0.3192  0.3166
    3MPD1    H614337   3.954   0.562  16.014 -0.3826 -2.0409 -0.4213
    3MPD1    H714338   4.006   0.407  16.025  2.5951 -1.2872  2.0298
    1TMC1    C114339   2.206   4.134  13.299  0.3227 -0.9283  0.0558
    1TMC1    C214340   2.088   4.151  13.355  0.1320 -1.0097  0.8264
    1TMC1    C314341   2.003   4.045  13.360  0.4403 -0.1876 -0.4877
    1TMC1    C414342   2.243   4.013  13.243 -0.0559  0.1034 -0.1191
    1TMC1    C514343   2.161   3.903  13.260  0.6023 -0.2130 -0.1000
    1TMC1    C614344   2.041   3.915  13.325  0.4982  0.5605  0.1356
    1TMC1     C14345   2.270   4.263  13.275  0.1114  0.7903  0.7981
    1TMC1     O14346   2.217   4.364  13.315  0.5347 -0.2708 -0.1109
    1TMC1     H14347   2.052   4.239  13.407  0.4770  0.1231 -0.8583
    1TMC1    H114348   2.341   4.008  13.197  0.2904  1.5614  0.4598
    1TMC1    H214349   1.984   3.825  13.344  0.8211  0.3952  0.3286
    1TMC1    C714350   2.217   3.775  13.258  0.4187 -0.1127  0.6132
    1TMC1    C814351   1.886   4.074  13.442  0.4009  0.1695 -0.1804
    1TMC1    O114352   2.165   3.688  13.325  0.0628  0.3020  0.0293
    1TMC1    O214353   1.901   4.141  13.542  0.8405 -0.6845  0.0469
    1TMC1    O314354   2.333   3.773  13.183  0.2425 -0.2624  0.5381
    1TMC1    H314355   2.336   3.846  13.118 -0.6449 -0.4978  0.2322
    1TMC1    O514356   1.786   4.087  13.357  0.2058 -0.2823  0.0942
    1TMC1    H514357   1.823   4.064  13.270  1.6492  1.9398  0.1268
    2MPD2     C14358   2.426   4.501  13.170 -0.0278 -0.4975 -1.1195
    2MPD2    C114359   2.472   4.372  13.172 -0.7190 -0.3606 -0.1439
    2MPD2    C214360   2.593   4.356  13.106 -0.1760 -0.0750 -0.5793
    2MPD2    C314361   2.660   4.459  13.041 -0.2293  0.6614 -0.1278
    2MPD2    C414362   2.598   4.576  13.029  0.0434 -0.5623  0.4478
    2MPD2    C514363   2.486   4.601  13.095  0.5332  0.3670  0.2392
    2MPD2     H14364   2.636   4.258  13.089  0.7452  0.4527 -1.2988
    2MPD2    H114365   2.641   4.665  12.985  0.4563 -0.1875  1.6146
    2MPD2    H214366   2.334   4.539  13.211  0.6264  0.9756 -1.0198
    2MPD2    H314367   2.445   4.701  13.091  1.4633  0.7471  0.2208
    2MPD2     N14368   2.785   4.439  12.987  0.6089 -0.1732 -0.6530
    2MPD2    H514369   2.828   4.348  13.002 -0.4755 -0.6190 -0.2456
    2MPD2    N114370   2.399   4.256  13.215  0.7652 -0.1912 -0.0059
    2MPD2    H714371   2.440   4.166  13.194  0.9943 -1.1224  4.6402
    3TCq1    O114372   3.437   4.428  12.974 -0.2698  0.2010  0.6419
    3TCq1    C114373   3.360   4.526  12.911  0.3028  0.0624 -0.4113
    3TCq1    O214374   3.365   4.648  12.931  0.3816  0.8856 -0.3360
    3TCq1    C214375   3.227   4.466  12.880  0.3653 -0.4502 -0.1560
    3TCq1    C314376   3.225   4.330  12.858 -0.1976  0.2378  0.0548
    3TCq1    C414377   3.108   4.264  12.878 -0.4650  0.6964  0.4019
    3TCq1    C514378   2.989   4.324  12.893 -0.3720 -0.1621  0.3226
    3TCq1    C614379   2.999   4.461  12.906  0.2411  0.2437 -0.1449
    3TCq1    C714380   3.117   4.536  12.907  0.1931 -0.2766 -0.0133
    3TCq1    C814381   2.872   4.532  12.934  0.7071 -0.0097  0.4310
    3TCq1    O414382   2.863   4.653  12.935  0.1178  0.7110 -0.1846
    3TCq1    C914383   3.100   4.119  12.854 -0.3652 -0.0559 -0.1156
    3TCq1    O514384   3.203   4.068  12.804  0.0074 -0.4642  0.4376
    3TCq1    O614385   3.022   4.063  12.934  0.2734  0.6683  0.1862
    3TCq1    H114386   3.402   4.336  12.972  0.6710 -0.1401 -0.5944
    3TCq1    H214387   3.316   4.285  12.820 -1.8031  0.9894 -4.6453
    3TCq1    H314388   2.901   4.266  12.867 -0.4384 -0.2563  0.7549
    3TCq1    H414389   3.119   4.639  12.940  0.0628 -0.1412 -0.4314
    1MPD2     C14390   2.115   1.364  14.711  0.0856 -0.4618 -0.4548
    1MPD2    C114391   2.015   1.394  14.797  0.9930 -0.3207  0.4689
    1MPD2    C214392   1.984   1.296  14.893 -0.0907  0.6599  0.1137
    1MPD2    C314393   2.046   1.176  14.899 -0.1966 -0.9931 -0.0009
    1MPD2    C414394   2.156   1.154  14.812 -0.3087 -0.6455  0.0419
    1MPD2    C514395   2.188   1.247  14.719  0.1733 -0.5939  0.1733
    1MPD2     H14396   1.903   1.309  14.964  1.8168  1.9804  2.0553
    1MPD2    H114397   2.216   1.064  14.812  1.3038  0.4318  0.3338
    1MPD2    H214398   2.137   1.427  14.626 -2.3875  2.1493  0.8416
    1MPD2    H314399   2.271   1.230  14.652  1.2903  2.1661  0.8638
    1MPD2     N14400   1.989   1.076  14.985  0.6436 -0.2876  0.2068
    1MPD2    H514401   1.909   1.103  15.040  0.7269  2.2155 -0.8842
    1MPD2    N114402   1.959   1.527  14.800 -0.5713 -0.1169 -0.0333
    1MPD2    H714403   1.996   1.603  14.743 -2.5843  0.3666 -0.7045
    2TMC3    C114404   1.814   1.700  14.882 -0.1767  0.9572 -0.2302
    2TMC3    C214405   1.752   1.729  15.000 -0.2551  0.7406 -0.0348
    2TMC3    C314406   1.620   1.766  15.002 -0.3996 -0.2889 -0.4194
    2TMC3    C414407   1.756   1.723  14.762 -0.0809 -1.2397  0.0995
    2TMC3    C514408   1.635   1.790  14.768  0.0069  0.0242  0.6230
    2TMC3    C614409   1.562   1.801  14.884  0.4552  0.2051 -0.0459
    2TMC3     C14410   1.865   1.566  14.894 -0.1743  0.3240  0.6134
    2TMC3     O14411   1.831   1.520  15.002  0.0798 -0.0325 -0.3701
    2TMC3     H14412   1.791   1.710  15.099  0.0097  1.4032 -0.0098
    2TMC3    H114413   1.791   1.684  14.667 -0.7933  2.0334 -1.5135
    2TMC3    H214414   1.458   1.828  14.870  0.1123  0.2245  2.4283
    2TMC3    C714415   1.613   1.891  14.665  0.0026 -0.4598  0.5002
    2TMC3    C814416   1.531   1.682  15.064  0.2122  0.1820 -0.4198
    2TMC3    O114417   1.501   1.934  14.650  0.6470 -0.0887 -0.2771
    2TMC3    O214418   1.414   1.702  15.038  0.3131 -0.2097  0.0993
    3TCq1    O114419   2.515   2.483  14.035  0.2665 -0.1907  0.1366
    3TCq1    C114420   2.536   2.371  14.114 -0.4802  0.1510  1.0034
    3TCq1    O214421   2.645   2.333  14.145  0.0414  0.3163  0.2922
    3TCq1    C214422   2.415   2.277  14.105 -0.8059 -0.1046 -0.1752
    3TCq1    C314423   2.450   2.138  14.103 -0.3592 -0.6285 -0.3517
    3TCq1    C414424   2.384   2.052  14.178 -0.1129 -0.3429 -0.0511
    3TCq1    C514425   2.280   2.088  14.257 -0.0187 -0.1443 -0.2790
    3TCq1    C614426   2.237   2.219  14.242 -0.2982 -0.0110  0.7854
    3TCq1    C714427   2.301   2.307  14.161 -0.3602 -0.8307 -0.0181
    3TCq1    C814428   2.099   2.255  14.270 -0.1111 -0.2002  0.0854
    3TCq1    O414429   2.048   2.346  14.204  0.8442  0.2553  0.2389
    3TCq1    C914430   2.416   1.917  14.176  0.3607 -0.0154  0.9164
    3TCq1    O514431   2.479   1.881  14.075  0.0496 -0.5660  0.3184
    3TCq1    O614432   2.371   1.834  14.260 -0.6105 -0.0344 -0.1052
    3TCq1    H114433   2.435   2.486  13.979 -0.3656 -0.1291  1.0403
    3TCq1    H214434   2.537   2.104  14.048  0.6124 -1.1552  1.5235
    3TCq1    H314435   2.234   2.010  14.317 -1.3977  0.1044 -1.0265
    3TCq1    H414436   2.271   2.411  14.170 -1.5613 -1.1538 -0.3923
    4MPD2     C14437   1.816   2.240  14.349  0.9479  0.4304 -0.3419
    4MPD2    C114438   1.912   2.173  14.415  0.1415 -0.4853  0.0062
    4MPD2    C214439   1.887   2.080  14.519  0.4416  0.3521 -0.2795
    4MPD2    C314440   1.757   2.055  14.546 -0.3953 -0.0461  0.2257
    4MPD2    C414441   1.659   2.128  14.481 -0.4625  0.0080  0.0964
    4MPD2    C514442   1.689   2.210  14.382 -0.2543 -0.0573 -0.5613
    4MPD2     H14443   1.968   2.022  14.561  0.6271  0.2515 -0.7725
    4MPD2    H114444   1.552   2.115  14.491 -0.6840  2.8373  1.5037
    4MPD2    H214445   1.822   2.303  14.262  1.2845  0.7769 -0.0638
    4MPD2    H314446   1.611   2.256  14.323  1.2731  2.3118 -0.7374
    4MPD2     N14447   1.731   1.944  14.626 -0.1158 -0.7449 -0.0465
    4MPD2    H514448   1.809   1.903  14.678 -0.1896 -1.4669 -0.5147
    4MPD2    N114449   2.048   2.185  14.374 -0.2874 -0.2421  0.1069
    4MPD2    H714450   2.118   2.125  14.418 -1.7671 -0.6138  1.9388
    5TMC2    C114451   1.774   0.963  15.243 -0.4419 -0.1598 -0.4678
    5TMC2    C214452   1.849   0.958  15.359  0.2122 -0.2609 -0.0744
    5TMC2    C314453   1.984   0.926  15.345  0.3928 -0.1793 -0.2952
    5TMC2    C414454   1.836   0.933  15.124  0.0343  0.1962  0.4479
    5TMC2    C514455   1.961   0.888  15.110 -0.0744 -0.9090 -0.1935
    5TMC2    C614456   2.037   0.899  15.226  0.2552 -0.1332 -1.0646
    5TMC2     C14457   1.710   1.088  15.210 -0.5581 -0.0356 -0.1321
    5TMC2     O14458   1.752   1.146  15.109 -0.2927  0.1962 -0.6503
    5TMC2     H14459   1.808   0.991  15.454  0.7750 -0.3858  0.2075
    5TMC2    H114460   1.774   0.938  15.035  0.2541  2.7883  0.4284
    5TMC2    H214461   2.143   0.883  15.211 -0.2311 -1.4552 -3.1605
    5TMC2    C714462   2.037   0.949  15.002  0.3694  0.0300 -0.0709
    5TMC2    C814463   2.075   0.976  15.442 -0.2740 -0.6288 -0.3321
    5TMC2    O114464   2.141   0.900  14.959  0.3415  0.1843 -0.0446
    5TMC2    O214465   2.189   1.007  15.416 -0.0212  0.2939 -0.4000
    5TMC2    O514466   2.024   0.958  15.565  0.3104  0.3408  0.0133
    5TMC2    H514467   1.937   0.913  15.566  1.1225 -1.2392 -0.5492
    6MPD2     C14468   1.382   1.475  15.212 -0.1259  0.6360  0.6774
    6MPD2    C114469   1.513   1.467  15.173 -0.3987 -0.6521 -0.6379
    6MPD2    C214470   1.588   1.350  15.200 -0.7181  0.9528  0.1186
    6MPD2    C314471   1.533   1.243  15.263 -1.0275 -0.2864 -0.4051
    6MPD2    C414472   1.405   1.265  15.315  0.2058  0.0766 -0.1839
    6MPD2    C514473   1.329   1.369  15.281  0.6448 -0.8308  1.3144
    6MPD2     H14474   1.693   1.353  15.174 -0.7160 -4.0103 -0.4541
    6MPD2    H114475   1.355   1.186  15.370  0.2519  0.3549  0.2582
    6MPD2    H214476   1.320   1.563  15.202  1.7259  1.7379 -1.0209
    6MPD2    H314477   1.228   1.378  15.319 -0.3610 -2.0160 -1.1260
    6MPD2     N14478   1.606   1.120  15.287  0.2894 -1.0303 -0.1484
    6MPD2    H514479   1.562   1.045  15.340 -0.6121 -1.2534 -1.2060
    6MPD2    N114480   1.585   1.568  15.112  0.5991  0.2664 -0.7218
    6MPD2    H714481   1.683   1.544  15.099  0.4181 -0.8586  0.0349
  945NH4     N114482   3.155   1.910  16.591 -0.0371 -0.4790  0.2693
  945NH4     H214483   3.149   1.879  16.492  0.6435 -0.1687  0.1334
  945NH4     H314484   3.191   1.828  16.643 -0.7911 -0.7613  0.3452
  945NH4     H414485   3.054   1.929  16.610 -0.4121 -0.3632 -1.8316
  945NH4     H514486   3.218   1.992  16.604 -1.0226  0.4179 -0.6071
  946SOD     NA14487   4.356   4.423   6.285 -0.0939  0.0979  0.8060
  947SOD     NA14488   3.013   4.068  13.143  0.0790 -0.5310  0.3590
  948SOD     NA14489   3.219   1.245  15.177  0.1448  0.0234 -0.6445
  949SOD     NA14490   2.835   3.362  16.091 -0.0597  0.0587  0.0163
  950SOD     NA14491   2.201   4.204  11.085  0.4621 -0.1539 -0.1978
  951SOD     NA14492   4.476   1.539   4.465 -0.1575 -0.0485 -0.5034
  952SOD     NA14493   2.686   0.308  12.710 -0.2642  0.3291 -0.0812
  953SOL     OW14494   4.372   1.211   0.052 -0.6915 -0.0507 -0.3705
  953SOL    HW114495   4.441   1.248  17.741 -0.1004 -1.4887 -0.5790
  953SOL    HW214496   4.293   1.221  17.742 -0.5880  0.5249 -0.4212
  954SOL     OW14497   2.932   2.832  10.127 -0.1445 -0.3018  0.1789
  954SOL    HW114498   2.916   2.739  10.112  1.9763 -0.7763  0.8904
  954SOL    HW214499   2.839   2.850  10.114 -0.3950 -0.8816  1.2164
  955SOL     OW14500   1.390   2.836  15.864 -0.0675  0.3332  0.0554
  955SOL    HW114501   1.381   2.932  15.867 -1.3245  0.2345 -0.4153
  955SOL    HW214502   1.318   2.818  15.925  0.8218  0.8762  1.2653
  956SOL     OW14503   1.102   3.598   5.021  0.3377 -0.5736  0.0637
  956SOL    HW114504   1.064   3.669   5.072  1.7435  0.1389  0.1378
  956SOL    HW214505   1.031   3.585   4.958 -0.8619 -0.7145  1.4439
  957SOL     OW14506   1.737   3.932   3.734 -0.3068 -0.1424  0.2268
  957SOL    HW114507   1.755   3.838   3.741 -1.4832 -0.2628  1.5888
  957SOL    HW214508   1.810   3.954   3.793  0.7849 -2.0515 -0.4104
  958SOL     OW14509   4.156   1.508  12.864 -0.4348 -0.2153  0.3018
  958SOL    HW114510   4.158   1.439  12.797 -0.9761 -0.6904  0.7650
  958SOL    HW214511   4.161   1.450  12.940 -0.9108 -4.2106 -2.6650
  959SOL     OW14512   3.742   3.468   6.682 -0.3406  0.1448  0.0878
  959SOL    HW114513   3.711   3.501   6.598 -0.4734 -0.7365 -0.2115
  959SOL    HW214514   3.772   3.555   6.710 -1.0723  0.7357 -0.9598
  960SOL     OW14515   0.138   2.113   5.494  0.8212 -0.6237  0.4684
  960SOL    HW114516   0.045   2.090   5.488  0.8785 -0.2460 -1.6695
  960SOL    HW214517   0.185   2.030   5.503  0.8667 -0.5077  1.3379
  961SOL     OW14518   4.582   1.404   5.834 -0.0424 -0.1784  0.2467
  961SOL    HW114519   4.573   1.328   5.891  1.9791  0.0865  0.8903
  961SOL    HW214520   4.675   1.396   5.812 -0.2916 -0.6434 -0.6483
  962SOL     OW14521   0.256   3.978  15.199  0.2850  0.2494  0.8000
  962SOL    HW114522   0.177   3.975  15.253 -0.2324 -0.2746  0.0151
  962SOL    HW214523   0.225   3.929  15.123  1.4537 -0.8374  1.0386
  963SOL     OW14524   0.147   2.818   4.141  0.1012 -0.2607  0.1335
  963SOL    HW114525   0.052   2.806   4.140  0.1861 -0.8388 -1.3750
  963SOL    HW214526   0.156   2.885   4.073  1.3788  0.6355  1.1871
  964SOL     OW14527   4.556   2.692   4.735  0.0549  0.4681 -0.1273
  964SOL    HW114528   4.621   2.717   4.670 -0.4613  0.8430 -0.4932
  964SOL    HW214529   4.476   2.723   4.692  0.6200  2.2891  0.1578
  965SOL     OW14530   0.015   0.195   5.462  0.1111  0.0402 -0.4324
  965SOL    HW114531   0.035   0.249   5.539 -0.4403 -0.3535 -0.0166
  965SOL    HW214532   4.688   0.138   5.506 -0.6412  2.5935  1.8128
  966SOL     OW14533   2.891   0.546   2.335 -0.2140  0.2871  0.1757
  966SOL    HW114534   2.804   0.534   2.297 -0.5002  2.7313  0.0452
  966SOL    HW214535   2.907   0.635   2.305  0.1902 -0.0039 -0.4656
  967SOL     OW14536   3.622   4.315   3.712 -0.3096  0.2387 -0.3524
  967SOL    HW114537   3.528   4.310   3.693  0.3686  1.0871 -3.7751
  967SOL    HW214538   3.653   4.259   3.641  1.0731  0.9190 -0.2823
  968SOL     OW14539   2.199   1.536   1.314 -0.7979  0.9014 -0.0221
  968SOL    HW114540   2.216   1.599   1.244 -0.8598  0.0792 -0.7816
  968SOL    HW214541   2.251   1.571   1.386  2.0855  0.1207 -1.7292
  969SOL     OW14542   0.168   1.834   9.731  0.1301 -0.0141  0.0113
  969SOL    HW114543   0.149   1.927   9.731 -2.3501 -0.5308 -1.3016
  969SOL    HW214544   0.117   1.804   9.807 -1.3165  0.5448 -0.7442
  970SOL     OW14545   2.355   2.885   4.499 -0.1509  0.0389  0.7342
  970SOL    HW114546   2.386   2.971   4.531  0.1523 -0.7774  2.6789
  970SOL    HW214547   2.300   2.858   4.572 -0.3804  0.5828  0.7624
  971SOL     OW14548   3.408   2.032   3.560 -0.5893  0.1105  0.4275
  971SOL    HW114549   3.441   1.985   3.637 -1.2612 -0.9177  0.0936
  971SOL    HW214550   3.316   2.006   3.555 -0.8191  0.8857  0.6800
  972SOL     OW14551   4.209   2.856   7.158 -0.7464 -0.3024  0.0541
  972SOL    HW114552   4.252   2.894   7.234 -0.9738  1.0888 -0.5085
  972SOL    HW214553   4.129   2.909   7.152  0.7979  2.0744  0.4548
  973SOL     OW14554   2.147   1.613  10.096  0.0014 -0.1430  0.2432
  973SOL    HW114555   2.159   1.654  10.181 -0.8165  0.4225  0.0890
  973SOL    HW214556   2.059   1.576  10.101 -0.2744  0.1266 -2.1946
  974SOL     OW14557   4.545   1.926   2.763 -0.4576  0.1187  0.5626
  974SOL    HW114558   4.543   1.982   2.841  0.0889 -1.7563  1.9318
  974SOL    HW214559   4.579   1.987   2.698 -3.1525 -1.5943 -2.4695
  975SOL     OW14560   2.270   2.147   3.272 -0.0704 -0.7630  0.5574
  975SOL    HW114561   2.313   2.232   3.283 -2.6780  0.6766 -0.2206
  975SOL    HW214562   2.328   2.107   3.208 -1.0897 -1.1971 -0.0926
  976SOL     OW14563   1.722   1.811   8.060 -0.4017 -0.3567  0.1393
  976SOL    HW114564   1.708   1.851   7.975  0.3143 -2.1766 -0.8332
  976SOL    HW214565   1.654   1.845   8.119  1.4290  2.2116  0.7396
  977SOL     OW14566   0.364   4.580   3.259 -0.2710  0.0189 -0.6131
  977SOL    HW114567   0.284   4.618   3.224 -0.3689  1.8126  1.5441
  977SOL    HW214568   0.432   4.601   3.195 -0.6782  0.0709 -1.0300
  978SOL     OW14569   0.652   1.264  14.173  0.3109 -0.2158 -0.1531
  978SOL    HW114570   0.742   1.240  14.197 -0.2883 -2.7527 -0.3820
  978SOL    HW214571   0.639   1.346  14.220  1.1943 -0.5780  0.7430
  979SOL     OW14572   4.305   0.771   2.630 -0.0933 -0.1266  0.1001
  979SOL    HW114573   4.330   0.702   2.692  0.7174  0.1682  0.1065
  979SOL    HW214574   4.257   0.737   2.555 -0.5371  0.1659  0.2573
  980SOL     OW14575   3.990   3.458   1.127  0.0443 -0.4454 -0.5072
  980SOL    HW114576   4.041   3.378   1.138  0.2357 -0.0154  1.7175
  980SOL    HW214577   3.993   3.462   1.031 -0.3211  1.5511 -0.4306
  981SOL     OW14578   1.448   2.585   4.309 -0.4379 -0.2951  0.5898
  981SOL    HW114579   1.489   2.507   4.271 -0.0336 -0.1648  0.7580
  981SOL    HW214580   1.399   2.548   4.382  0.3438 -1.5685  0.4553
  982SOL     OW14581   4.385   0.758  12.034 -0.0356  0.2100  0.4549
  982SOL    HW114582   4.302   0.769  11.989 -0.3122 -2.6640  0.2687
  982SOL    HW214583   4.368   0.671  12.070 -1.7579 -0.2048 -1.3534
  983SOL     OW14584   2.679   0.194   9.321  0.1355 -0.2074 -0.4083
  983SOL    HW114585   2.594   0.232   9.339  0.2332  0.3236 -1.0561
  983SOL    HW214586   2.723   0.276   9.297  0.8687 -0.5607 -0.2979
  984SOL     OW14587   3.993   3.704   2.949 -0.1435  0.4183 -0.1606
  984SOL    HW114588   3.937   3.706   3.026 -2.2371 -1.0529 -1.6674
  984SOL    HW214589   3.936   3.661   2.885  0.2859 -1.1199  0.4927
  985SOL     OW14590   4.478   4.026   0.617 -0.1699  0.2404  0.3013
  985SOL    HW114591   4.494   3.932   0.606 -1.7944 -0.2734  2.2535
  985SOL    HW214592   4.546   4.066   0.564  1.0670 -0.8411  1.0663
  986SOL     OW14593   0.243   1.678  17.165 -0.7079  0.3773  0.2235
  986SOL    HW114594   0.262   1.712  17.252 -2.6805  0.7772  0.5000
  986SOL    HW214595   0.237   1.758  17.112 -0.6926  1.0682  1.2553
  987SOL     OW14596   3.513   4.171   9.506 -0.3558  0.0999  0.2108
  987SOL    HW114597   3.424   4.141   9.491  0.0700 -0.9825 -0.1354
  987SOL    HW214598   3.560   4.142   9.428 -0.5091 -2.6319  1.1194
  988SOL     OW14599   2.906   4.179   3.947  0.5415 -0.1578 -0.3548
  988SOL    HW114600   2.920   4.273   3.956 -0.1531 -0.1065  0.1391
  988SOL    HW214601   2.989   4.150   3.909  1.5185  1.5370  0.4708
  989SOL     OW14602   4.146   1.488   4.769  0.2727  0.2613  0.7248
  989SOL    HW114603   4.073   1.437   4.805 -0.3960  1.2101  0.7101
  989SOL    HW214604   4.133   1.461   4.678  1.1560 -0.0585  0.6884
  990SOL     OW14605   0.300   4.610  14.548 -0.3215 -0.3521  0.5570
  990SOL    HW114606   0.279   4.595  14.456  1.6773  1.1961 -0.1813
  990SOL    HW214607   0.244   4.683  14.575  1.8689  2.1519 -1.7057
  991SOL     OW14608   3.648   2.752   7.028  0.3788 -0.6897  0.5456
  991SOL    HW114609   3.563   2.745   7.070 -0.0118 -1.8086 -0.4372
  991SOL    HW214610   3.710   2.721   7.095  3.2770  2.2499 -0.7504
  992SOL     OW14611   1.431   0.417   6.174 -0.0170 -0.8988  0.3171
  992SOL    HW114612   1.412   0.500   6.131  0.6091 -1.0403 -0.2485
  992SOL    HW214613   1.417   0.357   6.100  1.6164 -1.5328  0.5082
  993SOL     OW14614   0.717   0.146  15.818  0.3935  0.2388 -0.1479
  993SOL    HW114615   0.702   0.053  15.800 -0.5003  0.7749 -2.1163
  993SOL    HW214616   0.653   0.188  15.761  3.1912  5.2581  0.3526
  994SOL     OW14617   3.618   4.721  13.033 -0.0957  0.0412 -0.0127
  994SOL    HW114618   3.541   4.704  12.978  0.3975 -1.5266 -0.2207
  994SOL    HW214619   3.634   4.636  13.074  0.5927 -0.9778 -2.3848
  995SOL     OW14620   2.154   2.104   5.599 -0.0943 -0.1948 -0.0082
  995SOL    HW114621   2.178   2.178   5.545  1.1082 -0.5970 -0.0198
  995SOL    HW214622   2.075   2.133   5.644 -0.7017 -4.9999  2.0316
  996SOL     OW14623   3.080   0.854   2.640  0.3732 -0.0474  0.1180
  996SOL    HW114624   3.002   0.850   2.695 -0.5529  0.2757 -1.1719
  996SOL    HW214625   3.079   0.774   2.587  2.8366  0.2064 -0.2802
  997SOL     OW14626   3.977   0.858   5.818 -0.5898 -0.2675  0.5358
  997SOL    HW114627   4.014   0.943   5.845  2.4661 -1.7396  1.0380
  997SOL    HW214628   3.888   0.864   5.852 -0.8588  0.8942 -0.3656
  998SOL     OW14629   2.161   2.278  17.728  0.7228 -0.2419  0.3684
  998SOL    HW114630   2.184   2.220  17.655  0.4038 -1.8481  1.5404
  998SOL    HW214631   2.181   2.219   0.056  1.8329  0.5050  0.6623
  999SOL     OW14632   4.517   2.320   2.238 -0.3672 -0.2662 -0.0769
  999SOL    HW114633   4.537   2.233   2.272  1.7427  0.1658 -0.2213
  999SOL    HW214634   4.534   2.378   2.311 -1.4197 -2.9841  2.3179
 1000SOL     OW14635   3.983   1.729   1.839 -0.2407 -0.5691 -0.0870
 1000SOL    HW114636   3.902   1.704   1.884 -1.2351  0.2164 -1.4665
 1000SOL    HW214637   3.951   1.804   1.789 -0.4452 -1.7528 -1.7329
 1001SOL     OW14638   1.901   0.680   2.318  0.2708 -0.1882  0.6724
 1001SOL    HW114639   1.815   0.638   2.313  0.8696 -1.4630  0.8897
 1001SOL    HW214640   1.953   0.612   2.361  1.6122  0.4424  0.0449
 1002SOL     OW14641   2.795   2.544   0.073  0.5974 -0.0184  0.1376
 1002SOL    HW114642   2.733   2.475   0.095 -0.7982  0.5129 -2.0992
 1002SOL    HW214643   2.823   2.580   0.157 -1.6343  0.9116  0.5002
 1003SOL     OW14644   2.174   0.352   6.443  0.5281 -0.2607  0.0461
 1003SOL    HW114645   2.265   0.341   6.415  0.7375 -0.2108  0.6908
 1003SOL    HW214646   2.139   0.267   6.416 -1.1714  0.5349 -0.1852
 1004SOL     OW14647   0.767   0.364   4.132 -0.1919 -0.3032 -0.0868
 1004SOL    HW114648   0.755   0.274   4.104 -1.3202  0.3206 -1.6487
 1004SOL    HW214649   0.795   0.359   4.224 -0.2538 -1.8261 -0.1666
 1005SOL     OW14650   0.472   4.390  16.349  0.0293 -0.1568  0.1732
 1005SOL    HW114651   0.381   4.401  16.322  0.0665 -0.0241  0.0967
 1005SOL    HW214652   0.487   4.464  16.408  1.4977 -0.4338  0.1455
 1006SOL     OW14653   3.966   2.850   2.575 -0.4752 -0.6324 -0.0156
 1006SOL    HW114654   3.873   2.869   2.584  0.1072  1.0874  2.1968
 1006SOL    HW214655   3.985   2.901   2.497  1.7539 -1.7218 -0.1919
 1007SOL     OW14656   2.264   2.146   1.101  0.1523 -0.7330 -0.2303
 1007SOL    HW114657   2.256   2.183   1.013  1.6497 -0.4249 -0.2310
 1007SOL    HW214658   2.170   2.131   1.111  0.1670  0.2705  1.4347
 1008SOL     OW14659   2.953   0.295   2.342 -0.2498 -0.7149 -0.5441
 1008SOL    HW114660   2.915   0.266   2.425 -0.3946  0.9469 -0.0419
 1008SOL    HW214661   2.924   0.386   2.343 -1.2993 -1.0182 -3.3757
 1009SOL     OW14662   4.079   4.371   5.261  0.2739 -0.0348  0.2885
 1009SOL    HW114663   4.169   4.379   5.291 -0.0028  2.0169  0.5695
 1009SOL    HW214664   4.054   4.463   5.249 -0.1265 -0.5966 -3.0681
 1010SOL     OW14665   3.162   3.734   0.215 -0.2316  0.0755 -0.0752
 1010SOL    HW114666   3.150   3.703   0.125 -1.2146 -0.5324  0.2596
 1010SOL    HW214667   3.076   3.720   0.254  0.1691 -2.6794 -0.2001
 1011SOL     OW14668   2.842   3.062   7.143  0.7650 -0.0242 -0.2564
 1011SOL    HW114669   2.779   3.129   7.171  2.2286  1.4688 -0.5210
 1011SOL    HW214670   2.842   2.999   7.215  0.5511 -0.3919 -0.5762
 1012SOL     OW14671   2.922   3.479   1.435  0.3743 -0.2686  0.2959
 1012SOL    HW114672   2.874   3.453   1.356  0.0488 -1.4356  0.8690
 1012SOL    HW214673   2.873   3.551   1.474  1.1684 -0.0174  0.8320
 1013SOL     OW14674   2.808   0.167  13.844  0.5170 -0.0791 -0.1614
 1013SOL    HW114675   2.773   0.166  13.933  0.8437 -0.4855 -0.0374
 1013SOL    HW214676   2.867   0.092  13.840  1.4324  0.5382  1.3754
 1014SOL     OW14677   3.608   2.298   4.668  0.3361  0.0986  0.5272
 1014SOL    HW114678   3.613   2.284   4.762 -0.8228 -2.6453  0.1784
 1014SOL    HW214679   3.664   2.227   4.639 -1.1294 -0.1107 -1.8401
 1015SOL     OW14680   0.081   1.698   4.768  0.4637 -0.0209  0.6647
 1015SOL    HW114681   0.024   1.631   4.805  2.7219 -2.0158  0.5338
 1015SOL    HW214682   0.061   1.777   4.819  1.2382  1.9320 -2.0529
 1016SOL     OW14683   0.007   3.092  16.100  0.5690 -0.2889 -0.3862
 1016SOL    HW114684   0.011   3.152  16.174  1.5899  2.9622 -3.0929
 1016SOL    HW214685   4.732   3.148  16.023  0.3400 -0.9947 -0.8710
 1017SOL     OW14686   0.455   1.630  13.267 -0.4840 -0.0279  0.0167
 1017SOL    HW114687   0.364   1.617  13.294  0.1408  0.1286  2.1711
 1017SOL    HW214688   0.457   1.606  13.174  0.3588 -0.0309  0.0401
 1018SOL     OW14689   2.992   4.149   4.806  0.3767  0.0119  0.4202
 1018SOL    HW114690   2.922   4.214   4.815 -0.7022 -1.2258  0.8975
 1018SOL    HW214691   3.054   4.185   4.870  1.9358  0.1632 -1.1802
 1019SOL     OW14692   4.501   2.567   8.484 -0.3199  0.6175 -0.2530
 1019SOL    HW114693   4.418   2.614   8.485 -1.4089 -1.3046 -0.7589
 1019SOL    HW214694   4.508   2.542   8.392  1.3675 -2.0139  0.6082
 1020SOL     OW14695   3.586   1.377   7.875 -0.6723 -0.3222  0.0021
 1020SOL    HW114696   3.526   1.378   7.949 -0.1613 -0.6785  0.4321
 1020SOL    HW214697   3.665   1.409   7.919  0.3746 -0.9286 -1.4301
 1021SOL     OW14698   0.499   0.408   4.168 -0.3596 -0.1974  0.0826
 1021SOL    HW114699   0.585   0.402   4.126 -1.3738 -0.3367 -1.9750
 1021SOL    HW214700   0.518   0.466   4.242 -0.9526  0.2694 -0.1321
 1022SOL     OW14701   1.506   2.219  10.390  0.1679  0.0421  0.4964
 1022SOL    HW114702   1.584   2.272  10.379 -0.4710  0.2121 -3.1975
 1022SOL    HW214703   1.535   2.135  10.353 -2.6035 -0.4321 -0.6254
 1023SOL     OW14704   0.457   1.936   3.074 -0.3038  0.4028 -0.5220
 1023SOL    HW114705   0.473   1.905   2.985 -0.4054  0.0205 -0.4067
 1023SOL    HW214706   0.477   1.858   3.126 -0.5310  2.7744  3.0887
 1024SOL     OW14707   4.580   1.534  13.247  0.1876  0.0999 -0.1551
 1024SOL    HW114708   4.668   1.530  13.210  0.1742 -0.7096 -0.0990
 1024SOL    HW214709   4.533   1.563  13.169  1.8444  1.0250 -0.8015
 1025SOL     OW14710   3.377   1.583   4.210 -0.4514  0.5369  0.0678
 1025SOL    HW114711   3.406   1.669   4.240 -1.5549  1.1871 -0.7571
 1025SOL    HW214712   3.455   1.547   4.167  0.6062  0.0896  2.3814
 1026SOL     OW14713   3.654   3.175  14.709  0.1825  0.6203  0.2702
 1026SOL    HW114714   3.642   3.090  14.666 -1.2091  1.7081 -1.5408
 1026SOL    HW214715   3.566   3.210  14.698  0.7352  1.8781 -0.1313
 1027SOL     OW14716   1.012   3.135   1.126 -0.3766 -0.9105  0.3838
 1027SOL    HW114717   1.010   3.171   1.215 -1.0275  2.0509 -0.8355
 1027SOL    HW214718   1.100   3.099   1.135  0.2225  0.0943 -1.3873
 1028SOL     OW14719   0.501   1.094   6.924 -0.7281 -0.5728  0.0551
 1028SOL    HW114720   0.490   1.055   6.837  0.2895 -1.8383  0.5017
 1028SOL    HW214721   0.560   1.168   6.908 -1.5137  0.0927  0.2134
 1029SOL     OW14722   0.640   3.184   0.797  0.1127 -0.0770 -0.2764
 1029SOL    HW114723   0.699   3.255   0.770 -0.7727 -0.4485 -3.0779
 1029SOL    HW214724   0.619   3.229   0.879 -1.4886 -0.2544 -0.6096
 1030SOL     OW14725   0.129   4.341   4.183 -0.1601 -0.8167 -0.5179
 1030SOL    HW114726   0.200   4.281   4.161  1.0408 -0.1251  1.4343
 1030SOL    HW214727   0.113   4.314   4.273 -0.1316 -2.0123 -0.8736
 1031SOL     OW14728   1.111   0.462  13.584 -0.1002 -0.7872  0.6395
 1031SOL    HW114729   1.131   0.435  13.673  0.4890 -1.1341  0.4000
 1031SOL    HW214730   1.172   0.533  13.564 -1.6656  0.3947 -0.0120
 1032SOL     OW14731   3.275   2.681  13.573  0.4024  0.2386 -0.1533
 1032SOL    HW114732   3.337   2.662  13.643  0.1876  2.0565  0.5228
 1032SOL    HW214733   3.196   2.634  13.599  0.1767 -0.5916 -2.3274
 1033SOL     OW14734   0.270   1.994   6.282  0.8603  0.6969 -0.0846
 1033SOL    HW114735   0.360   1.988   6.312  0.3178  0.3554  1.4692
 1033SOL    HW214736   0.263   2.089   6.271  2.5239  0.7953 -0.2745
 1034SOL     OW14737   1.049   4.080   8.022 -0.2170  0.6903  0.4194
 1034SOL    HW114738   1.055   3.985   8.034 -0.5518  0.6394  0.1739
 1034SOL    HW214739   1.107   4.089   7.947 -2.2181 -2.3874 -1.4612
 1035SOL     OW14740   4.081   0.765   6.717 -0.1822  0.3457  0.0045
 1035SOL    HW114741   4.079   0.779   6.811  1.0395  1.1627 -0.0937
 1035SOL    HW214742   4.010   0.823   6.688  0.8443  0.5573 -2.0879
 1036SOL     OW14743   2.873   4.032   5.602  0.2008  0.2917 -0.2593
 1036SOL    HW114744   2.961   4.009   5.631  0.4389  0.7630 -0.6111
 1036SOL    HW214745   2.818   4.057   5.676 -1.0501 -1.6537 -0.5247
 1037SOL     OW14746   0.005   2.005   0.215  0.0827  0.5171 -0.6499
 1037SOL    HW114747   4.647   1.992   0.211 -0.2300  1.8520  2.3403
 1037SOL    HW214748   0.022   2.024   0.307 -2.4303 -1.1790  0.1640
 1038SOL     OW14749   2.131   1.721   7.532 -0.1369  0.3896 -0.3175
 1038SOL    HW114750   2.194   1.783   7.495 -0.5122  1.0851  0.2041
 1038SOL    HW214751   2.052   1.740   7.480 -0.0405  3.9260  0.7997
 1039SOL     OW14752   3.699   4.250  14.992  0.1816 -0.0252  0.0327
 1039SOL    HW114753   3.727   4.169  15.034  1.5013  0.5731  0.2825
 1039SOL    HW214754   3.625   4.221  14.938  1.4153  0.5501 -1.9508
 1040SOL     OW14755   3.832   1.333  13.091 -0.0600  0.2734  0.6369
 1040SOL    HW114756   3.832   1.346  12.996  0.9135 -0.2020  0.5737
 1040SOL    HW214757   3.738   1.320  13.102 -0.1743 -2.6064 -4.2016
 1041SOL     OW14758   0.903   2.884   3.854 -0.0993  0.3410  0.3637
 1041SOL    HW114759   0.808   2.895   3.849 -0.1680  0.7978  2.8273
 1041SOL    HW214760   0.906   2.825   3.929  0.3875  0.0604  0.1196
 1042SOL     OW14761   4.652   2.458  10.022  0.3247 -0.1770  0.2513
 1042SOL    HW114762   4.626   2.426   9.936  0.7488 -0.5983  0.2756
 1042SOL    HW214763   0.008   2.482  10.010 -0.0652  0.6335 -1.0199
 1043SOL     OW14764   0.329   3.776   5.801  0.4791 -0.5066 -0.5477
 1043SOL    HW114765   0.345   3.739   5.888 -1.3210 -1.7599 -0.7475
 1043SOL    HW214766   0.376   3.859   5.811  2.4607 -1.6604 -0.2797
 1044SOL     OW14767   1.307   3.332   9.453  0.1612  0.3087  0.0240
 1044SOL    HW114768   1.380   3.271   9.449 -0.4876 -0.5217  0.9599
 1044SOL    HW214769   1.238   3.283   9.497  1.3022 -2.3737 -1.2075
 1045SOL     OW14770   2.151   4.106   1.619 -0.3888 -0.7030 -0.0349
 1045SOL    HW114771   2.170   4.186   1.668 -2.0666 -1.1142  1.2755
 1045SOL    HW214772   2.090   4.139   1.552 -0.5080 -1.8039 -0.4754
 1046SOL     OW14773   3.993   4.186   6.286 -0.1023 -0.0300 -0.2950
 1046SOL    HW114774   4.041   4.264   6.258 -0.3134 -0.9713 -3.2617
 1046SOL    HW214775   4.006   4.185   6.380  0.6021  1.6929 -0.3758
 1047SOL     OW14776   2.557   4.349   4.032 -0.1039  0.1330 -0.1453
 1047SOL    HW114777   2.465   4.370   4.024  0.2682  2.0308  0.7327
 1047SOL    HW214778   2.574   4.309   3.946 -2.9102 -1.4569  0.0529
 1048SOL     OW14779   2.452   1.315  12.879 -0.6118 -0.0823 -0.6587
 1048SOL    HW114780   2.466   1.257  12.954  2.6912  0.0636 -1.1788
 1048SOL    HW214781   2.520   1.378  12.901 -0.6942 -0.0041 -0.6281
 1049SOL     OW14782   1.702   2.673   4.115 -0.3689  0.3671 -0.1583
 1049SOL    HW114783   1.686   2.588   4.155  2.9047 -0.5065 -0.6682
 1049SOL    HW214784   1.795   2.667   4.093  0.0414  1.6761  1.1341
 1050SOL     OW14785   4.652   4.716  11.319  0.1568 -0.3914  0.4996
 1050SOL    HW114786   4.616   0.065  11.340  0.6990 -0.3338  1.1923
 1050SOL    HW214787   4.613   4.689  11.236 -0.4195  0.0176  0.6395
 1051SOL     OW14788   2.769   0.475   2.028  0.1082 -0.4001  0.0582
 1051SOL    HW114789   2.865   0.482   2.026  0.0022  0.8985 -0.1653
 1051SOL    HW214790   2.758   0.380   2.031  0.1970 -0.4458 -1.0849
 1052SOL     OW14791   1.403   1.908   2.284  0.2077  0.1447  0.2206
 1052SOL    HW114792   1.349   1.845   2.331  0.1968  0.0295  0.0542
 1052SOL    HW214793   1.428   1.953   2.364  0.2392  1.8376 -0.7519
 1053SOL     OW14794   3.391   0.039   0.609 -0.0628 -0.0728  0.0196
 1053SOL    HW114795   3.362   4.716   0.678 -4.0022  2.4724  0.5642
 1053SOL    HW214796   3.307   0.029   0.565 -0.0816 -0.6908  0.1897
 1054SOL     OW14797   1.740   3.663   2.899 -0.6251 -0.1207  0.2039
 1054SOL    HW114798   1.646   3.650   2.890 -0.6169  0.8497 -1.2473
 1054SOL    HW214799   1.771   3.592   2.842 -1.5888 -1.3154  1.1742
 1055SOL     OW14800   1.749   2.407   7.299 -0.3788  0.3968 -0.1221
 1055SOL    HW114801   1.716   2.325   7.264 -3.1737  0.3779  2.6055
 1055SOL    HW214802   1.815   2.428   7.233 -1.4177 -2.3140 -1.9876
 1056SOL     OW14803   3.858   4.386   3.811 -0.4761  0.7449 -0.1732
 1056SOL    HW114804   3.767   4.367   3.787  0.0613 -1.6478 -0.2945
 1056SOL    HW214805   3.876   4.448   3.740 -0.9458  0.8514 -0.2022
 1057SOL     OW14806   3.523   2.017   8.795 -0.2154 -0.3511  0.8133
 1057SOL    HW114807   3.494   1.928   8.818  0.2450 -1.1379 -1.6191
 1057SOL    HW214808   3.616   2.006   8.812 -0.1877 -1.7844 -0.2684
 1058SOL     OW14809   0.963   1.203   2.364 -0.4900  0.1441  0.1352
 1058SOL    HW114810   0.894   1.213   2.430  1.3195 -1.4854  2.2761
 1058SOL    HW214811   1.018   1.142   2.413  0.3752 -0.4922 -1.5884
 1059SOL     OW14812   1.963   0.248   4.800 -0.2802 -0.2571 -0.0702
 1059SOL    HW114813   2.025   0.189   4.757  1.5314  1.0434  0.8052
 1059SOL    HW214814   2.029   0.298   4.847  1.3095 -0.1960 -2.3783
 1060SOL     OW14815   4.552   4.628   4.358 -0.1622 -0.1032  0.0459
 1060SOL    HW114816   4.563   4.657   4.268  1.0201 -3.1280 -0.8021
 1060SOL    HW214817   4.537   4.534   4.350  1.1598 -0.2248 -1.0244
 1061SOL     OW14818   4.660   2.351   9.722 -0.3248 -0.5044 -0.1865
 1061SOL    HW114819   4.722   2.415   9.686 -2.2607  0.1785 -2.2987
 1061SOL    HW214820   4.709   2.269   9.719 -0.9308 -0.8447 -0.8623
 1062SOL     OW14821   4.319   3.278   8.749  0.7634 -0.4004 -0.7388
 1062SOL    HW114822   4.278   3.261   8.834 -0.4693  1.1152 -1.0360
 1062SOL    HW214823   4.339   3.372   8.753  1.0770 -0.5386  0.8582
 1063SOL     OW14824   3.783   0.073   8.281  0.1979 -0.0298  0.3823
 1063SOL    HW114825   3.740   0.135   8.339  1.1874  0.6494  0.3929
 1063SOL    HW214826   3.859   0.124   8.253  0.8206 -0.4038  1.4058
 1064SOL     OW14827   1.551   3.823   7.101  0.3463  0.3411 -0.1694
 1064SOL    HW114828   1.593   3.885   7.160  2.3565 -0.5527 -0.6564
 1064SOL    HW214829   1.627   3.800   7.048 -1.3557 -1.5969 -1.7527
 1065SOL     OW14830   4.399   2.098   6.335  0.3030 -0.6149  0.0025
 1065SOL    HW114831   4.355   2.098   6.419  3.4018 -0.7909  1.6331
 1065SOL    HW214832   4.485   2.130   6.363 -0.0999  0.5815 -0.1109
 1066SOL     OW14833   4.417   0.262  14.787 -0.5837 -0.4681  0.1315
 1066SOL    HW114834   4.373   0.224  14.712 -0.0959  2.7232 -1.7565
 1066SOL    HW214835   4.355   0.286  14.856  0.6167  1.8948  0.4126
 1067SOL     OW14836   4.300   2.159   5.108  0.5769  0.4840 -0.2071
 1067SOL    HW114837   4.392   2.138   5.126 -0.5135 -2.6671  1.6942
 1067SOL    HW214838   4.302   2.241   5.059 -0.6362 -0.7361 -2.2890
 1068SOL     OW14839   3.915   3.912   8.112 -0.4237 -0.0613 -0.8365
 1068SOL    HW114840   3.936   3.980   8.048  1.7613  0.2305  0.1867
 1068SOL    HW214841   3.965   3.836   8.081 -0.4488 -0.4824  0.1716
 1069SOL     OW14842   2.492   1.680   7.382 -0.2814 -0.1646 -1.1024
 1069SOL    HW114843   2.428   1.748   7.403 -0.8252 -0.9005 -0.3791
 1069SOL    HW214844   2.497   1.633   7.465 -1.9481  0.5776 -0.5920
 1070SOL     OW14845   2.268   0.177  14.993  0.1407  0.5892 -0.1935
 1070SOL    HW114846   2.357   0.156  15.023 -0.7495 -2.0640  0.6358
 1070SOL    HW214847   2.220   0.123  15.056  1.2913  0.3119  0.4603
 1071SOL     OW14848   1.864   0.289   3.224  0.1324 -0.2280  0.4389
 1071SOL    HW114849   1.786   0.287   3.169  1.2639 -2.0851 -1.1259
 1071SOL    HW214850   1.821   0.263   3.305 -1.8516  1.2756 -0.1314
 1072SOL     OW14851   2.953   0.752   0.675 -1.1289 -0.5396  0.8990
 1072SOL    HW114852   2.881   0.705   0.717 -0.7492 -1.8463  0.0573
 1072SOL    HW214853   2.891   0.810   0.631 -0.1605 -1.4109 -1.5976
 1073SOL     OW14854   0.694   4.729   5.752  0.5597  0.4164  0.5887
 1073SOL    HW114855   0.770   0.051   5.748  0.3730  0.6726  0.9240
 1073SOL    HW214856   0.722   4.662   5.689 -1.7959  2.3558 -2.5431
 1074SOL     OW14857   1.197   3.464   1.649  0.0681 -0.3181  0.0083
 1074SOL    HW114858   1.119   3.521   1.647  0.8522  0.7101 -2.1544
 1074SOL    HW214859   1.239   3.485   1.565  1.2360 -0.8941  0.4642
 1075SOL     OW14860   3.062   0.666   5.825 -0.6124 -0.2328  0.3402
 1075SOL    HW114861   3.078   0.576   5.797 -1.2533 -0.3273  0.2693
 1075SOL    HW214862   3.140   0.690   5.874 -0.2449  0.8210 -0.7489
 1076SOL     OW14863   1.868   1.635  13.999 -0.1843 -0.4013 -0.8025
 1076SOL    HW114864   1.870   1.593  13.913  1.3789 -0.6214 -0.6615
 1076SOL    HW214865   1.870   1.728  13.981 -0.5504 -0.0068  1.1568
 1077SOL     OW14866   3.549   4.293   6.648  0.6419 -0.1165 -0.2903
 1077SOL    HW114867   3.636   4.273   6.681  0.2998 -2.6323 -0.9672
 1077SOL    HW214868   3.499   4.266   6.724  2.8585  0.0881  1.2361
 1078SOL     OW14869   3.260   1.281   2.841 -0.1054  0.1448 -0.1605
 1078SOL    HW114870   3.283   1.333   2.763 -1.3514 -3.3098 -2.8388
 1078SOL    HW214871   3.286   1.193   2.814 -0.5309 -0.2780  0.8112
 1079SOL     OW14872   1.417   0.049   3.932  0.2348 -0.6980  0.4214
 1079SOL    HW114873   1.403   0.134   3.889 -0.2375 -0.5533  0.8559
 1079SOL    HW214874   1.441   0.070   4.022 -3.6860 -1.3240  1.6072
 1080SOL     OW14875   2.773   3.287  17.212  0.3045 -0.4448 -0.6206
 1080SOL    HW114876   2.698   3.255  17.262  0.8511 -0.1542  0.3748
 1080SOL    HW214877   2.827   3.320  17.283 -1.0289  5.0747 -2.1824
 1081SOL     OW14878   1.855   0.961  16.419  0.0983  0.1621  0.4927
 1081SOL    HW114879   1.852   1.003  16.333 -0.0858 -1.0764 -0.1060
 1081SOL    HW214880   1.858   0.877  16.374  1.5878 -0.3545  1.5649
 1082SOL     OW14881   0.453   2.533   7.662  0.2549 -0.1711 -0.2237
 1082SOL    HW114882   0.413   2.474   7.598  1.8317 -0.5389 -0.8821
 1082SOL    HW214883   0.389   2.603   7.669  1.3287  0.8579 -0.6434
 1083SOL     OW14884   1.210   1.490   8.575 -0.3064 -0.1629 -0.1797
 1083SOL    HW114885   1.164   1.484   8.659 -0.0907  1.2245  0.0325
 1083SOL    HW214886   1.174   1.408   8.541  0.2666  0.0334 -1.2374
 1084SOL     OW14887   1.101   1.286  12.663 -1.1636 -0.1386 -0.0333
 1084SOL    HW114888   1.139   1.267  12.749  0.1099  1.8423 -0.1546
 1084SOL    HW214889   1.141   1.218  12.609 -0.8297  0.5399 -0.6416
 1085SOL     OW14890   0.221   3.490   8.349  0.0458  0.1205 -0.2804
 1085SOL    HW114891   0.306   3.457   8.320  0.4439  1.6546 -0.8600
 1085SOL    HW214892   0.214   3.443   8.432 -0.7095  0.6145 -0.0654
 1086SOL     OW14893   1.152   3.037   4.537 -0.1392  0.7492 -0.3891
 1086SOL    HW114894   1.181   3.103   4.599 -3.5925  1.6700  0.2624
 1086SOL    HW214895   1.210   3.051   4.462 -2.0299  0.6711 -1.8722
 1087SOL     OW14896   3.217   1.604   8.688 -0.5479 -0.1320 -0.1234
 1087SOL    HW114897   3.125   1.630   8.690 -0.6902 -0.5793 -0.8320
 1087SOL    HW214898   3.199   1.513   8.662  1.5148 -0.3585 -0.7798
 1088SOL     OW14899   1.853   0.213   7.452 -0.3290  0.1909 -0.0394
 1088SOL    HW114900   1.882   0.122   7.456  1.6385  0.8871  1.6546
 1088SOL    HW214901   1.932   0.261   7.475  0.2374 -0.6548 -0.2097
 1089SOL     OW14902   2.028   3.199   5.710  0.0496 -0.3819  0.0772
 1089SOL    HW114903   2.062   3.288   5.721  0.1364 -0.5266  1.0197
 1089SOL    HW214904   2.077   3.147   5.774  0.1405 -0.0254  0.2954
 1090SOL     OW14905   2.432   2.923   0.641  0.0104 -0.0534  0.0928
 1090SOL    HW114906   2.413   2.968   0.559 -1.8316 -1.1505 -0.0969
 1090SOL    HW214907   2.500   2.856   0.630  2.0167  2.2614 -1.5593
 1091SOL     OW14908   4.384   1.555   8.969 -0.1158 -0.3425  0.1395
 1091SOL    HW114909   4.332   1.584   9.043 -0.5557 -1.8155  0.4033
 1091SOL    HW214910   4.434   1.488   9.015 -1.0747 -1.0048  0.2173
 1092SOL     OW14911   3.428   3.631   7.538  0.4719  0.3853  0.1062
 1092SOL    HW114912   3.449   3.616   7.446 -1.1742 -1.4733  0.0451
 1092SOL    HW214913   3.415   3.726   7.539  0.8827  0.4584 -1.2406
 1093SOL     OW14914   3.297   1.267  17.717 -0.2523  0.3810 -0.1807
 1093SOL    HW114915   3.332   1.313  17.641 -1.0468  2.4516  0.6778
 1093SOL    HW214916   3.235   1.337  17.739 -0.6124  0.3168 -0.9775
 1094SOL     OW14917   3.795   2.885  13.184 -0.3407 -0.1487 -0.4479
 1094SOL    HW114918   3.715   2.910  13.229 -0.8289 -0.1999 -1.2771
 1094SOL    HW214919   3.824   2.961  13.133 -1.5241 -0.8673 -2.2322
 1095SOL     OW14920   4.468   1.211  16.555  0.1652  0.9459  0.4324
 1095SOL    HW114921   4.472   1.288  16.612  0.2148  0.5321  0.9897
 1095SOL    HW214922   4.424   1.146  16.610  2.2018 -0.5246  0.3006
 1096SOL     OW14923   4.099   2.879   0.294 -0.3583 -0.3527  0.8310
 1096SOL    HW114924   4.044   2.954   0.316 -0.1180 -0.0878  0.5347
 1096SOL    HW214925   4.085   2.864   0.200 -0.9867  0.4013  0.8033
 1097SOL     OW14926   2.632   2.130   5.893  0.3112  0.4696 -0.4064
 1097SOL    HW114927   2.623   2.110   5.987 -1.2706 -0.4252 -0.7475
 1097SOL    HW214928   2.562   2.084   5.847 -1.4035  3.4034 -0.7152
 1098SOL     OW14929   3.110   2.497   7.397 -0.5520  0.0886 -0.1649
 1098SOL    HW114930   3.186   2.441   7.411  0.0129  0.8811 -0.0196
 1098SOL    HW214931   3.141   2.544   7.320 -0.3718 -2.9963 -1.9393
 1099SOL     OW14932   0.862   2.933   8.548  0.7182 -0.1908 -0.0271
 1099SOL    HW114933   0.904   2.853   8.580 -0.8480 -0.6756  0.8394
 1099SOL    HW214934   0.801   2.899   8.482  0.7966  0.9286 -0.6766
 1100SOL     OW14935   0.490   1.095   2.649  0.0189 -0.4694  0.0754
 1100SOL    HW114936   0.425   1.099   2.719  0.2343  0.2753  0.2356
 1100SOL    HW214937   0.544   1.019   2.673  1.2364  1.4932  3.6213
 1101SOL     OW14938   3.530   3.594   3.447  0.2123 -0.3659 -0.5019
 1101SOL    HW114939   3.593   3.554   3.506 -0.5475  0.8548  1.1341
 1101SOL    HW214940   3.463   3.527   3.433  1.5170 -1.7883  0.0247
 1102SOL     OW14941   3.666   4.183   6.109 -0.7131 -0.2661 -0.0398
 1102SOL    HW114942   3.641   4.193   6.201 -2.8578  0.4844 -0.6949
 1102SOL    HW214943   3.698   4.270   6.086 -1.2165  0.3171  1.4733
 1103SOL     OW14944   1.672   1.061   6.291 -0.0414  0.0911 -0.5067
 1103SOL    HW114945   1.584   1.022   6.291  0.2007 -0.4632 -0.0358
 1103SOL    HW214946   1.680   1.071   6.197 -0.3622 -0.2830 -0.5770
 1104SOL     OW14947   1.442   3.805  15.617  0.7267 -0.4023 -0.2498
 1104SOL    HW114948   1.423   3.729  15.563  1.9126 -1.4071  0.7557
 1104SOL    HW214949   1.355   3.836  15.645  0.6620 -1.4167  0.6518
 1105SOL     OW14950   1.361   2.485   6.052 -0.3609  0.4390  0.4530
 1105SOL    HW114951   1.379   2.440   6.135 -1.9096 -1.1571 -0.0558
 1105SOL    HW214952   1.317   2.415   6.004  2.2725 -2.0313  1.6369
 1106SOL     OW14953   1.111   0.067   3.123  0.1269 -0.8293  0.5267
 1106SOL    HW114954   1.030   0.102   3.087  0.1521 -0.5037  0.7923
 1106SOL    HW214955   1.097   0.069   3.217 -2.0487 -0.2173  0.1923
 1107SOL     OW14956   2.634   1.704   8.387 -0.2879 -0.0489  0.3133
 1107SOL    HW114957   2.673   1.749   8.463  2.3558 -0.4192 -0.8189
 1107SOL    HW214958   2.576   1.639   8.428 -1.0936  1.2376  1.2340
 1108SOL     OW14959   2.982   0.900   4.959  0.4406 -0.9025 -0.1508
 1108SOL    HW114960   3.058   0.863   5.003  0.3970  0.2233  0.8842
 1108SOL    HW214961   3.019   0.950   4.887 -2.2983 -0.6614 -1.3882
 1109SOL     OW14962   1.430   4.491   7.565 -0.0156 -0.6432  0.0746
 1109SOL    HW114963   1.439   4.441   7.646 -0.5069  2.0731  1.8233
 1109SOL    HW214964   1.340   4.523   7.564 -0.1501 -1.0370 -0.0641
 1110SOL     OW14965   2.568   0.416   7.987 -0.3519  0.7453  0.2608
 1110SOL    HW114966   2.565   0.352   7.915 -1.1695  2.2104 -0.9923
 1110SOL    HW214967   2.543   0.499   7.947 -2.8689  0.5279  1.3967
 1111SOL     OW14968   0.800   0.572   7.081 -0.1023  0.5661 -0.2546
 1111SOL    HW114969   0.831   0.627   7.153  0.9558 -0.9354  0.4367
 1111SOL    HW214970   0.812   0.484   7.117  3.0491  0.4844 -1.4879
 1112SOL     OW14971   1.974   0.074   3.152  0.4487  0.7150 -0.1296
 1112SOL    HW114972   1.954   0.162   3.181 -2.1084  0.5412 -1.3870
 1112SOL    HW214973   2.021   0.031   3.224 -0.1552 -0.3276 -0.3615
 1113SOL     OW14974   1.783   2.354   9.104  0.0075  0.3080 -0.9087
 1113SOL    HW114975   1.800   2.444   9.077 -0.1959 -0.0431 -2.2092
 1113SOL    HW214976   1.814   2.361   9.194 -1.7260 -1.9862 -0.1398
 1114SOL     OW14977   3.538   0.086   7.017 -0.4034  0.4129 -0.5416
 1114SOL    HW114978   3.460   0.091   6.961 -1.3528 -0.8282  0.6660
 1114SOL    HW214979   3.611   0.109   6.960  1.1318  1.7792  1.9644
 1115SOL     OW14980   1.731   4.708   8.766  0.2518  0.4332  0.4530
 1115SOL    HW114981   1.820   4.681   8.790  0.3516  0.3822  0.0354
 1115SOL    HW214982   1.722   4.674   8.677  0.0768 -0.0961  0.6730
 1116SOL     OW14983   1.977   1.237  10.915  0.0093  0.1956  0.2209
 1116SOL    HW114984   1.919   1.179  10.964  1.5326 -2.6411 -1.3309
 1116SOL    HW214985   2.025   1.274  10.988  2.1104 -0.1118 -0.9982
 1117SOL     OW14986   2.982   3.124   4.094  0.2542 -0.1842 -0.2052
 1117SOL    HW114987   2.938   3.075   4.163 -0.7734 -0.0006 -0.7335
 1117SOL    HW214988   3.049   3.175   4.140  1.6567 -1.2800 -1.0014
 1118SOL     OW14989   0.973   4.402   6.462  0.2372  0.0824  0.2510
 1118SOL    HW114990   0.941   4.426   6.549  2.0785  0.8539  0.7141
 1118SOL    HW214991   0.897   4.389   6.405 -0.3967  1.8138  0.7066
 1119SOL     OW14992   2.805   0.141   7.534  0.4673  0.1506  0.0164
 1119SOL    HW114993   2.900   0.133   7.545  0.1929  1.2767  3.1612
 1119SOL    HW214994   2.802   0.057   7.488 -0.7020  2.5924 -4.3820
 1120SOL     OW14995   4.576   1.498   1.552 -0.3386 -0.3709 -0.3336
 1120SOL    HW114996   4.524   1.492   1.472  1.5434 -0.3787 -1.5748
 1120SOL    HW214997   4.617   1.585   1.550 -2.6957  0.7099 -2.2061
 1121SOL     OW14998   2.145   0.429   9.322 -0.3974  0.0932 -0.1937
 1121SOL    HW114999   2.162   0.375   9.399 -0.2528  0.9103  0.3451
 1121SOL    HW215000   2.234   0.432   9.287 -0.9158  0.6636 -1.4750
 1122SOL     OW15001   1.941   0.840  10.293  0.0694 -0.0912  0.3751
 1122SOL    HW115002   1.992   0.883  10.224  0.8142 -0.1923  0.8687
 1122SOL    HW215003   1.910   0.915  10.345  0.6605  1.4239 -1.4445
 1123SOL     OW15004   2.069   2.823   3.602 -0.4688 -0.0688 -0.0672
 1123SOL    HW115005   2.162   2.843   3.613  0.0394 -3.1797  1.1671
 1123SOL    HW215006   2.064   2.775   3.520 -0.6655  0.2594 -0.2488
 1124SOL     OW15007   3.524   3.422   8.320 -0.3113 -0.6839 -0.1372
 1124SOL    HW115008   3.573   3.394   8.397 -0.8749  3.1368  1.6100
 1124SOL    HW215009   3.586   3.482   8.278 -0.2784 -1.0286 -0.5794
 1125SOL     OW15010   2.774   2.090   8.210  0.3560 -0.2078  0.0283
 1125SOL    HW115011   2.863   2.106   8.242  0.3309 -0.6989  0.3504
 1125SOL    HW215012   2.751   2.178   8.181 -1.2125 -0.2507  1.1327
 1126SOL     OW15013   4.289   2.164  13.553 -0.3789  0.2824  0.3086
 1126SOL    HW115014   4.267   2.186  13.463  3.0673  0.4490 -0.4569
 1126SOL    HW215015   4.289   2.068  13.559 -2.0023  0.3016  0.6456
 1127SOL     OW15016   3.780   4.327   7.415  0.3105  0.3502 -0.0228
 1127SOL    HW115017   3.871   4.298   7.417  0.5498  1.2980  1.9047
 1127SOL    HW215018   3.746   4.317   7.503  0.5870 -0.7025 -0.0327
 1128SOL     OW15019   3.563   1.808   2.947  0.3502 -0.5336  0.1849
 1128SOL    HW115020   3.510   1.874   2.992 -0.1079 -0.4895 -0.4264
 1128SOL    HW215021   3.498   1.741   2.926  1.4394 -1.0838 -1.4235
 1129SOL     OW15022   3.779   1.527   2.408 -0.5423  0.2397  0.2324
 1129SOL    HW115023   3.767   1.618   2.381 -1.3129  0.3520  0.9502
 1129SOL    HW215024   3.765   1.536   2.502 -3.0714  1.5618 -0.2703
 1130SOL     OW15025   0.024   2.561   7.214 -0.1178 -0.6312  0.1401
 1130SOL    HW115026   4.733   2.607   7.294 -1.3769 -1.8044  0.3795
 1130SOL    HW215027   4.697   2.588   7.147 -0.1871 -0.6474  0.1988
 1131SOL     OW15028   3.294   3.807  11.203 -0.5945  0.1850  0.1532
 1131SOL    HW115029   3.245   3.789  11.283 -1.7162  0.3830 -0.4876
 1131SOL    HW215030   3.237   3.857  11.144 -1.2284  0.0977  0.6901
 1132SOL     OW15031   1.287   3.478   6.131 -0.1855 -0.1778 -0.6058
 1132SOL    HW115032   1.198   3.503   6.105 -0.5168 -1.7997 -1.0443
 1132SOL    HW215033   1.306   3.401   6.078 -0.6708  0.0181 -1.0615
 1133SOL     OW15034   4.356   1.639   6.252 -0.4487 -0.1171 -0.4620
 1133SOL    HW115035   4.356   1.643   6.348 -1.2700 -1.0782 -0.4127
 1133SOL    HW215036   4.449   1.622   6.237 -0.4826  0.3162 -1.1465
 1134SOL     OW15037   0.530   1.509  10.587  0.3786 -0.2968 -0.3427
 1134SOL    HW115038   0.457   1.571  10.586  1.4234  0.9370 -0.9829
 1134SOL    HW215039   0.587   1.542  10.657 -0.3719 -0.4786  0.3590
 1135SOL     OW15040   1.744   0.110   1.683  0.0176 -0.9879 -0.0796
 1135SOL    HW115041   1.711   0.125   1.772 -0.4613  1.0091 -0.5859
 1135SOL    HW215042   1.657   0.106   1.641 -0.5694 -1.1320  1.1585
 1136SOL     OW15043   2.272   3.598   7.287  0.0909 -0.1619  0.1152
 1136SOL    HW115044   2.220   3.562   7.359 -0.8755 -0.3121 -0.6574
 1136SOL    HW215045   2.355   3.604   7.334  0.0402 -0.2164  0.2108
 1137SOL     OW15046   2.978   1.525   4.144 -0.0583  0.1396 -0.2278
 1137SOL    HW115047   3.053   1.569   4.105 -0.2060  0.1722 -0.4754
 1137SOL    HW215048   2.994   1.553   4.234 -2.5036  1.2192 -0.1152
 1138SOL     OW15049   2.470   2.264   8.597  0.6864  0.0055 -0.6243
 1138SOL    HW115050   2.466   2.187   8.541  2.7785  0.9816 -2.1466
 1138SOL    HW215051   2.497   2.220   8.678  0.0324  0.1867 -0.3089
 1139SOL     OW15052   2.199   1.321  10.245 -0.4952 -0.9387 -0.0519
 1139SOL    HW115053   2.219   1.389  10.309 -3.4181  0.1439 -0.2924
 1139SOL    HW215054   2.283   1.313  10.200  0.5203 -0.4985  1.7963
 1140SOL     OW15055   2.283   3.775   9.683  0.5736  0.2374 -0.0344
 1140SOL    HW115056   2.335   3.853   9.661  0.1581  0.1763 -1.2142
 1140SOL    HW215057   2.253   3.784   9.774  2.4123  0.5029  0.5352
 1141SOL     OW15058   0.146   0.331   3.449  0.3717  0.8241 -0.0812
 1141SOL    HW115059   0.159   0.414   3.403  0.1733 -0.6002 -2.6468
 1141SOL    HW215060   0.222   0.353   3.503  1.8519  0.3971 -2.0105
 1142SOL     OW15061   2.434   2.749   1.900 -0.6662 -0.0088 -0.2907
 1142SOL    HW115062   2.501   2.807   1.935  1.1009 -0.4899 -2.8808
 1142SOL    HW215063   2.357   2.799   1.927 -1.3248 -0.1121 -1.9904
 1143SOL     OW15064   0.619   3.255   2.376  0.1199  0.2119  0.0387
 1143SOL    HW115065   0.550   3.265   2.441  0.7094  0.2630  0.6547
 1143SOL    HW215066   0.676   3.201   2.429 -2.7391 -1.3181  1.5448
 1144SOL     OW15067   2.762   3.222  13.963 -0.4404  0.9936  0.0245
 1144SOL    HW115068   2.794   3.139  13.927 -1.9721  1.6869 -2.9947
 1144SOL    HW215069   2.739   3.178  14.045 -3.2943  1.6028 -0.4303
 1145SOL     OW15070   1.000   0.346   6.202  0.4057 -0.1244  0.0224
 1145SOL    HW115071   1.031   0.420   6.149  1.6551  0.1620  1.1264
 1145SOL    HW215072   1.038   0.267   6.164  0.8886 -0.8051  1.8867
 1146SOL     OW15073   2.071   4.311  15.824 -0.5070 -0.1339 -0.1363
 1146SOL    HW115074   1.987   4.346  15.795  1.0346  2.0193 -1.9945
 1146SOL    HW215075   2.050   4.292  15.915 -1.6489 -1.2235 -0.6351
 1147SOL     OW15076   2.587   3.704   6.118 -0.3737  0.3153 -0.5546
 1147SOL    HW115077   2.510   3.673   6.069  0.1089 -0.2610 -0.9503
 1147SOL    HW215078   2.531   3.762   6.170  1.4743  1.7494 -0.1961
 1148SOL     OW15079   4.560   2.058   3.871  0.5803 -0.2442 -0.1883
 1148SOL    HW115080   4.599   1.991   3.814  0.4285 -1.3921  1.0552
 1148SOL    HW215081   4.496   2.104   3.817 -0.3967 -1.3587  0.0170
 1149SOL     OW15082   4.306   3.354   1.057 -0.1516  0.1257 -0.4181
 1149SOL    HW115083   4.271   3.268   1.032  0.0536  0.3893 -1.6108
 1149SOL    HW215084   4.376   3.367   0.992  0.9370 -0.4538  0.6438
 1150SOL     OW15085   4.518   2.253  15.695 -0.2840 -0.2094 -0.0002
 1150SOL    HW115086   4.580   2.318  15.728 -0.8757  0.0489  0.6076
 1150SOL    HW215087   4.432   2.296  15.697  0.2446  0.6778  3.3443
 1151SOL     OW15088   3.441   4.467   0.443  0.3669 -0.1608  0.2229
 1151SOL    HW115089   3.415   4.395   0.386  0.0610 -0.2292  0.4489
 1151SOL    HW215090   3.478   4.423   0.520 -1.1925  0.7424  1.4815
 1152SOL     OW15091   1.946   2.687   4.904 -0.1937  0.7830 -0.1221
 1152SOL    HW115092   1.925   2.780   4.913 -2.8768  0.3578 -1.8330
 1152SOL    HW215093   2.025   2.683   4.958 -0.7517 -0.8066  0.5766
 1153SOL     OW15094   2.260   0.464   2.618 -0.2174 -0.1551  0.4462
 1153SOL    HW115095   2.221   0.511   2.692 -0.9132  1.3445 -0.8824
 1153SOL    HW215096   2.350   0.497   2.616 -0.4271  0.3950  0.2186
 1154SOL     OW15097   0.158   3.565   6.329 -0.7132  0.2327 -0.3683
 1154SOL    HW115098   0.223   3.565   6.260 -1.7715  0.2056 -1.3571
 1154SOL    HW215099   0.205   3.570   6.412 -0.0344  3.0301 -0.9393
 1155SOL     OW15100   3.460   0.968   5.164  0.5600 -0.3881  0.0792
 1155SOL    HW115101   3.548   0.969   5.128  0.7498 -1.3725  0.5240
 1155SOL    HW215102   3.466   1.047   5.218  0.1650  0.2018 -0.7458
 1156SOL     OW15103   2.727   2.173   7.283 -0.1527 -0.1865  0.4571
 1156SOL    HW115104   2.707   2.170   7.189  0.5766 -1.6564  0.3573
 1156SOL    HW215105   2.822   2.172   7.285 -0.1563  0.1787  0.9568
 1157SOL     OW15106   2.749   0.116   6.886  0.2438  0.2368  0.6594
 1157SOL    HW115107   2.784   0.147   6.969 -0.4251  1.0580  0.6362
 1157SOL    HW215108   2.704   0.037   6.915 -3.3078  0.3776 -4.4553
 1158SOL     OW15109   1.443   2.805  13.044 -0.2930 -0.0316 -0.1895
 1158SOL    HW115110   1.401   2.720  13.030  2.2849 -1.2467 -0.6817
 1158SOL    HW215111   1.409   2.852  12.968  0.8976  1.3418  0.1335
 1159SOL     OW15112   0.843   2.450   2.377 -0.1267 -0.2026 -0.2326
 1159SOL    HW115113   0.846   2.546   2.382 -1.0908 -0.2365  0.8927
 1159SOL    HW215114   0.771   2.444   2.315 -1.4455  0.5563  1.2021
 1160SOL     OW15115   1.312   3.913   2.410  0.6381 -0.6284 -0.2992
 1160SOL    HW115116   1.261   3.833   2.393 -0.6127  0.1815 -0.3388
 1160SOL    HW215117   1.325   3.908   2.505  0.5593  0.8818 -0.2116
 1161SOL     OW15118   2.188   4.151   3.849 -0.0175  0.1091 -1.0436
 1161SOL    HW115119   2.239   4.147   3.931 -0.5648 -0.6723 -0.7350
 1161SOL    HW215120   2.106   4.169   3.894 -0.9731  0.1604 -2.8147
 1162SOL     OW15121   0.515   4.545   7.693  0.4221  0.0287 -0.1365
 1162SOL    HW115122   0.468   4.617   7.736 -0.1145  0.1994 -1.0099
 1162SOL    HW215123   0.501   4.475   7.757  0.5786  0.2877  0.1846
 1163SOL     OW15124   4.579   2.342  12.889 -0.4424 -0.0527 -0.2884
 1163SOL    HW115125   4.567   2.437  12.888  2.2084  0.3244  2.3052
 1163SOL    HW215126   4.664   2.331  12.846 -0.3690 -1.9854  0.3791
 1164SOL     OW15127   2.398   1.796   4.188 -0.1610  0.3784  0.0940
 1164SOL    HW115128   2.398   1.854   4.264 -1.1206 -0.5004  0.7510
 1164SOL    HW215129   2.311   1.756   4.189 -0.4410  0.8954 -1.9066
 1165SOL     OW15130   2.635   0.149   1.757 -0.3684 -0.2819 -0.3714
 1165SOL    HW115131   2.699   0.216   1.732  1.0861 -0.9049  1.6746
 1165SOL    HW215132   2.567   0.179   1.697  0.8804  3.2414 -0.0513
 1166SOL     OW15133   3.089   4.290   7.796  0.1619  0.1543  0.1684
 1166SOL    HW115134   3.177   4.254   7.787  0.0949 -0.2645  1.2311
 1166SOL    HW215135   3.086   4.362   7.733  2.5083  0.4284  0.3961
 1167SOL     OW15136   1.328   0.749   8.868 -0.6224 -0.2019 -0.0453
 1167SOL    HW115137   1.237   0.722   8.880 -1.0165  1.5823  1.0935
 1167SOL    HW215138   1.355   0.705   8.788  0.5833  1.3014 -0.4646
 1168SOL     OW15139   2.296   0.624   6.836  0.2320  0.5041 -0.0486
 1168SOL    HW115140   2.229   0.561   6.811  1.1316 -0.1478 -0.8001
 1168SOL    HW215141   2.373   0.584   6.798 -1.5602 -1.8217 -1.1822
 1169SOL     OW15142   1.489   2.097  17.035 -0.4673 -0.6044 -0.0444
 1169SOL    HW115143   1.582   2.119  17.045 -0.5193 -0.5409  0.3040
 1169SOL    HW215144   1.446   2.170  17.078 -0.6511 -0.8969  0.2691
 1170SOL     OW15145   2.737   1.027   3.028  0.2882  0.0833  0.2609
 1170SOL    HW115146   2.787   1.011   3.107  2.6990 -0.5465 -1.3922
 1170SOL    HW215147   2.652   0.991   3.052  0.5821 -0.5468  0.3464
 1171SOL     OW15148   1.109   4.386   8.935  0.2242 -0.5731 -0.5828
 1171SOL    HW115149   1.184   4.360   8.989 -0.8980 -0.9718  0.7592
 1171SOL    HW215150   1.080   4.454   8.996 -1.4009 -1.3859 -0.4560
 1172SOL     OW15151   4.371   0.913   1.960  0.0190 -0.2180 -0.0061
 1172SOL    HW115152   4.389   0.992   2.011  1.4737 -0.6735  0.1891
 1172SOL    HW215153   4.400   0.942   1.874  0.5343  0.7849  0.4991
 1173SOL     OW15154   1.651   1.955   4.679 -0.0989  0.6554  0.4771
 1173SOL    HW115155   1.641   1.861   4.662  1.6901  0.5329  0.0658
 1173SOL    HW215156   1.731   1.945   4.730 -0.2372  1.6538  0.8846
 1174SOL     OW15157   1.895   3.402  15.440  0.7009 -0.3842  0.0863
 1174SOL    HW115158   1.874   3.351  15.518  1.4676 -1.1015 -0.1748
 1174SOL    HW215159   1.902   3.488  15.482  0.7984  0.0547 -0.8225
 1175SOL     OW15160   3.101   1.576  14.690 -0.6549 -0.6846  0.3749
 1175SOL    HW115161   3.048   1.540  14.761 -0.4754 -2.1431 -0.2338
 1175SOL    HW215162   3.145   1.494  14.667  0.1856 -0.2615  0.4640
 1176SOL     OW15163   0.116   0.739  16.614  0.6170  0.1555  0.3597
 1176SOL    HW115164   0.187   0.763  16.554  0.0834  1.9794  0.4748
 1176SOL    HW215165   0.053   0.801  16.578  0.3215  0.5341  1.5527
 1177SOL     OW15166   1.503   2.139  15.407  0.1397 -0.1965  0.3575
 1177SOL    HW115167   1.430   2.201  15.410 -0.1128 -0.6199  2.9833
 1177SOL    HW215168   1.569   2.188  15.457  1.0603  0.5744 -1.6411
 1178SOL     OW15169   1.326   0.446   3.259 -0.1558  0.0441  0.7053
 1178SOL    HW115170   1.370   0.395   3.191  1.0597 -3.5905  4.1950
 1178SOL    HW215171   1.239   0.453   3.221 -0.5410  1.0529  1.7423
 1179SOL     OW15172   1.136   4.526  15.867 -0.3255  0.0411 -0.2625
 1179SOL    HW115173   1.058   4.579  15.852 -1.9551 -2.2174  0.2243
 1179SOL    HW215174   1.191   4.547  15.792  0.5050  0.0843  0.3588
 1180SOL     OW15175   1.451   1.196  13.803 -0.4523  0.3074 -0.2898
 1180SOL    HW115176   1.498   1.139  13.742  2.1956  2.2340 -0.0266
 1180SOL    HW215177   1.516   1.263  13.824 -1.2218  1.2094 -0.7579
 1181SOL     OW15178   1.948   1.787   7.269  0.0109  0.4552  0.2607
 1181SOL    HW115179   1.965   1.698   7.237  0.6368  0.5525  0.3319
 1181SOL    HW215180   2.017   1.836   7.225  0.0441 -0.6044 -0.8774
 1182SOL     OW15181   0.849   2.687   2.744 -0.5010  0.2096  0.0913
 1182SOL    HW115182   0.855   2.699   2.838  0.3234 -0.0007  0.0708
 1182SOL    HW215183   0.758   2.700   2.719 -0.7918  1.2559  1.7430
 1183SOL     OW15184   1.084   2.446   4.627  0.5457 -0.6956  0.0857
 1183SOL    HW115185   1.033   2.432   4.547  0.4619  0.5653 -0.0840
 1183SOL    HW215186   1.062   2.537   4.647  3.8312  0.0372  0.3877
 1184SOL     OW15187   2.331   4.216   9.482 -0.9010 -0.1268  0.2753
 1184SOL    HW115188   2.289   4.258   9.406  0.0489 -0.4641 -0.4391
 1184SOL    HW215189   2.343   4.125   9.457 -1.0446 -0.3167  0.9183
 1185SOL     OW15190   2.396   2.233  10.773 -0.3156  0.5177 -0.0288
 1185SOL    HW115191   2.404   2.166  10.841 -1.1931  0.1561 -0.2774
 1185SOL    HW215192   2.333   2.290  10.817 -0.6955  1.1679 -1.4257
 1186SOL     OW15193   2.817   3.100   8.495  0.3574 -0.1796 -0.0195
 1186SOL    HW115194   2.816   3.181   8.444 -1.5400 -0.0624  0.2101
 1186SOL    HW215195   2.744   3.120   8.553 -1.4895 -0.0298 -2.3690
 1187SOL     OW15196   1.344   3.039   7.288 -0.5984 -0.3414 -0.0556
 1187SOL    HW115197   1.307   3.065   7.204 -3.4801 -1.1028  0.9785
 1187SOL    HW215198   1.283   3.054   7.361  0.3362 -1.2731  0.9296
 1188SOL     OW15199   4.691   2.309  10.480  0.3042  0.0903  0.3720
 1188SOL    HW115200   4.687   2.258  10.561  2.4105 -1.4064 -0.4601
 1188SOL    HW215201   4.666   2.398  10.505 -0.7177 -0.0457 -0.1875
 1189SOL     OW15202   3.625   2.048   6.600  0.3369 -0.3317  0.5474
 1189SOL    HW115203   3.561   2.075   6.534 -1.3079  0.3414  2.4408
 1189SOL    HW215204   3.654   2.135   6.628  0.4794 -0.1829 -0.0549
 1190SOL     OW15205   4.734   1.245  14.833 -0.2378  0.2714  0.0024
 1190SOL    HW115206   4.667   1.243  14.765 -0.3215 -1.0788  0.1307
 1190SOL    HW215207   0.008   1.150  14.836  0.7771  0.4052  0.8123
 1191SOL     OW15208   0.073   3.713   1.928  0.5603  0.5853  0.0637
 1191SOL    HW115209   0.011   3.745   1.993 -0.4925  0.9301 -1.1155
 1191SOL    HW215210   0.045   3.762   1.850 -1.5676  0.5001  0.7754
 1192SOL     OW15211   1.497   0.896  15.063  0.4867 -0.3692 -0.0448
 1192SOL    HW115212   1.416   0.925  15.021  0.8267 -0.2833 -0.6457
 1192SOL    HW215213   1.554   0.973  15.055  0.5951 -0.3077  1.2990
 1193SOL     OW15214   2.749   2.407   4.112  0.4860 -0.0864 -0.2457
 1193SOL    HW115215   2.708   2.487   4.145  2.1050  1.2523 -1.4321
 1193SOL    HW215216   2.838   2.442   4.110  0.5833 -0.1223  2.3610
 1194SOL     OW15217   3.981   3.476   4.101  0.3176 -0.1145 -0.5702
 1194SOL    HW115218   3.996   3.416   4.174  1.3814  0.2078 -0.5294
 1194SOL    HW215219   3.900   3.432   4.075  0.5225  0.3520 -1.9681
 1195SOL     OW15220   0.804   1.827   8.900 -0.1632  0.7071 -0.6899
 1195SOL    HW115221   0.789   1.742   8.860  1.3994 -0.9678  2.3357
 1195SOL    HW215222   0.755   1.813   8.981 -1.4732  0.5367 -1.5034
 1196SOL     OW15223   2.451   4.163   8.883 -0.2446  0.2061  0.0752
 1196SOL    HW115224   2.522   4.101   8.900 -1.9459 -2.4763 -2.7525
 1196SOL    HW215225   2.480   4.244   8.926 -0.0797  1.1918 -1.9354
 1197SOL     OW15226   3.525   0.564   1.450  0.5693 -0.2687  0.1969
 1197SOL    HW115227   3.494   0.556   1.360 -0.1899 -1.9160  0.6050
 1197SOL    HW215228   3.558   0.474   1.453  0.6005 -0.2940 -0.7638
 1198SOL     OW15229   4.447   3.691   8.177 -0.4410  0.0269 -0.2953
 1198SOL    HW115230   4.473   3.687   8.269 -0.4417  0.0180 -0.2955
 1198SOL    HW215231   4.419   3.601   8.158  1.0638 -0.9076  1.9845
 1199SOL     OW15232   4.042   2.735   4.768 -0.9529  0.0202 -0.2307
 1199SOL    HW115233   3.964   2.712   4.718  0.4517 -1.2557 -1.7895
 1199SOL    HW215234   3.992   2.758   4.846  1.3371 -0.0560  1.2751
 1200SOL     OW15235   0.952   4.184   6.736  0.1526  0.0528  0.3686
 1200SOL    HW115236   0.879   4.237   6.706  0.5954 -0.5882 -1.8407
 1200SOL    HW215237   1.000   4.254   6.779  0.4109 -1.2131  2.1554
 1201SOL     OW15238   2.837   1.198   7.645 -0.0248 -0.4598 -0.4772
 1201SOL    HW115239   2.925   1.180   7.611  0.1161 -2.0571  0.7092
 1201SOL    HW215240   2.845   1.162   7.734  0.3271  3.1297  0.9135
 1202SOL     OW15241   2.782   4.652   7.843 -0.2806  0.4489 -0.0689
 1202SOL    HW115242   2.748   4.700   7.767  1.3600  2.0558  0.2181
 1202SOL    HW215243   2.857   4.702   7.875 -1.9883  3.1774 -0.4028
 1203SOL     OW15244   3.552   1.884   7.050 -0.2802  0.4447 -0.7500
 1203SOL    HW115245   3.571   1.792   7.035  1.6472  0.5272  1.2446
 1203SOL    HW215246   3.633   1.922   7.016  0.0398  0.4080 -0.0299
 1204SOL     OW15247   4.335   4.652   3.278 -0.0448 -0.3521  0.3700
 1204SOL    HW115248   4.287   4.615   3.352  0.0369 -1.0286  0.0875
 1204SOL    HW215249   4.277   4.621   3.207 -0.7597  0.0949  0.7570
 1205SOL     OW15250   3.698   4.306   7.674 -0.2040 -0.0784  0.6388
 1205SOL    HW115251   3.632   4.355   7.722 -1.2505  0.4638 -1.3801
 1205SOL    HW215252   3.775   4.361   7.684  0.2328 -0.1470 -2.4367
 1206SOL     OW15253   3.260   0.763   1.175  0.1410  0.2668  0.0597
 1206SOL    HW115254   3.292   0.815   1.248 -1.0565 -1.1873  1.6239
 1206SOL    HW215255   3.169   0.755   1.202  0.2419 -1.9761 -0.2314
 1207SOL     OW15256   3.733   0.063   4.867  0.5877 -0.0067 -0.5829
 1207SOL    HW115257   3.745   4.713   4.906 -0.1504 -0.1157 -0.5969
 1207SOL    HW215258   3.638   0.076   4.863  0.3957 -1.2569 -0.0554
 1208SOL     OW15259   1.861   1.228   2.338 -0.0661 -0.1333  0.2041
 1208SOL    HW115260   1.780   1.272   2.311  0.9118  0.1010 -2.3179
 1208SOL    HW215261   1.835   1.136   2.343 -0.7613 -0.0193 -1.3635
 1209SOL     OW15262   0.495   2.267  11.267  0.5406  0.3354  0.3755
 1209SOL    HW115263   0.562   2.204  11.243 -1.5046 -1.7584  0.1956
 1209SOL    HW215264   0.495   2.251  11.362  0.9574 -0.0187  0.3170
 1210SOL     OW15265   2.513   2.808   8.932  0.0349 -0.5250 -0.1733
 1210SOL    HW115266   2.591   2.863   8.941  0.9175 -1.9482  1.0202
 1210SOL    HW215267   2.494   2.796   9.025  0.8289 -1.4015 -0.1224
 1211SOL     OW15268   2.503   2.658   0.259  0.1823  0.3874 -0.2940
 1211SOL    HW115269   2.515   2.627   0.169 -1.0040  1.9323 -0.9977
 1211SOL    HW215270   2.448   2.585   0.289 -1.3045  1.9084  0.7127
 1212SOL     OW15271   1.624   4.289   2.639 -0.1755  0.7912 -0.0692
 1212SOL    HW115272   1.660   4.337   2.565  3.6134 -0.3909  0.9817
 1212SOL    HW215273   1.591   4.210   2.598  0.7413 -1.0414  2.7594
 1213SOL     OW15274   2.275   4.288   6.310  0.1915 -0.0153 -0.2180
 1213SOL    HW115275   2.272   4.329   6.396  2.6395  0.2322 -0.2595
 1213SOL    HW215276   2.196   4.234   6.312 -0.9203  1.6690  1.0103
 1214SOL     OW15277   1.756   3.899   1.515  0.5071 -0.1020 -0.4149
 1214SOL    HW115278   1.850   3.888   1.496  0.1202 -1.6079 -1.4207
 1214SOL    HW215279   1.740   3.994   1.517  1.9930  0.1775 -1.2828
 1215SOL     OW15280   0.131   1.483   9.458 -0.1384  0.4539  0.4227
 1215SOL    HW115281   0.043   1.513   9.481 -0.7223  0.1510 -1.4185
 1215SOL    HW215282   0.110   1.397   9.496 -0.9382  0.0978 -0.8470
 1216SOL     OW15283   3.042   3.934   8.949 -0.4415  0.1825  0.2151
 1216SOL    HW115284   3.084   3.859   8.907 -1.5439 -0.1192 -0.3367
 1216SOL    HW215285   3.072   3.997   8.884  0.7202 -1.8832 -1.2774
 1217SOL     OW15286   4.485   0.307   4.174 -0.0369 -0.1734  0.1476
 1217SOL    HW115287   4.576   0.334   4.181 -0.8682  3.2547 -2.3644
 1217SOL    HW215288   4.444   0.349   4.250 -1.2724 -2.0364  0.5188
 1218SOL     OW15289   3.878   2.728   5.961  0.4338 -0.1542 -0.1500
 1218SOL    HW115290   3.898   2.821   5.968  2.5470 -0.5849 -0.4999
 1218SOL    HW215291   3.919   2.694   6.041  0.0910  1.3850  0.6675
 1219SOL     OW15292   2.037   4.576   7.142 -0.5381 -0.0491 -0.2167
 1219SOL    HW115293   2.109   4.639   7.137 -0.7147  0.4367  3.4338
 1219SOL    HW215294   1.962   4.635   7.133  0.1628  0.6333 -1.5450
 1220SOL     OW15295   3.133   0.134   3.642 -0.0267 -0.1152  0.2862
 1220SOL    HW115296   3.185   0.210   3.616  0.8848 -0.9881 -0.4896
 1220SOL    HW215297   3.138   0.082   3.561  0.5970  1.5718 -0.7489
 1221SOL     OW15298   1.647   0.846   9.468  0.3019 -0.3027  0.1282
 1221SOL    HW115299   1.708   0.912   9.435  2.1733 -1.4047  1.3631
 1221SOL    HW215300   1.636   0.781   9.399 -1.7339 -1.5675  1.6276
 1222SOL     OW15301   4.415   4.227   9.060 -0.2006  0.2700 -0.0987
 1222SOL    HW115302   4.358   4.304   9.058  0.8650  1.0501 -0.4390
 1222SOL    HW215303   4.481   4.268   9.004  1.7487 -2.0933  0.4870
 1223SOL     OW15304   0.660   3.525   1.702 -0.5784  0.2870  0.2275
 1223SOL    HW115305   0.722   3.493   1.768 -1.0798 -0.1596  0.4777
 1223SOL    HW215306   0.578   3.512   1.749 -1.7326  2.2140 -1.2020
 1224SOL     OW15307   0.719   0.817   3.212  0.3955  0.2063 -0.0642
 1224SOL    HW115308   0.767   0.840   3.133  0.8498 -0.0189  0.1472
 1224SOL    HW215309   0.773   0.758   3.264  0.5364  0.2398 -0.1751
 1225SOL     OW15310   0.349   1.390   6.441  0.7672 -0.3178 -0.5436
 1225SOL    HW115311   0.273   1.340   6.410 -1.0332  2.5098 -0.6583
 1225SOL    HW215312   0.419   1.345   6.393  0.7938  0.6085 -1.3659
 1226SOL     OW15313   2.820   1.116   8.895  0.3267  0.5918  0.2210
 1226SOL    HW115314   2.866   1.197   8.872  2.8233  0.0440  3.2897
 1226SOL    HW215315   2.739   1.120   8.844  0.0045  0.1018  0.6945
 1227SOL     OW15316   4.635   3.146  13.363  0.3816 -0.1225 -0.3995
 1227SOL    HW115317   4.695   3.072  13.371  0.6838  0.0297 -1.2285
 1227SOL    HW215318   4.644   3.195  13.445 -1.2680  0.3453 -0.5017
 1228SOL     OW15319   1.013   1.374   4.945  0.2395  0.0261 -0.0784
 1228SOL    HW115320   1.065   1.315   4.999  2.2844  1.5587 -0.4014
 1228SOL    HW215321   1.064   1.455   4.945 -1.2055  0.9602 -1.8941
 1229SOL     OW15322   4.514   3.790  13.915 -0.3038 -0.1523  0.4460
 1229SOL    HW115323   4.472   3.814  13.832 -0.0314  2.4761  1.0529
 1229SOL    HW215324   4.524   3.869  13.969 -0.2805  0.2893 -0.2029
 1230SOL     OW15325   2.535   4.498   5.122 -0.1849  0.1988  0.2377
 1230SOL    HW115326   2.449   4.479   5.159 -0.4245  0.3510 -0.2354
 1230SOL    HW215327   2.539   4.435   5.050 -2.4213 -0.3161  0.5690
 1231SOL     OW15328   2.753   1.207   2.532 -0.5744 -0.0335 -0.4823
 1231SOL    HW115329   2.787   1.119   2.514 -0.7946 -0.6885  2.2816
 1231SOL    HW215330   2.690   1.192   2.603  0.2936  1.1686  0.5550
 1232SOL     OW15331   4.326   0.946   5.929 -0.4439  0.6810  0.1900
 1232SOL    HW115332   4.323   0.851   5.911  1.8767  0.4439  1.0646
 1232SOL    HW215333   4.303   0.974   5.840 -0.1429 -0.6694 -0.3257
 1233SOL     OW15334   4.134   3.122   1.683  0.1196 -0.9706  0.4260
 1233SOL    HW115335   4.132   3.031   1.654  2.2840 -1.3094  1.3160
 1233SOL    HW215336   4.226   3.139   1.661  0.1165 -0.2520  0.9450
 1234SOL     OW15337   1.196   0.461   2.989 -0.6267 -0.2127 -0.4840
 1234SOL    HW115338   1.157   0.414   2.915  0.7149 -1.9884 -0.0710
 1234SOL    HW215339   1.250   0.522   2.940  0.5713  0.3155  1.5118
 1235SOL     OW15340   2.926   2.289   6.746 -0.3950 -0.3613  0.0533
 1235SOL    HW115341   2.950   2.307   6.656  0.9579  0.3941  0.5761
 1235SOL    HW215342   2.919   2.194   6.754 -2.2366 -0.2169  0.1815
 1236SOL     OW15343   3.538   0.795  14.730  0.3549  0.1045  0.1424
 1236SOL    HW115344   3.453   0.786  14.773 -0.0683 -0.8021 -0.8834
 1236SOL    HW215345   3.502   0.788  14.641 -1.8563 -0.4891  1.0933
 1237SOL     OW15346   4.699   3.873   2.821 -0.3447  0.0898  0.6019
 1237SOL    HW115347   4.694   3.968   2.832  1.5920  0.0651  1.7649
 1237SOL    HW215348   4.728   3.851   2.910 -0.7814  2.2256  1.2822
 1238SOL     OW15349   1.173   0.883  12.264  0.1567  0.0947 -0.0159
 1238SOL    HW115350   1.209   0.916  12.346  0.6946  1.3822 -0.7882
 1238SOL    HW215351   1.086   0.856  12.294  0.1227  4.3200  3.6739
 1239SOL     OW15352   2.299   2.634   1.436  0.0209  0.0720 -0.3460
 1239SOL    HW115353   2.339   2.715   1.468 -1.4116 -0.5645  2.9350
 1239SOL    HW215354   2.209   2.664   1.426 -0.3202 -0.6322  0.6838
 1240SOL     OW15355   2.467   1.696  12.764 -0.2711  0.0345 -0.0608
 1240SOL    HW115356   2.505   1.768  12.713  0.8738  0.5582  1.5461
 1240SOL    HW215357   2.412   1.653  12.697  0.9246 -0.4985 -0.7120
 1241SOL     OW15358   4.662   0.825  13.978 -0.1452 -0.1897 -0.4481
 1241SOL    HW115359   4.625   0.771  13.908 -1.0983  1.1463 -0.9785
 1241SOL    HW215360   4.693   0.906  13.936  1.1959 -1.0247 -1.0538
 1242SOL     OW15361   4.436   0.197  16.005 -0.0580 -0.0588  0.2779
 1242SOL    HW115362   4.407   0.184  15.915 -0.6587 -0.5445  0.5403
 1242SOL    HW215363   4.368   0.261  16.025 -0.9508 -1.2190  0.9724
 1243SOL     OW15364   3.104   3.390  11.830  0.2133  0.0680  0.0857
 1243SOL    HW115365   3.125   3.320  11.891  0.2251 -0.3028 -0.3387
 1243SOL    HW215366   3.102   3.351  11.742  1.7448 -2.3331  1.1084
 1244SOL     OW15367   0.788   1.347   5.235 -0.0735  0.7019  0.0962
 1244SOL    HW115368   0.825   1.421   5.283  3.5663 -1.8399  1.1898
 1244SOL    HW215369   0.745   1.391   5.162 -0.5029  0.1846  0.0375
 1245SOL     OW15370   4.045   1.015   9.010 -0.3982 -0.4992 -0.0843
 1245SOL    HW115371   4.139   1.016   8.994 -0.3364 -1.1849  0.2182
 1245SOL    HW215372   4.049   0.972   9.096 -0.0778  0.6580  0.4765
 1246SOL     OW15373   1.448   0.411   4.767  0.1227  0.2990  0.5607
 1246SOL    HW115374   1.466   0.464   4.689 -2.0293 -0.9087 -0.7716
 1246SOL    HW215375   1.440   0.476   4.837  0.9083  0.9593  0.0276
 1247SOL     OW15376   3.080   1.171   5.668  0.2735 -0.4582 -0.6740
 1247SOL    HW115377   3.037   1.087   5.685 -0.2400 -0.6199 -2.8201
 1247SOL    HW215378   3.005   1.229   5.660 -0.6667 -1.7043 -0.8808
 1248SOL     OW15379   1.416   3.710  11.889  0.6896 -0.8060 -0.6348
 1248SOL    HW115380   1.409   3.620  11.922  0.4830 -0.4265  0.3684
 1248SOL    HW215381   1.329   3.725  11.852  1.2362  1.3460 -1.0490
 1249SOL     OW15382   1.445   4.021   4.291  0.0390  0.0051 -0.0832
 1249SOL    HW115383   1.472   3.929   4.287 -0.6071 -0.1248 -1.9277
 1249SOL    HW215384   1.426   4.049   4.201  1.2125  1.8724  0.2564
 1250SOL     OW15385   4.580   3.850   1.746 -0.7921  0.1811  0.2603
 1250SOL    HW115386   4.552   3.926   1.797 -1.0341 -0.6440  1.3737
 1250SOL    HW215387   4.531   3.775   1.782  1.5922 -2.0224 -1.0741
 1251SOL     OW15388   4.220   1.665   4.353 -0.5105  0.0636 -0.3344
 1251SOL    HW115389   4.295   1.722   4.367 -0.6043  0.1684 -0.2531
 1251SOL    HW215390   4.167   1.723   4.298 -3.7873 -1.2452  1.4122
 1252SOL     OW15391   3.280   2.222   5.111  0.3794 -0.1145 -0.1426
 1252SOL    HW115392   3.222   2.249   5.182 -0.1799  0.0887 -0.6788
 1252SOL    HW215393   3.347   2.178   5.164  2.9360  2.4900 -1.2137
 1253SOL     OW15394   0.891   0.218   9.625 -0.1021 -0.0669  0.4070
 1253SOL    HW115395   0.926   0.251   9.708  1.0225  0.2381 -0.1957
 1253SOL    HW215396   0.934   0.132   9.621  2.4605  1.2729 -0.5852
 1254SOL     OW15397   1.228   3.864   2.742  0.6442 -0.6406 -0.4612
 1254SOL    HW115398   1.158   3.851   2.807  2.2455 -1.8333  1.0321
 1254SOL    HW215399   1.237   3.959   2.731 -1.1992 -0.1298  2.2182
 1255SOL     OW15400   0.239   4.183  11.509 -0.2446  0.6709 -0.3717
 1255SOL    HW115401   0.261   4.090  11.502 -0.5317  0.5962 -0.2580
 1255SOL    HW215402   0.171   4.171  11.575 -0.6021  0.2776 -0.8093
 1256SOL     OW15403   3.983   1.977   6.765 -0.2937  0.3468 -0.2332
 1256SOL    HW115404   4.025   2.052   6.808  0.2134 -1.3217  2.1144
 1256SOL    HW215405   3.907   1.949   6.815 -0.1854 -2.0649 -1.4384
 1257SOL     OW15406   3.892   2.709  11.213  0.0166  0.9516 -0.5925
 1257SOL    HW115407   3.838   2.642  11.254 -0.2822  1.6369  0.1436
 1257SOL    HW215408   3.981   2.696  11.247 -1.3020 -1.3342  2.0056
 1258SOL     OW15409   2.269   1.424  16.095  0.2237 -0.3167  0.2511
 1258SOL    HW115410   2.319   1.344  16.103 -0.8733 -0.8703  1.6985
 1258SOL    HW215411   2.333   1.474  16.045  1.2325 -1.6844  0.1868
 1259SOL     OW15412   2.820   0.981   1.312  0.1975 -0.2034  0.4129
 1259SOL    HW115413   2.802   0.985   1.406  0.7481  1.4148  0.4566
 1259SOL    HW215414   2.807   1.075   1.296  2.6195  0.1054  0.3571
 1260SOL     OW15415   2.587   1.534  13.823  0.1303 -0.3387  0.3278
 1260SOL    HW115416   2.527   1.605  13.803  0.0706 -0.5606 -0.2942
 1260SOL    HW215417   2.667   1.586  13.816 -0.6988  1.1529  1.9616
 1261SOL     OW15418   3.088   3.021   8.444 -0.4906 -0.1009 -0.2037
 1261SOL    HW115419   3.062   2.970   8.367  0.2427  0.6458 -0.9414
 1261SOL    HW215420   2.997   3.031   8.472 -0.3902  1.6487 -0.5060
 1262SOL     OW15421   1.976   4.411   2.666  0.2713  0.3244  0.3213
 1262SOL    HW115422   1.991   4.417   2.760 -1.8916  2.0479  0.5666
 1262SOL    HW215423   1.984   4.499   2.630  1.0871 -0.7364 -2.0761
 1263SOL     OW15424   1.091   3.502   8.357 -0.3753 -0.0660 -0.6062
 1263SOL    HW115425   1.180   3.467   8.364  0.1300  1.3368 -0.1150
 1263SOL    HW215426   1.116   3.594   8.365 -2.1694  0.4656 -1.0946
 1264SOL     OW15427   4.292   0.538   4.760  0.6919 -0.2766  0.8623
 1264SOL    HW115428   4.320   0.499   4.843  1.4409 -0.2959  0.5997
 1264SOL    HW215429   4.289   0.458   4.708  2.1101 -0.5677  1.2273
 1265SOL     OW15430   3.372   4.646   4.276 -0.6270 -0.4914  0.0844
 1265SOL    HW115431   3.422   4.658   4.357  1.0055 -1.6106 -0.7663
 1265SOL    HW215432   3.355   0.001   4.253 -0.3779 -0.3540  0.4470
 1266SOL     OW15433   4.072   4.032  12.087  0.1142 -0.4846  0.1041
 1266SOL    HW115434   4.033   3.969  12.147  2.8003 -0.7872  1.5279
 1266SOL    HW215435   4.167   4.028  12.098  0.0074  0.4740  1.3700
 1267SOL     OW15436   2.042   0.112   6.395  0.0120 -0.4818 -0.3585
 1267SOL    HW115437   2.032   0.021   6.421  0.5788 -0.7553 -1.0867
 1267SOL    HW215438   2.012   0.113   6.304 -1.2528  2.4592  0.0961
 1268SOL     OW15439   0.993   1.291   4.594  0.2770 -0.1709  0.0400
 1268SOL    HW115440   0.928   1.339   4.543  0.6891 -0.0586 -0.3857
 1268SOL    HW215441   1.045   1.365   4.628  0.0976  0.2905 -0.6749
 1269SOL     OW15442   3.040   0.979  11.391  0.2284 -0.7468 -0.2161
 1269SOL    HW115443   3.115   1.004  11.336  0.6182 -0.3663  0.4856
 1269SOL    HW215444   3.050   0.885  11.401 -0.4769 -0.6154  1.7681
 1270SOL     OW15445   1.777   4.700   7.076  0.2205  0.0040 -0.4603
 1270SOL    HW115446   1.745   0.050   7.051  0.4904 -0.1457 -1.3258
 1270SOL    HW215447   1.729   4.682   7.157  0.4837 -1.4616 -0.6379
 1271SOL     OW15448   3.699   4.344   9.589  0.3157  0.5225 -0.3062
 1271SOL    HW115449   3.778   4.311   9.545 -0.3759 -2.4185  0.7064
 1271SOL    HW215450   3.636   4.277   9.564 -1.5758  1.2484  2.5860
 1272SOL     OW15451   1.677   0.289   1.308  0.4469  0.0657 -0.4732
 1272SOL    HW115452   1.668   0.280   1.403  0.5846  1.1425 -0.3653
 1272SOL    HW215453   1.730   0.215   1.278  0.8133  0.0009  0.3444
 1273SOL     OW15454   4.564   4.632   7.953 -0.2868 -0.0956  0.3586
 1273SOL    HW115455   4.569   4.545   7.913 -0.0891  1.8147 -3.8181
 1273SOL    HW215456   4.648   4.632   7.999 -1.0557  1.6002  1.7762
 1274SOL     OW15457   4.340   0.867   6.564  0.3796  0.0469 -0.5018
 1274SOL    HW115458   4.409   0.839   6.504  2.2531  0.6320  1.4338
 1274SOL    HW215459   4.282   0.791   6.571 -1.1546  1.3236  0.5308
 1275SOL     OW15460   2.209   4.061   4.580 -0.0266  0.1500  0.0027
 1275SOL    HW115461   2.261   4.008   4.520 -1.3613 -0.0506 -0.9663
 1275SOL    HW215462   2.243   4.147   4.554 -0.0406  0.1131 -0.1354
 1276SOL     OW15463   3.598   3.414  11.392  0.2240  0.1113  0.1562
 1276SOL    HW115464   3.594   3.455  11.479 -1.6007 -0.2039  0.2158
 1276SOL    HW215465   3.514   3.372  11.377  1.2371 -2.2639  1.1591
 1277SOL     OW15466   2.273   2.261   0.823 -0.2611  0.1823  0.0368
 1277SOL    HW115467   2.355   2.286   0.865  0.4972 -1.1439 -0.6482
 1277SOL    HW215468   2.278   2.331   0.759 -1.4325  1.3432  1.2265
 1278SOL     OW15469   3.254   4.427   9.220  0.1984 -0.1095 -0.5173
 1278SOL    HW115470   3.212   4.492   9.164 -0.2788 -0.5650 -0.6868
 1278SOL    HW215471   3.271   4.474   9.302  3.5445 -1.9712 -0.1671
 1279SOL     OW15472   0.176   2.982   3.889  0.3108 -0.2161 -0.4704
 1279SOL    HW115473   0.251   2.942   3.847  0.6753  0.8861 -0.8793
 1279SOL    HW215474   0.165   3.062   3.837 -1.5560 -0.5011 -0.5385
 1280SOL     OW15475   3.279   1.976   9.389  0.5276  0.4684  1.1561
 1280SOL    HW115476   3.312   2.058   9.352 -1.1621 -0.5581 -2.6196
 1280SOL    HW215477   3.198   2.006   9.429 -2.4508 -2.7502 -2.4580
 1281SOL     OW15478   0.353   2.395   5.123  0.1704  0.0030 -0.3210
 1281SOL    HW115479   0.351   2.318   5.180 -0.1515  1.1694  1.2329
 1281SOL    HW215480   0.444   2.425   5.127  0.4515 -0.6086 -2.0444
 1282SOL     OW15481   1.517   4.519   3.990 -0.2991 -0.1979 -0.2376
 1282SOL    HW115482   1.503   4.425   3.992  1.2164 -0.4517 -1.5426
 1282SOL    HW215483   1.429   4.557   3.992  0.7074  2.1815 -0.6611
 1283SOL     OW15484   3.855   2.674   9.756 -0.2336 -0.5275  0.3083
 1283SOL    HW115485   3.946   2.679   9.726  0.3673  0.9465  2.3468
 1283SOL    HW215486   3.863   2.666   9.851 -0.3160  3.7839  0.6540
 1284SOL     OW15487   2.195   2.112   2.077  0.1360 -0.2079 -0.1565
 1284SOL    HW115488   2.171   2.149   2.162  1.2201  0.8024 -0.2894
 1284SOL    HW215489   2.171   2.175   2.008  1.4514  2.1142  1.4942
 1285SOL     OW15490   3.285   4.189  15.757  0.1596 -0.4854 -0.5625
 1285SOL    HW115491   3.246   4.147  15.681  0.1931  0.8419 -1.3091
 1285SOL    HW215492   3.376   4.189  15.728  0.4584  0.7727  0.3968
 1286SOL     OW15493   1.847   3.278  15.666 -0.5800 -0.0509  0.0632
 1286SOL    HW115494   1.761   3.239  15.647  0.2927 -1.8384 -0.1656
 1286SOL    HW215495   1.881   3.225  15.738 -2.2387 -3.0714 -1.3839
 1287SOL     OW15496   4.483   1.340   4.569 -0.6028  0.1588  0.2119
 1287SOL    HW115497   4.515   1.250   4.565 -0.0288  0.3592  0.3955
 1287SOL    HW215498   4.452   1.342   4.660 -0.1260 -3.5530  0.4541
 1288SOL     OW15499   2.814   0.952   2.466  1.3101 -0.1313  0.5003
 1288SOL    HW115500   2.773   0.912   2.389  0.9086  1.2884 -0.0090
 1288SOL    HW215501   2.774   0.906   2.540 -0.4285  0.8791  0.1785
 1289SOL     OW15502   4.059   4.232  12.368  0.2957 -0.2961 -0.5738
 1289SOL    HW115503   4.022   4.146  12.348 -2.7017  0.8360  0.0692
 1289SOL    HW215504   4.124   4.211  12.436 -0.0680 -0.6404 -0.3272
 1290SOL     OW15505   2.156   1.623   4.208 -0.0765 -0.3585 -0.2403
 1290SOL    HW115506   2.149   1.659   4.120 -2.0311  0.7265  0.3537
 1290SOL    HW215507   2.068   1.593   4.233  0.4330 -3.1117 -1.7499
 1291SOL     OW15508   1.398   0.123  14.269 -0.3585 -0.0342 -0.0992
 1291SOL    HW115509   1.377   0.036  14.235 -1.7802  0.1804  0.2483
 1291SOL    HW215510   1.308   0.157  14.271 -0.7876 -1.4420  3.8908
 1292SOL     OW15511   1.722   2.589   9.485 -0.6599 -0.0764 -0.3514
 1292SOL    HW115512   1.673   2.594   9.567 -1.8118 -1.2717 -0.9883
 1292SOL    HW215513   1.700   2.662   9.428  0.2637 -0.4252 -1.1575
 1293SOL     OW15514   2.181   3.729   8.047  0.0506 -0.1205  0.6181
 1293SOL    HW115515   2.249   3.779   8.094 -1.3704 -0.4413  3.0111
 1293SOL    HW215516   2.155   3.792   7.981  0.2025 -3.3335 -2.4828
 1294SOL     OW15517   1.268   2.065  12.342  0.2403  0.3992 -0.1369
 1294SOL    HW115518   1.329   2.042  12.412  0.6135  0.2263 -0.5192
 1294SOL    HW215519   1.300   2.018  12.265  1.3655 -1.4242  1.4672
 1295SOL     OW15520   0.926   0.423   9.057 -0.1122 -0.2624 -0.0796
 1295SOL    HW115521   1.009   0.413   9.104  0.4497 -0.8667 -1.2045
 1295SOL    HW215522   0.863   0.391   9.121  0.2575  1.2844  1.0563
 1296SOL     OW15523   0.870   4.634   4.769 -0.2852 -0.1165  0.5810
 1296SOL    HW115524   0.801   4.575   4.799  1.5370 -2.0512  0.9366
 1296SOL    HW215525   0.912   4.583   4.700  0.2609  0.6615  0.3338
 1297SOL     OW15526   3.401   4.465  15.127 -0.4216  0.5661  0.5822
 1297SOL    HW115527   3.432   4.484  15.039  4.1748  0.4203  2.1319
 1297SOL    HW215528   3.483   4.443  15.173  0.3499 -0.1272 -1.1223
 1298SOL     OW15529   3.924   3.340   0.572  0.8586 -0.0836 -0.6285
 1298SOL    HW115530   3.876   3.421   0.553 -0.5946 -0.7063  0.3851
 1298SOL    HW215531   4.009   3.358   0.533  0.4549  0.2848 -1.3261
 1299SOL     OW15532   2.161   3.029   6.574 -0.4992 -0.5688  0.1832
 1299SOL    HW115533   2.219   3.055   6.646 -1.8143  0.4356  0.8809
 1299SOL    HW215534   2.164   3.103   6.513 -1.3085  0.5298  1.4690
 1300SOL     OW15535   0.930   0.009   1.697  0.3629  0.0586 -0.1510
 1300SOL    HW115536   0.884   4.720   1.777  0.8961  0.2986  0.2345
 1300SOL    HW215537   0.882   0.081   1.656 -0.1925  0.3449  1.0131
 1301SOL     OW15538   3.052   0.029   4.867 -0.1607 -0.3328  0.3473
 1301SOL    HW115539   3.096   4.682   4.881  0.3274 -0.0811  0.3317
 1301SOL    HW215540   3.066   0.034   4.772  0.3473  0.0334  0.4413
 1302SOL     OW15541   2.718   1.745   6.060  0.1467 -0.1120  0.2272
 1302SOL    HW115542   2.810   1.757   6.036 -0.9112  2.2721 -2.5455
 1302SOL    HW215543   2.675   1.759   5.976  0.2194 -0.5515  0.1154
 1303SOL     OW15544   1.295   4.385   5.308 -0.2468  0.1620 -0.0435
 1303SOL    HW115545   1.352   4.331   5.253  0.8932  0.0566  1.2434
 1303SOL    HW215546   1.249   4.311   5.347  0.8364  0.7545  2.3743
 1304SOL     OW15547   2.699   3.214  15.379 -1.1459 -0.1490 -0.1023
 1304SOL    HW115548   2.614   3.170  15.374 -1.4905  0.5323 -0.2530
 1304SOL    HW215549   2.743   3.185  15.300  1.1577 -2.2236  1.9516
 1305SOL     OW15550   4.345   3.383   5.080  0.0491 -0.2803 -0.1264
 1305SOL    HW115551   4.261   3.340   5.099 -1.1957  1.9322 -0.5280
 1305SOL    HW215552   4.403   3.315   5.047  2.2963  1.1953  0.7919
 1306SOL     OW15553   1.896   4.548  16.060 -0.1393  0.1124  0.5896
 1306SOL    HW115554   1.866   4.593  16.139  0.3479  0.4327  0.5911
 1306SOL    HW215555   1.991   4.550  16.060 -0.0890 -3.7080 -0.6523
 1307SOL     OW15556   0.591   1.751  10.831  0.3919  0.2335  0.1827
 1307SOL    HW115557   0.527   1.822  10.825  0.7413  0.5950  0.7578
 1307SOL    HW215558   0.569   1.713  10.916  0.0992 -0.7068 -0.3058
 1308SOL     OW15559   0.470   2.078  11.482 -0.5428 -0.3263 -0.3648
 1308SOL    HW115560   0.376   2.078  11.466 -0.7454 -2.0655  0.8292
 1308SOL    HW215561   0.514   2.029  11.411 -0.2818 -0.7081  0.0552
 1309SOL     OW15562   4.024   3.602  11.317  0.0009 -0.4646  0.2876
 1309SOL    HW115563   4.016   3.507  11.312 -0.1391 -0.4239 -0.3031
 1309SOL    HW215564   4.032   3.629  11.226 -0.1965  0.1161  0.4409
 1310SOL     OW15565   1.124   4.258   4.677 -0.2205  0.6728  0.3952
 1310SOL    HW115566   1.209   4.216   4.671 -0.5662  0.3362 -1.9270
 1310SOL    HW215567   1.099   4.243   4.769 -0.9314  1.2569  0.2974
 1311SOL     OW15568   2.864   3.281   5.689 -0.2874  0.1017 -0.7217
 1311SOL    HW115569   2.786   3.334   5.672  2.0231  2.6111 -3.5152
 1311SOL    HW215570   2.829   3.194   5.704 -1.5432  0.6990 -0.2037
 1312SOL     OW15571   3.920   1.602   3.730  0.2141  0.0948  0.2613
 1312SOL    HW115572   3.851   1.592   3.664 -0.5875  0.0880  1.0849
 1312SOL    HW215573   3.987   1.647   3.679  2.4966 -2.2652  1.1609
 1313SOL     OW15574   4.348   3.846  14.249 -0.1882 -0.4271  0.4586
 1313SOL    HW115575   4.393   3.878  14.170 -1.5621  0.9553  0.2240
 1313SOL    HW215576   4.356   3.752  14.260  1.8857 -0.1781  0.9680
 1314SOL     OW15577   3.658   1.677  16.303 -0.0564 -0.0737  0.4915
 1314SOL    HW115578   3.731   1.622  16.332  0.5396 -0.6246 -2.0077
 1314SOL    HW215579   3.584   1.616  16.304 -0.2519  0.1839  1.1551
 1315SOL     OW15580   3.574   1.994  15.956  0.3390  0.4083  0.2965
 1315SOL    HW115581   3.586   2.048  15.878 -0.9547 -1.1548 -1.0026
 1315SOL    HW215582   3.661   1.984  15.996  2.0442  1.3583 -3.1210
 1316SOL     OW15583   0.111   4.025   3.614 -0.2487  0.0773  0.3943
 1316SOL    HW115584   0.139   4.097   3.557 -0.7131 -0.0889 -0.0520
 1316SOL    HW215585   0.102   4.061   3.702 -0.1122  1.6932 -0.2423
 1317SOL     OW15586   1.152   2.918   6.176 -0.0497 -0.0591 -0.2325
 1317SOL    HW115587   1.223   2.913   6.112  2.1136  0.1245  2.1251
 1317SOL    HW215588   1.172   2.836   6.222  0.1926  0.4641  0.5869
 1318SOL     OW15589   0.326   4.130   9.672 -0.6039  0.3256 -0.2617
 1318SOL    HW115590   0.270   4.200   9.704 -1.1628  0.3944 -1.4043
 1318SOL    HW215591   0.298   4.122   9.581 -1.5259 -0.2712  0.0765
 1319SOL     OW15592   4.347   1.927   0.500 -0.0652 -0.3222 -0.4635
 1319SOL    HW115593   4.270   1.871   0.515  0.0982 -0.4870 -0.2515
 1319SOL    HW215594   4.418   1.867   0.523  1.2465  1.1312 -0.7481
 1320SOL     OW15595   1.858   0.421   7.218  0.0227 -0.1241  0.3145
 1320SOL    HW115596   1.762   0.418   7.209  0.1259  1.0210 -1.0836
 1320SOL    HW215597   1.860   0.401   7.312  1.5092 -0.6838  0.1522
 1321SOL     OW15598   4.705   1.027  12.030 -0.2840  0.0749  0.0834
 1321SOL    HW115599   4.699   1.094  11.963 -0.1425 -2.4477 -2.4865
 1321SOL    HW215600   4.653   1.063  12.102  0.0281  2.7834 -1.0632
 1322SOL     OW15601   3.719   2.980  11.805 -0.3290  0.3780  0.6026
 1322SOL    HW115602   3.642   2.924  11.795  0.0263  0.3267 -1.8684
 1322SOL    HW215603   3.706   3.009  11.896  1.2421  2.0351  0.3075
 1323SOL     OW15604   1.532   3.015   5.122  0.0808 -0.2460 -0.2352
 1323SOL    HW115605   1.615   2.996   5.165  0.6291 -0.6834 -1.4941
 1323SOL    HW215606   1.477   2.943   5.153 -0.0053 -0.1462 -0.1580
 1324SOL     OW15607   3.758   0.139   5.712 -0.3063 -0.4821 -0.1523
 1324SOL    HW115608   3.784   0.200   5.643  1.5258  1.9297  2.6293
 1324SOL    HW215609   3.703   0.075   5.667 -0.8874 -2.1986  2.9520
 1325SOL     OW15610   1.520   3.683   3.656 -0.1718 -0.3504 -0.0877
 1325SOL    HW115611   1.479   3.740   3.721 -0.3080 -0.1490 -0.3473
 1325SOL    HW215612   1.544   3.608   3.710  2.0155  1.0183  0.8485
 1326SOL     OW15613   3.859   3.876  15.345 -0.6122 -0.1740 -0.2310
 1326SOL    HW115614   3.907   3.801  15.379 -0.8646 -0.5533 -0.7079
 1326SOL    HW215615   3.779   3.851  15.389 -0.7222 -0.4760 -0.5984
 1327SOL     OW15616   0.335   3.919   6.210  0.0073 -0.9449  0.2023
 1327SOL    HW115617   0.261   3.956   6.162 -0.5438 -0.4161  1.4831
 1327SOL    HW215618   0.300   3.835   6.237 -0.8814 -0.2368  1.2205
 1328SOL     OW15619   0.829   2.519   2.035  0.1146  0.4942 -0.3158
 1328SOL    HW115620   0.828   2.545   1.943 -0.2757  0.8523 -0.2106
 1328SOL    HW215621   0.850   2.602   2.078  0.3906  0.9952 -1.4228
 1329SOL     OW15622   3.741   1.524  12.258 -0.1862 -0.0028 -0.1548
 1329SOL    HW115623   3.710   1.455  12.200  2.3173 -1.6295  0.4737
 1329SOL    HW215624   3.666   1.568  12.300 -0.2054 -0.7583  0.6102
 1330SOL     OW15625   2.384   0.831   4.221 -0.4555 -0.5951  0.1578
 1330SOL    HW115626   2.353   0.748   4.184 -1.0944  0.1234 -0.9149
 1330SOL    HW215627   2.480   0.829   4.226 -0.4701 -1.3626  0.1266
 1331SOL     OW15628   1.626   4.076   3.539  0.0076 -0.0256 -0.1487
 1331SOL    HW115629   1.707   4.096   3.492  0.3607  0.9406  0.8682
 1331SOL    HW215630   1.666   4.023   3.607  0.5849  0.9493  0.2798
 1332SOL     OW15631   1.005   4.585   8.754 -0.4082  0.3429 -0.5161
 1332SOL    HW115632   1.085   4.533   8.756 -0.1439  0.8542  1.8432
 1332SOL    HW215633   1.027   4.658   8.813  1.3699 -0.4156 -0.2595
 1333SOL     OW15634   4.169   0.031  14.210  0.3798 -0.3622  0.1366
 1333SOL    HW115635   4.132   0.007  14.295  1.0349 -0.8172  0.2974
 1333SOL    HW215636   4.090   0.069  14.173  0.0338 -1.2656 -0.0512
 1334SOL     OW15637   0.198   4.277  12.530  0.0187  0.1546 -0.1662
 1334SOL    HW115638   0.265   4.211  12.511  0.4160  0.9915 -1.6600
 1334SOL    HW215639   0.205   4.272  12.626  0.8075 -2.1973 -0.3458
 1335SOL     OW15640   0.761   1.132  14.495  0.0908 -0.1197  0.4155
 1335SOL    HW115641   0.820   1.184  14.440  1.9551 -0.0233  2.4824
 1335SOL    HW215642   0.768   1.049  14.447  0.5541  0.5621 -0.6936
 1336SOL     OW15643   3.677   0.174  11.617 -0.2074 -0.1514 -0.1134
 1336SOL    HW115644   3.644   0.090  11.650 -1.6779  0.3218 -0.3852
 1336SOL    HW215645   3.671   0.150  11.525  2.8596  1.2189 -0.6626
 1337SOL     OW15646   3.456   3.936   5.471  0.0947 -0.1488  0.4631
 1337SOL    HW115647   3.399   3.951   5.546 -1.3982 -0.6841 -0.5630
 1337SOL    HW215648   3.498   3.853   5.496 -0.6032 -0.2181  1.3723
 1338SOL     OW15649   3.088   3.843   7.450 -0.6029 -0.4837  0.3534
 1338SOL    HW115650   3.074   3.888   7.367 -1.9045 -1.1565  0.2180
 1338SOL    HW215651   3.182   3.859   7.462 -0.7967 -0.4074  1.7607
 1339SOL     OW15652   0.545   3.582   6.246  0.4985  1.0674 -0.0805
 1339SOL    HW115653   0.483   3.575   6.318  0.1233 -1.6999 -0.6590
 1339SOL    HW215654   0.617   3.634   6.282  1.7724 -0.8309  0.0932
 1340SOL     OW15655   4.576   4.245  14.804  0.6160 -0.2322  0.0990
 1340SOL    HW115656   4.557   4.156  14.773 -0.6842 -0.1421  0.6208
 1340SOL    HW215657   4.641   4.228  14.872 -0.2452 -0.5053  0.8542
 1341SOL     OW15658   4.554   4.359   4.311 -0.1448  0.2603  0.1475
 1341SOL    HW115659   4.637   4.317   4.332  0.0969  0.2877 -0.7426
 1341SOL    HW215660   4.489   4.288   4.307 -0.9580  0.9211  1.6327
 1342SOL     OW15661   4.355   1.408   0.244 -0.1964  0.1713  0.3230
 1342SOL    HW115662   4.366   1.335   0.183 -0.2104 -0.9686  1.6984
 1342SOL    HW215663   4.305   1.465   0.184 -1.8666 -1.1962  0.4047
 1343SOL     OW15664   3.461   2.786   1.805 -0.2990 -0.6182 -0.2166
 1343SOL    HW115665   3.424   2.874   1.804  1.8023  0.2467 -1.4921
 1343SOL    HW215666   3.407   2.775   1.883 -0.5112 -1.6935 -0.5169
 1344SOL     OW15667   4.307   4.059  16.886  0.8825 -1.1076  0.1203
 1344SOL    HW115668   4.383   4.027  16.838 -0.5751 -4.3961 -0.0297
 1344SOL    HW215669   4.345   4.107  16.959  0.5267 -0.5712 -0.0459
 1345SOL     OW15670   2.571   4.011   2.744 -0.1059  0.3324 -0.1185
 1345SOL    HW115671   2.625   3.998   2.822  1.8184  1.5813 -1.2369
 1345SOL    HW215672   2.489   3.964   2.760  1.0954 -2.2671 -1.6783
 1346SOL     OW15673   1.191   0.870   6.165  0.1925  0.8253  0.3106
 1346SOL    HW115674   1.169   0.846   6.255  2.6838 -0.8161  0.4801
 1346SOL    HW215675   1.117   0.929   6.149  1.2176  1.2391 -2.9338
 1347SOL     OW15676   0.292   0.330   3.990 -0.1364 -0.5322 -1.0411
 1347SOL    HW115677   0.346   0.263   3.947  0.7042  0.0690 -0.9208
 1347SOL    HW215678   0.364   0.370   4.039 -2.4056 -0.2029  2.0031
 1348SOL     OW15679   0.559   4.186  14.859  0.2090  0.2421 -0.4802
 1348SOL    HW115680   0.497   4.226  14.798  0.3507  0.8671 -0.2184
 1348SOL    HW215681   0.595   4.129  14.791  0.2756  0.6318 -0.7765
 1349SOL     OW15682   2.740   0.969  14.603  0.2132 -0.0536  0.5174
 1349SOL    HW115683   2.715   0.916  14.528 -0.7192 -0.4092  1.0804
 1349SOL    HW215684   2.657   1.018  14.608  1.1283  1.4928  0.4350
 1350SOL     OW15685   2.588   0.324   5.333  0.0563 -0.2418 -0.0517
 1350SOL    HW115686   2.594   0.249   5.275 -0.5038  1.0294 -1.7448
 1350SOL    HW215687   2.497   0.347   5.314 -0.5312 -2.2586  0.3019
 1351SOL     OW15688   4.068   4.274  11.944  0.3227  0.1534  0.2381
 1351SOL    HW115689   4.052   4.273  11.849 -2.4960  0.3313  0.7153
 1351SOL    HW215690   4.065   4.182  11.969  0.6338  0.2265  0.5304
 1352SOL     OW15691   4.408   4.715   4.830 -0.2229  0.4499 -0.2396
 1352SOL    HW115692   4.488   0.025   4.806 -0.5244 -0.9635 -3.9788
 1352SOL    HW215693   4.347   0.050   4.846 -1.2415 -0.6961  0.9825
 1353SOL     OW15694   3.428   2.392  15.686  0.4049 -0.5502  0.5720
 1353SOL    HW115695   3.358   2.368  15.746 -0.0003 -0.1632  0.2526
 1353SOL    HW215696   3.494   2.435  15.740 -0.8053  0.6212  1.1238
 1354SOL     OW15697   2.091   3.358   6.057  0.2505  0.5223  0.1144
 1354SOL    HW115698   2.158   3.360   6.126  0.8451  0.9448 -0.4669
 1354SOL    HW215699   2.139   3.297   6.000  1.1839  0.4359  0.9882
 1355SOL     OW15700   2.456   0.732  16.522 -0.4357 -0.3830 -0.5271
 1355SOL    HW115701   2.396   0.756  16.592 -3.0602 -0.6339 -2.6891
 1355SOL    HW215702   2.414   0.767  16.444 -1.1173  0.0015  0.0123
 1356SOL     OW15703   4.132   0.536   7.028  0.3239  1.0002 -0.4112
 1356SOL    HW115704   4.202   0.499   7.081 -0.6790  1.1761  1.0234
 1356SOL    HW215705   4.161   0.627   7.016  1.4610  0.9278  1.7022
 1357SOL     OW15706   3.616   3.955  11.799 -0.0257  0.0548  0.2764
 1357SOL    HW115707   3.641   3.943  11.891 -0.1301 -0.6790  0.2075
 1357SOL    HW215708   3.655   3.877  11.759 -1.6738 -0.1096 -1.0306
 1358SOL     OW15709   1.856   1.551  10.156  0.3980 -0.3094 -0.0539
 1358SOL    HW115710   1.768   1.553  10.118  0.3561 -0.8346  0.0088
 1358SOL    HW215711   1.826   1.497  10.229  0.7932  0.6224  0.7827
 1359SOL     OW15712   2.254   2.212   0.494  0.3402  0.0226 -0.6361
 1359SOL    HW115713   2.230   2.288   0.548  1.5997  0.0598 -0.1219
 1359SOL    HW215714   2.167   2.172   0.493  0.7918 -0.9004 -2.2426
 1360SOL     OW15715   3.343   4.082  10.989 -0.2208 -0.9229 -0.2051
 1360SOL    HW115716   3.355   4.174  11.014  2.1534 -1.3824  0.3375
 1360SOL    HW215717   3.432   4.060  10.962  0.3885  1.9881 -0.5846
 1361SOL     OW15718   1.379   1.222   6.765  0.4173  0.3446  0.1778
 1361SOL    HW115719   1.429   1.230   6.846 -0.1983 -0.1964  0.6099
 1361SOL    HW215720   1.419   1.295   6.718 -1.0046  1.5551  0.8223
 1362SOL     OW15721   1.708   4.243  11.136  0.2228  0.4771 -0.4687
 1362SOL    HW115722   1.658   4.246  11.054 -1.0487  0.4546  0.3075
 1362SOL    HW215723   1.667   4.314  11.185  0.4570 -0.4053  1.0144
 1363SOL     OW15724   3.446   3.313  12.624  0.1448  0.3708 -0.1097
 1363SOL    HW115725   3.469   3.400  12.593  2.3480 -0.7527 -1.6841
 1363SOL    HW215726   3.407   3.347  12.705 -0.8933 -1.8539  0.3196
 1364SOL     OW15727   1.757   1.449   5.353 -0.6630 -0.1816  0.5241
 1364SOL    HW115728   1.814   1.380   5.388  0.2988 -0.3014 -1.2856
 1364SOL    HW215729   1.807   1.467   5.274 -0.2302  0.1110  0.8692
 1365SOL     OW15730   0.830   1.883   2.122 -0.1345 -0.5356 -0.0663
 1365SOL    HW115731   0.852   1.954   2.061  2.0846 -0.5285  0.7186
 1365SOL    HW215732   0.749   1.915   2.162  0.5010 -0.7467  1.4036
 1366SOL     OW15733   2.457   2.279   1.221 -0.6380  0.1548 -0.4108
 1366SOL    HW115734   2.472   2.230   1.301 -1.2800 -0.3383 -0.5968
 1366SOL    HW215735   2.396   2.223   1.172  1.1309 -0.4600 -1.9195
 1367SOL     OW15736   4.051   2.126   9.741 -0.3085  0.0181 -0.1327
 1367SOL    HW115737   3.997   2.200   9.767 -0.5952 -0.1674 -0.2004
 1367SOL    HW215738   4.023   2.050   9.791  0.1827 -0.7753 -1.0718
 1368SOL     OW15739   4.545   0.322  11.610 -0.1560  0.0322  0.0268
 1368SOL    HW115740   4.483   0.370  11.556  0.7640  0.3306 -0.7719
 1368SOL    HW215741   4.599   0.280  11.543 -0.9637 -1.8850  0.5744
 1369SOL     OW15742   4.043   2.195   4.528  0.1220 -0.0018  0.5892
 1369SOL    HW115743   4.051   2.286   4.556  3.2378 -0.1819  0.2553
 1369SOL    HW215744   4.065   2.200   4.435  1.5435 -0.7102  0.8938
 1370SOL     OW15745   2.806   3.027   8.110  0.0115 -0.3731 -0.2329
 1370SOL    HW115746   2.739   3.096   8.109  0.0421 -0.3261  1.2625
 1370SOL    HW215747   2.769   2.969   8.176 -0.9127 -0.9597 -1.2701
 1371SOL     OW15748   4.100   3.758   4.991 -0.2448 -0.1817  0.4865
 1371SOL    HW115749   4.148   3.687   4.948 -0.8218 -0.6743  0.6469
 1371SOL    HW215750   4.020   3.757   4.939 -0.5934  0.4110  1.0111
 1372SOL     OW15751   4.404   3.713  14.766 -0.2257 -0.2208  0.0890
 1372SOL    HW115752   4.317   3.753  14.771 -0.7339 -1.1340 -1.7803
 1372SOL    HW215753   4.390   3.667  14.684  0.7131 -0.7375  0.2197
 1373SOL     OW15754   2.025   1.984   4.047  0.1323  0.2949 -0.1033
 1373SOL    HW115755   2.044   1.953   4.136 -1.2303 -0.5403 -0.0899
 1373SOL    HW215756   2.105   2.031   4.026 -0.1229 -0.1960 -2.2212
 1374SOL     OW15757   3.808   0.467   0.097 -0.2546 -0.0464  0.1652
 1374SOL    HW115758   3.734   0.454   0.037  0.6066  2.4290 -1.4208
 1374SOL    HW215759   3.773   0.421   0.173  0.7172 -0.2759  0.4621
 1375SOL     OW15760   0.367   0.879   1.804 -1.0580 -0.1068 -0.0576
 1375SOL    HW115761   0.309   0.856   1.731  0.2728 -0.0254 -1.1460
 1375SOL    HW215762   0.357   0.974   1.801 -0.7723 -0.0118  2.0391
 1376SOL     OW15763   4.293   2.504  17.301  0.0084  0.0398 -0.0148
 1376SOL    HW115764   4.274   2.410  17.302 -2.5401  0.5638 -0.6593
 1376SOL    HW215765   4.384   2.501  17.330  0.4435  0.6791 -1.2867
 1377SOL     OW15766   2.567   1.072   5.208  0.3099  0.0301  0.2750
 1377SOL    HW115767   2.661   1.083   5.193  0.6476  0.1040  2.3671
 1377SOL    HW215768   2.561   1.141   5.274  2.1822  1.0837 -0.6728
 1378SOL     OW15769   3.118   4.166   2.932  0.4707  0.4563  0.3016
 1378SOL    HW115770   3.174   4.088   2.940 -1.5290 -1.1068 -0.8959
 1378SOL    HW215771   3.123   4.163   2.836 -1.7865  2.4107  0.1414
 1379SOL     OW15772   0.767   3.833   1.987 -0.3867 -0.5986 -0.1450
 1379SOL    HW115773   0.851   3.799   1.955  0.0940  1.0227 -0.5971
 1379SOL    HW215774   0.780   3.928   1.985 -0.8161 -0.4640  3.4859
 1380SOL     OW15775   0.861   3.021   9.217  0.1292 -0.4048 -0.4403
 1380SOL    HW115776   0.790   2.957   9.212 -0.6692  0.6311 -2.2243
 1380SOL    HW215777   0.816   3.100   9.249  0.7814  0.0486 -0.6422
 1381SOL     OW15778   3.974   0.144   4.884  0.2050  0.1360 -0.2141
 1381SOL    HW115779   3.886   0.107   4.875 -1.0633  2.8838  1.0748
 1381SOL    HW215780   4.030   0.079   4.842  1.5062  1.1418 -0.0291
 1382SOL     OW15781   2.847   3.766   2.846  0.0101  0.5958  0.2182
 1382SOL    HW115782   2.916   3.793   2.786 -0.5307  0.0746 -0.6411
 1382SOL    HW215783   2.855   3.671   2.841  0.7337  0.6201  0.8581
 1383SOL     OW15784   0.718   3.164   3.072  0.5984 -0.6881 -0.0159
 1383SOL    HW115785   0.713   3.246   3.121 -0.0336 -0.5595 -0.2995
 1383SOL    HW215786   0.698   3.187   2.981  1.8463  1.1354  0.1637
 1384SOL     OW15787   2.757   0.483  11.657  0.3252  0.7456  0.0749
 1384SOL    HW115788   2.705   0.437  11.723  2.1905 -0.6765  0.5609
 1384SOL    HW215789   2.844   0.460  11.692  0.4806  0.3341 -0.5804
 1385SOL     OW15790   3.321   0.887   1.923  0.1844  0.0605 -0.0700
 1385SOL    HW115791   3.346   0.798   1.899  0.0054  0.5559 -2.1420
 1385SOL    HW215792   3.373   0.948   1.871  3.4866 -0.1645  2.9428
 1386SOL     OW15793   2.649   3.496   3.959  0.1728 -0.3159 -0.8571
 1386SOL    HW115794   2.714   3.558   3.994  0.5849 -1.1021 -0.2248
 1386SOL    HW215795   2.574   3.529   4.009 -0.0182 -2.2751  0.1410
 1387SOL     OW15796   1.784   4.146   1.728 -0.1701 -0.2706 -0.1919
 1387SOL    HW115797   1.801   4.066   1.779 -1.4769 -1.1323 -1.1065
 1387SOL    HW215798   1.721   4.188   1.787  0.0930 -0.4574  0.2289
 1388SOL     OW15799   3.924   1.872  13.207 -0.0403  0.6629  0.2321
 1388SOL    HW115800   3.909   1.783  13.238  0.9681 -0.0730 -1.3619
 1388SOL    HW215801   3.931   1.848  13.114 -3.8997 -0.3596  0.2430
 1389SOL     OW15802   2.060   4.623   5.618 -0.0006 -0.4455  0.2565
 1389SOL    HW115803   1.982   4.620   5.674 -1.0089  0.9080 -1.0743
 1389SOL    HW215804   2.036   4.692   5.556  0.7228 -0.5134 -0.0984
 1390SOL     OW15805   2.891   4.435   6.241  0.0700  0.4142  0.0967
 1390SOL    HW115806   2.815   4.448   6.184  1.0292 -0.8042 -1.4678
 1390SOL    HW215807   2.933   4.521   6.245 -0.7427  0.8121  0.1993
 1391SOL     OW15808   3.611   2.674  17.635 -0.1933 -0.1854 -0.3366
 1391SOL    HW115809   3.602   2.684  17.540 -0.2291 -0.1452 -0.3294
 1391SOL    HW215810   3.670   2.744  17.663 -2.1403  1.6888 -0.8084
 1392SOL     OW15811   0.952   3.886   5.356 -0.3930  0.0179 -0.0960
 1392SOL    HW115812   0.966   3.814   5.417 -1.4786  0.1017  0.2426
 1392SOL    HW215813   1.043   3.916   5.348 -0.2295 -0.1651  1.1400
 1393SOL     OW15814   2.324   2.913   8.774 -0.2194  0.0094  0.2622
 1393SOL    HW115815   2.341   2.995   8.820 -0.6800 -0.2823  0.9708
 1393SOL    HW215816   2.382   2.855   8.824  2.3457  1.9947 -0.4647
 1394SOL     OW15817   1.899   2.687   1.584  0.1554  0.6395  0.3322
 1394SOL    HW115818   1.910   2.690   1.489  1.1668  0.0165  0.4386
 1394SOL    HW215819   1.918   2.779   1.605 -0.4960  0.2145  2.8334
 1395SOL     OW15820   2.921   2.571   8.387 -0.1423  0.2174 -0.1331
 1395SOL    HW115821   2.898   2.634   8.455  0.8795  1.7001 -1.1619
 1395SOL    HW215822   2.849   2.508   8.390 -0.4727  0.6007  0.0323
 1396SOL     OW15823   0.567   0.805   9.309  0.3199  0.0595  0.2639
 1396SOL    HW115824   0.487   0.769   9.347 -0.7171  1.1862 -0.8789
 1396SOL    HW215825   0.548   0.892   9.275 -0.8492 -0.7250 -1.0806
 1397SOL     OW15826   0.825   0.824   2.283 -0.4581  0.1609 -0.2927
 1397SOL    HW115827   0.804   0.849   2.193  0.5590  0.4170 -0.4625
 1397SOL    HW215828   0.743   0.848   2.326 -0.6853  0.0150 -0.6401
 1398SOL     OW15829   4.213   4.330   8.431  0.1244 -0.2841  0.4955
 1398SOL    HW115830   4.175   4.244   8.410  2.9163 -1.5395  0.6368
 1398SOL    HW215831   4.271   4.305   8.503 -0.5640 -0.2894  1.0473
 1399SOL     OW15832   1.108   0.323  13.345  0.1794  0.4615  0.3114
 1399SOL    HW115833   1.159   0.244  13.360  1.4996  0.9927 -1.3210
 1399SOL    HW215834   1.117   0.363  13.431 -1.1580  0.4660  0.4414
 1400SOL     OW15835   4.061   1.980   5.945  0.2306  0.5212  0.3359
 1400SOL    HW115836   4.026   1.904   5.992  2.8784 -0.4804  0.6784
 1400SOL    HW215837   4.125   2.017   6.005  1.1162  0.7730 -0.7681
 1401SOL     OW15838   4.126   0.424  15.463 -0.3414  0.4547  0.5918
 1401SOL    HW115839   4.046   0.475  15.478 -0.9512 -0.1760 -0.5486
 1401SOL    HW215840   4.160   0.416  15.552 -2.2058  1.3458  1.3931
 1402SOL     OW15841   4.602   4.397   5.306 -0.1174  0.1864 -0.1653
 1402SOL    HW115842   4.640   4.332   5.247  2.5483  1.1067  0.5260
 1402SOL    HW215843   4.650   4.474   5.276 -0.0140 -0.1171 -0.7806
 1403SOL     OW15844   3.596   3.232  12.964 -0.4922  0.4091 -0.2060
 1403SOL    HW115845   3.587   3.323  12.934  0.9378 -0.0902 -2.1181
 1403SOL    HW215846   3.581   3.192  12.879  1.3361  2.3383 -1.4612
 1404SOL     OW15847   4.361   3.820   6.797  0.0088 -0.6643  0.2141
 1404SOL    HW115848   4.419   3.745   6.787  1.8621  1.0230 -1.7638
 1404SOL    HW215849   4.390   3.875   6.724  1.4616 -1.2211  0.3877
 1405SOL     OW15850   1.062   1.486  11.145  0.3772 -0.1659 -0.9783
 1405SOL    HW115851   1.091   1.465  11.233 -1.1858  0.7042 -0.2471
 1405SOL    HW215852   1.056   1.582  11.152 -0.2595 -0.2705 -0.1352
 1406SOL     OW15853   3.441   1.251   5.278 -0.1101  0.3823  0.0077
 1406SOL    HW115854   3.366   1.241   5.337 -1.9905  0.3697 -2.3836
 1406SOL    HW215855   3.431   1.346   5.266  2.0512  0.8321  1.7045
 1407SOL     OW15856   2.843   4.102   7.339 -0.2027 -0.2209 -0.5165
 1407SOL    HW115857   2.903   4.103   7.264  0.9966  3.7221  0.5169
 1407SOL    HW215858   2.829   4.007   7.345  1.0998 -0.4691 -1.2359
 1408SOL     OW15859   3.130   0.976   4.753 -0.7977 -0.1398 -0.2324
 1408SOL    HW115860   3.210   0.950   4.707 -3.1367 -1.4079 -3.5779
 1408SOL    HW215861   3.065   0.973   4.683  1.1901  1.4121 -2.1145
 1409SOL     OW15862   4.106   0.736   8.243  0.0362  0.6076 -0.0282
 1409SOL    HW115863   4.076   0.826   8.227 -2.2341  0.0035  0.9537
 1409SOL    HW215864   4.201   0.746   8.237  0.2618 -1.9213 -0.6963
 1410SOL     OW15865   4.109   4.093   2.115  0.7700  0.2550  0.1397
 1410SOL    HW115866   4.174   4.152   2.078  0.6255 -0.5745 -1.4352
 1410SOL    HW215867   4.086   4.034   2.043 -3.3705 -0.1753  1.7948
 1411SOL     OW15868   4.656   1.623   7.059 -0.0142  0.2603 -0.4855
 1411SOL    HW115869   4.631   1.553   6.997  0.2533 -2.0446  2.0162
 1411SOL    HW215870   4.721   1.665   7.002  0.2199 -0.6766 -0.9300
 1412SOL     OW15871   3.027   1.894  13.483  0.0626  0.4201 -0.2628
 1412SOL    HW115872   3.105   1.838  13.486 -0.9783 -0.9471  1.0790
 1412SOL    HW215873   2.972   1.839  13.428 -1.9357  0.2695  1.8680
 1413SOL     OW15874   0.732   3.360   3.271  0.2619  0.2438  0.0255
 1413SOL    HW115875   0.740   3.443   3.317 -2.1702  0.9333 -0.7836
 1413SOL    HW215876   0.824   3.338   3.256 -0.0494  0.6427 -2.5360
 1414SOL     OW15877   4.339   2.696   2.926  0.3200  0.6979 -0.2055
 1414SOL    HW115878   4.294   2.620   2.963  2.2054 -0.8564 -1.0769
 1414SOL    HW215879   4.271   2.745   2.880  0.1134  1.2172  0.6650
 1415SOL     OW15880   4.419   4.683  12.307  0.2454  0.2712 -0.2609
 1415SOL    HW115881   4.476   4.723  12.242 -1.0438 -0.2532 -1.7032
 1415SOL    HW215882   4.336   4.730  12.306  0.3157  0.4604  1.3507
 1416SOL     OW15883   2.502   4.215   6.587  0.0357 -0.0772 -0.0111
 1416SOL    HW115884   2.530   4.251   6.504  0.1311 -2.3577 -0.9589
 1416SOL    HW215885   2.450   4.288   6.621 -0.7008  0.3086 -2.0045
 1417SOL     OW15886   2.107   2.799   7.382 -0.1086  0.6056  0.1527
 1417SOL    HW115887   2.092   2.853   7.304 -0.4859 -1.2746 -1.0792
 1417SOL    HW215888   2.029   2.812   7.435 -1.8586 -0.4609 -2.1731
 1418SOL     OW15889   3.821   3.112  13.036 -0.4182 -0.5353 -0.4475
 1418SOL    HW115890   3.735   3.135  13.002 -0.7326 -1.0311  0.0244
 1418SOL    HW215891   3.849   3.199  13.065 -0.2918 -0.4160 -0.9266
 1419SOL     OW15892   3.647   1.666  13.284 -0.1193 -0.1439  0.1796
 1419SOL    HW115893   3.633   1.760  13.289  3.0217  0.4305 -1.6841
 1419SOL    HW215894   3.737   1.667  13.250  1.0936 -0.6233  3.3557
 1420SOL     OW15895   0.230   3.991   5.118  0.4767 -0.2393 -0.2711
 1420SOL    HW115896   0.154   3.934   5.130  0.5653 -0.5919 -1.3877
 1420SOL    HW215897   0.294   3.927   5.149 -1.1643 -1.4041  0.7586
 1421SOL     OW15898   4.515   1.752  13.401 -0.1670  0.1622  0.3071
 1421SOL    HW115899   4.560   1.675  13.365 -2.3424 -0.8474 -0.2870
 1421SOL    HW215900   4.547   1.825  13.349 -2.3737  1.7708  1.1682
 1422SOL     OW15901   1.507   4.349  17.323  0.1932  0.2187 -0.1495
 1422SOL    HW115902   1.482   4.386  17.408 -0.1535  1.1254 -0.6496
 1422SOL    HW215903   1.507   4.429  17.272 -2.3899  1.4533  1.7735
 1423SOL     OW15904   0.329   2.095   8.112 -0.4446 -0.5755 -0.7361
 1423SOL    HW115905   0.371   2.160   8.169 -0.8001 -0.6928 -0.3432
 1423SOL    HW215906   0.406   2.039   8.099  0.2646  0.3663 -0.6177
 1424SOL     OW15907   3.995   1.169   5.714 -0.1317 -0.8620  0.0822
 1424SOL    HW115908   3.981   1.241   5.775  1.5406 -2.0293  1.8780
 1424SOL    HW215909   3.908   1.150   5.680 -0.2074 -2.8863  1.3972
 1425SOL     OW15910   1.460   3.466   5.691 -0.1801 -0.1053 -0.1318
 1425SOL    HW115911   1.515   3.486   5.766 -0.8043 -0.3011  0.3793
 1425SOL    HW215912   1.477   3.543   5.637  1.9882  1.0590  2.2555
 1426SOL     OW15913   4.002   3.103   8.769 -0.1420  0.9844  0.3353
 1426SOL    HW115914   3.957   3.165   8.827  0.6356  0.1416  1.8354
 1426SOL    HW215915   3.953   3.025   8.794  1.3929 -0.3594 -0.7846
 1427SOL     OW15916   1.163   2.183   9.147 -0.4698  0.3941  0.1196
 1427SOL    HW115917   1.191   2.269   9.116  0.6076 -0.9484 -2.5936
 1427SOL    HW215918   1.211   2.137   9.078  0.1414  0.2477  0.6373
 1428SOL     OW15919   1.848   4.259  12.163  0.7506 -0.0938  0.1768
 1428SOL    HW115920   1.760   4.285  12.137  0.1691 -1.7395  0.4709
 1428SOL    HW215921   1.831   4.185  12.221  1.5173 -0.2750  0.1700
 1429SOL     OW15922   0.868   4.504   3.116 -0.3420  0.1461 -0.0558
 1429SOL    HW115923   0.859   4.409   3.108 -1.5927  0.3769 -1.4082
 1429SOL    HW215924   0.888   4.510   3.210  0.9427  0.8631 -0.3723
 1430SOL     OW15925   1.746   3.190  14.067 -0.5447  0.1312  0.1338
 1430SOL    HW115926   1.697   3.183  14.148  1.2590 -1.0423  1.1353
 1430SOL    HW215927   1.677   3.176  14.003  1.6161  1.5777 -2.5311
 1431SOL     OW15928   0.053   2.293   5.958  0.1549  0.1935 -0.1448
 1431SOL    HW115929   0.066   2.241   5.879  1.9049  0.7217 -0.2088
 1431SOL    HW215930   0.049   2.381   5.920 -0.4934  0.1786 -0.0968
 1432SOL     OW15931   4.116   2.331   3.170 -0.3381 -0.8126 -0.1131
 1432SOL    HW115932   4.206   2.315   3.198 -0.2114  0.6139  0.3126
 1432SOL    HW215933   4.084   2.345   3.259  0.7053  1.2370 -0.0525
 1433SOL     OW15934   0.736   0.774   8.457  0.0264  0.3018 -0.0994
 1433SOL    HW115935   0.765   0.700   8.509  1.0076  0.8115  0.0791
 1433SOL    HW215936   0.816   0.784   8.406  1.0442 -2.2196  0.9924
 1434SOL     OW15937   0.134   0.952   8.993 -0.1836  0.0112 -0.5427
 1434SOL    HW115938   0.183   0.888   8.941  0.0723 -0.3714  0.1587
 1434SOL    HW215939   0.060   0.896   9.015 -0.7007  1.5766  1.7218
 1435SOL     OW15940   0.732   0.856   7.476  0.3773 -0.0348 -0.6423
 1435SOL    HW115941   0.741   0.819   7.388 -2.2271 -0.3292 -0.7611
 1435SOL    HW215942   0.816   0.829   7.513 -1.2651 -0.9972  2.4043
 1436SOL     OW15943   3.328   0.160   8.880  0.3355  0.3032 -0.1035
 1436SOL    HW115944   3.276   0.202   8.949  1.4034  0.0321  0.8687
 1436SOL    HW215945   3.272   0.179   8.805  0.5600 -0.4991 -0.4698
 1437SOL     OW15946   4.337   2.325   7.742 -0.2888 -0.2786 -0.2545
 1437SOL    HW115947   4.339   2.407   7.692  2.0768 -0.6726 -0.8447
 1437SOL    HW215948   4.331   2.348   7.834  1.5649 -0.2972 -0.1234
 1438SOL     OW15949   2.571   2.064   6.571 -0.2353 -0.2404  0.6735
 1438SOL    HW115950   2.499   2.120   6.540 -0.1167 -0.8463 -0.7156
 1438SOL    HW215951   2.633   2.087   6.502 -0.5160  0.4088  0.6313
 1439SOL     OW15952   2.863   1.324   3.985  0.6376  0.8470 -0.1727
 1439SOL    HW115953   2.909   1.384   4.044  0.9492 -1.1225  1.5883
 1439SOL    HW215954   2.782   1.305   4.033  1.1797 -3.0926 -0.7979
 1440SOL     OW15955   2.235   1.550   0.345  0.1135 -0.2783  0.1946
 1440SOL    HW115956   2.182   1.570   0.423  2.8170  1.2553  1.6299
 1440SOL    HW215957   2.325   1.547   0.377  0.5386 -0.7315 -1.0540
 1441SOL     OW15958   2.919   3.894   3.620  0.1885  0.0084 -0.2304
 1441SOL    HW115959   2.837   3.916   3.578 -1.0619  0.3834  2.3868
 1441SOL    HW215960   2.958   3.982   3.626 -0.8874  0.6074 -2.2040
 1442SOL     OW15961   2.375   0.449   4.435  0.2997 -0.6116 -0.1798
 1442SOL    HW115962   2.335   0.440   4.348  1.3749 -3.3215 -0.4049
 1442SOL    HW215963   2.461   0.410   4.420  0.3132 -0.3726 -0.7216
 1443SOL     OW15964   1.499   2.635   4.972  0.0828 -0.0063  0.5600
 1443SOL    HW115965   1.430   2.675   5.026 -0.7738  1.5122 -1.6230
 1443SOL    HW215966   1.472   2.673   4.888  1.0041 -0.5933  0.0039
 1444SOL     OW15967   3.629   0.558   3.993 -0.0207 -0.2524  0.1683
 1444SOL    HW115968   3.703   0.609   3.959  0.4883  0.1379  1.8495
 1444SOL    HW215969   3.644   0.566   4.087  2.0436  0.2949 -0.1922
 1445SOL     OW15970   3.094   2.111  13.642 -0.5235  0.0832 -0.7970
 1445SOL    HW115971   3.078   2.050  13.569 -2.2232  1.3258 -1.4694
 1445SOL    HW215972   3.005   2.134  13.667 -0.5402 -2.0359  1.0378
 1446SOL     OW15973   3.063   1.385   2.334 -0.1236 -0.5870  0.0459
 1446SOL    HW115974   2.988   1.390   2.274  1.2185 -0.9268 -1.6535
 1446SOL    HW215975   3.022   1.394   2.420  3.8076  0.1395  1.8370
 1447SOL     OW15976   0.530   2.946   0.799  0.1269  0.1942 -0.4323
 1447SOL    HW115977   0.574   3.031   0.793 -0.8406  0.6436 -1.1155
 1447SOL    HW215978   0.441   2.974   0.779  0.0517 -0.5532 -1.1366
 1448SOL     OW15979   1.634   2.483   3.841 -0.5633  0.0931  0.5226
 1448SOL    HW115980   1.617   2.415   3.906  0.7766 -0.3312  0.4272
 1448SOL    HW215981   1.729   2.494   3.843 -0.4861 -0.4177 -0.0974
 1449SOL     OW15982   0.307   3.773   9.571  0.5775 -0.1071 -0.0618
 1449SOL    HW115983   0.280   3.806   9.657 -0.1505 -0.7145 -0.0533
 1449SOL    HW215984   0.400   3.757   9.581  0.2236 -2.9285 -1.5043
 1450SOL     OW15985   0.207   3.361   8.016 -0.3012 -0.2298  0.4550
 1450SOL    HW115986   0.219   3.456   8.017  1.0021 -0.3995  0.5007
 1450SOL    HW215987   0.140   3.353   8.084 -1.7803  0.3979 -0.9146
 1451SOL     OW15988   0.014   1.161   8.360  0.8938  0.1933  0.2711
 1451SOL    HW115989   4.694   1.091   8.328  1.5128 -0.2490  0.1450
 1451SOL    HW215990   4.719   1.155   8.450 -0.2333 -2.5776 -0.3085
 1452SOL     OW15991   3.805   3.942   2.634 -0.5051 -0.1777  0.0279
 1452SOL    HW115992   3.853   4.024   2.637  1.6035 -1.3245 -2.0866
 1452SOL    HW215993   3.720   3.973   2.602 -1.6732 -2.0356  1.3146
 1453SOL     OW15994   3.654   1.544  10.512 -0.0869  0.3271 -0.3338
 1453SOL    HW115995   3.711   1.577  10.582  0.7687  0.0430 -0.8897
 1453SOL    HW215996   3.577   1.601  10.513 -0.1475  0.2429 -0.2606
 1454SOL     OW15997   0.600   1.023  16.588  0.7311  0.0879 -0.5025
 1454SOL    HW115998   0.550   1.088  16.539 -0.3319 -0.2429  0.1614
 1454SOL    HW215999   0.672   1.003  16.528  1.0595  0.8093 -0.3493
 1455SOL     OW16000   3.404   0.284   6.462  0.8966  0.4137  0.2717
 1455SOL    HW116001   3.384   0.369   6.501  0.4603  0.4174  0.0351
 1455SOL    HW216002   3.351   0.292   6.383 -0.2600 -2.0390  0.7845
 1456SOL     OW16003   1.819   0.334   7.854 -0.4806 -0.2700 -0.1423
 1456SOL    HW116004   1.754   0.363   7.918 -0.5770  1.3279 -0.9592
 1456SOL    HW216005   1.890   0.321   7.918 -0.2954  0.5082 -0.1947
 1457SOL     OW16006   2.985   1.138   9.705  0.3216  0.3440 -0.1169
 1457SOL    HW116007   3.050   1.138   9.775  0.6051  1.7434 -0.3771
 1457SOL    HW216008   2.915   1.087   9.745  2.8984 -1.9812  1.3465
 1458SOL     OW16009   2.064   2.888   1.715  0.1017 -0.0477  0.4847
 1458SOL    HW116010   2.105   2.837   1.786  0.1667  0.5097  0.8487
 1458SOL    HW216011   1.995   2.927   1.768  0.1738 -0.3112  0.7742
 1459SOL     OW16012   0.053   3.307   8.998  0.3086  0.2915 -0.0042
 1459SOL    HW116013   0.094   3.260   8.926  2.2536 -1.2289  2.1142
 1459SOL    HW216014   4.721   3.246   9.025 -0.0243 -0.8585 -3.5517
 1460SOL     OW16015   2.314   4.347   4.510 -0.8325  0.3435  0.3554
 1460SOL    HW116016   2.267   4.343   4.427  1.5071 -1.5040 -0.8790
 1460SOL    HW216017   2.246   4.389   4.562 -0.7193  1.5883 -0.5020
 1461SOL     OW16018   3.675   0.299   9.686  0.0544  0.2833  0.6381
 1461SOL    HW116019   3.597   0.243   9.688 -0.7883  1.4176 -0.4147
 1461SOL    HW216020   3.741   0.234   9.660 -1.1640 -0.2909 -1.0139
 1462SOL     OW16021   0.256   1.239   8.267 -0.5378  0.4463  0.2301
 1462SOL    HW116022   0.182   1.203   8.317  1.8011 -0.6737  2.8939
 1462SOL    HW216023   0.270   1.167   8.205 -0.8884  2.2270 -1.9074
 1463SOL     OW16024   0.182   2.465   9.989  0.1506 -0.3145  0.2420
 1463SOL    HW116025   0.206   2.374  10.006  1.6481 -0.1337 -0.9115
 1463SOL    HW216026   0.251   2.490   9.928 -1.4973 -0.9012 -1.8764
 1464SOL     OW16027   1.872   3.891   2.811 -0.4737  0.0733 -0.2307
 1464SOL    HW116028   1.926   3.813   2.796  0.1330  0.4461  0.0184
 1464SOL    HW216029   1.793   3.849   2.846 -1.0933 -0.1437 -1.9095
 1465SOL     OW16030   1.612   3.245  13.069  0.0157  0.0747  0.1336
 1465SOL    HW116031   1.548   3.259  13.139 -2.4408 -0.1190 -2.0973
 1465SOL    HW216032   1.653   3.165  13.102 -0.1798  0.0930  0.4239
 1466SOL     OW16033   4.464   2.131   9.884  0.0211  0.1457 -0.2752
 1466SOL    HW116034   4.442   2.075   9.958  0.3560 -0.4832 -0.6512
 1466SOL    HW216035   4.425   2.216   9.903 -0.3770  0.7424 -3.7003
 1467SOL     OW16036   1.369   3.010   8.801 -0.2964 -0.3335  0.2809
 1467SOL    HW116037   1.331   3.096   8.820 -0.1324  0.0048 -0.9061
 1467SOL    HW216038   1.355   2.965   8.885  0.7468 -0.0490  0.6037
 1468SOL     OW16039   4.175   2.144   6.496 -0.0557  0.2475  0.4504
 1468SOL    HW116040   4.165   2.153   6.402  0.7474  0.1152  0.3549
 1468SOL    HW216041   4.090   2.169   6.532 -0.5312  0.3303 -0.7266
 1469SOL     OW16042   3.368   0.207  13.915 -0.0302  0.1441  0.6310
 1469SOL    HW116043   3.425   0.283  13.900 -1.1562  0.9609  0.4756
 1469SOL    HW216044   3.314   0.235  13.989 -0.7616  2.2866 -0.6863
 1470SOL     OW16045   4.334   2.069   4.031 -0.0553  0.1862  0.6873
 1470SOL    HW116046   4.338   2.148   3.977 -0.0074 -0.2099  0.1067
 1470SOL    HW216047   4.427   2.047   4.020 -0.2018 -1.2439  2.2441
 1471SOL     OW16048   2.373   2.858   9.437 -0.2058 -0.0544  0.0281
 1471SOL    HW116049   2.449   2.806   9.464 -0.3844  0.6344  1.8121
 1471SOL    HW216050   2.314   2.824   9.504 -0.0019 -1.9541 -0.7429
 1472SOL     OW16051   2.982   0.524   3.175 -0.8693  0.2042  0.0544
 1472SOL    HW116052   2.991   0.430   3.164  0.3813  0.5225 -1.7106
 1472SOL    HW216053   3.069   0.542   3.212  0.2405 -1.1870 -1.8425
 1473SOL     OW16054   1.490   3.966   8.688  0.3667 -0.0664  0.1881
 1473SOL    HW116055   1.488   3.897   8.621  0.7893 -1.1467  1.2776
 1473SOL    HW216056   1.577   3.966   8.727 -0.7418  0.3561  2.6793
 1474SOL     OW16057   3.205   0.087   9.525 -0.6639 -0.4892  0.2468
 1474SOL    HW116058   3.175   0.047   9.606  0.1782 -1.8599 -0.1184
 1474SOL    HW216059   3.121   0.096   9.479 -1.1839 -0.3631  1.2270
 1475SOL     OW16060   1.274   4.643   0.557  0.0429  0.1738  0.5206
 1475SOL    HW116061   1.364   4.614   0.573  0.5653  0.8729 -1.2167
 1475SOL    HW216062   1.279   4.714   0.493  0.3035  0.7255  1.1524
 1476SOL     OW16063   3.271   0.050   6.551 -0.3132 -0.0163 -0.4871
 1476SOL    HW116064   3.309   0.132   6.520 -0.1076 -0.9573 -2.7136
 1476SOL    HW216065   3.279   0.063   6.646  1.9536  0.9838 -0.8311
 1477SOL     OW16066   2.276   0.535   1.625 -0.1893  0.0981 -0.1791
 1477SOL    HW116067   2.354   0.588   1.604 -0.8061  0.7285 -0.9126
 1477SOL    HW216068   2.212   0.607   1.627 -2.0371 -1.5653 -0.1523
 1478SOL     OW16069   4.116   2.768   4.207 -0.1157 -0.8904 -0.3272
 1478SOL    HW116070   4.158   2.693   4.165 -0.1627  1.0085 -3.7380
 1478SOL    HW216071   4.154   2.837   4.152 -0.9113  0.2514  0.5543
 1479SOL     OW16072   3.747   3.652  10.843 -0.1433 -0.6405 -0.3200
 1479SOL    HW116073   3.661   3.651  10.800 -0.5544  1.3240  0.4757
 1479SOL    HW216074   3.783   3.733  10.807  2.3264 -0.5629  2.4194
 1480SOL     OW16075   3.531   2.596   5.683  0.3070  0.4474  0.0465
 1480SOL    HW116076   3.508   2.637   5.599 -0.9159  0.2381  0.2762
 1480SOL    HW216077   3.626   2.607   5.678  0.2743  1.4710  1.5509
 1481SOL     OW16078   4.142   3.856   3.193  0.1054 -0.5599  0.4836
 1481SOL    HW116079   4.229   3.822   3.175 -0.5000 -1.8978  0.1374
 1481SOL    HW216080   4.138   3.824   3.283 -0.0650 -1.7053  0.0648
 1482SOL     OW16081   4.636   4.034  13.184 -0.1623  0.2571  0.3348
 1482SOL    HW116082   4.609   3.966  13.246  2.9716 -1.9287 -0.6515
 1482SOL    HW216083   4.601   3.988  13.107 -3.0000 -0.3107  1.9636
 1483SOL     OW16084   1.836   3.131   6.752 -0.2047  0.6180 -0.3633
 1483SOL    HW116085   1.742   3.149   6.760 -0.5249 -0.7674 -0.9981
 1483SOL    HW216086   1.871   3.212   6.717  1.7620  0.2512  0.7706
 1484SOL     OW16087   0.565   3.801   9.691 -0.3221 -0.3053  0.2376
 1484SOL    HW116088   0.507   3.868   9.729 -0.8278  0.0653 -1.2111
 1484SOL    HW216089   0.602   3.771   9.774  1.2472 -1.1111 -0.7469
 1485SOL     OW16090   4.073   3.529   7.768 -0.4201 -0.0102 -0.7985
 1485SOL    HW116091   4.096   3.437   7.756  0.8605  0.1982  0.0630
 1485SOL    HW216092   4.099   3.556   7.680  1.6775  0.3202 -0.0744
 1486SOL     OW16093   0.422   2.771  12.596 -0.0245 -0.1952  0.0291
 1486SOL    HW116094   0.341   2.754  12.645 -1.5283  0.7581 -2.1353
 1486SOL    HW216095   0.421   2.867  12.597 -1.5722 -0.1915 -2.0772
 1487SOL     OW16096   2.616   0.886   5.436  0.3448 -0.2949 -0.1433
 1487SOL    HW116097   2.654   0.798   5.437 -0.7113 -0.7568 -1.6556
 1487SOL    HW216098   2.595   0.895   5.343 -0.3987  0.6563  0.1135
 1488SOL     OW16099   0.369   3.265  15.056  0.0192 -0.0815 -0.1374
 1488SOL    HW116100   0.417   3.188  15.086  1.3349 -0.0541 -2.1792
 1488SOL    HW216101   0.432   3.296  14.991  1.1048 -1.4923  0.2521
 1489SOL     OW16102   4.033   1.351   3.305  0.2822  0.0755 -0.1762
 1489SOL    HW116103   3.993   1.341   3.391  0.7448 -0.6750 -0.0485
 1489SOL    HW216104   4.079   1.435   3.313  2.5954 -1.2337  0.2064
 1490SOL     OW16105   1.621   1.369   9.782 -0.3136 -0.0454  0.3621
 1490SOL    HW116106   1.653   1.312   9.852 -0.7435 -0.6003  0.1154
 1490SOL    HW216107   1.642   1.455   9.818  0.1822 -0.1943  0.4320
 1491SOL     OW16108   4.268   1.122  12.342  0.6130  0.2713  0.3264
 1491SOL    HW116109   4.263   1.113  12.437  0.7281 -2.4845  0.0983
 1491SOL    HW216110   4.214   1.200  12.332 -2.4785 -1.6657  1.6911
 1492SOL     OW16111   2.900   0.628  15.302  0.1754  0.1191  0.3539
 1492SOL    HW116112   2.949   0.700  15.342  1.9509 -2.8207  3.5000
 1492SOL    HW216113   2.924   0.624  15.210  0.4955  1.3713  0.3818
 1493SOL     OW16114   2.041   2.171   4.775  0.0237 -0.0997 -0.1329
 1493SOL    HW116115   1.966   2.211   4.732 -1.1485 -1.3903  0.7244
 1493SOL    HW216116   2.043   2.213   4.861 -0.0231  0.9180 -0.6310
 1494SOL     OW16117   1.568   0.723   6.734  0.1474  0.6889  0.5330
 1494SOL    HW116118   1.610   0.780   6.669  0.9332  2.3433  2.5042
 1494SOL    HW216119   1.648   0.690   6.775  0.4937  1.2708  0.3261
 1495SOL     OW16120   0.018   3.355   9.401 -0.3292  0.1312  0.0881
 1495SOL    HW116121   0.050   3.421   9.339 -1.7517  0.5679 -0.2062
 1495SOL    HW216122   0.064   3.274   9.382 -1.1549  0.1499 -2.0922
 1496SOL     OW16123   1.521   1.790   5.940  0.6650  1.0424  0.6209
 1496SOL    HW116124   1.429   1.771   5.958  0.7709  0.0490  0.1501
 1496SOL    HW216125   1.550   1.752   6.023  1.1555  0.7857  0.3337
 1497SOL     OW16126   3.372   0.742   0.351 -0.9328  0.0419  0.1925
 1497SOL    HW116127   3.420   0.659   0.348 -2.7886 -1.1010  2.0889
 1497SOL    HW216128   3.300   0.728   0.413 -2.4911  0.6943 -1.4486
 1498SOL     OW16129   3.387   4.602   0.870 -0.5253  0.1920 -0.4513
 1498SOL    HW116130   3.450   4.645   0.928 -1.8171 -0.0762  1.1513
 1498SOL    HW216131   3.391   4.510   0.897 -0.9429  0.1814 -0.4279
 1499SOL     OW16132   1.880   4.691   2.343 -0.2351 -0.4167  0.0611
 1499SOL    HW116133   1.975   4.689   2.359 -0.4513  1.0340  1.5230
 1499SOL    HW216134   1.875   0.039   2.298 -3.3933 -0.4131  0.4294
 1500SOL     OW16135   1.638   3.440  15.900  0.0304  0.1805 -0.2832
 1500SOL    HW116136   1.561   3.492  15.924 -0.4342 -0.7107  0.1636
 1500SOL    HW216137   1.674   3.477  15.819  2.3481  1.5136  1.3535
 1501SOL     OW16138   2.187   4.191   9.066 -0.5130  0.1081  0.6163
 1501SOL    HW116139   2.155   4.226   9.150 -0.0011 -0.8930  1.2236
 1501SOL    HW216140   2.246   4.263   9.046 -0.6221 -0.2867 -1.0946
 1502SOL     OW16141   0.437   0.372   3.151 -0.5032  0.2215  0.2491
 1502SOL    HW116142   0.346   0.369   3.120  0.3541 -1.0282 -2.1272
 1502SOL    HW216143   0.480   0.430   3.089  0.7941 -1.6028 -0.5741
 1503SOL     OW16144   4.111   1.461   4.509  0.2485  0.8352 -0.3163
 1503SOL    HW116145   4.157   1.536   4.471  0.6427  0.1287 -1.2198
 1503SOL    HW216146   4.143   1.396   4.448  2.9331  0.9613  0.9591
 1504SOL     OW16147   3.846   3.851   8.761  0.2595 -0.2017 -0.1822
 1504SOL    HW116148   3.778   3.870   8.696 -0.2235 -2.0415 -0.1878
 1504SOL    HW216149   3.826   3.924   8.821  1.2449  0.3681 -0.5472
 1505SOL     OW16150   4.495   2.399  13.170  0.5765 -0.0708  0.1146
 1505SOL    HW116151   4.456   2.437  13.091  0.4873  0.3509  0.3585
 1505SOL    HW216152   4.424   2.338  13.188  0.3537  0.1290 -0.0950
 1506SOL     OW16153   1.831   3.316   3.849 -0.0697  0.1471 -0.3746
 1506SOL    HW116154   1.742   3.284   3.859 -0.8046  2.2444 -0.3637
 1506SOL    HW216155   1.854   3.273   3.766  0.2730 -1.2741  0.4557
 1507SOL     OW16156   1.010   3.904   4.869 -0.2496  0.3684 -0.2271
 1507SOL    HW116157   1.099   3.933   4.847 -0.4867  0.8110 -0.6070
 1507SOL    HW216158   1.019   3.859   4.953 -0.6832  0.6096 -0.0561
 1508SOL     OW16159   1.149   4.008  13.386  0.0831 -0.3727  0.1949
 1508SOL    HW116160   1.163   4.100  13.365 -1.1431  0.1189  1.5368
 1508SOL    HW216161   1.239   3.976  13.389  1.0710  2.3744 -0.4144
 1509SOL     OW16162   2.167   0.325   3.041 -0.5357 -0.2288 -0.3244
 1509SOL    HW116163   2.076   0.325   3.071 -0.6740  0.3176 -0.7468
 1509SOL    HW216164   2.210   0.283   3.115  1.3168  1.6205 -0.3380
 1510SOL     OW16165   3.108   4.052   4.581  0.6400  0.1154  0.2098
 1510SOL    HW116166   3.131   4.134   4.536 -0.2507  0.6231  0.6732
 1510SOL    HW216167   3.059   4.099   4.649  0.0960  0.2039 -0.2428
 1511SOL     OW16168   2.231   0.634   7.953 -0.2367  0.1863 -0.1148
 1511SOL    HW116169   2.205   0.557   7.903  0.6264 -0.0124 -0.2557
 1511SOL    HW216170   2.143   0.667   7.974 -0.0538  1.2244 -0.9944
 1512SOL     OW16171   1.726   2.900   7.141 -0.6538 -0.3060  0.6586
 1512SOL    HW116172   1.666   2.913   7.067  0.4754  4.3148  0.5608
 1512SOL    HW216173   1.774   2.983   7.134 -2.4066  0.6561 -0.1718
 1513SOL     OW16174   2.922   0.862   3.510 -0.4264  0.4603 -0.0176
 1513SOL    HW116175   2.887   0.922   3.445  2.6718  0.8156 -1.3479
 1513SOL    HW216176   3.012   0.894   3.517 -0.5297  0.6161  0.5995
 1514SOL     OW16177   3.751   2.548  12.826 -0.9331 -0.0720  0.0984
 1514SOL    HW116178   3.673   2.491  12.829 -0.3627 -0.7227  2.8368
 1514SOL    HW216179   3.801   2.501  12.893  0.0006 -0.2999 -0.7633
 1515SOL     OW16180   3.171   0.393   5.988  0.3451 -0.4931  1.0535
 1515SOL    HW116181   3.117   0.399   5.910  1.4100  1.7122  0.4781
 1515SOL    HW216182   3.229   0.464   5.961  0.9706 -2.0147 -1.5581
 1516SOL     OW16183   4.105   0.930  15.317  0.0001  0.1029 -0.1673
 1516SOL    HW116184   4.181   0.873  15.329 -0.0770 -0.3340 -1.8447
 1516SOL    HW216185   4.144   1.016  15.301 -0.2178  0.7661  2.7660
 1517SOL     OW16186   0.616   1.626   2.504 -0.1073  0.1078 -0.0225
 1517SOL    HW116187   0.574   1.544   2.531  1.5778 -0.5294  0.6701
 1517SOL    HW216188   0.684   1.582   2.452  0.9023 -1.0155  2.2298
 1518SOL     OW16189   0.310   1.550  13.012  0.4499  0.1154  0.2605
 1518SOL    HW116190   0.308   1.621  12.947 -0.1415 -0.2666 -0.1340
 1518SOL    HW216191   0.221   1.516  13.015  1.0279 -1.3668  0.3410
 1519SOL     OW16192   2.205   1.397   4.964  0.0003  0.3560  0.1785
 1519SOL    HW116193   2.300   1.405   4.957  0.3093 -0.7016  3.1548
 1519SOL    HW216194   2.191   1.350   4.881 -0.0771  1.0612 -0.2086
 1520SOL     OW16195   1.687   4.213   8.805 -0.4238 -0.2337  0.5146
 1520SOL    HW116196   1.774   4.206   8.843 -0.2729  2.0253  0.5950
 1520SOL    HW216197   1.707   4.262   8.726 -2.9873 -0.4967 -0.3181
 1521SOL     OW16198   1.725   2.437   8.571 -0.6472  0.0626  0.3439
 1521SOL    HW116199   1.785   2.472   8.506  0.5774 -3.0114 -0.1614
 1521SOL    HW216200   1.789   2.369   8.594 -1.1202 -0.8953 -1.1901
 1522SOL     OW16201   3.603   2.203   3.666 -0.3352  0.0737  0.2303
 1522SOL    HW116202   3.569   2.261   3.734 -1.9248  0.0357 -0.5307
 1522SOL    HW216203   3.532   2.139   3.655 -0.5231 -0.1933  3.0113
 1523SOL     OW16204   4.456   3.201   4.746  0.6927 -0.1858  0.1018
 1523SOL    HW116205   4.450   3.201   4.841 -0.6127  2.2495  0.0094
 1523SOL    HW216206   4.526   3.138   4.726  0.4068 -1.0409  1.7725
 1524SOL     OW16207   3.996   3.317   4.304  0.7092 -0.4194  0.7366
 1524SOL    HW116208   3.935   3.258   4.259  0.3927  0.7390 -0.3546
 1524SOL    HW216209   3.947   3.337   4.383 -1.9593  1.4253 -1.3804
 1525SOL     OW16210   1.182   4.229   6.488 -0.3954 -0.5297 -0.3668
 1525SOL    HW116211   1.099   4.277   6.487 -0.7569 -1.1223  1.0450
 1525SOL    HW216212   1.153   4.139   6.476 -2.6021 -0.0341  1.2107
 1526SOL     OW16213   2.254   1.491   4.408 -0.0206  0.3862 -0.4839
 1526SOL    HW116214   2.219   1.539   4.334  0.8491 -0.0545 -1.1781
 1526SOL    HW216215   2.237   1.401   4.379 -0.5005  0.3242 -0.0093
 1527SOL     OW16216   1.524   0.655   8.195  0.4469  0.4923 -0.3372
 1527SOL    HW116217   1.516   0.637   8.289  0.7479  0.5124 -0.3059
 1527SOL    HW216218   1.542   0.748   8.205  1.7234  0.0127  1.8793
 1528SOL     OW16219   2.171   4.280  11.292  0.4329 -0.0278  0.4558
 1528SOL    HW116220   2.086   4.306  11.328  1.3215  2.4728  0.7740
 1528SOL    HW216221   2.226   4.346  11.335 -1.4381  1.9441 -0.1730
 1529SOL     OW16222   1.686   3.967   7.657 -0.1783  0.5377  0.4044
 1529SOL    HW116223   1.608   3.911   7.659  2.3328 -2.9846 -1.8585
 1529SOL    HW216224   1.749   3.898   7.637 -0.4309  0.1591  0.9017
 1530SOL     OW16225   1.426   2.015   3.519  0.1745  0.0799 -0.2444
 1530SOL    HW116226   1.386   2.049   3.440  2.7090 -0.0367 -1.5738
 1530SOL    HW216227   1.395   2.085   3.576  1.8066 -0.2602  1.0808
 1531SOL     OW16228   3.211   0.427   5.023  0.6835  0.0350  0.0825
 1531SOL    HW116229   3.273   0.386   5.083  1.6635 -0.2563 -1.1386
 1531SOL    HW216230   3.209   0.520   5.046 -0.5274  0.0214  0.0619
 1532SOL     OW16231   1.891   3.303   6.234 -0.0378 -0.0403 -0.0206
 1532SOL    HW116232   1.937   3.342   6.309  0.4917 -1.7237  0.5245
 1532SOL    HW216233   1.949   3.323   6.160  0.5123  0.1654  0.4607
 1533SOL     OW16234   3.324   1.393  15.026  0.3141 -0.2625  0.1598
 1533SOL    HW116235   3.416   1.381  15.001 -0.1699  0.7543 -2.1343
 1533SOL    HW216236   3.323   1.485  15.001  0.0691 -0.4184 -0.4199
 1534SOL     OW16237   1.048   0.047   3.377 -0.1238  0.8315 -0.4201
 1534SOL    HW116238   0.981   0.101   3.418 -0.3194 -0.8303  1.4487
 1534SOL    HW216239   1.106   0.030   3.451  1.1852  1.2569 -1.3406
 1535SOL     OW16240   4.406   4.655   2.608 -0.9486 -0.1582 -0.0859
 1535SOL    HW116241   4.391   0.011   2.631 -1.0641 -0.1283 -0.2772
 1535SOL    HW216242   4.317   4.624   2.596 -1.3919  1.1233 -0.1129
 1536SOL     OW16243   1.061   2.919  11.878 -0.1674 -0.6216  0.3423
 1536SOL    HW116244   1.038   3.001  11.922 -2.2677 -1.4255  0.7380
 1536SOL    HW216245   1.088   2.946  11.790  0.4938 -1.4031  0.3069
 1537SOL     OW16246   3.849   2.460   6.905 -0.4775  0.1872 -0.3210
 1537SOL    HW116247   3.855   2.519   6.830 -1.6929 -1.1300 -1.4505
 1537SOL    HW216248   3.880   2.518   6.974 -0.1943 -1.1024  0.6336
 1538SOL     OW16249   1.219   0.713  10.454  0.0533 -0.5501 -0.4048
 1538SOL    HW116250   1.177   0.798  10.466  1.0439 -0.3978  1.9974
 1538SOL    HW216251   1.247   0.727  10.363 -0.3204  1.9055 -0.1477
 1539SOL     OW16252   0.064   2.320  13.581 -0.3010  0.3938 -0.6928
 1539SOL    HW116253   0.032   2.409  13.562  1.5127  1.3261  0.6413
 1539SOL    HW216254   0.053   2.322  13.676  0.4297 -0.6216 -0.5922
 1540SOL     OW16255   0.227   0.140  15.440  0.6359  0.4314  0.6295
 1540SOL    HW116256   0.270   0.200  15.501  0.4770  0.9047  0.2733
 1540SOL    HW216257   0.190   0.068  15.491 -1.0655 -0.5557 -1.9928
 1541SOL     OW16258   1.377   1.674   1.737  0.0972 -0.0627  0.0145
 1541SOL    HW116259   1.344   1.668   1.826  0.7661  0.1315  0.2745
 1541SOL    HW216260   1.347   1.590   1.701  0.6136 -1.1351  2.0534
 1542SOL     OW16261   2.573   0.712   2.453  0.2056 -0.8106  0.6293
 1542SOL    HW116262   2.634   0.688   2.384 -0.3966  2.5950 -1.0799
 1542SOL    HW216263   2.498   0.659   2.427  0.0124 -0.3934  0.3450
 1543SOL     OW16264   2.268   0.804  14.739  0.2212  0.0682  0.1118
 1543SOL    HW116265   2.266   0.858  14.818 -0.8478  0.3398 -0.1013
 1543SOL    HW216266   2.180   0.766  14.746 -0.8043  2.3960 -0.0930
 1544SOL     OW16267   2.937   4.127   8.115 -0.5455 -0.6047 -0.3714
 1544SOL    HW116268   2.891   4.110   8.033  1.5631  1.2788 -1.9547
 1544SOL    HW216269   2.919   4.053   8.172 -2.6463  1.4432  1.6226
 1545SOL     OW16270   1.781   1.777   7.726  0.2424  0.2367 -0.0290
 1545SOL    HW116271   1.707   1.829   7.757 -1.1970 -1.7634 -0.1437
 1545SOL    HW216272   1.821   1.832   7.658  0.3508 -1.0352 -0.9769
 1546SOL     OW16273   3.669   1.017  13.928 -0.0123 -0.1849 -0.7142
 1546SOL    HW116274   3.756   0.990  13.956 -0.3482  0.0887  0.6114
 1546SOL    HW216275   3.693   1.107  13.903  1.7376 -0.6470 -0.7144
 1547SOL     OW16276   0.417   1.335   4.264  0.1091  0.7079  0.5062
 1547SOL    HW116277   0.379   1.394   4.329  0.7139  1.2101  0.4058
 1547SOL    HW216278   0.511   1.335   4.282  0.2545 -0.1157 -0.2163
 1548SOL     OW16279   0.951   4.319  14.598 -0.3804 -0.0592  0.4426
 1548SOL    HW116280   0.919   4.276  14.519 -0.5960 -0.6476  0.8478
 1548SOL    HW216281   0.916   4.253  14.659 -2.2018 -0.1448 -0.6974
 1549SOL     OW16282   4.358   1.899  12.976  0.6852 -1.3517 -0.5994
 1549SOL    HW116283   4.307   1.859  12.906 -1.2189  1.1521 -0.6479
 1549SOL    HW216284   4.306   1.864  13.049 -0.0604 -2.9688 -1.8945
 1550SOL     OW16285   1.205   1.150   7.994  0.1191  0.1469 -0.1760
 1550SOL    HW116286   1.111   1.140   7.980  0.0022 -0.2925  0.9081
 1550SOL    HW216287   1.231   1.229   7.946 -0.1291  1.0932  1.2255
 1551SOL     OW16288   1.516   2.434   8.402  0.7729  0.3871 -0.0074
 1551SOL    HW116289   1.575   2.414   8.329 -0.0748 -0.8679 -0.3596
 1551SOL    HW216290   1.576   2.438   8.476  0.9472 -1.6676 -0.0294
 1552SOL     OW16291   0.462   1.903  13.321 -0.6688  0.1202  0.5989
 1552SOL    HW116292   0.477   1.904  13.226 -0.1227 -0.4395  0.6869
 1552SOL    HW216293   0.463   1.809  13.337  0.4163 -0.0906 -0.7434
 1553SOL     OW16294   2.910   4.138  10.133 -0.2012 -0.2979 -0.6502
 1553SOL    HW116295   2.983   4.117  10.075  0.5867  0.0852  0.2059
 1553SOL    HW216296   2.877   4.052  10.159  0.0489 -0.7151 -1.7094
 1554SOL     OW16297   2.527   2.684   0.983 -0.3869 -1.3205  0.3420
 1554SOL    HW116298   2.486   2.637   1.055  0.3125  1.8296  2.8066
 1554SOL    HW216299   2.563   2.608   0.937  0.3105 -1.6851  1.4804
 1555SOL     OW16300   4.736   3.677   4.894 -0.9311  0.0550 -0.3671
 1555SOL    HW116301   0.089   3.698   4.867 -0.7804 -0.7028 -0.4525
 1555SOL    HW216302   4.726   3.586   4.867  3.4236 -0.5006 -0.1957
 1556SOL     OW16303   0.591   0.427   1.185 -0.2189 -0.1948 -0.1262
 1556SOL    HW116304   0.573   0.492   1.118 -1.0208 -1.8711 -1.5413
 1556SOL    HW216305   0.561   0.345   1.146 -0.7944 -1.8060  3.6560
 1557SOL     OW16306   2.846   2.432  17.006  0.2607  0.3673 -0.9361
 1557SOL    HW116307   2.880   2.472  17.086 -0.1353 -1.0433 -0.0746
 1557SOL    HW216308   2.811   2.513  16.967  1.1143  1.1827  0.0072
 1558SOL     OW16309   3.721   1.222   2.072 -0.5232  0.4631 -0.3520
 1558SOL    HW116310   3.674   1.305   2.067 -1.9567 -0.3887 -0.9917
 1558SOL    HW216311   3.666   1.181   2.138  0.7691 -1.7161 -0.6201
 1559SOL     OW16312   4.383   4.289   5.023 -0.2091  0.0099 -0.7786
 1559SOL    HW116313   4.320   4.248   5.082 -1.0600  0.8003 -1.1437
 1559SOL    HW216314   4.468   4.245   5.034 -0.2749 -0.4712 -2.2213
 1560SOL     OW16315   3.118   2.414  15.448 -0.1940  0.3383 -0.0219
 1560SOL    HW116316   3.060   2.350  15.407 -1.0417  1.1231 -0.0425
 1560SOL    HW216317   3.076   2.497  15.426  0.9723  0.7107 -0.8318
 1561SOL     OW16318   1.939   3.691   3.087  0.3825 -0.6011 -0.1701
 1561SOL    HW116319   1.912   3.628   3.154 -1.8312 -0.5293 -0.9834
 1561SOL    HW216320   1.876   3.677   3.017  0.7755 -3.9039  0.1671
 1562SOL     OW16321   0.807   2.348   8.562  0.1480 -0.0510 -0.0733
 1562SOL    HW116322   0.832   2.261   8.529  0.4235  0.4430 -1.1633
 1562SOL    HW216323   0.713   2.332   8.567  0.1493 -0.0877 -0.1560
 1563SOL     OW16324   1.044   1.266   3.104  0.4107  0.1749 -0.7021
 1563SOL    HW116325   0.992   1.333   3.059  0.3381 -0.6955 -1.9370
 1563SOL    HW216326   1.127   1.313   3.115  1.3118 -1.5473 -0.2119
 1564SOL     OW16327   2.158   1.235   3.809 -0.0914  0.1895 -0.2530
 1564SOL    HW116328   2.168   1.260   3.717  0.3582  1.4470  0.1319
 1564SOL    HW216329   2.110   1.309   3.846 -0.2909  0.0185 -0.1713
 1565SOL     OW16330   2.437   2.114  16.000 -0.1782 -0.4299 -0.4330
 1565SOL    HW116331   2.358   2.153  15.961  0.6071 -0.6220 -2.2197
 1565SOL    HW216332   2.506   2.161  15.953 -0.2769 -0.7356 -0.8885
 1566SOL     OW16333   4.361   0.634   6.319  0.2451 -0.3215 -0.2822
 1566SOL    HW116334   4.391   0.607   6.405 -1.1082  2.5278  1.1038
 1566SOL    HW216335   4.394   0.557   6.273  1.1066 -0.9204  1.3335
 1567SOL     OW16336   2.581   1.160   8.376 -0.2261  0.3520 -0.2299
 1567SOL    HW116337   2.656   1.196   8.330 -0.5020  0.5686 -0.5050
 1567SOL    HW216338   2.513   1.227   8.374 -0.7406 -0.2353 -1.9816
 1568SOL     OW16339   1.931   3.346   1.181  0.3002 -0.5550 -0.2847
 1568SOL    HW116340   1.898   3.274   1.127  1.1583 -0.7551 -0.5374
 1568SOL    HW216341   2.007   3.301   1.216 -0.1629 -0.1491  1.2610
 1569SOL     OW16342   2.900   0.580   7.170 -0.5841 -0.0679  0.6422
 1569SOL    HW116343   2.828   0.564   7.231 -0.6908 -1.4020  0.1589
 1569SOL    HW216344   2.852   0.619   7.097 -2.5155 -2.3568  0.7018
 1570SOL     OW16345   2.323   1.926   7.471 -0.8484 -0.4885  0.3849
 1570SOL    HW116346   2.410   1.963   7.455  0.1947 -2.0131  2.5141
 1570SOL    HW216347   2.282   1.975   7.542  0.6006 -0.6491  1.3291
 1571SOL     OW16348   1.088   1.111   7.658  0.1183 -0.2640  0.0146
 1571SOL    HW116349   1.048   1.079   7.739  0.1673  1.1617  0.5946
 1571SOL    HW216350   1.179   1.133   7.677  0.0823 -0.5919  0.5629
 1572SOL     OW16351   0.266   1.358   7.923 -0.1537 -0.0901 -0.5468
 1572SOL    HW116352   0.222   1.286   7.878  0.3481  0.0029 -1.1904
 1572SOL    HW216353   0.232   1.431   7.872  0.8521  0.5678 -0.2846
 1573SOL     OW16354   1.626   1.587  10.039  0.2504 -0.0602 -0.0569
 1573SOL    HW116355   1.540   1.629  10.047  0.7724  0.5130  2.4701
 1573SOL    HW216356   1.654   1.614   9.951  0.9045  1.9864  0.7863
 1574SOL     OW16357   3.925   4.159   2.607  0.5212 -0.2607 -0.0698
 1574SOL    HW116358   3.969   4.160   2.522  1.8484 -1.9290  0.6137
 1574SOL    HW216359   3.913   4.251   2.630 -0.1207 -0.2869 -0.2737
 1575SOL     OW16360   2.003   0.110   8.730  0.3785  0.0045  0.0821
 1575SOL    HW116361   2.017   0.015   8.732  0.4757  0.0149 -0.0714
 1575SOL    HW216362   2.069   0.133   8.795  0.2301 -1.4410  0.7406
 1576SOL     OW16363   4.288   0.430  16.006  0.2731  0.6710 -0.5774
 1576SOL    HW116364   4.351   0.500  16.022 -1.2991  1.9933 -0.1737
 1576SOL    HW216365   4.211   0.470  16.046 -2.1136 -2.8288 -1.6360
 1577SOL     OW16366   1.411   0.506   2.811  0.2388 -0.0729 -0.1513
 1577SOL    HW116367   1.487   0.498   2.754  1.6842  0.7705  1.6324
 1577SOL    HW216368   1.347   0.523   2.742 -0.2498 -0.2595  0.2521
 1578SOL     OW16369   2.161   2.685   5.621  0.1745 -0.0502 -0.0840
 1578SOL    HW116370   2.172   2.778   5.601 -1.7475  0.7398  2.5719
 1578SOL    HW216371   2.068   2.680   5.643 -0.7658 -0.1217 -4.0704
 1579SOL     OW16372   3.890   0.971   3.075 -0.1339 -0.0446 -0.4442
 1579SOL    HW116373   3.879   1.066   3.068 -1.1731 -0.3357 -2.6850
 1579SOL    HW216374   3.985   0.957   3.074 -0.0468  0.3294  2.8570
 1580SOL     OW16375   3.233   3.336   6.650 -0.4886 -0.7791  0.3783
 1580SOL    HW116376   3.203   3.255   6.691 -0.8260 -0.0749  1.5190
 1580SOL    HW216377   3.170   3.347   6.579  0.3435 -1.3226 -0.4483
 1581SOL     OW16378   4.022   3.085   6.879 -0.1873  0.0983 -0.4843
 1581SOL    HW116379   3.988   3.166   6.840 -0.2340  0.5533  0.5114
 1581SOL    HW216380   3.933   3.053   6.899 -1.4968  0.9901 -4.7063
 1582SOL     OW16381   2.664   0.240   8.712 -0.6835 -0.0571  0.1570
 1582SOL    HW116382   2.715   0.320   8.722 -1.6853  0.4587  1.1568
 1582SOL    HW216383   2.667   0.230   8.617  1.6849 -1.8915  0.4230
 1583SOL     OW16384   4.407   1.730  17.420  0.0410  0.0995 -0.3007
 1583SOL    HW116385   4.380   1.774  17.501 -3.0744 -1.4544 -0.5128
 1583SOL    HW216386   4.350   1.653  17.420  2.1175 -1.4603  0.8217
 1584SOL     OW16387   3.183   0.664   8.498 -0.3178  0.2045  0.0908
 1584SOL    HW116388   3.138   0.660   8.413 -0.0896 -2.7501  0.1057
 1584SOL    HW216389   3.266   0.707   8.479  0.1249 -0.4389  0.5426
 1585SOL     OW16390   0.754   4.230   3.099 -0.1729  0.0917  0.3608
 1585SOL    HW116391   0.674   4.277   3.073  1.5107  2.9569  0.3378
 1585SOL    HW216392   0.764   4.171   3.025  0.3244 -0.0383  0.5325
 1586SOL     OW16393   1.008   0.230  12.951  0.3655 -0.4591  0.1838
 1586SOL    HW116394   1.011   0.170  12.877 -0.9132  1.7826 -1.6820
 1586SOL    HW216395   0.968   0.314  12.926 -0.4233 -1.2975 -1.3622
 1587SOL     OW16396   3.324   0.306  15.370  0.8849  0.2960 -0.3596
 1587SOL    HW116397   3.366   0.363  15.434  0.7777 -0.3111  0.2570
 1587SOL    HW216398   3.282   0.374  15.319 -0.9466  1.5060  2.7146
 1588SOL     OW16399   4.645   1.166  15.147 -0.0419 -0.4170 -0.0892
 1588SOL    HW116400   4.692   1.083  15.138 -1.9707 -1.3162 -1.8489
 1588SOL    HW216401   4.709   1.234  15.128 -1.4777  1.8371  3.1358
 1589SOL     OW16402   1.637   4.244   5.553 -0.3339  0.2668 -0.0164
 1589SOL    HW116403   1.589   4.258   5.634 -0.0747  0.3633  0.1203
 1589SOL    HW216404   1.720   4.209   5.585 -0.4785  1.6204  1.7731
 1590SOL     OW16405   0.806   4.256   7.973 -0.1947 -0.3647  0.1046
 1590SOL    HW116406   0.724   4.220   8.005 -0.0387  0.2182  1.1803
 1590SOL    HW216407   0.875   4.208   8.017  0.3591  0.2895 -0.0315
 1591SOL     OW16408   0.817   3.519   8.090 -0.0222 -0.3136 -0.3360
 1591SOL    HW116409   0.785   3.567   8.166 -2.6048 -3.5017  0.5829
 1591SOL    HW216410   0.872   3.461   8.141  0.8928  1.1521  0.3396
 1592SOL     OW16411   4.640   1.323  16.134  0.3917 -0.5428 -0.5194
 1592SOL    HW116412   4.730   1.290  16.144  0.6971  0.3308 -0.4048
 1592SOL    HW216413   4.651   1.354  16.044 -3.3575 -0.2942 -0.9008
 1593SOL     OW16414   0.323   0.445   8.426 -0.5062 -0.3773  0.5580
 1593SOL    HW116415   0.258   0.386   8.464 -1.0731 -0.9158 -1.2505
 1593SOL    HW216416   0.354   0.379   8.365  0.9163  0.3342  0.5311
 1594SOL     OW16417   4.403   3.366   9.846 -0.1229 -0.6679  0.2616
 1594SOL    HW116418   4.308   3.377   9.847 -0.0591 -0.1985  1.3497
 1594SOL    HW216419   4.420   3.335   9.757  0.6505 -0.5932  0.3868
 1595SOL     OW16420   0.615   3.187   0.413  0.4989 -0.0437  0.6209
 1595SOL    HW116421   0.709   3.166   0.415  0.5083 -0.2497 -2.2935
 1595SOL    HW216422   0.577   3.113   0.366 -0.7619  0.7570  0.3741
 1596SOL     OW16423   0.982   2.885  14.176 -0.1024  0.7192  0.1547
 1596SOL    HW116424   0.923   2.848  14.242  1.3459  0.2483  1.1589
 1596SOL    HW216425   1.038   2.809  14.162 -1.9088 -0.8470  1.4800
 1597SOL     OW16426   3.981   3.488  12.112  0.2125  0.4787  0.2203
 1597SOL    HW116427   3.912   3.427  12.083  0.4481 -0.5044  1.7037
 1597SOL    HW216428   4.022   3.433  12.179 -1.5667 -2.2885 -0.9366
 1598SOL     OW16429   2.101   1.831   6.176 -0.3019 -0.1413 -0.1606
 1598SOL    HW116430   2.183   1.880   6.167  0.2550 -1.0609 -0.1191
 1598SOL    HW216431   2.063   1.849   6.090  0.3389  3.3062  0.2760
 1599SOL     OW16432   0.358   3.635   9.141 -0.8744 -0.3087 -0.2127
 1599SOL    HW116433   0.384   3.716   9.186  2.6261  0.5414 -3.7151
 1599SOL    HW216434   0.434   3.605   9.092 -0.3620  0.2839  0.2134
 1600SOL     OW16435   3.766   0.152   7.885  0.2871  0.0591  0.2373
 1600SOL    HW116436   3.780   0.225   7.945  0.3349 -0.7440  1.1967
 1600SOL    HW216437   3.841   0.163   7.826 -0.0378 -1.1776 -0.3962
 1601SOL     OW16438   4.090   1.857   4.904 -0.5353  0.1474  0.3263
 1601SOL    HW116439   4.163   1.875   4.846 -0.6537  1.8966  0.6907
 1601SOL    HW216440   4.130   1.892   4.984 -1.7083  0.9723  0.5708
 1602SOL     OW16441   1.874   0.569  13.623  0.1308 -0.7753  0.2548
 1602SOL    HW116442   1.940   0.502  13.604  1.3097 -0.1983  2.4167
 1602SOL    HW216443   1.902   0.634  13.558 -3.3167  1.6594  1.2134
 1603SOL     OW16444   2.254   0.637   6.245 -0.0103  0.5194 -0.3337
 1603SOL    HW116445   2.228   0.727   6.224  0.8599  0.9017  0.2154
 1603SOL    HW216446   2.170   0.606   6.278  0.5273  0.9058  1.3745
 1604SOL     OW16447   2.143   3.831   3.752 -0.0794  0.3438 -0.1672
 1604SOL    HW116448   2.177   3.746   3.723  0.0860  0.4580 -0.3082
 1604SOL    HW216449   2.160   3.815   3.845 -0.1212  2.9333  0.2839
 1605SOL     OW16450   3.825   3.200   2.214 -0.4997 -0.2217  0.0012
 1605SOL    HW116451   3.738   3.232   2.189 -0.1993 -1.1107 -2.1604
 1605SOL    HW216452   3.821   3.106   2.230  0.4102 -0.3971 -0.8051
 1606SOL     OW16453   3.194   0.429   0.376  0.4795 -0.2269  0.0228
 1606SOL    HW116454   3.188   0.500   0.440 -1.0948 -0.7513  0.4387
 1606SOL    HW216455   3.286   0.443   0.353  0.0797  0.4762 -1.1777
 1607SOL     OW16456   3.981   4.309  15.795  0.0366  0.6808  0.0728
 1607SOL    HW116457   3.893   4.275  15.779 -0.0298  0.1150  1.6676
 1607SOL    HW216458   4.028   4.281  15.716 -2.3308  1.3301 -1.5660
 1608SOL     OW16459   3.354   1.248   4.352 -0.0482 -0.5061 -0.2793
 1608SOL    HW116460   3.322   1.316   4.293 -1.2122 -1.9146 -1.2609
 1608SOL    HW216461   3.364   1.169   4.298 -1.5123 -1.1816  0.4404
 1609SOL     OW16462   0.219   0.223   0.180 -0.1697  0.3618 -0.4809
 1609SOL    HW116463   0.295   0.275   0.154 -1.4002  1.8086 -1.1772
 1609SOL    HW216464   0.194   0.191   0.093  0.5549  0.4005 -0.7026
 1610SOL     OW16465   3.913   2.784   1.969  0.0305 -0.5204  0.4219
 1610SOL    HW116466   3.961   2.702   1.974 -0.5304 -0.8608  0.1867
 1610SOL    HW216467   3.844   2.765   1.905 -0.0387  1.6367 -0.1606
 1611SOL     OW16468   3.957   4.702   7.098  1.0268  0.7532 -0.1165
 1611SOL    HW116469   3.989   0.048   7.062  3.5223 -0.0661  0.1723
 1611SOL    HW216470   4.030   4.645   7.075  0.9762  0.9584 -0.7907
 1612SOL     OW16471   4.603   1.405   9.157  0.1735  0.0344 -0.5599
 1612SOL    HW116472   4.597   1.402   9.253  0.0703  0.5609 -0.5507
 1612SOL    HW216473   4.617   1.311   9.149  1.0437  0.0752  0.4396
 1613SOL     OW16474   3.835   1.024   7.520  0.0699  0.0256  0.1219
 1613SOL    HW116475   3.801   1.113   7.519 -0.8369 -0.3198 -0.3624
 1613SOL    HW216476   3.814   0.986   7.434  3.3106  0.3807 -0.8225
 1614SOL     OW16477   0.022   4.198  17.743  0.2089  0.0955  0.0140
 1614SOL    HW116478   0.082   4.270  17.722  1.2718 -0.6966  0.3393
 1614SOL    HW216479   0.077   4.122  17.724  0.3526 -0.0925  1.1832
 1615SOL     OW16480   4.065   1.758  14.427 -0.0611 -0.3520  0.4082
 1615SOL    HW116481   3.975   1.775  14.397  0.2122 -1.5053 -1.0787
 1615SOL    HW216482   4.103   1.845  14.419 -2.1355  0.6241  0.9847
 1616SOL     OW16483   3.478   3.607   7.003 -0.3132 -0.1143 -0.2792
 1616SOL    HW116484   3.569   3.634   7.001 -0.4788  0.5693  0.9052
 1616SOL    HW216485   3.479   3.522   6.958 -0.4545 -0.8191  1.0410
 1617SOL     OW16486   1.892   0.054   5.083 -0.3743  0.5248 -0.1196
 1617SOL    HW116487   1.844   0.128   5.122  0.0848  1.1115 -0.6621
 1617SOL    HW216488   1.823   4.727   5.101  1.3694 -0.6067  2.5637
 1618SOL     OW16489   4.104   0.378   5.316 -0.4755 -0.5718  0.1524
 1618SOL    HW116490   4.011   0.362   5.329 -0.3867 -2.6529 -1.8607
 1618SOL    HW216491   4.115   0.355   5.224  0.2256 -3.7647  1.0586
 1619SOL     OW16492   2.265   4.120  11.564  0.5071  0.2344  0.2608
 1619SOL    HW116493   2.299   4.209  11.576  1.2094  0.2043 -1.5193
 1619SOL    HW216494   2.211   4.105  11.642  0.1909  0.7962  0.1487
 1620SOL     OW16495   0.511   2.943   6.148  0.4695  0.1006  0.2400
 1620SOL    HW116496   0.491   2.855   6.180  0.4907 -0.0649 -0.2054
 1620SOL    HW216497   0.554   2.977   6.226 -1.1879 -0.1646  1.2531
 1621SOL     OW16498   3.566   2.720   1.492 -0.3162 -0.0478  0.4254
 1621SOL    HW116499   3.625   2.645   1.501 -0.8561 -0.7551 -1.8257
 1621SOL    HW216500   3.524   2.715   1.577  0.9374  1.7237  1.1535
 1622SOL     OW16501   4.123   4.004   3.464 -0.5955 -0.3073  0.0708
 1622SOL    HW116502   4.102   4.093   3.434  0.1800 -0.0547  0.2684
 1622SOL    HW216503   4.189   4.023   3.531 -2.5265 -0.3202  1.9693
 1623SOL     OW16504   0.678   2.328   4.337 -0.1568  0.0521 -0.3802
 1623SOL    HW116505   0.705   2.364   4.252  2.6079 -1.7711 -0.2395
 1623SOL    HW216506   0.587   2.357   4.350  0.5932  2.0007  0.5487
 1624SOL     OW16507   4.425   2.777   3.794  0.7666  0.1483  0.0980
 1624SOL    HW116508   4.489   2.746   3.858 -1.5378  1.2697  2.9280
 1624SOL    HW216509   4.472   2.858   3.774  0.5169  0.5087  0.9873
 1625SOL     OW16510   3.041   1.883   2.435  0.6749 -0.6748 -0.0345
 1625SOL    HW116511   3.038   1.822   2.508  0.5682  0.7298  1.1426
 1625SOL    HW216512   3.067   1.963   2.481 -1.2218  0.6008 -1.1753
 1626SOL     OW16513   3.493   2.812   4.729 -0.2890 -0.0757  0.0278
 1626SOL    HW116514   3.546   2.869   4.673 -1.0090 -0.7077 -1.2898
 1626SOL    HW216515   3.432   2.769   4.670  2.1550 -1.6234 -1.3634
 1627SOL     OW16516   0.677   4.434  14.814 -0.1305  0.3191 -0.5234
 1627SOL    HW116517   0.691   4.340  14.823  0.1684  0.6452  2.5864
 1627SOL    HW216518   0.768   4.459  14.800 -0.2727  0.8781 -0.4598
 1628SOL     OW16519   0.259   0.859   0.489  0.5761 -0.1843 -0.0414
 1628SOL    HW116520   0.165   0.849   0.505  0.0717  0.5389 -2.4689
 1628SOL    HW216521   0.260   0.793   0.419  3.2377  0.3064 -0.4376
 1629SOL     OW16522   2.072   0.901   3.113  0.6307 -0.6724 -0.7292
 1629SOL    HW116523   1.991   0.919   3.066 -0.4254 -0.6949  1.0610
 1629SOL    HW216524   2.047   0.907   3.206 -0.1712 -2.5035 -0.8196
 1630SOL     OW16525   4.676   4.602   6.634 -0.0755  0.2553 -0.6962
 1630SOL    HW116526   0.015   4.621   6.578 -0.0766  1.1302 -0.4022
 1630SOL    HW216527   4.710   4.612   6.723  3.4372 -3.3574 -1.5770
 1631SOL     OW16528   3.770   1.787   2.565  0.0726  0.2974  0.2615
 1631SOL    HW116529   3.730   1.713   2.611  0.0686  1.2705  1.8044
 1631SOL    HW216530   3.807   1.835   2.638  0.2088  2.8119 -1.4748
 1632SOL     OW16531   4.162   3.734   9.097  0.0396  0.1728  0.2047
 1632SOL    HW116532   4.252   3.765   9.091  0.1377 -0.0837  0.3644
 1632SOL    HW216533   4.170   3.661   9.160  0.9590  1.4060  1.5218
 1633SOL     OW16534   0.321   2.461  17.077  0.1574  0.3028 -0.3544
 1633SOL    HW116535   0.357   2.486  17.161 -0.6998 -0.6803  0.3159
 1633SOL    HW216536   0.367   2.379  17.058  2.5576  1.5321  0.1710
 1634SOL     OW16537   2.795   4.012   1.039  0.1897  0.2030 -0.3212
 1634SOL    HW116538   2.849   3.933   1.043  1.8638  1.4152  0.7955
 1634SOL    HW216539   2.729   3.997   1.107 -0.0325  0.7517 -0.4195
 1635SOL     OW16540   2.576   1.931   4.036 -0.4965  0.0103  0.3408
 1635SOL    HW116541   2.517   1.887   4.097 -1.7899  1.5716  0.1973
 1635SOL    HW216542   2.568   2.021   4.068 -0.4262  0.0400  0.2772
 1636SOL     OW16543   1.302   1.056   7.368  0.0489  0.3606  0.2711
 1636SOL    HW116544   1.267   1.117   7.433 -0.0833  1.3645 -0.7479
 1636SOL    HW216545   1.372   1.114   7.339  1.6243 -0.7263  1.8737
 1637SOL     OW16546   2.324   2.796   4.931  0.8607  0.6430 -0.2142
 1637SOL    HW116547   2.413   2.830   4.941  0.9956  0.1027  0.4654
 1637SOL    HW216548   2.272   2.876   4.930  2.0301  1.4131  0.8721
 1638SOL     OW16549   0.992   4.591   7.915  0.0717  0.0979  0.3367
 1638SOL    HW116550   0.956   4.516   7.869 -1.1688  1.0112 -0.1871
 1638SOL    HW216551   1.003   4.555   8.003  1.8325 -1.9190 -0.7142
 1639SOL     OW16552   4.428   4.122  12.118 -0.0708 -0.0578 -0.2361
 1639SOL    HW116553   4.499   4.103  12.180  0.1995  0.6921 -0.3190
 1639SOL    HW216554   4.423   4.217  12.117 -0.7852 -0.0981 -0.2573
 1640SOL     OW16555   0.687   4.674   6.452 -0.1802  0.7564 -0.4536
 1640SOL    HW116556   0.724   0.011   6.402 -1.8327  1.0275 -1.2792
 1640SOL    HW216557   0.651   4.726   6.524  2.3942  0.0241  1.3459
 1641SOL     OW16558   1.810   4.403   3.280 -0.7413 -0.4838  0.4511
 1641SOL    HW116559   1.837   4.333   3.220 -0.5478  0.3685 -0.4662
 1641SOL    HW216560   1.896   4.436   3.305 -0.5663 -1.1823  0.7818
 1642SOL     OW16561   0.733   2.668  16.624 -0.2816 -0.0656  0.1277
 1642SOL    HW116562   0.656   2.707  16.581 -1.4550 -2.1224  0.3481
 1642SOL    HW216563   0.712   2.696  16.713  1.2725  0.8161  0.2064
 1643SOL     OW16564   4.148   4.503   2.697  0.0910  0.2111  0.7950
 1643SOL    HW116565   4.124   4.411   2.689  1.5296 -0.0930  0.0740
 1643SOL    HW216566   4.065   4.542   2.724 -0.9012 -0.9392 -0.5950
 1644SOL     OW16567   1.186   3.805  11.813  0.6561 -0.1229 -0.3552
 1644SOL    HW116568   1.119   3.749  11.852 -0.7350  0.8011 -1.4618
 1644SOL    HW216569   1.131   3.872  11.773 -2.8534 -1.5143  2.1442
 1645SOL     OW16570   3.222   2.321  13.041 -0.3348 -0.1056  0.1190
 1645SOL    HW116571   3.220   2.407  12.998  0.4445 -0.0305  0.2366
 1645SOL    HW216572   3.128   2.301  13.037 -0.4741  0.5026  0.2914
 1646SOL     OW16573   4.035   4.216   3.101  0.2985 -0.9604  0.7208
 1646SOL    HW116574   4.030   4.129   3.061  1.3256 -0.3909 -0.6611
 1646SOL    HW216575   3.974   4.256   3.039 -0.4104  0.9673  2.6832
 1647SOL     OW16576   1.858   2.921   6.575 -0.6701  0.0708  0.2624
 1647SOL    HW116577   1.828   2.941   6.664 -2.0839  4.4270 -1.2314
 1647SOL    HW216578   1.950   2.944   6.584 -1.3481  2.1121  1.9088
 1648SOL     OW16579   0.580   2.186  12.743  0.0887 -0.3175 -0.0056
 1648SOL    HW116580   0.547   2.096  12.732 -1.2339  0.3509 -1.4938
 1648SOL    HW216581   0.590   2.211  12.652  0.9648  2.3920  0.8460
 1649SOL     OW16582   2.361   0.254  11.240 -0.0419 -1.1321 -0.1120
 1649SOL    HW116583   2.412   0.240  11.160 -0.9308  0.6171 -0.9958
 1649SOL    HW216584   2.435   0.259  11.300 -0.9895 -1.3305  1.0757
 1650SOL     OW16585   0.902   2.074   9.481  0.0903  0.4159  0.1394
 1650SOL    HW116586   0.977   2.110   9.433 -0.1357 -1.0968 -1.3616
 1650SOL    HW216587   0.848   2.059   9.403  1.4123  1.9361 -1.0896
 1651SOL     OW16588   2.242   2.263   2.931 -0.0139 -0.4150 -0.2201
 1651SOL    HW116589   2.290   2.345   2.946  0.5713 -0.7096 -0.4739
 1651SOL    HW216590   2.184   2.249   3.006 -2.2399 -0.8769 -2.0392
 1652SOL     OW16591   3.279   2.403   3.765 -0.4970 -0.3012 -0.1137
 1652SOL    HW116592   3.250   2.466   3.831  0.3010 -0.8590  0.7687
 1652SOL    HW216593   3.370   2.383   3.785 -0.3592  0.6542  0.2090
 1653SOL     OW16594   2.018   0.478   3.308  0.4232 -0.1215 -0.1787
 1653SOL    HW116595   2.019   0.541   3.236 -2.2668  1.0492  0.7841
 1653SOL    HW216596   1.956   0.409   3.283  0.0958 -0.2810  1.0316
 1654SOL     OW16597   2.462   4.131   6.008 -0.3711 -0.3284 -0.1839
 1654SOL    HW116598   2.418   4.203   5.962 -1.7905  0.6054  2.6576
 1654SOL    HW216599   2.495   4.071   5.941  2.9140  0.0069  1.1641
 1655SOL     OW16600   0.984   2.785   7.779 -0.4907 -0.2089  0.2636
 1655SOL    HW116601   1.064   2.764   7.826 -0.0861 -0.0123 -0.3332
 1655SOL    HW216602   0.940   2.830   7.851 -0.9102 -0.9428  0.4697
 1656SOL     OW16603   0.748   3.293  13.975  0.3109  0.4784  0.1862
 1656SOL    HW116604   0.686   3.272  14.046  2.0376 -2.8149  0.7322
 1656SOL    HW216605   0.707   3.233  13.913  1.8148 -0.0212 -0.2982
 1657SOL     OW16606   2.807   3.699   1.630 -0.2541 -0.4501 -0.1837
 1657SOL    HW116607   2.753   3.626   1.662 -2.3509  0.5382 -1.4919
 1657SOL    HW216608   2.813   3.752   1.710 -0.7125  0.7787 -0.9743
 1658SOL     OW16609   4.669   4.641   7.144 -0.2731  1.4013 -0.8575
 1658SOL    HW116610   4.598   4.701   7.121 -0.3387 -0.2444 -4.8900
 1658SOL    HW216611   4.634   4.608   7.227  1.6007 -0.7032 -0.9135
 1659SOL     OW16612   0.246   3.515   7.704 -0.1168  0.5310  0.6888
 1659SOL    HW116613   0.214   3.551   7.786 -1.6977 -1.1770  0.8329
 1659SOL    HW216614   0.328   3.469   7.721 -0.8374 -1.0894 -0.1829
 1660SOL     OW16615   0.974   3.027   3.626  0.2380 -0.2168  0.1021
 1660SOL    HW116616   0.933   3.109   3.652  0.0478  0.3947 -2.1595
 1660SOL    HW216617   0.938   2.964   3.688  0.3399 -1.6219 -1.2500
 1661SOL     OW16618   4.728   0.551  12.102 -0.1898 -0.6008 -0.5927
 1661SOL    HW116619   4.679   0.498  12.164  0.4447  0.8995  1.1972
 1661SOL    HW216620   4.683   0.516  12.025 -1.9202 -0.3379  0.2828
 1662SOL     OW16621   2.587   0.388   3.543 -0.3418  0.6903  0.3762
 1662SOL    HW116622   2.514   0.451   3.542  0.1827  1.2872 -0.5562
 1662SOL    HW216623   2.657   0.451   3.530 -1.2918  1.8130  0.6904
 1663SOL     OW16624   3.477   1.334  17.270 -0.3532  0.2925  0.3819
 1663SOL    HW116625   3.464   1.251  17.224  1.1583 -0.5866  1.5199
 1663SOL    HW216626   3.442   1.395  17.206 -0.4534 -1.2719 -1.0614
 1664SOL     OW16627   1.963   0.657   6.626  0.0394 -0.1861 -0.1017
 1664SOL    HW116628   1.991   0.591   6.563 -0.5754  0.2573 -0.8418
 1664SOL    HW216629   1.930   0.607   6.700  0.0950 -0.0277  0.0292
 1665SOL     OW16630   1.079   1.916   2.310  0.1395  0.1079 -0.6110
 1665SOL    HW116631   0.998   1.872   2.285  0.5675 -1.2732  0.4627
 1665SOL    HW216632   1.130   1.838   2.330  0.3445 -0.1696 -2.2388
 1666SOL     OW16633   1.883   0.671   3.107  0.3132  0.0984  0.2547
 1666SOL    HW116634   1.802   0.718   3.126 -1.3664 -2.8784  0.5573
 1666SOL    HW216635   1.886   0.691   3.013 -2.3154 -0.9846 -0.0523
 1667SOL     OW16636   0.818   3.911   8.203  0.5073  0.5015 -0.4926
 1667SOL    HW116637   0.895   3.933   8.256  2.1194 -1.4347 -1.9891
 1667SOL    HW216638   0.751   3.917   8.271 -0.1408 -1.5288 -0.9465
 1668SOL     OW16639   4.629   1.990   5.444 -0.2792  0.6665 -0.3075
 1668SOL    HW116640   4.672   1.905   5.454 -1.2124  0.2071 -0.1525
 1668SOL    HW216641   4.564   1.965   5.510 -1.7114 -0.5718 -2.1572
 1669SOL     OW16642   4.473   2.143   0.381 -0.1920 -0.3289 -0.2651
 1669SOL    HW116643   4.383   2.175   0.374  0.7950  2.4502 -0.2587
 1669SOL    HW216644   4.441   2.055   0.399  0.8935 -0.8427 -0.8990
 1670SOL     OW16645   1.587   3.543   9.932 -0.1837  0.1039  0.0079
 1670SOL    HW116646   1.679   3.520   9.943 -0.0179  1.4749  1.4913
 1670SOL    HW216647   1.569   3.598  10.008  2.4788 -0.2139  0.8812
 1671SOL     OW16648   3.827   0.406   5.275  0.0536  0.0666 -0.2500
 1671SOL    HW116649   3.747   0.390   5.224  0.6593  1.0875 -1.5530
 1671SOL    HW216650   3.839   0.494   5.238 -1.3365  1.0778  1.7439
 1672SOL     OW16651   3.257   0.795   7.105  0.2828 -0.1676  0.1350
 1672SOL    HW116652   3.175   0.752   7.080 -0.5773  0.9588  0.9995
 1672SOL    HW216653   3.261   0.778   7.199  2.3525  0.0955  0.0837
 1673SOL     OW16654   0.271   3.770   7.271 -0.1928  0.0381  0.2275
 1673SOL    HW116655   0.260   3.690   7.321 -1.2541  0.0989  0.0904
 1673SOL    HW216656   0.362   3.772   7.241  0.2449  1.8407  1.6808
 1674SOL     OW16657   0.752   0.898   2.034  0.5618 -0.5399 -0.0483
 1674SOL    HW116658   0.837   0.921   1.996 -0.5722  2.4425 -0.7971
 1674SOL    HW216659   0.689   0.958   1.994 -0.2121 -1.3369 -0.0202
 1675SOL     OW16660   0.296   1.342   3.942 -0.0389 -0.3660 -0.1075
 1675SOL    HW116661   0.377   1.291   3.936 -0.6822 -1.5828  1.8251
 1675SOL    HW216662   0.316   1.401   4.014  1.2110 -2.3699  1.1925
 1676SOL     OW16663   1.239   3.565   5.412  0.2502  0.3481  0.3243
 1676SOL    HW116664   1.258   3.472   5.416  1.1283  0.4533 -1.1904
 1676SOL    HW216665   1.158   3.579   5.460  0.1851  1.0003  0.0311
 1677SOL     OW16666   2.197   2.261   8.817  0.2083 -0.1645 -0.0125
 1677SOL    HW116667   2.213   2.330   8.753 -1.3240 -0.9856 -1.2794
 1677SOL    HW216668   2.253   2.290   8.889 -1.9377 -2.5404  2.6188
 1678SOL     OW16669   3.815   1.650   6.303 -0.3760 -0.0406  0.2852
 1678SOL    HW116670   3.843   1.733   6.343  2.2152 -0.1958 -1.1936
 1678SOL    HW216671   3.733   1.674   6.260  0.1124 -0.2147 -0.7274
 1679SOL     OW16672   4.389   3.610  10.908  0.0979  0.1437 -0.3885
 1679SOL    HW116673   4.392   3.544  10.839 -3.0726 -1.1266  0.6867
 1679SOL    HW216674   4.468   3.660  10.889  1.3192 -2.4502 -2.0492
 1680SOL     OW16675   4.350   1.743   6.589  0.5621 -0.0548  0.0333
 1680SOL    HW116676   4.390   1.825   6.616  3.0532 -1.1965 -0.1845
 1680SOL    HW216677   4.256   1.764   6.586  0.8023  1.2571  2.2394
 1681SOL     OW16678   0.911   1.385  12.857 -0.1946 -0.1229 -0.2628
 1681SOL    HW116679   0.970   1.351  12.789  0.4191  0.6033 -0.0911
 1681SOL    HW216680   0.870   1.304  12.886 -0.7715  0.6804  1.1319
 1682SOL     OW16681   4.114   2.110   9.435  0.9185 -0.3080 -0.1194
 1682SOL    HW116682   4.126   2.193   9.390 -1.1967  0.3484  0.5138
 1682SOL    HW216683   4.094   2.121   9.528 -1.5070 -1.5861 -0.4827
 1683SOL     OW16684   3.657   4.629   0.621 -0.0766 -0.1715  0.1421
 1683SOL    HW116685   3.607   4.574   0.560 -1.8582  1.1917  0.3733
 1683SOL    HW216686   3.585   4.691   0.633 -0.0898  0.4076 -2.9429
 1684SOL     OW16687   2.779   4.730   1.273 -0.1859  0.7550  0.0894
 1684SOL    HW116688   2.813   4.641   1.259  3.8372  2.2422  0.4284
 1684SOL    HW216689   2.759   4.719   1.366  1.0393  0.4644  0.3236
 1685SOL     OW16690   4.506   2.583   6.423 -0.3161 -0.4899 -0.3765
 1685SOL    HW116691   4.444   2.516   6.392  0.1831  0.4201 -3.3925
 1685SOL    HW216692   4.457   2.627   6.492  0.1617 -0.4861 -0.0423
 1686SOL     OW16693   2.009   3.854  15.769 -0.3838 -0.3302  0.0993
 1686SOL    HW116694   1.977   3.909  15.697  0.4252  0.6672  0.4943
 1686SOL    HW216695   1.940   3.861  15.834 -0.1157  0.6877  0.2809
 1687SOL     OW16696   2.080   2.665   2.868  0.1190  0.9360 -0.4912
 1687SOL    HW116697   2.101   2.596   2.931 -1.2682  2.2531  1.4430
 1687SOL    HW216698   1.987   2.658   2.847  0.3097 -0.0724 -0.9780
 1688SOL     OW16699   2.087   1.806   3.146  0.7702  0.5434 -0.1576
 1688SOL    HW116700   2.023   1.801   3.217  2.8608  0.4752  1.7399
 1688SOL    HW216701   2.067   1.884   3.094  0.9460  0.0685 -0.9441
 1689SOL     OW16702   2.328   3.703   2.089 -0.0025 -0.1861  0.4880
 1689SOL    HW116703   2.239   3.673   2.103 -0.5278  1.8182  1.4160
 1689SOL    HW216704   2.327   3.794   2.118  4.6389 -0.5344  1.7455
 1690SOL     OW16705   2.017   3.511   5.625  0.0150  0.6351 -0.3546
 1690SOL    HW116706   1.968   3.458   5.563  0.7563  0.4177 -0.7540
 1690SOL    HW216707   1.946   3.555   5.672  0.0653  2.6985 -2.2274
 1691SOL     OW16708   2.849   2.252   3.885 -0.1850 -0.1223  0.5457
 1691SOL    HW116709   2.818   2.228   3.973  1.8449 -0.4144  1.1767
 1691SOL    HW216710   2.914   2.320   3.901 -0.4533  0.1287  0.5530
 1692SOL     OW16711   3.798   0.488   1.818  0.0706  0.2622  0.3312
 1692SOL    HW116712   3.881   0.456   1.780 -0.4738 -0.2616 -0.4103
 1692SOL    HW216713   3.748   0.521   1.744 -0.2564  0.9206  0.8543
 1693SOL     OW16714   4.538   3.087   1.915 -0.6162 -0.3971  0.3435
 1693SOL    HW116715   4.478   3.043   1.975  2.6476 -0.0859  3.8069
 1693SOL    HW216716   4.518   3.043   1.832  1.1570 -0.1635 -0.2151
 1694SOL     OW16717   3.811   2.295  13.324 -0.2940 -0.0908  0.3339
 1694SOL    HW116718   3.863   2.215  13.314 -1.0168 -0.4335 -0.7120
 1694SOL    HW216719   3.885   2.350  13.349  2.1666 -2.8452 -0.8298
 1695SOL     OW16720   0.419   4.695   5.156 -0.3045 -0.0600 -0.0333
 1695SOL    HW116721   0.475   0.027   5.191  0.0108 -0.3877  0.0992
 1695SOL    HW216722   0.405   4.634   5.229 -0.0927  1.6907  1.4504
 1696SOL     OW16723   2.835   0.387  12.907 -0.2992  0.0505  0.2206
 1696SOL    HW116724   2.875   0.459  12.956  0.5873  0.4461 -1.0553
 1696SOL    HW216725   2.885   0.308  12.930 -2.4825 -1.5981 -0.7175
 1697SOL     OW16726   1.657   0.847   3.148  0.8447  0.1621 -1.3082
 1697SOL    HW116727   1.587   0.817   3.090 -0.4121  0.6984 -0.0665
 1697SOL    HW216728   1.607   0.858   3.228  2.4427  0.4015 -0.3396
 1698SOL     OW16729   1.967   1.795  16.602 -0.6468  0.0921 -0.6744
 1698SOL    HW116730   2.024   1.872  16.599 -1.6951  0.9233  0.1538
 1698SOL    HW216731   2.036   1.730  16.615 -0.5307  0.9357  3.0290
 1699SOL     OW16732   2.173   4.570  13.942  0.0008  0.1652  0.1122
 1699SOL    HW116733   2.099   4.573  13.882 -0.3188 -1.7830  0.4257
 1699SOL    HW216734   2.248   4.568  13.882 -0.1435 -2.6774  0.0521
 1700SOL     OW16735   0.584   3.400   5.526 -0.3044  1.2432  0.4807
 1700SOL    HW116736   0.506   3.433   5.570  0.7334  3.2503  0.8260
 1700SOL    HW216737   0.583   3.310   5.558 -2.2366  1.6630  1.5693
 1701SOL     OW16738   0.403   4.597   6.014  0.4569  0.6088  0.2939
 1701SOL    HW116739   0.477   4.657   6.017  1.3288 -0.4353 -0.2944
 1701SOL    HW216740   0.388   4.590   5.919 -1.6742 -3.0408  0.8679
 1702SOL     OW16741   1.947   1.004  17.718 -0.3225 -0.0933  0.0034
 1702SOL    HW116742   1.994   0.982  17.638 -0.1670 -1.1027  0.3744
 1702SOL    HW216743   1.944   1.099  17.721 -0.0750 -0.0456 -1.5551
 1703SOL     OW16744   3.644   0.430   2.013 -0.6788  0.1310 -0.3466
 1703SOL    HW116745   3.705   0.452   1.944 -1.5150  0.1739 -1.0777
 1703SOL    HW216746   3.604   0.515   2.033  1.7628  1.3109 -0.5065
 1704SOL     OW16747   2.928   1.887   2.003 -0.0537 -0.0789 -0.5665
 1704SOL    HW116748   2.915   1.978   1.975  0.3405  0.6284  1.4875
 1704SOL    HW216749   3.011   1.895   2.051 -2.8273  0.6095  4.0684
 1705SOL     OW16750   1.103   3.526  14.377 -0.1729  0.0747  0.1043
 1705SOL    HW116751   1.117   3.541  14.471  2.3507  1.4179 -0.4914
 1705SOL    HW216752   1.034   3.590  14.361 -0.6791  0.0296  2.0925
 1706SOL     OW16753   1.088   0.121   6.055  0.4607  0.0821  0.3198
 1706SOL    HW116754   1.147   0.084   6.121  0.6931  0.2900  0.2267
 1706SOL    HW216755   1.055   0.051   5.998  0.1775  1.0834 -0.7452
 1707SOL     OW16756   1.966   0.302   8.067 -0.0618  0.0087 -0.5641
 1707SOL    HW116757   1.987   0.381   8.117 -1.2968  0.2306 -0.3894
 1707SOL    HW216758   2.047   0.255   8.087  0.6605  0.4106 -2.6357
 1708SOL     OW16759   4.053   2.486  13.326 -0.4543 -0.4722 -0.0475
 1708SOL    HW116760   3.995   2.544  13.277 -0.7000 -1.5267 -0.9821
 1708SOL    HW216761   4.069   2.537  13.406 -0.7909 -0.1305 -0.2024
 1709SOL     OW16762   0.869   4.416   6.985 -0.0406 -0.6053 -0.3115
 1709SOL    HW116763   0.951   4.423   7.035 -0.0047 -1.5416 -0.2343
 1709SOL    HW216764   0.813   4.384   7.055 -1.0964 -0.3411 -1.0363
 1710SOL     OW16765   0.934   3.438   9.090 -0.4624  0.4080 -0.0589
 1710SOL    HW116766   0.987   3.359   9.097  1.0644  1.4207 -0.1508
 1710SOL    HW216767   0.922   3.458   9.183  0.7594 -0.1934  0.2215
 1711SOL     OW16768   0.662   2.010   6.633 -0.0011  0.0732  0.1036
 1711SOL    HW116769   0.595   1.958   6.676  0.8525 -1.2969 -0.2078
 1711SOL    HW216770   0.740   1.955   6.628 -0.8872 -1.1677  0.1075
 1712SOL     OW16771   3.776   3.357   5.715 -0.0233  0.1468  0.1278
 1712SOL    HW116772   3.867   3.330   5.710  1.0941  3.8447  0.6352
 1712SOL    HW216773   3.760   3.392   5.627  0.2580  1.6223  0.6655
 1713SOL     OW16774   2.798   0.358   1.693  0.4937  0.7168 -0.2840
 1713SOL    HW116775   2.763   0.447   1.699  0.5301  0.7430 -0.4893
 1713SOL    HW216776   2.891   0.375   1.713  1.0900 -0.1279 -2.3477
 1714SOL     OW16777   1.401   2.287   7.397  0.1885  0.5024 -0.4405
 1714SOL    HW116778   1.328   2.310   7.455 -0.2760  0.1132 -0.8627
 1714SOL    HW216779   1.419   2.376   7.365 -0.2571  0.8988  0.4085
 1715SOL     OW16780   3.534   3.909   5.980  0.0878 -0.6357  0.2969
 1715SOL    HW116781   3.492   3.944   6.058  2.1601 -0.4661  1.3303
 1715SOL    HW216782   3.534   3.813   5.989  0.7031 -0.6844 -0.1815
 1716SOL     OW16783   4.297   1.826  17.652 -0.4721 -0.1372 -0.1057
 1716SOL    HW116784   4.316   1.919  17.661 -0.3420 -0.3059  1.3937
 1716SOL    HW216785   4.204   1.826  17.675 -0.7121 -1.0718 -1.1077
 1717SOL     OW16786   4.623   0.310   4.504 -1.2133  0.1467 -0.4210
 1717SOL    HW116787   4.558   0.261   4.453 -0.5047 -1.3638  0.1025
 1717SOL    HW216788   4.639   0.397   4.469 -0.1194  1.2577  2.7996
 1718SOL     OW16789   4.251   2.620   5.336  0.2081 -0.2801  0.0705
 1718SOL    HW116790   4.307   2.631   5.413  1.8626 -2.0066 -0.8606
 1718SOL    HW216791   4.311   2.571   5.279 -2.3866 -1.5889 -1.5688
 1719SOL     OW16792   0.205   0.500   2.328 -0.0109 -0.5239  0.9029
 1719SOL    HW116793   0.261   0.461   2.396  0.5757 -0.1823  0.6127
 1719SOL    HW216794   0.189   0.422   2.275  0.2899  0.7639 -1.0879
 1720SOL     OW16795   3.365   4.672   9.893 -0.6392  0.1719 -0.1542
 1720SOL    HW116796   3.288   4.630   9.854  0.0912 -1.5507  0.2416
 1720SOL    HW216797   3.403   4.591   9.929 -1.5912 -0.4464 -0.5367
 1721SOL     OW16798   1.480   2.027  12.543  0.7871 -0.5666 -0.0855
 1721SOL    HW116799   1.532   2.078  12.605  0.2884  0.5420 -0.5688
 1721SOL    HW216800   1.445   1.965  12.607  2.5956  0.4163  1.8542
 1722SOL     OW16801   2.054   2.648   8.890 -0.1110 -0.2024  0.4029
 1722SOL    HW116802   2.138   2.615   8.921 -0.8038 -1.4119  1.0091
 1722SOL    HW216803   2.030   2.575   8.831 -0.1972  0.6237 -0.5887
 1723SOL     OW16804   4.282   1.029  13.158 -0.1336 -0.4489  0.7176
 1723SOL    HW116805   4.211   1.055  13.100  0.6897 -0.4750 -0.3184
 1723SOL    HW216806   4.287   1.107  13.213 -2.3258  0.7216 -0.7493
 1724SOL     OW16807   3.010   1.760   3.227  0.1594 -0.2464  0.0038
 1724SOL    HW116808   3.086   1.814   3.249 -0.1405 -0.1191  0.7297
 1724SOL    HW216809   3.051   1.674   3.244 -0.0181 -0.5656 -1.2375
 1725SOL     OW16810   3.862   4.734   2.570 -0.8253  0.2336 -0.4722
 1725SOL    HW116811   3.860   0.052   2.648  1.6129 -3.1635  1.9305
 1725SOL    HW216812   3.879   0.066   2.505  0.8139  0.3644  0.1128
 1726SOL     OW16813   3.122   2.258   5.335 -0.1819  0.1190  0.3272
 1726SOL    HW116814   3.165   2.308   5.403 -0.1411  2.3773 -1.3505
 1726SOL    HW216815   3.032   2.290   5.349 -0.5303 -0.4443 -0.5927
 1727SOL     OW16816   4.235   3.188   4.590 -0.0261 -0.5654 -0.3884
 1727SOL    HW116817   4.260   3.241   4.514  1.9624  1.4822  1.6722
 1727SOL    HW216818   4.308   3.203   4.650 -0.6683 -1.0493  0.5166
 1728SOL     OW16819   2.000   3.859   8.755  0.2672 -0.2934  0.5537
 1728SOL    HW116820   2.023   3.798   8.686  2.3478  1.0972 -0.0022
 1728SOL    HW216821   2.082   3.910   8.756  0.3391 -0.4061  0.1219
 1729SOL     OW16822   1.052   3.663  15.041 -0.4730  0.5157 -0.0936
 1729SOL    HW116823   1.141   3.627  15.043 -1.0182 -0.8912 -0.7819
 1729SOL    HW216824   1.075   3.753  15.018  0.8291  0.1224 -0.3207
 1730SOL     OW16825   2.977   1.462  14.904  0.3757  0.4223 -0.9387
 1730SOL    HW116826   3.042   1.422  14.962  0.4876 -0.2872 -1.5644
 1730SOL    HW216827   2.907   1.449  14.968  1.0009  1.7149  0.0094
 1731SOL     OW16828   3.324   4.604   9.433  0.0150 -0.3218  0.2057
 1731SOL    HW116829   3.401   4.660   9.433  1.2995 -2.0873 -1.4938
 1731SOL    HW216830   3.259   4.668   9.461  0.1887 -0.0427 -0.0373
 1732SOL     OW16831   2.505   0.730  13.901  0.1802  0.7117 -0.3723
 1732SOL    HW116832   2.571   0.787  13.860  0.8371  0.5855  0.4886
 1732SOL    HW216833   2.557   0.674  13.959  1.5512  1.5941 -0.7555
 1733SOL     OW16834   1.492   0.036   7.846  0.1385  0.5204 -0.4143
 1733SOL    HW116835   1.397   0.032   7.857  0.3923  0.1352  1.6569
 1733SOL    HW216836   1.497   0.131   7.842  0.3484  0.4679 -1.4502
 1734SOL     OW16837   0.541   4.065   4.891  0.2531  0.1614  0.1615
 1734SOL    HW116838   0.506   4.045   4.804 -2.5109 -1.2987  1.5838
 1734SOL    HW216839   0.458   4.092   4.930 -0.9031 -0.2607 -1.9769
 1735SOL     OW16840   0.630   2.745   1.523  0.7217  0.0840 -0.5704
 1735SOL    HW116841   0.544   2.751   1.484  0.1935 -0.0564  0.5614
 1735SOL    HW216842   0.601   2.703   1.604  0.7142 -1.9077 -1.5999
 1736SOL     OW16843   0.650   4.317   8.335 -0.2683  0.2327 -0.4888
 1736SOL    HW116844   0.723   4.261   8.361  0.6307  1.2044 -0.9473
 1736SOL    HW216845   0.592   4.296   8.409  2.9294  1.9769  2.4826
 1737SOL     OW16846   0.583   0.579   7.395 -0.6163  0.4503 -0.1124
 1737SOL    HW116847   0.649   0.511   7.407 -0.6411 -0.1445 -3.3492
 1737SOL    HW216848   0.623   0.644   7.452  3.0896 -1.4621 -0.4816
 1738SOL     OW16849   1.627   0.583   4.055  0.0056 -0.2674  0.0935
 1738SOL    HW116850   1.699   0.617   4.109  0.4263 -1.1226  0.0670
 1738SOL    HW216851   1.666   0.610   3.972 -0.5051  0.3646  0.0572
 1739SOL     OW16852   2.251   2.900   2.473  0.3484  0.2389  0.9144
 1739SOL    HW116853   2.282   2.990   2.477 -1.1778  0.5513  5.0793
 1739SOL    HW216854   2.166   2.913   2.514 -0.5020  1.7494 -1.3360
 1740SOL     OW16855   1.688   2.948   3.770  0.3025 -0.0047 -0.1232
 1740SOL    HW116856   1.607   2.995   3.750 -0.4409 -0.7886  1.0598
 1740SOL    HW216857   1.657   2.886   3.836 -2.9085  1.8577  0.1416
 1741SOL     OW16858   0.251   2.759   7.560  0.5708 -0.3625  0.3449
 1741SOL    HW116859   0.231   2.851   7.571 -1.8336 -1.0009  1.3995
 1741SOL    HW216860   0.205   2.711   7.629  1.0201  1.5311  1.9408
 1742SOL     OW16861   1.961   0.293   9.574  0.3067  0.1266  0.1163
 1742SOL    HW116862   2.052   0.266   9.573  0.3320  0.2061  1.2208
 1742SOL    HW216863   1.941   0.315   9.665 -1.7773 -0.1806 -0.2615
 1743SOL     OW16864   2.027   4.718   0.552 -0.1161 -0.2800  0.0203
 1743SOL    HW116865   1.970   4.644   0.570 -2.2139  1.2350 -0.4267
 1743SOL    HW216866   2.067   0.006   0.635  0.2113  0.5763 -0.3933
 1744SOL     OW16867   2.568   3.247   6.057 -0.0467  0.2261  0.2108
 1744SOL    HW116868   2.522   3.163   6.067  2.9761 -1.6802 -2.0751
 1744SOL    HW216869   2.516   3.304   6.114 -0.1121 -0.4002  0.7877
 1745SOL     OW16870   0.994   0.479   6.845  0.3482  0.2667 -0.1547
 1745SOL    HW116871   0.973   0.557   6.793 -1.0773 -0.3612 -0.5227
 1745SOL    HW216872   0.913   0.489   6.895  0.7989 -0.9245  0.8037
 1746SOL     OW16873   3.428   0.987   0.232  0.1205  0.7478  0.6278
 1746SOL    HW116874   3.441   0.956   0.142  0.0163 -0.7896  1.1416
 1746SOL    HW216875   3.435   0.904   0.279  0.2091  0.6419  0.4291
 1747SOL     OW16876   0.157   1.093   7.279  0.1061  0.3032  0.3033
 1747SOL    HW116877   0.207   1.016   7.305 -0.9851 -0.4048  0.3034
 1747SOL    HW216878   0.191   1.109   7.191  0.2667 -0.6715  0.1859
 1748SOL     OW16879   4.066   4.256   3.390 -0.5186 -0.1048 -0.8600
 1748SOL    HW116880   4.048   4.238   3.298  0.0256 -0.2042 -0.9436
 1748SOL    HW216881   3.982   4.241   3.433  0.9602 -4.5987  0.4616
 1749SOL     OW16882   0.116   4.303   4.435 -0.2992  0.4908 -0.6384
 1749SOL    HW116883   0.165   4.244   4.493  0.3608  0.9384 -0.7362
 1749SOL    HW216884   0.078   4.366   4.497  0.5788  1.0989 -0.7041
 1750SOL     OW16885   2.445   2.659   6.605 -0.4415  0.0750 -0.0509
 1750SOL    HW116886   2.532   2.697   6.613 -0.4918  0.2828 -0.4899
 1750SOL    HW216887   2.458   2.626   6.516 -1.3586 -1.8217  0.5200
 1751SOL     OW16888   3.327   0.197   2.469  0.4900 -0.2918 -0.0076
 1751SOL    HW116889   3.260   0.171   2.532 -0.3203  1.9181  0.0338
 1751SOL    HW216890   3.275   0.259   2.417  1.2950  1.0444  0.7906
 1752SOL     OW16891   2.991   2.883   5.527 -0.1142  0.0550 -0.2017
 1752SOL    HW116892   3.015   2.900   5.436  1.2620  2.2547  0.5700
 1752SOL    HW216893   3.030   2.797   5.542  1.0694  0.5729 -0.2935
 1753SOL     OW16894   2.052   3.922   2.001  0.1739 -0.5025  0.4914
 1753SOL    HW116895   2.129   3.951   1.954 -1.0443 -0.6894 -1.6137
 1753SOL    HW216896   1.997   4.001   2.002  0.2278 -0.4660  0.7670
 1754SOL     OW16897   4.162   0.278   5.053 -0.2710 -0.0748  0.3230
 1754SOL    HW116898   4.194   0.191   5.032  1.3659  0.9129 -1.2481
 1754SOL    HW216899   4.089   0.274   4.992  0.6467 -3.1502 -0.5852
 1755SOL     OW16900   1.476   0.876   3.356  0.2890  0.1708 -0.3194
 1755SOL    HW116901   1.442   0.955   3.399  2.3726  1.2675 -0.6702
 1755SOL    HW216902   1.405   0.813   3.366  2.3036 -2.1495 -0.5065
 1756SOL     OW16903   2.515   3.486   2.040 -0.5194  0.3639 -0.8051
 1756SOL    HW116904   2.453   3.556   2.057 -1.3395 -0.8792  1.2900
 1756SOL    HW216905   2.462   3.418   2.082 -0.8995  1.7546  0.9346
 1757SOL     OW16906   3.799   0.011   1.961  0.1981  0.0667  0.3864
 1757SOL    HW116907   3.765   4.662   1.934 -1.3133  0.7777  0.0324
 1757SOL    HW216908   3.717   0.057   1.943  0.5059  0.7966  0.8688
 1758SOL     OW16909   0.847   2.777  15.767  0.3573 -0.5233  0.8379
 1758SOL    HW116910   0.892   2.828  15.700  3.6899 -2.6810  1.3932
 1758SOL    HW216911   0.873   2.686  15.750  0.8579  0.1680 -2.0926
 1759SOL     OW16912   0.175   2.425   4.929  0.4291  0.6329 -0.2177
 1759SOL    HW116913   0.242   2.397   4.991  0.4802 -1.6428 -1.2885
 1759SOL    HW216914   0.221   2.494   4.881  1.4366  1.0411  1.3430
 1760SOL     OW16915   2.586   3.959   1.204 -0.0651 -0.0588  0.5344
 1760SOL    HW116916   2.576   3.906   1.283  0.0291  0.1385  0.6784
 1760SOL    HW216917   2.579   4.050   1.236  1.9450  0.4239 -0.4288
 1761SOL     OW16918   0.283   0.484   8.731  0.4869 -0.0647  0.0761
 1761SOL    HW116919   0.378   0.478   8.742  0.4790  1.3768  0.9375
 1761SOL    HW216920   0.278   0.467   8.637  1.2829 -0.7859  0.1629
 1762SOL     OW16921   0.067   2.506   5.759 -0.0864  0.1301  0.1654
 1762SOL    HW116922   4.732   2.569   5.746  0.8227  1.2701  0.6471
 1762SOL    HW216923   0.067   2.465   5.673  0.1978 -0.6011  0.5183
 1763SOL     OW16924   1.631   3.925   4.037 -0.3953  0.1942 -0.5867
 1763SOL    HW116925   1.575   4.001   4.024 -0.9490 -0.2026 -0.4809
 1763SOL    HW216926   1.709   3.969   4.003 -1.9678  1.6101 -2.3399
 1764SOL     OW16927   1.566   3.166   2.484  0.0209 -0.0772  0.4542
 1764SOL    HW116928   1.537   3.178   2.393  0.4768 -0.1782  0.2978
 1764SOL    HW216929   1.489   3.208   2.523  0.0587 -0.0067  0.4539
 1765SOL     OW16930   3.544   0.387  14.793  0.0554  0.9003 -0.2821
 1765SOL    HW116931   3.498   0.430  14.721 -0.1323 -0.2769 -0.8684
 1765SOL    HW216932   3.627   0.435  14.789 -1.0181  2.6490 -1.5261
 1766SOL     OW16933   2.042   0.441   0.467 -0.2178  0.0043  0.7358
 1766SOL    HW116934   2.086   0.448   0.552  0.8635 -0.5963  0.2182
 1766SOL    HW216935   1.952   0.419   0.492 -0.0515 -0.1474  1.2008
 1767SOL     OW16936   0.886   2.673  16.215  0.1867  0.3789  0.2201
 1767SOL    HW116937   0.953   2.737  16.237  0.5675 -1.3610  4.1273
 1767SOL    HW216938   0.853   2.710  16.133  1.2645  0.7319 -0.0503
 1768SOL     OW16939   0.303   1.886  13.922 -0.0505 -0.3002 -0.5657
 1768SOL    HW116940   0.323   1.878  14.015 -1.1169 -1.4614 -0.4357
 1768SOL    HW216941   0.277   1.796  13.905 -0.4988 -0.2044 -0.3885
 1769SOL     OW16942   3.880   1.908   9.087  0.0134 -0.3032 -0.1515
 1769SOL    HW116943   3.808   1.917   9.149  1.7832  1.3721  1.6385
 1769SOL    HW216944   3.951   1.921   9.150  0.4940 -0.6004 -0.6269
 1770SOL     OW16945   1.024   4.736   9.541  0.6206  0.0931 -0.0091
 1770SOL    HW116946   1.114   4.736   9.509  0.3449  1.7740 -0.7902
 1770SOL    HW216947   0.994   4.654   9.502  0.2046 -0.9652  2.5354
 1771SOL     OW16948   1.812   3.193   1.409 -0.2661 -0.0966 -0.0272
 1771SOL    HW116949   1.738   3.254   1.411  2.0986  2.7332  0.8700
 1771SOL    HW216950   1.852   3.230   1.331  0.6539 -0.4069  0.2986
 1772SOL     OW16951   0.038   1.826  12.806 -0.0403 -0.0741 -0.0704
 1772SOL    HW116952   0.123   1.824  12.852 -0.7372  0.8189  1.2487
 1772SOL    HW216953   0.033   1.920  12.794  1.9542  0.1401  0.6571
 1773SOL     OW16954   0.688   2.070  11.249  0.3974  0.8461  0.6048
 1773SOL    HW116955   0.656   2.072  11.159  1.3637  0.2342  0.2624
 1773SOL    HW216956   0.633   2.002  11.288  1.6824 -0.4316  0.1905
 1774SOL     OW16957   3.834   1.167  16.981 -0.0304  0.1492  0.4455
 1774SOL    HW116958   3.755   1.140  16.935  0.8845  1.4873 -1.8993
 1774SOL    HW216959   3.837   1.092  17.040  0.1308 -0.7490 -0.6958
 1775SOL     OW16960   4.157   1.402   6.369 -0.1304  0.3141 -0.1314
 1775SOL    HW116961   4.155   1.357   6.284 -0.6244  0.5012 -0.2190
 1775SOL    HW216962   4.185   1.328   6.422 -2.0494 -0.2600  0.0827
 1776SOL     OW16963   1.634   1.756   9.124 -0.0296 -0.3612 -0.5920
 1776SOL    HW116964   1.606   1.743   9.214  0.1143 -2.7494 -0.9058
 1776SOL    HW216965   1.587   1.836   9.100 -0.5418 -1.0075 -1.6921
 1777SOL     OW16966   3.133   2.861   6.012  0.2015 -0.1682 -0.6616
 1777SOL    HW116967   3.106   2.918   5.941  0.4075  2.7174  1.5864
 1777SOL    HW216968   3.187   2.795   5.968 -0.3400 -1.7945  1.1006
 1778SOL     OW16969   1.185   0.284   9.127  0.4159 -0.0651  0.4716
 1778SOL    HW116970   1.195   0.370   9.168 -0.5088  0.2088  0.1295
 1778SOL    HW216971   1.213   0.302   9.038  0.0440 -0.1662  0.3356
 1779SOL     OW16972   0.965   4.369   4.042 -0.6569  0.0010  0.0177
 1779SOL    HW116973   0.918   4.352   3.960  1.5710 -2.0599 -0.8198
 1779SOL    HW216974   0.928   4.305   4.103 -0.9288 -1.1937 -1.4164
 1780SOL     OW16975   1.112   4.064   9.404 -0.3446 -0.1468  0.0020
 1780SOL    HW116976   1.056   4.071   9.482  0.3945  0.7069  0.4549
 1780SOL    HW216977   1.107   3.970   9.390 -0.1207 -0.0164 -0.9710
 1781SOL     OW16978   2.438   2.367   3.291 -0.0123  0.4876  0.3308
 1781SOL    HW116979   2.523   2.389   3.253  0.0414  2.7548  1.7224
 1781SOL    HW216980   2.460   2.369   3.384 -0.0943  0.9916  0.3412
 1782SOL     OW16981   1.482   0.747  14.181 -0.0194  0.0226 -0.0535
 1782SOL    HW116982   1.516   0.809  14.246 -2.3030  1.4669 -0.2463
 1782SOL    HW216983   1.428   0.687  14.233 -1.9596 -0.0150 -2.1415
 1783SOL     OW16984   1.846   3.389   2.231 -0.1178  0.2236  0.5528
 1783SOL    HW116985   1.761   3.400   2.275 -0.5366  0.0044 -0.2040
 1783SOL    HW216986   1.850   3.469   2.180 -3.3394 -0.0793 -0.2048
 1784SOL     OW16987   1.029   0.072   0.325 -0.2587  0.0558 -0.1591
 1784SOL    HW116988   1.043   0.034   0.238  0.8068  1.0914 -0.4458
 1784SOL    HW216989   1.119   0.089   0.352 -0.4861 -1.4546  1.5377
 1785SOL     OW16990   1.029   2.340  10.634 -0.1535 -0.2959  0.3792
 1785SOL    HW116991   1.004   2.417  10.684 -0.4309  1.7016 -2.7989
 1785SOL    HW216992   1.036   2.271  10.700 -0.6405  0.6758  1.4370
 1786SOL     OW16993   1.128   4.236   5.938 -0.6215 -0.3950  0.0677
 1786SOL    HW116994   1.148   4.178   5.864  0.3120  1.9298 -1.5277
 1786SOL    HW216995   1.220   4.252   5.961 -0.6286 -1.4633  0.8366
 1787SOL     OW16996   4.262   3.823  17.016  0.1569 -0.4138  0.5748
 1787SOL    HW116997   4.271   3.911  16.979  0.1906 -0.3935  0.6303
 1787SOL    HW216998   4.210   3.847  17.092  0.8959  0.3537  0.8366
 1788SOL     OW16999   2.491   1.909   4.822  0.2084  0.4592 -0.0261
 1788SOL    HW117000   2.486   1.841   4.754 -1.3348  2.1419 -1.5869
 1788SOL    HW217001   2.406   1.951   4.818  0.7939  1.7112  0.7649
 1789SOL     OW17002   0.929   1.560   8.081 -0.0359  0.1562  0.6554
 1789SOL    HW117003   0.924   1.652   8.106  0.5434  0.1748  0.7026
 1789SOL    HW217004   0.836   1.546   8.098 -0.1654 -0.4425 -0.5097
 1790SOL     OW17005   2.088   1.014   3.969  0.1341  0.5380 -0.3650
 1790SOL    HW117006   2.101   1.048   4.058  0.3318 -0.4030 -0.0282
 1790SOL    HW217007   2.086   1.099   3.926 -1.4103  0.7025  0.0458
 1791SOL     OW17008   2.994   0.377  11.779  0.0081 -0.1101 -0.2563
 1791SOL    HW117009   3.073   0.324  11.796  1.2395  0.7353 -3.2977
 1791SOL    HW217010   2.996   0.431  11.858  0.6349 -0.6811  0.1207
 1792SOL     OW17011   2.392   1.525   3.004 -0.0717 -0.1133  0.0279
 1792SOL    HW117012   2.465   1.569   2.961  0.9975  0.7406  2.7137
 1792SOL    HW217013   2.359   1.589   3.067  0.1518 -0.0047  0.0345
 1793SOL     OW17014   4.323   0.751   9.466  0.2075 -0.2260 -0.3129
 1793SOL    HW117015   4.382   0.788   9.532 -1.1402  1.8675 -0.2882
 1793SOL    HW217016   4.271   0.826   9.438 -0.8652 -0.3796  1.2339
 1794SOL     OW17017   0.956   4.226  10.773  0.2309  0.1397 -0.0963
 1794SOL    HW117018   1.019   4.295  10.752  0.7197 -0.3279 -0.1628
 1794SOL    HW217019   0.904   4.239  10.694 -1.8084  1.6445  1.4878
 1795SOL     OW17020   0.428   2.442  17.582 -0.2007 -0.3355  0.3404
 1795SOL    HW117021   0.396   2.521  17.625 -0.1909  0.6313 -1.4233
 1795SOL    HW217022   0.436   2.387  17.660 -0.9265  1.1049  1.4354
 1796SOL     OW17023   2.883   2.088  16.968  0.7653 -0.1828  0.5842
 1796SOL    HW117024   2.839   2.111  17.050 -0.7256  0.5068 -0.4154
 1796SOL    HW217025   2.956   2.031  16.993  1.3415  1.2599  2.1540
 1797SOL     OW17026   2.568   3.593   2.617 -0.2334  0.8122  0.1810
 1797SOL    HW117027   2.537   3.565   2.531  1.2258 -0.8843  0.2076
 1797SOL    HW217028   2.660   3.600   2.593 -0.3064  0.1085 -0.2876
 1798SOL     OW17029   1.114   3.996   3.598 -0.7596 -0.0473 -0.3723
 1798SOL    HW117030   1.048   4.057   3.563  1.3343  1.7965 -1.0670
 1798SOL    HW217031   1.201   4.025   3.573 -0.6966  1.5645  1.6698
 1799SOL     OW17032   0.919   0.518   0.894 -0.1592 -0.4767 -0.0515
 1799SOL    HW117033   0.837   0.471   0.909 -0.5218  0.6012  1.3208
 1799SOL    HW217034   0.962   0.469   0.824  0.4913 -0.0731  0.0634
 1800SOL     OW17035   3.479   0.043  11.790 -0.6787  0.3939  0.0081
 1800SOL    HW117036   3.481   0.020  11.883 -2.5015 -1.5600 -0.4580
 1800SOL    HW217037   3.435   4.700  11.761  0.0769 -0.3943  1.0110
 1801SOL     OW17038   4.394   1.103  15.185  0.2052  0.0760  0.2039
 1801SOL    HW117039   4.403   1.034  15.119  0.5879 -0.1656  0.5109
 1801SOL    HW217040   4.485   1.131  15.194  0.0395  0.2901  1.1745
 1802SOL     OW17041   3.143   4.364   3.838 -0.1793  0.0072 -0.0080
 1802SOL    HW117042   3.128   4.452   3.804  1.4249 -0.3224 -1.5414
 1802SOL    HW217043   3.193   4.382   3.918 -1.5179 -0.1691  0.8760
 1803SOL     OW17044   4.273   1.475  13.145  0.2536 -0.2013 -0.0559
 1803SOL    HW117045   4.283   1.421  13.224  0.2639 -1.2184 -0.7571
 1803SOL    HW217046   4.295   1.411  13.077  1.1710 -0.7261  0.7347
 1804SOL     OW17047   3.287   4.435   5.183 -0.4639 -0.2589 -0.3846
 1804SOL    HW117048   3.213   4.423   5.241 -1.2789  3.4895 -0.6608
 1804SOL    HW217049   3.355   4.378   5.219 -0.9149 -0.6628 -0.1693
 1805SOL     OW17050   3.021   1.589   4.407 -0.3116 -0.5199  0.0234
 1805SOL    HW117051   3.051   1.668   4.363  0.3322 -0.7322  0.0813
 1805SOL    HW217052   3.047   1.612   4.496 -0.1844  1.8079 -0.6252
 1806SOL     OW17053   0.449   2.017  10.275 -0.4192  0.9200 -0.0256
 1806SOL    HW117054   0.525   2.069  10.249  1.3587 -1.2701  0.7132
 1806SOL    HW217055   0.372   2.057  10.236 -1.4458  0.6365  1.7276
 1807SOL     OW17056   2.130   1.327  11.142 -0.2789  0.1322 -0.7052
 1807SOL    HW117057   2.216   1.298  11.111 -0.6051 -0.7953 -0.7380
 1807SOL    HW217058   2.140   1.423  11.140  0.9722  0.0550  2.3524
 1808SOL     OW17059   3.835   1.381   6.376  0.2604 -0.5726 -0.1232
 1808SOL    HW117060   3.822   1.469   6.342  1.9468  0.5470  2.1603
 1808SOL    HW217061   3.912   1.389   6.432 -0.7250  1.8234  0.9116
 1809SOL     OW17062   0.295   1.003   9.450  0.1532  0.0996 -0.6947
 1809SOL    HW117063   0.305   1.086   9.404  2.7906 -0.9054 -1.9074
 1809SOL    HW217064   0.286   1.027   9.543  0.2675  0.1943 -0.7080
 1810SOL     OW17065   3.280   1.363   4.125 -0.4007  0.1212 -0.1747
 1810SOL    HW117066   3.201   1.391   4.079 -1.7129 -1.2047  1.2976
 1810SOL    HW217067   3.318   1.447   4.150 -0.3822 -0.2124  0.8778
 1811SOL     OW17068   2.492   3.481   8.093 -0.5343 -0.1327 -0.3199
 1811SOL    HW117069   2.433   3.406   8.080 -0.7258  0.1094 -0.8396
 1811SOL    HW217070   2.482   3.489   8.188  0.1625  0.3593 -0.2905
 1812SOL     OW17071   4.141   4.044   3.886  0.3208  0.3712  0.5626
 1812SOL    HW117072   4.054   4.026   3.850  1.4726 -2.6178 -0.7832
 1812SOL    HW217073   4.194   4.059   3.808 -3.3849 -0.3331 -2.0846
 1813SOL     OW17074   0.148   4.273   8.315  0.7626  0.3240  0.1963
 1813SOL    HW117075   0.067   4.238   8.352  0.7605  1.9129  1.6968
 1813SOL    HW217076   0.103   4.318   8.244  1.9283 -0.4308 -1.0102
 1814SOL     OW17077   4.412   4.632  10.333  0.0617  0.2481 -0.5315
 1814SOL    HW117078   4.424   4.672  10.246  1.1627 -0.7508 -0.8403
 1814SOL    HW217079   4.472   4.558  10.327  1.8986  1.8169 -1.6860
 1815SOL     OW17080   3.047   1.148   8.129  0.0158  0.2343  0.3788
 1815SOL    HW117081   2.999   1.231   8.125  0.1911  0.3502  0.6862
 1815SOL    HW217082   3.069   1.131   8.038  0.0114 -1.3029  0.6722
 1816SOL     OW17083   4.603   3.802   2.117 -0.0815  0.0398  0.2987
 1816SOL    HW117084   4.521   3.850   2.103 -0.1643 -0.6107 -1.4727
 1816SOL    HW217085   4.568   3.744   2.184  2.2291 -1.3001  0.3285
 1817SOL     OW17086   2.994   4.538   6.585  0.2262  0.1602 -0.0445
 1817SOL    HW117087   2.982   4.465   6.645  0.2752 -1.8923 -2.5345
 1817SOL    HW217088   2.925   4.521   6.520 -1.2448  1.4858  1.1605
 1818SOL     OW17089   2.104   2.053  11.179  0.0818  0.0035 -0.2876
 1818SOL    HW117090   2.151   1.970  11.184 -0.7202 -0.4055  0.3734
 1818SOL    HW217091   2.094   2.081  11.270  0.1429 -1.3276  0.1341
 1819SOL     OW17092   1.614   0.700   6.050 -0.4977  0.1224  0.6412
 1819SOL    HW117093   1.534   0.664   6.012 -0.0443  1.7513 -1.9157
 1819SOL    HW217094   1.582   0.778   6.096  0.6014 -0.8056  2.9666
 1820SOL     OW17095   1.499   3.461   9.141  0.0940  0.5885  0.1673
 1820SOL    HW117096   1.438   3.513   9.088 -0.3096  1.3701  1.4006
 1820SOL    HW217097   1.584   3.497   9.113  0.5243 -1.5001 -1.2131
 1821SOL     OW17098   4.005   3.762  12.165 -0.3126 -0.3212  0.7426
 1821SOL    HW117099   4.051   3.775  12.082  1.4706 -1.4091  1.5459
 1821SOL    HW217100   3.998   3.667  12.171 -0.4612 -0.4622 -1.5283
 1822SOL     OW17101   0.539   4.269   9.203 -0.1775  0.5676  0.2884
 1822SOL    HW117102   0.474   4.325   9.161  0.9875  1.7382  0.0654
 1822SOL    HW217103   0.619   4.259   9.151 -0.7580 -0.8124 -0.3626
 1823SOL     OW17104   2.081   0.748  11.465  0.1538 -0.4884  0.8599
 1823SOL    HW117105   1.994   0.709  11.465 -1.1157  2.4518 -2.7671
 1823SOL    HW217106   2.078   0.789  11.379  2.2298  0.8513  1.4324
 1824SOL     OW17107   2.280   1.495  12.030  0.4664 -0.6501 -0.5131
 1824SOL    HW117108   2.190   1.522  12.012  0.1847 -0.4492  1.1422
 1824SOL    HW217109   2.329   1.572  12.004  0.4682 -0.7346 -0.7548
 1825SOL     OW17110   0.930   0.071   5.052  0.2633  0.4097  0.5222
 1825SOL    HW117111   1.009   0.095   5.101  1.9615  1.1608 -2.5452
 1825SOL    HW217112   0.875   0.042   5.124  1.6003  1.6662  2.0617
 1826SOL     OW17113   3.931   2.991   5.944  0.1339  0.7396 -0.1629
 1826SOL    HW117114   3.878   3.065   5.971 -1.3017 -0.5324  0.5220
 1826SOL    HW217115   4.014   3.012   5.985  2.0602  1.3724 -4.3844
 1827SOL     OW17116   2.110   1.619   1.643  0.4089 -0.5586 -0.1153
 1827SOL    HW117117   2.181   1.620   1.579 -1.9430 -0.4840 -2.6886
 1827SOL    HW217118   2.127   1.532   1.679 -1.3610 -0.0879  1.8328
 1828SOL     OW17119   2.208   1.153   5.259  0.8970  0.0780 -0.0789
 1828SOL    HW117120   2.257   1.236   5.263  1.5977 -0.3880  0.7727
 1828SOL    HW217121   2.276   1.091   5.233  0.5024 -0.0793 -0.7505
 1829SOL     OW17122   1.831   1.419   7.047  0.0012  0.5502 -0.3971
 1829SOL    HW117123   1.736   1.435   7.050 -0.2171 -0.9744  1.2031
 1829SOL    HW217124   1.845   1.351   6.982 -1.5749  0.9856 -1.1879
 1830SOL     OW17125   1.431   0.420   6.818  0.1140 -0.4128  0.1906
 1830SOL    HW117126   1.408   0.404   6.909  2.1057  2.6178  1.2314
 1830SOL    HW217127   1.523   0.443   6.826 -0.0091 -0.3555  1.3998
 1831SOL     OW17128   3.534   0.529   6.983  0.5118 -0.1052  0.2995
 1831SOL    HW117129   3.461   0.552   6.927  2.5918  1.9397 -1.5794
 1831SOL    HW217130   3.615   0.547   6.934 -0.8041  0.2929 -1.7236
 1832SOL     OW17131   2.309   0.852  12.650 -0.3070  0.2957 -0.1208
 1832SOL    HW117132   2.219   0.867  12.679 -0.0889  1.9595 -0.2915
 1832SOL    HW217133   2.321   0.946  12.635 -1.2348  0.2592 -1.0653
 1833SOL     OW17134   0.500   2.274   7.922 -0.4273 -0.0080  0.0950
 1833SOL    HW117135   0.529   2.218   7.993 -0.6796 -1.0420 -0.6216
 1833SOL    HW217136   0.580   2.327   7.922 -1.8731  2.1612  2.3511
 1834SOL     OW17137   0.595   3.347  12.402 -0.1183 -0.3476 -0.4645
 1834SOL    HW117138   0.582   3.438  12.427 -1.7198 -0.9577  0.9332
 1834SOL    HW217139   0.523   3.338  12.339 -2.9692  3.3763  2.2745
 1835SOL     OW17140   2.557   4.723   7.049  0.2577  0.1905 -0.9059
 1835SOL    HW117141   2.549   4.643   7.101 -0.6921  1.2604  0.5922
 1835SOL    HW217142   2.576   0.045   7.122 -1.9909 -0.0797 -0.0957
 1836SOL     OW17143   2.048   0.517   3.836  0.5903  0.1711  0.2092
 1836SOL    HW117144   1.985   0.484   3.772 -1.6062  1.9533  1.4196
 1836SOL    HW217145   2.005   0.582   3.891  1.2670  1.3856 -0.6812
 1837SOL     OW17146   4.408   2.958  16.725 -0.4442  0.2523 -0.4062
 1837SOL    HW117147   4.329   2.999  16.760  1.5039  1.3043  2.7542
 1837SOL    HW217148   4.365   2.874  16.706  2.4026 -1.9927  3.1243
 1838SOL     OW17149   3.656   3.178  17.097 -0.3675 -0.8002 -0.9661
 1838SOL    HW117150   3.719   3.180  17.025  1.1114  0.1688  0.3465
 1838SOL    HW217151   3.690   3.253  17.146  0.1039 -1.4607 -0.2982
 1839SOL     OW17152   1.546   1.385  16.882 -0.0052 -0.2076 -0.3572
 1839SOL    HW117153   1.536   1.478  16.859 -1.7543 -0.4301 -0.4655
 1839SOL    HW217154   1.640   1.391  16.899 -0.1364  1.4029 -0.1517
 1840SOL     OW17155   3.358   4.061  17.364  0.2650 -0.5773 -0.4056
 1840SOL    HW117156   3.447   4.049  17.329  0.4193  0.3484 -0.3443
 1840SOL    HW217157   3.363   4.002  17.440  1.4030  0.0514  0.0220
 1841SOL     OW17158   0.609   3.515   5.853 -0.2736  0.3648 -0.0297
 1841SOL    HW117159   0.561   3.576   5.796 -1.8662  0.9209  1.9075
 1841SOL    HW217160   0.690   3.566   5.860  0.1229 -0.1363 -1.0417
 1842SOL     OW17161   4.526   3.418   1.635 -0.2108 -0.2125 -0.5849
 1842SOL    HW117162   4.524   3.496   1.690 -0.4086 -2.2095  2.2129
 1842SOL    HW217163   4.436   3.387   1.623 -0.7970  0.9369  0.8913
 1843SOL     OW17164   2.112   1.906   4.302  0.7901  0.1024 -0.2210
 1843SOL    HW117165   2.091   1.961   4.377  1.1253  1.8491 -1.4172
 1843SOL    HW217166   2.095   1.817   4.335 -1.3632  0.6034 -0.0399
 1844SOL     OW17167   3.287   3.273  16.511  0.2662 -1.0352 -0.0676
 1844SOL    HW117168   3.192   3.281  16.518  0.2414  0.3322 -2.0111
 1844SOL    HW217169   3.304   3.323  16.432  0.0841 -0.3547  0.3270
 1845SOL     OW17170   2.310   0.704  13.338 -0.8114 -0.0439 -0.6620
 1845SOL    HW117171   2.394   0.676  13.376 -0.4979 -0.6110 -1.7693
 1845SOL    HW217172   2.260   0.622  13.342  0.6608 -0.8703  1.0800
 1846SOL     OW17173   2.990   0.070   1.717  0.2849  0.0892 -0.5814
 1846SOL    HW117174   2.917   0.028   1.671 -0.8691  2.7947 -1.1980
 1846SOL    HW217175   2.960   0.154   1.752  1.6622 -0.0429  0.9063
 1847SOL     OW17176   2.701   3.463  11.850 -0.0379 -0.3031 -0.2446
 1847SOL    HW117177   2.761   3.537  11.855  0.4228 -0.5706 -1.6577
 1847SOL    HW217178   2.728   3.419  11.930 -0.4167  0.9929  0.5905
 1848SOL     OW17179   1.924   2.210   6.845  0.0609 -0.1082  0.0592
 1848SOL    HW117180   1.975   2.193   6.924 -0.4368 -1.1607  0.1545
 1848SOL    HW217181   1.979   2.266   6.790 -0.1543  0.4045  0.3660
 1849SOL     OW17182   1.873   0.572  11.364 -0.2824 -0.7509 -0.2327
 1849SOL    HW117183   1.847   0.539  11.450 -2.9159  0.8795 -0.4000
 1849SOL    HW217184   1.806   0.537  11.306 -0.7783  1.0410 -0.7374
 1850SOL     OW17185   1.280   0.086   1.919 -0.1842 -0.2279 -0.4631
 1850SOL    HW117186   1.217   0.110   1.851  0.8268 -0.4241 -1.4605
 1850SOL    HW217187   1.295   0.175   1.952 -2.0767 -0.3641  0.8021
 1851SOL     OW17188   0.178   2.871   7.218 -0.0239  0.3896  0.2340
 1851SOL    HW117189   0.144   2.945   7.268 -1.2703  1.6562 -2.4629
 1851SOL    HW217190   0.100   2.833   7.177  0.1249  1.1226 -0.7209
 1852SOL     OW17191   3.097   0.954  11.834 -0.1345 -0.2208  0.3868
 1852SOL    HW117192   3.091   1.015  11.760  0.1714  1.6268  1.9116
 1852SOL    HW217193   3.018   0.904  11.814 -0.8892  2.7645 -4.0344
 1853SOL     OW17194   3.406   2.765  16.152 -0.6252 -0.5428 -0.0315
 1853SOL    HW117195   3.394   2.765  16.057  1.6861 -0.8445 -0.3245
 1853SOL    HW217196   3.401   2.859  16.168  0.6020 -0.6719  1.0902
 1854SOL     OW17197   2.784   3.344  12.116 -0.1173 -0.2339 -0.1168
 1854SOL    HW117198   2.838   3.290  12.173 -0.8207 -0.8767 -0.0556
 1854SOL    HW217199   2.749   3.418  12.165 -2.5011 -0.5099 -1.4019
 1855SOL     OW17200   0.380   4.504   5.362 -0.3098  0.3223  0.3027
 1855SOL    HW117201   0.331   4.424   5.343  1.3013 -1.0617  1.9637
 1855SOL    HW217202   0.344   4.558   5.432 -1.3204 -0.1104  0.1123
 1856SOL     OW17203   4.022   3.987  13.102 -0.0034  0.2749 -0.3576
 1856SOL    HW117204   3.983   4.056  13.156  1.9257  1.2368 -0.2025
 1856SOL    HW217205   4.114   4.011  13.090  0.8257 -1.5473  2.3971
 1857SOL     OW17206   3.606   0.020   7.663  0.4189 -0.0969 -0.0595
 1857SOL    HW117207   3.674   4.709   7.616 -0.4548 -0.7435 -0.6755
 1857SOL    HW217208   3.654   0.095   7.698  0.1906  0.0702 -0.1029
 1858SOL     OW17209   2.165   1.112   0.767  0.2337  0.3798  0.0828
 1858SOL    HW117210   2.182   1.053   0.841 -1.7853 -0.6536 -0.2661
 1858SOL    HW217211   2.217   1.191   0.782 -1.8289  1.4950  1.2604
 1859SOL     OW17212   1.984   3.651   7.782  0.4348  0.2184 -0.4896
 1859SOL    HW117213   1.955   3.561   7.793 -1.0289  0.6299 -0.9553
 1859SOL    HW217214   1.913   3.696   7.736  0.6055  1.8562  0.8585
 1860SOL     OW17215   3.226   4.548   6.447  0.7035  0.1257 -0.0749
 1860SOL    HW117216   3.152   4.523   6.502 -0.7528  2.9404 -0.8037
 1860SOL    HW217217   3.239   4.636   6.483 -2.5961  1.1082 -1.2780
 1861SOL     OW17218   1.025   1.005   2.946  0.7900  0.3927 -0.3423
 1861SOL    HW117219   1.008   1.083   2.999 -0.9622  0.2283 -0.6530
 1861SOL    HW217220   1.110   1.028   2.909  0.6103 -0.0843 -1.0557
 1862SOL     OW17221   4.572   0.988   8.260  0.3571  0.0401  0.5288
 1862SOL    HW117222   4.478   0.969   8.259  0.8208 -2.2960  0.5107
 1862SOL    HW217223   4.602   0.912   8.209 -1.9970  0.0464 -0.8641
 1863SOL     OW17224   4.610   0.238   3.050 -0.3295 -0.0328  0.2124
 1863SOL    HW117225   4.583   0.223   3.141 -0.2896  0.2454  0.2705
 1863SOL    HW217226   4.538   0.198   3.002  2.5781 -2.6798 -1.8742
 1864SOL     OW17227   1.758   2.013   3.909  0.1845 -0.1787  0.3241
 1864SOL    HW117228   1.701   1.959   3.964 -0.0029  0.1944  0.4938
 1864SOL    HW217229   1.840   1.985   3.950 -0.2565  0.3434  1.5325
 1865SOL     OW17230   3.134   1.622   1.996  0.0404 -0.1583 -0.3199
 1865SOL    HW117231   3.119   1.713   2.018 -0.7440 -0.3288 -0.1382
 1865SOL    HW217232   3.197   1.590   2.061  0.4711 -1.6188 -1.4362
 1866SOL     OW17233   3.640   3.375   8.858 -0.0058 -0.0825 -0.1819
 1866SOL    HW117234   3.618   3.355   8.949  0.6703 -1.0206 -0.2199
 1866SOL    HW217235   3.591   3.454   8.836  0.3716  0.3542  0.5636
 1867SOL     OW17236   1.616   3.299   4.361  0.0974 -0.1862 -0.3740
 1867SOL    HW117237   1.670   3.250   4.423 -1.4931 -1.0020  0.3698
 1867SOL    HW217238   1.580   3.367   4.418  0.1475 -0.7289  0.3128
 1868SOL     OW17239   1.580   1.412   4.356 -0.1775 -0.2587 -0.4822
 1868SOL    HW117240   1.505   1.463   4.387 -0.3071  0.2321 -1.6192
 1868SOL    HW217241   1.548   1.322   4.350 -1.0347 -0.0624  1.2008
 1869SOL     OW17242   4.308   3.313  10.294 -0.3368  0.5597  0.3811
 1869SOL    HW117243   4.263   3.397  10.302 -1.1970  0.0458  0.8455
 1869SOL    HW217244   4.242   3.267  10.345 -1.3571 -0.2363 -1.6332
 1870SOL     OW17245   2.704   3.273   0.357  0.1529 -0.6556 -0.0585
 1870SOL    HW117246   2.694   3.365   0.379 -1.2236 -0.8537  0.1572
 1870SOL    HW217247   2.725   3.284   0.264 -0.9937 -0.8448 -0.3434
 1871SOL     OW17248   2.979   1.245   4.866  0.8682 -0.4014  0.2880
 1871SOL    HW117249   3.028   1.189   4.806 -0.0651  0.9664 -1.7484
 1871SOL    HW217250   3.044   1.265   4.933 -0.5525 -0.4861  1.7060
 1872SOL     OW17251   3.865   2.320   1.635 -0.7085  0.4697  0.2578
 1872SOL    HW117252   3.960   2.315   1.625 -0.9126 -0.0536 -1.5071
 1872SOL    HW217253   3.851   2.413   1.617 -0.2101  0.2471 -1.2659
 1873SOL     OW17254   1.495   4.176   5.313  0.8599  0.1811 -0.1428
 1873SOL    HW117255   1.546   4.202   5.389 -1.3858  2.6985  0.5114
 1873SOL    HW217256   1.534   4.093   5.284 -0.9867 -0.1238 -1.8065
 1874SOL     OW17257   2.165   0.396   7.447 -0.2737  0.2992  0.5870
 1874SOL    HW117258   2.222   0.473   7.456  0.1586 -0.0077  0.4540
 1874SOL    HW217259   2.102   0.408   7.517 -0.0921  3.4282  0.2424
 1875SOL     OW17260   2.807   0.132  10.905 -0.3938 -0.1395  0.2932
 1875SOL    HW117261   2.852   0.193  10.847 -1.5243  0.8016  0.4014
 1875SOL    HW217262   2.858   0.143  10.986  0.7343  0.4899 -0.5143
 1876SOL     OW17263   4.141   4.001  14.059 -0.2226 -0.0600 -0.1006
 1876SOL    HW117264   4.113   4.083  14.017 -1.1325 -1.4383 -2.2288
 1876SOL    HW217265   4.203   3.977  13.991 -0.0163  1.5020 -0.4723
 1877SOL     OW17266   3.399   2.486   8.122  0.2403  0.2040 -0.0406
 1877SOL    HW117267   3.415   2.394   8.105 -2.7298  0.0554 -2.1243
 1877SOL    HW217268   3.331   2.493   8.189 -1.0858 -0.0448 -1.3507
 1878SOL     OW17269   2.687   2.897  15.191  0.4392 -0.1211  0.2132
 1878SOL    HW117270   2.644   2.889  15.106 -2.6422 -1.8375  1.9138
 1878SOL    HW217271   2.753   2.964  15.173 -1.5267  1.5752 -0.6841
 1879SOL     OW17272   4.457   0.194  11.307 -0.1377  0.7094  0.2686
 1879SOL    HW117273   4.380   0.196  11.364  0.4486 -1.0458  1.1244
 1879SOL    HW217274   4.446   0.271  11.251  0.1189 -0.0127 -0.7818
 1880SOL     OW17275   0.647   1.334  15.940 -0.3427 -0.4324 -0.0794
 1880SOL    HW117276   0.573   1.349  15.881 -0.6461  1.2152  0.7155
 1880SOL    HW217277   0.618   1.253  15.983  1.3284 -1.0800 -0.2030
 1881SOL     OW17278   4.340   1.651   7.921  0.1971  0.4350 -0.3170
 1881SOL    HW117279   4.303   1.709   7.987 -1.0029 -1.5321  0.7402
 1881SOL    HW217280   4.393   1.711   7.868  1.7973  0.8246  1.7244
 1882SOL     OW17281   3.164   3.730   2.909 -0.5068 -0.8166  0.1791
 1882SOL    HW117282   3.097   3.738   2.978 -0.2883  0.8868  0.1680
 1882SOL    HW217283   3.183   3.636   2.917  1.1284 -0.4179  0.7645
 1883SOL     OW17284   0.350   4.065  17.521  0.0507 -0.2277 -0.0012
 1883SOL    HW117285   0.391   4.142  17.560 -1.5642 -0.1715  1.6192
 1883SOL    HW217286   0.302   4.112  17.453 -0.2737 -1.2238 -0.4659
 1884SOL     OW17287   2.985   1.792   5.545  0.0627  0.6070  0.4331
 1884SOL    HW117288   2.995   1.843   5.464  1.3439  0.3774  0.4460
 1884SOL    HW217289   3.073   1.764   5.570 -0.4077 -2.8056 -1.7171
 1885SOL     OW17290   0.405   3.901   8.936  0.3947  0.4984 -0.4536
 1885SOL    HW117291   0.491   3.923   8.900  0.6211 -0.9158 -0.7604
 1885SOL    HW217292   0.425   3.904   9.030 -2.7831  0.5704  0.2358
 1886SOL     OW17293   3.236   2.399   2.570 -0.0458 -0.0867 -0.1405
 1886SOL    HW117294   3.288   2.479   2.577  1.3194 -0.8134 -1.8718
 1886SOL    HW217295   3.303   2.330   2.579  2.1419  1.8048 -2.0577
 1887SOL     OW17296   1.444   4.154   2.253 -0.7160  0.0836  0.4568
 1887SOL    HW117297   1.350   4.147   2.235 -0.5421  1.8905 -1.1352
 1887SOL    HW217298   1.460   4.238   2.212  0.5753 -0.7778 -0.7891
 1888SOL     OW17299   3.795   3.601  15.496 -0.0777 -0.4925  0.1649
 1888SOL    HW117300   3.826   3.513  15.477 -1.6457 -0.5680 -2.0483
 1888SOL    HW217301   3.788   3.583  15.590  2.3461  0.4260  0.5171
 1889SOL     OW17302   4.224   3.555   4.836  0.0181  0.0919 -0.0822
 1889SOL    HW117303   4.164   3.539   4.764  0.6565 -0.1520 -0.5544
 1889SOL    HW217304   4.243   3.469   4.874 -0.1903  0.1465  0.1462
 1890SOL     OW17305   3.253   2.934   7.272 -0.1117  0.3370 -0.4004
 1890SOL    HW117306   3.208   2.912   7.354  0.4213  1.8947  0.3168
 1890SOL    HW217307   3.199   3.005   7.239 -1.0980 -0.5150 -0.6186
 1891SOL     OW17308   0.648   2.636  12.768  0.4649 -0.0354  0.2113
 1891SOL    HW117309   0.581   2.635  12.835  1.0589  2.6149  0.8428
 1891SOL    HW217310   0.591   2.657  12.694  0.0851  2.6369  1.2572
 1892SOL     OW17311   2.840   2.893   3.294 -0.3497 -0.0811  0.1149
 1892SOL    HW117312   2.780   2.856   3.359 -1.3196 -0.6103 -1.0768
 1892SOL    HW217313   2.903   2.824   3.273  1.0435  1.2038  0.0545
 1893SOL     OW17314   0.211   1.777   9.009 -0.3589 -0.0705 -0.0801
 1893SOL    HW117315   0.273   1.741   8.946  0.6582 -2.4588  2.2880
 1893SOL    HW217316   0.192   1.691   9.048 -0.0592 -0.0713  0.0626
 1894SOL     OW17317   0.011   2.338   2.044 -0.1282  0.5684 -0.1850
 1894SOL    HW117318   4.725   2.430   2.056  1.4494  0.6462  2.1493
 1894SOL    HW217319   4.698   2.302   2.117  0.2594  1.0871  0.3319
 1895SOL     OW17320   4.293   3.789  13.377 -0.0702  0.0346 -0.6346
 1895SOL    HW117321   4.346   3.800  13.298  2.3520  1.0873  1.1199
 1895SOL    HW217322   4.289   3.693  13.381  2.1557 -0.1390 -2.4120
 1896SOL     OW17323   4.066   4.241  16.612  0.1107 -0.2155  0.2494
 1896SOL    HW117324   4.066   4.269  16.520  0.2142  2.2094  0.9902
 1896SOL    HW217325   4.101   4.153  16.609  1.0790  0.2037 -0.8897
 1897SOL     OW17326   1.416   2.624   7.913 -0.0013  0.2185 -0.2988
 1897SOL    HW117327   1.504   2.630   7.950 -1.0953 -1.8917  2.6198
 1897SOL    HW217328   1.439   2.582   7.830  1.3238  2.7611 -1.2185
 1898SOL     OW17329   4.326   4.557   1.988  0.1185 -0.4825  0.3211
 1898SOL    HW117330   4.410   4.596   2.008 -0.1755  1.8585 -2.8907
 1898SOL    HW217331   4.350   4.505   1.912  0.6749  0.2897 -0.0315
 1899SOL     OW17332   4.547   2.490   6.136  0.1776  0.2230 -0.2902
 1899SOL    HW117333   4.483   2.559   6.152 -1.1011 -1.4359  1.8584
 1899SOL    HW217334   4.493   2.469   6.059  1.1048 -3.9786  0.2091
 1900SOL     OW17335   1.984   3.713   8.262  0.1548 -0.5671 -0.1001
 1900SOL    HW117336   1.975   3.788   8.202 -0.9149 -1.6459 -1.2908
 1900SOL    HW217337   1.893   3.698   8.286 -0.4513 -0.3055 -2.2251
 1901SOL     OW17338   4.479   2.012   9.446 -0.5799 -0.6513 -0.0585
 1901SOL    HW117339   4.501   2.025   9.538 -1.5703  2.5926 -0.3017
 1901SOL    HW217340   4.457   2.101   9.419 -0.1387  0.2779  2.6525
 1902SOL     OW17341   0.642   2.858   9.330  0.1360  0.2300  0.5286
 1902SOL    HW117342   0.563   2.805   9.337 -0.6154  1.2754  0.0171
 1902SOL    HW217343   0.692   2.794   9.379 -1.6769 -0.8420  0.9906
 1903SOL     OW17344   4.188   2.006   8.008  0.3358 -0.5625  0.0878
 1903SOL    HW117345   4.244   1.977   7.935 -0.2384 -0.0703 -0.5497
 1903SOL    HW217346   4.169   1.931   8.063 -1.5136 -0.2494 -0.1509
 1904SOL     OW17347   2.121   0.225  17.150 -0.2982 -0.3638  0.1474
 1904SOL    HW117348   2.090   0.242  17.240  1.7272 -0.0746  0.7824
 1904SOL    HW217349   2.061   0.160  17.113  1.3184 -0.9716 -1.3583
 1905SOL     OW17350   3.787   1.051   6.338  0.2037 -0.0413  0.2200
 1905SOL    HW117351   3.708   0.996   6.346 -0.0274  0.6046  2.6238
 1905SOL    HW217352   3.769   1.133   6.384  1.1460  0.8869 -1.0843
 1906SOL     OW17353   4.537   4.464   6.885  0.2249 -0.0209  0.4998
 1906SOL    HW117354   4.597   4.416   6.827  0.1003 -2.2711  2.2364
 1906SOL    HW217355   4.603   4.521   6.924  1.8704 -0.1908 -1.9902
 1907SOL     OW17356   4.561   0.236   2.636  0.7686  0.1552  0.1219
 1907SOL    HW117357   4.630   0.171   2.624 -1.0966 -1.3990 -2.1178
 1907SOL    HW217358   4.605   0.317   2.611  0.1485  0.1818 -0.8894
 1908SOL     OW17359   2.303   2.900   6.358 -0.4207 -0.1867 -0.1713
 1908SOL    HW117360   2.396   2.910   6.380 -0.6073 -0.2931  0.6782
 1908SOL    HW217361   2.261   2.929   6.439  0.5667 -1.4895  0.8215
 1909SOL     OW17362   1.249   3.681   4.818 -0.2139 -0.4321  0.5083
 1909SOL    HW117363   1.309   3.609   4.800 -0.7649 -0.2501 -2.0387
 1909SOL    HW217364   1.210   3.655   4.902 -1.6200  1.0829  0.3354
 1910SOL     OW17365   3.623   4.178   4.866  0.0471 -0.3259  0.0468
 1910SOL    HW117366   3.599   4.087   4.880 -0.2640  0.1001  2.1954
 1910SOL    HW217367   3.651   4.191   4.956  0.3023 -3.1605  0.3633
 1911SOL     OW17368   0.270   3.734  10.788 -0.5277 -0.0137  0.2948
 1911SOL    HW117369   0.235   3.646  10.772 -0.1226 -0.2332  0.6220
 1911SOL    HW217370   0.192   3.784  10.811 -0.5417 -0.2025  0.6586
 1912SOL     OW17371   0.023   1.340   9.816 -0.3532  0.4398 -0.1397
 1912SOL    HW117372   0.005   1.327   9.723  0.2200 -0.3279 -0.1450
 1912SOL    HW217373   0.114   1.312   9.813 -1.2196 -2.4100 -0.4522
 1913SOL     OW17374   3.972   2.125   7.266 -0.1553 -0.1950  0.3003
 1913SOL    HW117375   3.918   2.189   7.313 -0.6773  0.8814 -1.7650
 1913SOL    HW217376   3.987   2.171   7.183  0.5505 -0.1733  0.4379
 1914SOL     OW17377   0.615   0.351  12.320 -0.3902 -0.9032  0.4650
 1914SOL    HW117378   0.570   0.317  12.243 -0.2271 -0.5623  0.2195
 1914SOL    HW217379   0.547   0.398  12.368 -2.5884 -1.8716 -1.7469
 1915SOL     OW17380   0.929   2.872   6.585 -0.4591  0.1357  0.3131
 1915SOL    HW117381   0.956   2.793   6.538 -0.2761  0.4305 -0.0761
 1915SOL    HW217382   0.979   2.941   6.543 -1.7277  0.9326  0.1272
 1916SOL     OW17383   4.271   0.772   1.511  0.6878 -0.2149 -0.6530
 1916SOL    HW117384   4.267   0.695   1.455  0.1531 -1.7077  1.4361
 1916SOL    HW217385   4.298   0.849   1.461 -1.0756  2.5146  2.5765
 1917SOL     OW17386   1.980   4.675   2.613  0.1546  0.6230  0.5517
 1917SOL    HW117387   2.030   4.671   2.531  0.3219  0.8674  0.6424
 1917SOL    HW217388   1.895   4.694   2.573  0.9562  1.9472 -0.5228
 1918SOL     OW17389   4.449   1.211   3.733 -0.1417  0.4264  0.2359
 1918SOL    HW117390   4.527   1.183   3.685 -0.0640 -1.3752  1.4095
 1918SOL    HW217391   4.466   1.163   3.814 -0.2675  0.3393  0.2110
 1919SOL     OW17392   4.254   4.529   2.361  0.8719  0.3687  0.4200
 1919SOL    HW117393   4.177   4.472   2.363 -0.5186  2.2230  0.0982
 1919SOL    HW217394   4.211   4.610   2.333 -0.8800 -0.1489  1.5444
 1920SOL     OW17395   1.736   3.178   2.725  0.0273 -0.2265 -0.3420
 1920SOL    HW117396   1.737   3.142   2.637  1.0663  1.2550 -0.9374
 1920SOL    HW217397   1.641   3.170   2.733 -0.3223  1.1449 -3.1014
 1921SOL     OW17398   4.017   0.931   4.902  0.3194 -0.1319 -0.1761
 1921SOL    HW117399   4.069   0.992   4.956  0.0768 -0.2750  0.2226
 1921SOL    HW217400   3.977   0.878   4.971 -1.2133 -1.4930 -2.1212
 1922SOL     OW17401   1.700   3.751   3.463  0.2244  0.2080  0.1376
 1922SOL    HW117402   1.669   3.841   3.455 -0.6914 -0.1487 -0.2077
 1922SOL    HW217403   1.663   3.730   3.549  2.3738  0.0563  1.0363
 1923SOL     OW17404   4.237   3.007   9.108  0.0662  0.3132  0.0377
 1923SOL    HW117405   4.148   2.998   9.142  0.3216  0.1320  0.6535
 1923SOL    HW217406   4.292   2.989   9.184  2.4398  2.1479 -1.2100
 1924SOL     OW17407   2.580   1.244   2.726 -0.0370 -0.4560 -0.3059
 1924SOL    HW117408   2.500   1.289   2.699  0.0193 -0.0121  0.2460
 1924SOL    HW217409   2.555   1.241   2.819  1.7474  0.7376  0.1987
 1925SOL     OW17410   0.351   3.427   7.341 -0.3277  0.2630  0.0003
 1925SOL    HW117411   0.304   3.420   7.258  2.0160 -0.2518 -1.3071
 1925SOL    HW217412   0.305   3.492   7.393  0.4093  0.1773  0.7592
 1926SOL     OW17413   3.839   3.380  13.163  0.0889 -0.0941  0.7531
 1926SOL    HW117414   3.927   3.416  13.154 -0.3394  0.8326  0.2973
 1926SOL    HW217415   3.782   3.450  13.195 -0.1119  0.4932 -0.8648
 1927SOL     OW17416   2.759   3.536  17.454 -0.3290  0.0412  0.2306
 1927SOL    HW117417   2.814   3.464  17.425  2.4046  2.6093 -0.8989
 1927SOL    HW217418   2.669   3.509  17.434 -0.4457 -0.2062  1.0885
 1928SOL     OW17419   1.238   3.665   5.730  0.0104  0.1113 -0.2306
 1928SOL    HW117420   1.193   3.598   5.782 -0.0933  0.4304  0.0930
 1928SOL    HW217421   1.216   3.632   5.643  2.6468 -0.3167 -0.7152
 1929SOL     OW17422   1.267   0.265   2.397  0.2333 -0.1355 -0.2505
 1929SOL    HW117423   1.210   0.261   2.320  2.0167  1.6201 -1.6369
 1929SOL    HW217424   1.253   0.173   2.421  2.9681 -0.9600 -1.8786
 1930SOL     OW17425   3.949   3.126   7.924 -0.0034 -0.1914 -0.2694
 1930SOL    HW117426   3.987   3.098   8.008  1.1115 -2.9228 -1.7024
 1930SOL    HW217427   3.880   3.188   7.948  1.9256  1.5329  0.9590
 1931SOL     OW17428   2.380   0.251  10.824  0.0483 -0.5695 -0.0931
 1931SOL    HW117429   2.374   0.345  10.809 -0.5769 -0.3386  1.5748
 1931SOL    HW217430   2.428   0.239  10.906  1.2134 -0.1979 -0.7152
 1932SOL     OW17431   1.848   2.735   5.454  0.6615  0.0699 -0.3801
 1932SOL    HW117432   1.851   2.744   5.549  1.0717 -1.1453 -0.2832
 1932SOL    HW217433   1.795   2.657   5.437  0.0090  0.1251  1.4446
 1933SOL     OW17434   4.254   0.889   3.518  0.0489  0.3302  0.2927
 1933SOL    HW117435   4.220   0.975   3.495  0.8511  0.7037  0.5227
 1933SOL    HW217436   4.304   0.910   3.597 -0.1061  0.9876  0.2101
 1934SOL     OW17437   1.023   4.513   4.982 -0.1931 -0.2254 -0.5115
 1934SOL    HW117438   1.075   4.571   5.037  0.0349 -0.9805  0.0702
 1934SOL    HW217439   0.976   4.580   4.932 -1.6792 -1.6498 -1.0320
 1935SOL     OW17440   4.714   3.261   3.167 -0.0231  0.0660 -0.7504
 1935SOL    HW117441   0.070   3.236   3.157  0.0366  0.0807 -0.2303
 1935SOL    HW217442   4.702   3.291   3.077 -2.9046  4.1731  1.0180
 1936SOL     OW17443   2.909   4.429   8.233 -0.4075  0.1966  0.0715
 1936SOL    HW117444   2.967   4.438   8.157 -1.2674  0.0395 -0.5963
 1936SOL    HW217445   2.823   4.443   8.193 -0.6134  1.7239  1.0651
 1937SOL     OW17446   2.679   4.298  10.063 -0.2635  0.3037  0.9838
 1937SOL    HW117447   2.749   4.236  10.080  0.6971  0.6311 -1.7382
 1937SOL    HW217448   2.613   4.275  10.128 -0.0711 -3.4686 -0.1538
 1938SOL     OW17449   4.637   3.240   1.060 -0.3124  0.3899 -0.0279
 1938SOL    HW117450   4.640   3.288   1.143 -0.3081  0.2087  0.0772
 1938SOL    HW217451   4.598   3.298   0.994 -1.5731  1.0330  1.2720
 1939SOL     OW17452   3.433   2.003   8.545  0.1975  0.0406 -0.0870
 1939SOL    HW117453   3.347   2.040   8.529 -0.4666 -1.3085  0.3260
 1939SOL    HW217454   3.462   2.048   8.624  1.0097  1.2654 -1.0855
 1940SOL     OW17455   3.440   3.550  15.505  0.3808 -0.0946 -0.0788
 1940SOL    HW117456   3.472   3.592  15.425  1.6209 -1.1005 -0.1082
 1940SOL    HW217457   3.350   3.526  15.483  0.4630 -0.4734 -0.0000
 1941SOL     OW17458   0.751   1.681   6.517  0.1427 -0.0126 -0.0832
 1941SOL    HW117459   0.679   1.626   6.548  0.4026 -0.3040 -0.0057
 1941SOL    HW217460   0.808   1.618   6.473  1.6964  1.2858  0.0632
 1942SOL     OW17461   3.645   3.899  14.778  0.1707 -0.6704 -0.2622
 1942SOL    HW117462   3.693   3.945  14.709 -0.9936  1.7850  0.5581
 1942SOL    HW217463   3.669   3.809  14.755 -1.8015 -0.9546 -1.2119
 1943SOL     OW17464   0.027   3.630  10.687 -0.2528 -0.4961  0.0556
 1943SOL    HW117465   4.671   3.650  10.697  0.1191  0.5610  1.2419
 1943SOL    HW217466   0.048   3.674  10.605  0.2967 -0.9922 -0.0754
 1944SOL     OW17467   0.316   3.910   2.002 -0.5819 -0.3505 -0.9408
 1944SOL    HW117468   0.248   3.846   2.022  1.7238 -2.8104 -1.0281
 1944SOL    HW217469   0.342   3.926   2.093 -2.9973 -0.0251 -0.2845
 1945SOL     OW17470   4.565   3.735   7.455  0.0714  0.1812  0.1294
 1945SOL    HW117471   4.598   3.768   7.371 -0.2288 -1.1351 -0.5026
 1945SOL    HW217472   4.544   3.812   7.507 -0.2284  0.6170 -0.6326
 1946SOL     OW17473   0.176   1.312   1.567 -0.2437 -0.7999  0.0170
 1946SOL    HW117474   0.155   1.268   1.485 -2.0049  0.9531 -0.4541
 1946SOL    HW217475   0.205   1.398   1.538  0.0066 -1.0078 -0.3375
 1947SOL     OW17476   3.183   1.513   9.653 -0.0948 -0.0961 -0.1896
 1947SOL    HW117477   3.268   1.542   9.688 -0.4084  0.8155 -0.1791
 1947SOL    HW217478   3.206   1.430   9.611 -1.2029 -2.0096  2.9611
 1948SOL     OW17479   3.318   2.838  13.038 -0.2495 -0.2091 -0.2552
 1948SOL    HW117480   3.388   2.857  13.101 -0.9171 -0.1143  0.4583
 1948SOL    HW217481   3.353   2.877  12.958  0.9002 -0.4308  0.1384
 1949SOL     OW17482   0.676   3.803  13.006  0.3152 -0.2342  0.3027
 1949SOL    HW117483   0.682   3.842  13.094 -1.2567 -1.2564  0.8667
 1949SOL    HW217484   0.599   3.749  13.020 -0.2070 -0.0929 -2.0888
 1950SOL     OW17485   4.163   0.826   7.022 -0.2129 -1.0769  0.5101
 1950SOL    HW117486   4.078   0.860   7.053  0.2417  0.8041 -0.3356
 1950SOL    HW217487   4.205   0.911   7.025 -1.6094 -0.3187 -1.6356
 1951SOL     OW17488   2.105   3.087   0.739 -0.2146 -0.4463 -0.0039
 1951SOL    HW117489   2.174   3.146   0.769 -0.0189 -1.6379  1.8672
 1951SOL    HW217490   2.076   3.119   0.653 -0.9492  0.9013  0.7350
 1952SOL     OW17491   2.404   4.620  10.911 -0.1057  0.3929  0.0978
 1952SOL    HW117492   2.381   4.672  10.834  1.1555  0.8270  0.0136
 1952SOL    HW217493   2.499   4.615  10.896  0.2509  0.0772  2.4664
 1953SOL     OW17494   4.216   3.951   6.459 -0.2053 -0.2419 -0.8218
 1953SOL    HW117495   4.235   3.964   6.366  0.4526 -3.1477 -1.1219
 1953SOL    HW217496   4.149   3.883   6.459  0.6758 -1.1146  0.0900
 1954SOL     OW17497   2.818   0.761   4.055 -0.1306  0.3916 -0.2600
 1954SOL    HW117498   2.819   0.666   4.070 -2.6262  0.3251 -0.5866
 1954SOL    HW217499   2.785   0.760   3.966 -1.5334 -0.0083  0.2534
 1955SOL     OW17500   3.127   0.358   5.463 -0.4894  0.1068 -0.0047
 1955SOL    HW117501   3.032   0.349   5.469 -0.3922 -1.5169 -0.8664
 1955SOL    HW217502   3.129   0.423   5.393  1.8857 -0.7668 -0.7378
 1956SOL     OW17503   0.290   0.073   5.436  0.8951 -0.2602 -0.0783
 1956SOL    HW117504   0.204   0.056   5.476  0.6040  2.5885  0.5423
 1956SOL    HW217505   0.338   0.048   5.515  1.7704  1.4815 -0.0518
 1957SOL     OW17506   4.546   3.464   0.602  0.0637 -0.3357 -0.2296
 1957SOL    HW117507   4.603   3.388   0.595  0.7752  0.3833 -2.2595
 1957SOL    HW217508   4.490   3.445   0.527 -0.7968  0.2258  0.2588
 1958SOL     OW17509   0.471   0.348   3.410  0.5814  0.2268 -0.2159
 1958SOL    HW117510   0.482   0.354   3.315  3.8151 -0.8720  0.0588
 1958SOL    HW217511   0.496   0.256   3.416 -0.1344  0.0406 -0.1158
 1959SOL     OW17512   0.377   1.611   3.574  0.2934 -0.0074 -0.2399
 1959SOL    HW117513   0.390   1.677   3.641 -0.8528 -2.3150  2.2236
 1959SOL    HW217514   0.291   1.634   3.540  0.2898 -0.5886 -0.6244
 1960SOL     OW17515   0.152   4.475  16.285 -0.0526 -0.1889  0.2265
 1960SOL    HW117516   0.101   4.441  16.359 -1.7758 -0.6809 -1.2065
 1960SOL    HW217517   0.193   4.553  16.322  1.1670 -0.1557 -1.2242
 1961SOL     OW17518   2.721   2.595  16.847 -0.7807  0.0786  0.4872
 1961SOL    HW117519   2.773   2.670  16.819 -0.3864  0.1047  1.3049
 1961SOL    HW217520   2.650   2.609  16.784  0.3400 -1.7043 -1.1902
 1962SOL     OW17521   3.038   0.876   5.399 -0.7476  0.2044  0.2339
 1962SOL    HW117522   3.036   0.913   5.488 -1.0978  1.7246 -0.4047
 1962SOL    HW217523   3.129   0.849   5.391  0.1108  2.5443  2.0893
 1963SOL     OW17524   1.219   1.241  11.279 -0.2427 -0.4187  0.4231
 1963SOL    HW117525   1.313   1.260  11.281  0.0439 -1.8961  1.1555
 1963SOL    HW217526   1.220   1.145  11.277  1.4223 -0.3335 -2.5032
 1964SOL     OW17527   4.207   0.926   3.180  0.2411 -0.4900 -0.3481
 1964SOL    HW117528   4.273   0.877   3.130  0.6661 -0.1821 -0.0804
 1964SOL    HW217529   4.168   0.846   3.217  0.1494 -0.0427  0.5099
 1965SOL     OW17530   0.948   1.462   7.130 -0.2428 -0.3345 -0.3413
 1965SOL    HW117531   0.945   1.452   7.225  1.1717 -0.3536 -0.2882
 1965SOL    HW217532   0.976   1.375   7.098 -0.2001 -0.5517  0.2980
 1966SOL     OW17533   2.279   2.648  15.961 -0.2766 -0.1722 -0.0618
 1966SOL    HW117534   2.305   2.609  15.877 -0.2070  2.8042 -1.4260
 1966SOL    HW217535   2.366   2.683  15.984  0.1345 -0.5670 -1.0357
 1967SOL     OW17536   1.704   0.198   2.566 -0.4889  0.5584 -0.4467
 1967SOL    HW117537   1.718   0.221   2.658  0.7167 -1.8325 -0.0445
 1967SOL    HW217538   1.659   0.114   2.572  0.0775 -0.0601 -4.7943
 1968SOL     OW17539   4.235   0.223  14.546  0.0145  0.0417 -0.3999
 1968SOL    HW117540   4.246   0.252  14.455 -0.8685  1.3290 -0.0845
 1968SOL    HW217541   4.142   0.239  14.559 -0.5258 -1.7814 -2.0813
 1969SOL     OW17542   2.879   2.586  17.249  0.2064 -0.4743 -0.2426
 1969SOL    HW117543   2.839   2.637  17.319  1.7787 -1.0625  1.0903
 1969SOL    HW217544   2.877   2.652  17.179 -0.9541 -0.7988 -0.5079
 1970SOL     OW17545   2.200   1.803   0.665  0.2661  0.2287  0.2722
 1970SOL    HW117546   2.148   1.846   0.597 -0.9456 -1.0093  0.4139
 1970SOL    HW217547   2.202   1.876   0.727 -2.5169  2.4359 -2.2995
 1971SOL     OW17548   4.669   4.448   1.670 -0.2326  0.7075  0.0401
 1971SOL    HW117549   4.655   4.484   1.757  0.2891 -0.5892  0.6709
 1971SOL    HW217550   4.581   4.418   1.648 -0.3544  0.0455  1.4337
 1972SOL     OW17551   4.053   0.783  11.744 -0.4035 -0.1872  0.4427
 1972SOL    HW117552   4.074   0.786  11.838  1.2333 -0.6783  0.1044
 1972SOL    HW217553   3.987   0.851  11.736 -0.3616 -0.2606 -0.5263
 1973SOL     OW17554   0.914   3.424  13.796  0.0133 -0.0992  0.2511
 1973SOL    HW117555   0.945   3.351  13.849  0.6383  0.0308  0.0683
 1973SOL    HW217556   0.819   3.423  13.806  0.0868 -0.8959  0.8959
 1974SOL     OW17557   2.598   0.701   4.932  0.4320  0.5769 -0.0315
 1974SOL    HW117558   2.542   0.749   4.993 -0.2408  0.3208 -0.4388
 1974SOL    HW217559   2.679   0.701   4.983 -0.4793 -0.4266  1.4289
 1975SOL     OW17560   3.983   4.065  11.675  0.0197  0.2794 -0.1087
 1975SOL    HW117561   3.978   3.986  11.728  0.4707  1.4896  1.7709
 1975SOL    HW217562   3.983   4.013  11.596 -2.9928  0.0657  0.0440
 1976SOL     OW17563   3.422   0.508   0.758  0.2366 -0.3672 -0.2667
 1976SOL    HW117564   3.345   0.530   0.811 -0.0964 -0.2759 -0.7879
 1976SOL    HW217565   3.495   0.555   0.799  1.0415  0.3830 -2.5807
 1977SOL     OW17566   4.185   2.046   2.563 -0.3351 -0.3451  0.1821
 1977SOL    HW117567   4.124   2.105   2.518  0.9791  1.4492  0.7298
 1977SOL    HW217568   4.240   2.110   2.608  0.6834 -1.7565  0.9468
 1978SOL     OW17569   1.592   1.916   7.829 -0.1871 -0.0020 -0.3672
 1978SOL    HW117570   1.561   1.993   7.782 -1.0411  0.0459  0.2869
 1978SOL    HW217571   1.512   1.883   7.870  0.4940 -1.8340 -0.4900
 1979SOL     OW17572   3.069   3.013   9.452 -0.1795 -0.4072 -0.4498
 1979SOL    HW117573   3.149   2.961   9.444  2.1157  2.9985  0.3459
 1979SOL    HW217574   3.122   3.090   9.476 -0.6936  0.0695 -0.8434
 1980SOL     OW17575   2.926   4.147   3.290 -0.4266 -0.2569 -0.2846
 1980SOL    HW117576   2.876   4.203   3.230  0.6435 -0.7236 -1.6141
 1980SOL    HW217577   2.876   4.066   3.279 -3.5748  1.4406  1.5114
 1981SOL     OW17578   3.067   3.154   5.581  0.2550  0.3486  0.3856
 1981SOL    HW117579   3.008   3.120   5.513 -0.0551 -0.8536  1.2531
 1981SOL    HW217580   3.007   3.197   5.642 -1.3240  0.3234 -1.1631
 1982SOL     OW17581   2.140   2.651   9.316 -0.1502  0.4557 -0.2383
 1982SOL    HW117582   2.080   2.685   9.382 -0.8610 -1.0136 -0.1249
 1982SOL    HW217583   2.088   2.682   9.242  1.8131 -0.8130 -2.1677
 1983SOL     OW17584   4.393   3.448  10.697 -0.3792  0.4040  0.0960
 1983SOL    HW117585   4.303   3.418  10.682  0.5249 -0.5683 -3.5817
 1983SOL    HW217586   4.440   3.373  10.660 -1.9399 -0.3157 -0.4292
 1984SOL     OW17587   1.230   0.640   3.959 -0.2069  0.3365  0.0933
 1984SOL    HW117588   1.185   0.573   3.907  0.0562 -0.1033  0.4399
 1984SOL    HW217589   1.155   0.693   3.986  0.4963  0.5226  1.6340
 1985SOL     OW17590   2.100   3.028   9.121 -0.4852 -0.7170  0.4887
 1985SOL    HW117591   2.100   3.108   9.068 -2.8026 -0.4208  0.9023
 1985SOL    HW217592   2.190   3.031   9.152  0.9705 -0.9952 -3.7833
 1986SOL     OW17593   2.725   3.868   6.405  0.2757 -0.1619  0.2061
 1986SOL    HW117594   2.760   3.956   6.391  0.4698 -0.0720  1.2772
 1986SOL    HW217595   2.670   3.857   6.327 -0.2524 -1.7748  0.8025
 1987SOL     OW17596   4.395   3.132  13.023  0.6044  0.9345 -0.6997
 1987SOL    HW117597   4.329   3.102  13.085  2.0380  0.2995  0.5053
 1987SOL    HW217598   4.435   3.200  13.077 -0.1721 -0.1614  1.2529
 1988SOL     OW17599   1.516   4.087   9.372  0.1183  0.3963 -0.0618
 1988SOL    HW117600   1.593   4.030   9.370 -0.8616 -0.8050 -2.3646
 1988SOL    HW217601   1.477   4.063   9.456 -0.6800 -0.6133 -0.7256
 1989SOL     OW17602   2.220   1.567   6.179  0.5581  0.1893 -0.3284
 1989SOL    HW117603   2.169   1.647   6.187  0.3577 -0.1875  2.2458
 1989SOL    HW217604   2.294   1.578   6.239 -0.6615  0.8452  1.0291
 1990SOL     OW17605   2.399   0.534   8.185 -0.0699 -0.1070  0.4332
 1990SOL    HW117606   2.479   0.526   8.133 -0.4849  2.6496 -0.6505
 1990SOL    HW217607   2.339   0.567   8.117  0.6363  1.4865  0.5852
 1991SOL     OW17608   0.304   3.454  10.959 -0.2508 -0.2291  0.3203
 1991SOL    HW117609   0.360   3.509  10.904  0.8582 -0.2460  1.4297
 1991SOL    HW217610   0.356   3.449  11.040 -1.3187  1.5555  1.1071
 1992SOL     OW17611   3.947   2.231  16.599  0.4440  0.3442  0.1574
 1992SOL    HW117612   4.001   2.285  16.542 -0.2080 -1.6845 -2.4076
 1992SOL    HW217613   3.868   2.284  16.606  1.2476  1.5834 -0.1955
 1993SOL     OW17614   1.042   0.102  13.193 -0.0124 -0.0395  0.1601
 1993SOL    HW117615   1.016   0.131  13.106  1.7498  2.5416  0.4852
 1993SOL    HW217616   1.068   0.184  13.234  2.1445  0.3598 -2.0304
 1994SOL     OW17617   1.670   2.627   8.005 -0.0793 -0.2502 -0.5636
 1994SOL    HW117618   1.687   2.535   8.027  2.1712 -0.2510 -2.3354
 1994SOL    HW217619   1.755   2.668   7.989  0.7278 -1.0404  1.5978
 1995SOL     OW17620   0.014   3.548   6.883 -0.9852 -0.1309 -0.4031
 1995SOL    HW117621   0.090   3.600   6.908 -0.8327 -0.4557 -0.1902
 1995SOL    HW217622   0.027   3.465   6.929 -2.4442 -1.2755 -2.0150
 1996SOL     OW17623   0.737   3.916   1.262  0.9625  0.6154 -0.5907
 1996SOL    HW117624   0.702   3.999   1.294 -0.5486  0.0283 -0.7605
 1996SOL    HW217625   0.659   3.864   1.278  1.2858 -0.4334 -2.3742
 1997SOL     OW17626   2.886   4.054   7.826  0.2157 -0.0845 -0.5841
 1997SOL    HW117627   2.945   4.129   7.820 -0.8449  0.9973  2.5261
 1997SOL    HW217628   2.916   3.974   7.782  0.5322  0.4714 -1.3698
 1998SOL     OW17629   2.948   3.584  14.841  0.0323  0.0797 -0.0385
 1998SOL    HW117630   2.857   3.591  14.813  0.5463 -0.7622 -1.8814
 1998SOL    HW217631   2.955   3.679  14.852 -0.1760  0.0635  0.2322
 1999SOL     OW17632   0.718   1.723   4.044 -0.1384  0.3818 -0.5327
 1999SOL    HW117633   0.653   1.691   4.106  0.3356  0.5820  0.0621
 1999SOL    HW217634   0.802   1.715   4.089 -0.1856  1.2438 -0.3015
 2000SOL     OW17635   4.734   2.572   8.279  0.0742 -0.1938  0.1586
 2000SOL    HW117636   0.001   2.519   8.199 -2.6266  1.7738 -1.2487
 2000SOL    HW217637   0.054   2.519   8.335  0.8323  0.1182 -0.2989
 2001SOL     OW17638   0.760   3.231   4.173  0.1761  0.0749  0.1416
 2001SOL    HW117639   0.818   3.304   4.195 -0.1872  1.2454 -2.7756
 2001SOL    HW217640   0.694   3.276   4.120  0.5772  0.9642  0.3971
 2002SOL     OW17641   0.369   3.741  15.353 -1.1532  0.7398 -0.0256
 2002SOL    HW117642   0.359   3.820  15.301 -2.5634  0.5570 -0.0242
 2002SOL    HW217643   0.464   3.737  15.366 -1.0102  1.5605 -0.7997
 2003SOL     OW17644   0.056   2.282   4.724  0.4489  0.2326 -0.2249
 2003SOL    HW117645   0.086   2.333   4.799  0.3203 -0.4818  0.3100
 2003SOL    HW217646   0.129   2.223   4.710 -0.4544 -1.4715  2.3460
 2004SOL     OW17647   1.333   4.013   6.128 -0.1324  0.6405 -0.0614
 2004SOL    HW117648   1.306   3.944   6.188  0.3438  1.2743  0.8664
 2004SOL    HW217649   1.278   3.992   6.052 -0.7815  1.9809  0.0343
 2005SOL     OW17650   0.975   2.569   1.554  0.2559 -0.1708 -0.0096
 2005SOL    HW117651   0.950   2.637   1.617  0.9143  0.7816 -0.7707
 2005SOL    HW217652   1.065   2.592   1.531 -0.7825  2.7103 -1.2193
 2006SOL     OW17653   2.791   0.646   6.460 -0.7151  0.1635 -0.2518
 2006SOL    HW117654   2.783   0.571   6.520  2.4710  0.5026  0.6073
 2006SOL    HW217655   2.718   0.629   6.401  1.1891 -1.3742 -2.1252
 2007SOL     OW17656   1.439   2.499   6.806  0.3451 -0.2208 -0.3553
 2007SOL    HW117657   1.394   2.432   6.754 -1.6425  1.2650 -0.5523
 2007SOL    HW217658   1.440   2.464   6.895  1.5760  0.8331  0.0468
 2008SOL     OW17659   1.240   0.697  11.594 -0.2807 -0.2767  1.2455
 2008SOL    HW117660   1.293   0.617  11.589  1.2246  0.7256  0.9127
 2008SOL    HW217661   1.155   0.658  11.572  0.8840 -2.9135  1.3440
 2009SOL     OW17662   1.998   4.067  11.428  0.3191  0.8850 -0.5513
 2009SOL    HW117663   1.948   4.120  11.490 -0.1150 -0.0144 -0.1337
 2009SOL    HW217664   2.080   4.116  11.424  2.0852 -1.9934  0.7511
 2010SOL     OW17665   1.131   4.107   5.349 -0.0663  0.0976 -0.4209
 2010SOL    HW117666   1.216   4.066   5.362  0.3865  0.3294 -2.6472
 2010SOL    HW217667   1.119   4.085   5.257  1.0174  1.9664 -0.9890
 2011SOL     OW17668   3.242   2.765   4.241  0.0819  0.3143  1.0352
 2011SOL    HW117669   3.281   2.678   4.254  1.6756  0.9176  0.2383
 2011SOL    HW217670   3.234   2.806   4.327 -2.1746 -1.5220  1.7165
 2012SOL     OW17671   2.652   0.763   3.318  0.1382  0.1699 -0.0566
 2012SOL    HW117672   2.674   0.729   3.231 -2.0272  1.7421 -1.2331
 2012SOL    HW217673   2.668   0.683   3.369  1.5727 -0.2480 -1.1533
 2013SOL     OW17674   0.622   4.471   5.544 -0.2697 -0.2902  0.1116
 2013SOL    HW117675   0.584   4.484   5.457  0.5722  2.1998  0.1213
 2013SOL    HW217676   0.572   4.402   5.588  2.2690 -0.9060  2.0414
 2014SOL     OW17677   1.654   0.104   4.577  0.3986 -0.2498  0.0219
 2014SOL    HW117678   1.710   0.027   4.566  0.1584 -0.4455  0.1700
 2014SOL    HW217679   1.658   0.140   4.489 -0.8778 -1.8906 -0.7003
 2015SOL     OW17680   3.270   1.335   7.185 -0.1577  0.2780  0.0440
 2015SOL    HW117681   3.287   1.250   7.226 -0.8544  0.3395  0.4483
 2015SOL    HW217682   3.352   1.385   7.189 -0.3367  0.6937 -1.3376
 2016SOL     OW17683   3.711   0.953   7.828 -0.0098  0.3692 -0.2714
 2016SOL    HW117684   3.763   0.954   7.747  0.5645 -1.1036  0.0961
 2016SOL    HW217685   3.639   1.011   7.803 -0.0003  0.2758 -0.5157
 2017SOL     OW17686   2.705   4.402   7.721  0.9375 -0.7799 -0.5011
 2017SOL    HW117687   2.632   4.383   7.779  0.3135  1.0407 -0.6704
 2017SOL    HW217688   2.743   4.480   7.761  0.1827 -1.4872  1.5705
 2018SOL     OW17689   4.043   3.450   1.425  0.3397  0.5678 -0.2687
 2018SOL    HW117690   3.984   3.385   1.462 -1.3844  2.0372 -0.4553
 2018SOL    HW217691   3.993   3.486   1.352  1.8975 -1.1806 -2.1871
 2019SOL     OW17692   0.298   4.708   0.815 -0.5854  0.2356 -0.2111
 2019SOL    HW117693   0.269   4.706   0.724 -1.2191 -1.0739  0.0122
 2019SOL    HW217694   0.329   0.061   0.806 -1.2540  0.6186  1.2767
 2020SOL     OW17695   2.928   3.752   6.537  0.3976  0.2039 -0.3192
 2020SOL    HW117696   2.865   3.800   6.484 -0.4477  0.3478  0.8058
 2020SOL    HW217697   2.919   3.797   6.621 -1.1051  1.0318 -0.9318
 2021SOL     OW17698   2.997   1.480   5.961 -0.5533  0.0840  0.2002
 2021SOL    HW117699   2.961   1.392   5.970 -2.1984  0.8178  0.7292
 2021SOL    HW217700   3.087   1.454   5.983 -0.9958  1.6273  3.7492
 2022SOL     OW17701   3.070   0.150  10.068  0.5188  0.1692  0.0637
 2022SOL    HW117702   3.054   0.065  10.026 -0.4183  1.3496 -1.9658
 2022SOL    HW217703   2.984   0.191  10.078 -0.6946 -2.7885  1.9041
 2023SOL     OW17704   1.558   3.644   3.924  0.6164  0.8319  0.4690
 2023SOL    HW117705   1.558   3.718   3.986 -0.1126 -0.5849  2.1557
 2023SOL    HW217706   1.640   3.661   3.877  0.3185 -0.9020 -0.6843
 2024SOL     OW17707   1.563   2.587   0.915  0.5758 -0.1895 -0.2952
 2024SOL    HW117708   1.641   2.534   0.933  0.4194 -0.2821  0.1102
 2024SOL    HW217709   1.503   2.542   0.975  0.2752  0.4126 -0.1392
 2025SOL     OW17710   2.935   1.999   6.759 -0.1104 -0.5514 -0.2457
 2025SOL    HW117711   2.907   1.910   6.777 -2.4611  0.3296  0.3822
 2025SOL    HW217712   2.919   1.997   6.664 -1.8963 -1.0201  0.0670
 2026SOL     OW17713   4.254   3.207   7.218 -0.3677 -0.1491  0.4286
 2026SOL    HW117714   4.236   3.224   7.311 -1.2949 -0.1166  0.2399
 2026SOL    HW217715   4.164   3.183   7.198  0.8181 -0.1883 -4.6838
 2027SOL     OW17716   3.917   0.160   1.708  0.4343 -0.3278  0.0769
 2027SOL    HW117717   3.925   0.127   1.798  1.6200 -0.2961 -0.0106
 2027SOL    HW217718   3.841   0.106   1.686  0.7731 -0.1609 -1.4863
 2028SOL     OW17719   0.420   1.320  10.441 -0.2317 -0.2423 -0.0885
 2028SOL    HW117720   0.450   1.385  10.504 -0.1249 -1.6933  1.3674
 2028SOL    HW217721   0.447   1.241  10.489  1.2829  1.2942  1.6143
 2029SOL     OW17722   1.440   0.293   7.140 -0.3798  0.3558 -0.0517
 2029SOL    HW117723   1.367   0.327   7.192 -1.0727 -0.2199 -0.6529
 2029SOL    HW217724   1.505   0.287   7.210  1.0011 -1.6432 -1.5299
 2030SOL     OW17725   3.800   0.623   4.473 -0.4154  0.2772 -0.4869
 2030SOL    HW117726   3.830   0.541   4.512 -0.9494  0.3108 -0.0114
 2030SOL    HW217727   3.864   0.683   4.510  0.8759 -2.7908  2.2530
 2031SOL     OW17728   3.116   4.686   8.815  0.5949  0.1903  0.1133
 2031SOL    HW117729   3.060   4.609   8.805  1.6282 -0.5554  0.0689
 2031SOL    HW217730   3.047   0.014   8.832 -0.1475 -0.3196 -0.9997
 2032SOL     OW17731   1.175   4.694   5.582  0.4695 -0.2914 -0.0446
 2032SOL    HW117732   1.139   0.045   5.570  0.1053 -0.3055  0.9629
 2032SOL    HW217733   1.148   4.659   5.497  0.4787 -0.4669  0.0256
 2033SOL     OW17734   2.947   2.272   3.369  0.6378  0.6630 -0.0895
 2033SOL    HW117735   3.020   2.268   3.430 -1.1366  0.2930  2.0182
 2033SOL    HW217736   2.878   2.245   3.430 -2.0347 -1.4139 -4.0161
 2034SOL     OW17737   4.278   3.538   5.657  0.1859  0.0683 -0.3321
 2034SOL    HW117738   4.194   3.549   5.614 -0.0955  0.4519  0.3052
 2034SOL    HW217739   4.249   3.533   5.748  0.4062 -0.7738 -0.3151
 2035SOL     OW17740   4.388   2.309   4.868  0.4288 -0.1129 -0.2323
 2035SOL    HW117741   4.338   2.386   4.839 -2.4016 -1.0359  2.1148
 2035SOL    HW217742   4.472   2.349   4.891  0.0907 -1.0555  2.7073
 2036SOL     OW17743   0.941   2.568   3.839 -0.2427  0.4262  0.1506
 2036SOL    HW117744   0.904   2.595   3.755  0.0972 -2.6858 -1.0023
 2036SOL    HW217745   0.953   2.650   3.887 -0.0186 -0.2286  1.1952
 2037SOL     OW17746   1.375   1.206   9.228 -0.1174  0.2106  0.4403
 2037SOL    HW117747   1.419   1.143   9.170 -0.5999 -1.0726  1.4864
 2037SOL    HW217748   1.295   1.154   9.226 -0.4304  0.7847 -2.7941
 2038SOL     OW17749   3.463   1.585   0.778  0.1164  0.4390 -0.1534
 2038SOL    HW117750   3.515   1.565   0.856  1.1695  0.5274 -0.8310
 2038SOL    HW217751   3.517   1.558   0.704  0.7742 -2.0699  1.2408
 2039SOL     OW17752   1.457   1.513   4.882  0.5777  0.1136 -0.3610
 2039SOL    HW117753   1.523   1.445   4.870  0.9263 -0.0915  2.7748
 2039SOL    HW217754   1.498   1.567   4.949  1.4976 -3.0375  1.6206
 2040SOL     OW17755   1.887   1.580   1.106 -0.0288 -0.0951  0.1511
 2040SOL    HW117756   1.952   1.526   1.151  1.6835  1.3583 -0.5795
 2040SOL    HW217757   1.810   1.524   1.118  1.1215 -1.3252  1.8662
 2041SOL     OW17758   2.518   0.387  13.099  0.2000 -0.0656 -0.1486
 2041SOL    HW117759   2.473   0.415  13.019  0.2913  0.9567  0.1528
 2041SOL    HW217760   2.447   0.347  13.148 -1.4063 -1.3104 -3.4922
 2042SOL     OW17761   1.468   1.620   6.548 -0.2070  0.3700 -0.0170
 2042SOL    HW117762   1.557   1.649   6.528 -0.1535  0.0371 -0.2766
 2042SOL    HW217763   1.476   1.524   6.549 -2.6846  0.1821  2.1386
 2043SOL     OW17764   4.705   2.393   6.459 -0.2711 -0.2340 -0.3103
 2043SOL    HW117765   0.027   2.454   6.504  0.2141 -0.6672 -0.3483
 2043SOL    HW217766   4.632   2.451   6.437 -2.4184 -2.1048  1.9205
 2044SOL     OW17767   0.452   0.377   7.682 -0.1763 -0.3887 -0.1417
 2044SOL    HW117768   0.511   0.442   7.645 -0.6510 -0.8684 -1.7527
 2044SOL    HW217769   0.477   0.377   7.775  0.1998 -2.1633 -0.2538
 2045SOL     OW17770   4.118   4.589  11.860 -0.2036  0.4816  0.0910
 2045SOL    HW117771   4.184   4.525  11.835 -0.6058 -0.8103  2.3981
 2045SOL    HW217772   4.065   4.540  11.922  0.5047 -0.4345 -0.0405
 2046SOL     OW17773   0.393   2.957   1.736  0.3505 -0.1769  0.5596
 2046SOL    HW117774   0.343   2.878   1.756  0.8890 -0.0089  2.4948
 2046SOL    HW217775   0.472   2.937   1.786  1.3791  1.1441 -0.5380
 2047SOL     OW17776   0.309   3.149   2.802 -0.6326  0.2256 -0.3597
 2047SOL    HW117777   0.247   3.149   2.729 -0.0789 -3.2107 -0.8056
 2047SOL    HW217778   0.291   3.230   2.850  1.0186 -0.3034  1.1857
 2048SOL     OW17779   3.764   0.816   4.011 -0.4250 -0.4802  0.0703
 2048SOL    HW117780   3.793   0.738   4.059  2.6811  0.7421  0.1863
 2048SOL    HW217781   3.781   0.886   4.074 -1.0100 -2.6353  2.6692
 2049SOL     OW17782   4.023   2.611   8.006 -0.3566  0.1647  0.4168
 2049SOL    HW117783   3.930   2.589   8.012 -1.0802  3.6156  1.5531
 2049SOL    HW217784   4.040   2.668   8.080 -0.0041  2.1518 -1.2094
 2050SOL     OW17785   4.474   0.088   7.452 -0.1170  0.1665 -0.1407
 2050SOL    HW117786   4.534   0.058   7.520 -0.0881 -1.1659 -0.7491
 2050SOL    HW217787   4.492   0.180   7.467 -0.6589  0.2021  0.2628
 2051SOL     OW17788   0.986   1.132   1.676  0.2707 -0.0351  0.6524
 2051SOL    HW117789   1.011   1.207   1.623 -3.3355 -0.1193 -1.1665
 2051SOL    HW217790   1.013   1.060   1.619  0.7009 -1.0354  2.0941
 2052SOL     OW17791   3.846   0.942   7.049  0.0430  0.6531 -0.1314
 2052SOL    HW117792   3.827   0.895   7.130 -4.3909 -1.1611 -2.2224
 2052SOL    HW217793   3.773   0.915   6.993 -1.0772  2.4234  0.4966
 2053SOL     OW17794   3.200   1.548   6.223  0.4448  0.0758 -0.1254
 2053SOL    HW117795   3.290   1.544   6.258  0.1755 -1.1463  0.4322
 2053SOL    HW217796   3.199   1.471   6.166  2.6920 -0.2357  0.2260
 2054SOL     OW17797   3.389   2.879   2.642 -0.1185  0.5674  0.4774
 2054SOL    HW117798   3.339   2.814   2.691 -1.2500  0.9558 -0.1629
 2054SOL    HW217799   3.427   2.934   2.710  1.6209  0.1063 -0.1223
 2055SOL     OW17800   1.116   1.765   8.481  0.3155 -0.3448  0.2017
 2055SOL    HW117801   1.154   1.678   8.466 -0.0912 -0.5195  0.1893
 2055SOL    HW217802   1.108   1.768   8.576 -1.3926  1.7953 -0.0172
 2056SOL     OW17803   0.905   2.211   0.922  0.1711 -0.1500  0.0220
 2056SOL    HW117804   1.000   2.199   0.916  0.1994  0.2591 -0.2928
 2056SOL    HW217805   0.877   2.262   0.847 -1.7143  0.9751  1.5031
 2057SOL     OW17806   3.270   4.350  14.135 -0.2946  0.0582  0.2427
 2057SOL    HW117807   3.220   4.429  14.157 -0.7363 -0.0344 -0.4168
 2057SOL    HW217808   3.203   4.288  14.106  2.7497 -3.5060  0.8693
 2058SOL     OW17809   0.460   3.461   2.847 -0.1293 -0.2655  0.3038
 2058SOL    HW117810   0.390   3.497   2.902  0.3030  1.4160 -0.2281
 2058SOL    HW217811   0.493   3.538   2.799  0.6806  0.0283  1.3338
 2059SOL     OW17812   1.393   4.245   6.001 -0.3949  0.0999 -0.4465
 2059SOL    HW117813   1.414   4.318   6.060  1.3617  0.8974 -2.0404
 2059SOL    HW217814   1.380   4.173   6.062 -1.2927 -0.1430 -0.9274
 2060SOL     OW17815   2.682   3.892   7.338 -0.0352 -0.1635 -0.9186
 2060SOL    HW117816   2.703   3.841   7.416  2.0876  1.8340 -0.1884
 2060SOL    HW217817   2.592   3.920   7.355  0.1993 -0.2076  0.4031
 2061SOL     OW17818   0.319   3.577   3.550  0.0081 -0.0452 -0.4537
 2061SOL    HW117819   0.284   3.490   3.567  3.4520 -1.1963  0.7274
 2061SOL    HW217820   0.380   3.556   3.479  0.5965 -0.2978  0.1273
 2062SOL     OW17821   0.711   4.634  12.032  0.2217  0.1824 -0.0476
 2062SOL    HW117822   0.625   4.676  12.030 -0.7290 -1.7434 -0.7388
 2062SOL    HW217823   0.756   4.666  11.954  0.7997  2.8737  1.4185
 2063SOL     OW17824   2.571   0.207   5.088 -0.2668 -0.1825  0.4469
 2063SOL    HW117825   2.544   0.292   5.052  3.9170  0.5496 -0.8991
 2063SOL    HW217826   2.659   0.202   5.051 -0.4229 -0.8945  0.1821
 2064SOL     OW17827   2.318   0.854   6.971 -0.2332 -0.1506  0.5124
 2064SOL    HW117828   2.303   0.762   6.949 -0.6355 -0.2844  1.3438
 2064SOL    HW217829   2.271   0.859   7.054 -3.5453  1.4933 -1.5061
 2065SOL     OW17830   1.623   1.507   0.893  0.5986  0.3167 -0.1798
 2065SOL    HW117831   1.660   1.467   0.972  0.1511 -1.1850 -0.7252
 2065SOL    HW217832   1.702   1.503   0.839 -0.0045  2.5915 -1.2329
 2066SOL     OW17833   3.873   0.313   1.490 -0.3608  0.1900 -0.4676
 2066SOL    HW117834   3.885   0.276   1.577 -0.9807  0.8946 -0.0839
 2066SOL    HW217835   3.916   0.393   1.522  0.2851 -1.6977  3.4106
 2067SOL     OW17836   1.903   2.561  14.282  0.0144 -0.1222 -0.3662
 2067SOL    HW117837   1.932   2.476  14.249  0.3986 -0.6521  1.3148
 2067SOL    HW217838   1.977   2.619  14.295 -0.1018 -0.0179 -0.1662
 2068SOL     OW17839   3.124   4.182  16.505  0.0911  0.0043 -0.2317
 2068SOL    HW117840   3.091   4.204  16.592 -2.4272 -0.5975 -1.0342
 2068SOL    HW217841   3.106   4.089  16.498  0.6122 -0.1136 -0.0013
 2069SOL     OW17842   0.992   2.059   1.865  0.5644 -0.5905 -0.3902
 2069SOL    HW117843   0.947   2.137   1.898  0.4305 -0.7563 -0.1864
 2069SOL    HW217844   1.078   2.101   1.873  1.3324 -1.8079 -2.5154
 2070SOL     OW17845   1.410   3.528   6.360  0.5664  0.3026 -0.4830
 2070SOL    HW117846   1.481   3.465   6.342  2.2307  2.4321 -1.4302
 2070SOL    HW217847   1.346   3.509   6.291  0.7581 -0.5022 -0.4401
 2071SOL     OW17848   0.698   2.531  15.622 -0.4685 -0.2168  0.1059
 2071SOL    HW117849   0.646   2.601  15.584 -1.1779 -0.9964 -0.3597
 2071SOL    HW217850   0.726   2.489  15.541 -0.5913 -1.9817  0.9666
 2072SOL     OW17851   0.474   0.651  15.739  0.0583 -0.2159  0.0176
 2072SOL    HW117852   0.569   0.651  15.729  0.0911  0.8839  0.2375
 2072SOL    HW217853   0.464   0.733  15.789  0.6013  0.3712 -0.8530
 2073SOL     OW17854   3.885   1.616   4.751 -0.1493  0.1811  0.0135
 2073SOL    HW117855   3.905   1.665   4.671 -0.0091  2.6312  1.5616
 2073SOL    HW217856   3.943   1.653   4.816 -0.8476 -1.1184  1.3738
 2074SOL     OW17857   0.601   2.757   1.841 -0.6025 -0.0780 -0.3700
 2074SOL    HW117858   0.558   2.684   1.887  0.5448  0.3033  1.3381
 2074SOL    HW217859   0.618   2.820   1.911 -2.0227 -0.0833 -0.0188
 2075SOL     OW17860   4.219   2.288  13.234 -0.1829  0.3861  0.5830
 2075SOL    HW117861   4.151   2.353  13.255  0.4296  0.2901  2.8769
 2075SOL    HW217862   4.168   2.208  13.243 -1.2110  1.0680  0.8589
 2076SOL     OW17863   3.914   4.595  10.941  0.2432 -0.1893  0.7423
 2076SOL    HW117864   3.878   4.547  10.866 -0.5139  0.8630  0.4247
 2076SOL    HW217865   3.928   4.685  10.910  0.9825 -0.5693 -0.0000
 2077SOL     OW17866   4.511   3.349   5.601 -0.0216 -0.2555  0.2679
 2077SOL    HW117867   4.440   3.352   5.537  0.0821  0.3542  0.1734
 2077SOL    HW217868   4.469   3.402   5.669  1.1487  1.1946 -0.1385
 2078SOL     OW17869   4.066   2.995   2.336 -0.4439 -0.6523 -0.0612
 2078SOL    HW117870   4.081   3.088   2.315 -1.4716 -0.1050  1.6371
 2078SOL    HW217871   3.991   2.975   2.280  0.0075 -2.4400 -0.0021
 2079SOL     OW17872   2.722   1.723   6.319  0.2074 -0.0463  0.2868
 2079SOL    HW117873   2.809   1.692   6.345 -0.3724 -0.5511  1.6755
 2079SOL    HW217874   2.743   1.728   6.226 -0.6429 -0.3784  0.0809
 2080SOL     OW17875   0.526   0.444   5.447 -0.4498  0.2383  0.1139
 2080SOL    HW117876   0.539   0.399   5.530  0.2497  0.0061 -0.1195
 2080SOL    HW217877   0.618   0.466   5.432 -0.6894 -0.3597 -2.3131
 2081SOL     OW17878   4.605   0.717   5.056 -0.4694  0.6369 -0.1252
 2081SOL    HW117879   4.528   0.745   5.007  0.0881  2.4191  0.0169
 2081SOL    HW217880   4.672   0.689   4.994 -0.6110  0.4915 -0.2124
 2082SOL     OW17881   2.260   0.929   6.215  0.0918 -0.1377 -0.5986
 2082SOL    HW117882   2.333   0.990   6.227  0.7707 -0.7645 -1.5688
 2082SOL    HW217883   2.184   0.981   6.241  0.2643  0.7187 -1.7871
 2083SOL     OW17884   2.399   1.268   8.722 -0.2264 -0.6489  0.0668
 2083SOL    HW117885   2.335   1.336   8.702  1.1372  0.5430 -0.1669
 2083SOL    HW217886   2.346   1.218   8.785  0.0290  1.4392  1.9381
 2084SOL     OW17887   1.275   3.290   7.644 -0.1545  0.3303 -0.1264
 2084SOL    HW117888   1.185   3.304   7.674  0.6667  1.2917  1.9373
 2084SOL    HW217889   1.249   3.226   7.578  0.4300  1.5534 -1.5351
 2085SOL     OW17890   4.081   2.885  16.693  0.3269  0.5502  0.4706
 2085SOL    HW117891   4.016   2.848  16.753  2.0523 -1.0398  1.3456
 2085SOL    HW217892   4.093   2.971  16.733  4.8309  1.3776 -2.7147
 2086SOL     OW17893   4.711   4.180  11.700  0.4333  0.3473  0.0453
 2086SOL    HW117894   4.654   4.213  11.769  1.9776 -0.3932  1.6676
 2086SOL    HW217895   4.648   4.155  11.633  0.0647 -1.4565  1.0534
 2087SOL     OW17896   3.296   2.735  17.300 -0.1957  0.2619  0.8247
 2087SOL    HW117897   3.389   2.739  17.322 -0.1729  0.2592  0.7293
 2087SOL    HW217898   3.269   2.811  17.247 -0.4930  0.6708  1.5605
 2088SOL     OW17899   4.121   1.356  12.640 -0.4303  0.5230  0.0867
 2088SOL    HW117900   4.177   1.279  12.640 -0.3798  0.5767  1.6562
 2088SOL    HW217901   4.055   1.327  12.577 -0.1360  0.9550 -0.4324
 2089SOL     OW17902   2.518   0.671   7.916  0.4852  0.1929  0.1734
 2089SOL    HW117903   2.539   0.762   7.899  1.5749 -0.1631 -0.3589
 2089SOL    HW217904   2.424   0.676   7.936  0.0105 -0.3542 -1.8974
 2090SOL     OW17905   2.357   0.035   6.406 -0.0186 -0.4223  0.1277
 2090SOL    HW117906   2.355   0.001   6.496 -0.4040 -0.7306  0.0023
 2090SOL    HW217907   2.296   4.708   6.371  0.1758 -0.4304 -0.1995
 2091SOL     OW17908   2.288   2.476   5.979  0.5363 -0.1170 -0.1114
 2091SOL    HW117909   2.332   2.508   5.901  0.6482  0.5377  0.2197
 2091SOL    HW217910   2.302   2.551   6.036  1.5912 -0.8176  0.5560
 2092SOL     OW17911   4.450   4.203   6.312 -0.3515  0.0751 -0.4307
 2092SOL    HW117912   4.475   4.147   6.385 -0.8297 -0.8892 -1.0030
 2092SOL    HW217913   4.406   4.138   6.257 -0.0759  0.0325 -0.5997
 2093SOL     OW17914   0.788   1.335   8.394 -0.4946 -0.2304  0.4499
 2093SOL    HW117915   0.711   1.300   8.349 -0.9575 -0.7454  1.6420
 2093SOL    HW217916   0.747   1.362   8.476 -0.3902 -2.7446  1.3256
 2094SOL     OW17917   2.123   1.191   2.796  0.3996  0.1032  0.2420
 2094SOL    HW117918   2.117   1.097   2.782 -0.4911  0.1809  0.1151
 2094SOL    HW217919   2.035   1.213   2.765  0.6775  0.6499 -0.1673
 2095SOL     OW17920   0.878   1.890   5.439  0.3360  0.1514 -0.5956
 2095SOL    HW117921   0.833   1.880   5.355  0.9804 -1.4004 -0.7693
 2095SOL    HW217922   0.861   1.810   5.489 -0.6029  1.6173  1.3863
 2096SOL     OW17923   2.539   0.090  15.046 -0.5329  0.2819  0.0013
 2096SOL    HW117924   2.533   0.007  15.093  2.6479 -0.3873 -0.7724
 2096SOL    HW217925   2.629   0.125  15.044 -0.6087  0.4091 -1.1033
 2097SOL     OW17926   2.086   3.320   5.183  0.3921  0.3897 -0.3200
 2097SOL    HW117927   1.995   3.338   5.204  0.7568  1.4314  0.3519
 2097SOL    HW217928   2.125   3.297   5.268  0.0789  0.5741 -0.1280
 2098SOL     OW17929   0.991   0.901   8.711  0.7003  0.2891 -0.5311
 2098SOL    HW117930   0.945   0.909   8.795 -2.1571  3.4255 -2.3676
 2098SOL    HW217931   0.929   0.848   8.662 -0.8026  0.9393  0.6469
 2099SOL     OW17932   4.054   4.036   6.739 -0.0624 -0.2712 -0.5302
 2099SOL    HW117933   4.055   4.092   6.662 -0.8597 -1.1706 -1.1844
 2099SOL    HW217934   4.139   3.993   6.726  0.1815 -1.2498  3.9863
 2100SOL     OW17935   4.080   2.609  16.635 -0.2708 -0.3442 -0.3383
 2100SOL    HW117936   4.172   2.583  16.627 -0.4021 -0.4157 -1.5875
 2100SOL    HW217937   4.086   2.705  16.627  0.7136 -0.2791  1.0569
 2101SOL     OW17938   4.407   3.257   2.179 -0.4331 -0.3243 -0.7009
 2101SOL    HW117939   4.396   3.167   2.150  2.3508 -0.5926 -0.9260
 2101SOL    HW217940   4.452   3.294   2.103 -1.9299  0.3878 -1.2441
 2102SOL     OW17941   2.250   4.242   0.956  0.1639  0.4331  0.2174
 2102SOL    HW117942   2.227   4.165   1.007 -1.3947  0.7998  0.0929
 2102SOL    HW217943   2.335   4.216   0.921  0.5319  0.8583  0.7974
 2103SOL     OW17944   3.687   4.428   9.871 -0.0509  0.1624  0.4048
 2103SOL    HW117945   3.607   4.438   9.922 -0.4492  0.3362 -0.2537
 2103SOL    HW217946   3.657   4.418   9.780 -0.1593 -0.6256  0.5280
 2104SOL     OW17947   4.402   0.617   2.841  0.3422  0.2400 -0.1004
 2104SOL    HW117948   4.403   0.666   2.923 -2.0828  1.0609 -0.5356
 2104SOL    HW217949   4.487   0.574   2.839  0.6893  0.8728  1.7996
 2105SOL     OW17950   4.208   3.270   7.480  0.1266  0.1670 -0.0959
 2105SOL    HW117951   4.190   3.218   7.559 -0.4609  1.0120  0.3233
 2105SOL    HW217952   4.164   3.352   7.498  0.0294  0.4138 -1.4377
 2106SOL     OW17953   1.230   0.014   7.892  0.2955  0.1942 -0.5262
 2106SOL    HW117954   1.250   0.008   7.985 -0.3256 -0.7704 -0.4567
 2106SOL    HW217955   1.141   4.714   7.889  0.5399 -0.3195 -1.5927
 2107SOL     OW17956   2.855   4.678   2.545 -0.0501 -0.0879  0.0191
 2107SOL    HW117957   2.762   4.681   2.569  0.3021  1.3019  1.1435
 2107SOL    HW217958   2.855   4.656   2.451 -2.8310 -0.4074  0.0917
 2108SOL     OW17959   2.549   3.586   5.775  0.4760  0.6160  0.0069
 2108SOL    HW117960   2.613   3.535   5.725 -0.3968 -0.2926 -0.1923
 2108SOL    HW217961   2.506   3.636   5.706 -0.3127  2.0847  1.5513
 2109SOL     OW17962   0.062   1.110   8.704 -0.0360  0.5811  0.0507
 2109SOL    HW117963   0.126   1.055   8.660  0.9028  0.3327  1.7238
 2109SOL    HW217964   0.119   1.177   8.740  0.5601  1.4924 -2.6475
 2110SOL     OW17965   2.177   1.404   0.111 -0.2579  0.2956  0.6035
 2110SOL    HW117966   2.206   1.464   0.042 -0.8615 -0.2926 -0.1565
 2110SOL    HW217967   2.210   1.436   0.194 -0.1721  0.1766  0.6162
 2111SOL     OW17968   3.431   4.219   5.890  0.2718 -0.3643 -0.0235
 2111SOL    HW117969   3.412   4.191   5.980 -0.0334  0.2017  0.0822
 2111SOL    HW217970   3.527   4.215   5.888  0.3798  2.2926 -0.4313
 2112SOL     OW17971   2.769   0.542   1.276  0.0572  0.0703  0.0489
 2112SOL    HW117972   2.811   0.465   1.239  0.1825  0.6012 -0.9092
 2112SOL    HW217973   2.691   0.494   1.305 -0.2744 -0.0549 -1.0509
 2113SOL     OW17974   2.675   1.303  15.171 -0.0560 -0.7004  0.2804
 2113SOL    HW117975   2.670   1.388  15.216  0.3327  1.8972 -4.5886
 2113SOL    HW217976   2.657   1.247  15.246 -0.6758 -0.6439  0.1745
 2114SOL     OW17977   0.907   1.222   6.897  0.0829 -0.4861  0.1062
 2114SOL    HW117978   0.980   1.197   6.839 -0.9380 -2.8082 -0.1850
 2114SOL    HW217979   0.850   1.266   6.835  2.2147  1.3235 -0.5899
 2115SOL     OW17980   1.646   0.184   6.999  0.1628 -0.3276  0.4656
 2115SOL    HW117981   1.647   0.274   6.965  0.3989  0.0489  1.4449
 2115SOL    HW217982   1.568   0.197   7.053  0.2717 -0.9427  0.7679
 2116SOL     OW17983   3.287   0.836   9.540  0.6200 -0.2606  0.5874
 2116SOL    HW117984   3.338   0.782   9.599 -1.5150 -1.8145  1.0194
 2116SOL    HW217985   3.206   0.844   9.590  1.5403 -5.1046  2.8018
 2117SOL     OW17986   1.413   1.461  11.485 -0.1839 -0.0621  0.4451
 2117SOL    HW117987   1.342   1.473  11.548  0.2779  1.5475  0.6512
 2117SOL    HW217988   1.425   1.549  11.449 -0.2794 -1.0383 -1.9881
 2118SOL     OW17989   1.049   3.637   1.133  0.0443  0.1269  0.0338
 2118SOL    HW117990   1.049   3.684   1.216  1.8799  1.2153 -0.5782
 2118SOL    HW217991   1.106   3.696   1.083 -1.8699  0.4644 -1.7503
 2119SOL     OW17992   0.785   1.479   2.380 -0.4266 -0.2344  0.7036
 2119SOL    HW117993   0.869   1.511   2.411 -0.4115  0.1419  0.2876
 2119SOL    HW217994   0.795   1.505   2.288 -0.2213  0.6777  0.9831
 2120SOL     OW17995   4.651   3.016   2.858  0.0139 -0.5830  0.3641
 2120SOL    HW117996   4.663   3.111   2.856 -1.1990 -0.4464 -0.2844
 2120SOL    HW217997   4.558   2.996   2.872  0.3963 -3.4690 -1.2123
 2121SOL     OW17998   0.595   2.320   1.879  0.6271  0.3415  0.2358
 2121SOL    HW117999   0.572   2.276   1.797  1.4429 -2.1831  1.3547
 2121SOL    HW218000   0.539   2.397   1.878  0.5267  0.2599 -0.2970
 2122SOL     OW18001   2.692   3.791   1.933  0.0859 -0.8493  0.3657
 2122SOL    HW118002   2.750   3.851   1.888 -0.8540 -1.3482 -1.4877
 2122SOL    HW218003   2.752   3.767   2.004  0.5224  0.8102  0.5588
 2123SOL     OW18004   0.232   2.718  17.020 -0.1516  0.0113 -0.7459
 2123SOL    HW118005   0.267   2.629  17.020  0.0854  0.0932  2.1316
 2123SOL    HW218006   0.139   2.703  17.001  0.4367 -2.0707 -2.0042
 2124SOL     OW18007   2.038   3.890   1.498 -0.0687 -0.1046 -0.0739
 2124SOL    HW118008   2.123   3.878   1.457 -1.0479  0.3859 -2.2321
 2124SOL    HW218009   2.050   3.960   1.562 -1.1376 -0.1037  0.1304
 2125SOL     OW18010   1.209   0.428  12.779  0.5433 -0.2642  0.5629
 2125SOL    HW118011   1.303   0.443  12.776  0.5620 -0.6317 -0.7210
 2125SOL    HW218012   1.179   0.451  12.867  0.3697 -0.2409  0.4984
 2126SOL     OW18013   2.104   1.195   5.992 -0.0832  0.1619 -0.7743
 2126SOL    HW118014   2.193   1.209   6.023 -1.0395  0.9956  1.5875
 2126SOL    HW218015   2.116   1.124   5.929 -1.5419  0.9239 -1.9142
 2127SOL     OW18016   2.405   1.776  12.095  0.1088  0.0655 -0.2693
 2127SOL    HW118017   2.425   1.852  12.150  1.2982  0.6246 -1.4679
 2127SOL    HW218018   2.335   1.807  12.038  1.5315 -0.9327 -2.5736
 2128SOL     OW18019   2.464   3.937  16.738  0.2320 -0.1499 -0.3120
 2128SOL    HW118020   2.547   3.977  16.760  1.6352 -1.8841 -2.4054
 2128SOL    HW218021   2.409   4.014  16.752 -0.2953 -0.7748  1.0463
 2129SOL     OW18022   2.956   3.024  11.420  0.4092 -0.3445  0.2617
 2129SOL    HW118023   3.005   2.943  11.439  1.4007  0.3246  0.5559
 2129SOL    HW218024   2.952   3.010  11.325 -1.9619 -1.4233  0.5270
 2130SOL     OW18025   4.561   3.134   9.047 -0.0124  0.4263  0.2481
 2130SOL    HW118026   4.470   3.163   9.038  0.1967  1.2447  0.7447
 2130SOL    HW218027   4.553   3.047   9.007 -0.2204  0.5246  0.0749
 2131SOL     OW18028   1.925   2.722   5.718 -0.3498 -0.0163  0.2900
 2131SOL    HW118029   1.853   2.777   5.748 -0.7354 -0.9567  1.0910
 2131SOL    HW218030   1.989   2.749   5.783  1.7982 -1.3927 -1.2422
 2132SOL     OW18031   0.909   1.627   8.732  0.0177 -0.5564 -0.1720
 2132SOL    HW118032   0.956   1.711   8.738  1.3979 -1.4716  1.8417
 2132SOL    HW218033   0.853   1.645   8.657 -0.0884  1.7741  0.4624
 2133SOL     OW18034   4.645   3.627   5.349  0.1425 -0.3739  0.2229
 2133SOL    HW118035   4.575   3.686   5.376 -0.1772 -2.1669  3.2812
 2133SOL    HW218036   4.707   3.694   5.319 -0.3057 -0.5325 -1.0578
 2134SOL     OW18037   0.601   1.959   5.115  0.5787 -0.2308 -0.1808
 2134SOL    HW118038   0.653   2.034   5.144  0.5550 -0.5568  0.7223
 2134SOL    HW218039   0.654   1.882   5.136  1.1003  0.3250  0.5552
 2135SOL     OW18040   1.046   3.089   5.651 -0.0896 -0.3577 -0.5060
 2135SOL    HW118041   1.067   3.058   5.738 -0.4041 -3.0317 -1.3905
 2135SOL    HW218042   1.136   3.107   5.624  0.1715 -1.4401 -0.3494
 2136SOL     OW18043   0.407   2.544   5.530  0.3440  0.0647  0.4141
 2136SOL    HW118044   0.414   2.449   5.543 -0.9969  0.0570  1.0804
 2136SOL    HW218045   0.410   2.577   5.620 -0.1044 -2.5093  1.3979
 2137SOL     OW18046   4.690   1.604   4.516 -0.2265  0.2971 -0.1573
 2137SOL    HW118047   0.002   1.672   4.563  0.4876  0.3394 -0.9482
 2137SOL    HW218048   0.012   1.529   4.529 -1.4780 -0.7720 -0.7257
 2138SOL     OW18049   4.059   4.618   4.729 -0.0734 -0.4472  0.2904
 2138SOL    HW118050   4.105   4.565   4.795  0.7706  0.5268  0.4678
 2138SOL    HW218051   4.017   4.545   4.684 -0.2390 -0.4769  0.4924
 2139SOL     OW18052   4.625   2.702   3.956  0.0136  0.4133  0.1439
 2139SOL    HW118053   4.595   2.721   4.044  1.9919  1.5885  0.5781
 2139SOL    HW218054   4.666   2.616   3.966 -1.6325 -0.2684  0.9892
 2140SOL     OW18055   0.050   3.513   3.666  0.4254 -0.1476  0.4809
 2140SOL    HW118056   0.079   3.604   3.662 -0.4245  0.1868  1.7917
 2140SOL    HW218057   0.022   3.504   3.575  1.5612  1.0855  0.0201
 2141SOL     OW18058   3.791   0.881  14.790  0.5521  0.1102 -0.2967
 2141SOL    HW118059   3.820   0.946  14.726  0.1487 -0.3852 -0.9874
 2141SOL    HW218060   3.704   0.854  14.759  1.1133 -0.6011 -1.2616
 2142SOL     OW18061   4.179   4.535   7.091  0.2944 -0.2667 -0.2487
 2142SOL    HW118062   4.233   4.469   7.048  0.2524  0.5413 -1.5486
 2142SOL    HW218063   4.165   4.486   7.171  0.6201 -1.8392 -1.1659
 2143SOL     OW18064   3.494   0.933   5.557  0.4622 -0.1988 -0.3783
 2143SOL    HW118065   3.444   1.015   5.564  0.7643 -0.2276  1.9173
 2143SOL    HW218066   3.554   0.967   5.490 -1.7188  1.9342 -1.2764
 2144SOL     OW18067   1.947   3.351   9.893 -0.2120  0.1987 -0.0676
 2144SOL    HW118068   1.890   3.340   9.817 -1.4476 -1.6311  1.1513
 2144SOL    HW218069   2.030   3.382   9.855 -0.2859 -0.9482 -1.1583
 2145SOL     OW18070   2.711   0.273   8.203  0.0282 -0.5549 -0.2230
 2145SOL    HW118071   2.769   0.349   8.205  0.3149 -0.8024  0.5200
 2145SOL    HW218072   2.654   0.303   8.132 -0.4350  0.8906  0.7667
 2146SOL     OW18073   2.137   4.338   9.317  0.0403 -0.0352  0.3165
 2146SOL    HW118074   2.109   4.428   9.302  0.9619  0.1673 -0.1650
 2146SOL    HW218075   2.074   4.325   9.388 -0.5044 -1.0659 -0.3457
 2147SOL     OW18076   4.074   4.043   8.392  0.4015  0.8325 -0.2632
 2147SOL    HW118077   4.038   4.006   8.473  0.1429  2.8211  0.5385
 2147SOL    HW218078   3.990   4.064   8.353 -0.4482  0.2945  1.2599
 2148SOL     OW18079   2.624   2.985   1.902  0.0548 -0.2522  0.2980
 2148SOL    HW118080   2.639   3.079   1.913 -0.6793  0.0821 -1.5885
 2148SOL    HW218081   2.712   2.947   1.894  0.7978  1.0404  2.1595
 2149SOL     OW18082   1.555   4.002   7.305  0.5972 -0.0203 -0.0835
 2149SOL    HW118083   1.532   3.975   7.394  1.3682  0.5322  0.2864
 2149SOL    HW218084   1.636   4.052   7.313  0.2592  0.7974 -1.9455
 2150SOL     OW18085   2.223   2.504   7.958 -0.1749  0.4524  0.0792
 2150SOL    HW118086   2.295   2.465   7.909  1.0097  1.5323  0.9905
 2150SOL    HW218087   2.269   2.512   8.041  4.0474 -0.3242 -2.1972
 2151SOL     OW18088   3.739   2.707   6.755  0.0390  0.5332  0.0107
 2151SOL    HW118089   3.742   2.802   6.739  1.3053  0.3362 -0.9717
 2151SOL    HW218090   3.700   2.698   6.842 -2.2721 -1.3455 -1.2383
 2152SOL     OW18091   3.672   2.550   7.432  0.1760  0.0956  0.2785
 2152SOL    HW118092   3.691   2.644   7.441 -0.3834  0.3677 -1.2751
 2152SOL    HW218093   3.580   2.545   7.456  0.3734  1.0661  1.2553
 2153SOL     OW18094   1.966   3.997  14.191  0.1227  0.6733 -0.3998
 2153SOL    HW118095   1.997   4.079  14.229 -0.8961  0.9956 -0.2631
 2153SOL    HW218096   2.031   3.963  14.128  1.7129 -0.1005  1.6492
 2154SOL     OW18097   4.420   0.390   4.959  0.4575  0.0729  0.2693
 2154SOL    HW118098   4.337   0.370   5.004  1.8616 -1.9026  1.9715
 2154SOL    HW218099   4.485   0.340   5.008  0.8385 -0.2223 -0.5463
 2155SOL     OW18100   4.429   1.417   3.389  0.0602  0.1105  0.1701
 2155SOL    HW118101   4.459   1.384   3.305  1.4559 -1.7417  1.3992
 2155SOL    HW218102   4.506   1.418   3.446 -1.0784  2.7928  1.6783
 2156SOL     OW18103   3.040   0.600   8.746 -0.4108 -0.2181 -0.3562
 2156SOL    HW118104   3.009   0.691   8.742 -0.3657 -0.1967 -0.1986
 2156SOL    HW218105   3.114   0.591   8.686  0.0507  0.6918  0.0812
 2157SOL     OW18106   3.475   2.047   5.740  0.2225 -0.0640  0.1819
 2157SOL    HW118107   3.553   2.102   5.746  0.6128 -0.5212 -0.7336
 2157SOL    HW218108   3.403   2.099   5.775 -0.4043  0.2018 -1.5107
 2158SOL     OW18109   4.058   2.403   6.607 -0.3535 -0.4994 -0.1538
 2158SOL    HW118110   4.037   2.495   6.618 -0.8037 -0.4371 -1.5163
 2158SOL    HW218111   4.048   2.376   6.698 -1.4028 -0.1668 -0.1775
 2159SOL     OW18112   3.143   2.382  12.010 -0.1321  0.0403 -0.0781
 2159SOL    HW118113   3.096   2.313  12.056  0.7360  1.7777  3.4131
 2159SOL    HW218114   3.075   2.445  11.987  0.7367  0.5664 -1.2352
 2160SOL     OW18115   2.851   1.726  17.531 -0.0005  0.8027  0.3958
 2160SOL    HW118116   2.903   1.649  17.508 -2.0777 -0.1739 -1.0727
 2160SOL    HW218117   2.847   1.760  17.441  0.9290  1.0648  0.4525
 2161SOL     OW18118   3.572   3.296   4.407  0.3622  0.5359 -0.5046
 2161SOL    HW118119   3.532   3.285   4.321  1.0203 -0.7763 -0.6390
 2161SOL    HW218120   3.667   3.294   4.391  0.2218 -0.4335 -1.1990
 2162SOL     OW18121   3.162   4.448   3.221  0.4544  0.1089  0.1978
 2162SOL    HW118122   3.078   4.491   3.240 -0.0562 -1.1622  0.8423
 2162SOL    HW218123   3.168   4.481   3.131 -2.8774 -0.8238 -0.3569
 2163SOL     OW18124   1.911   0.053  14.158  0.3016  0.0278 -0.2864
 2163SOL    HW118125   1.862   0.118  14.209  3.2199  2.4758 -0.5880
 2163SOL    HW218126   1.901   0.084  14.068  1.9419  2.3448  0.3458
 2164SOL     OW18127   1.271   2.070  10.444  0.2831  0.3998 -0.1194
 2164SOL    HW118128   1.331   2.134  10.405 -0.3093  1.7744  1.2197
 2164SOL    HW218129   1.190   2.121  10.442 -0.3345 -0.5720  0.1012
 2165SOL     OW18130   1.776   1.918   3.125 -0.3925 -0.5682  0.2841
 2165SOL    HW118131   1.704   1.954   3.176 -0.7572  0.1753 -0.7480
 2165SOL    HW218132   1.822   1.876   3.198  1.6542  0.0213 -0.6715
 2166SOL     OW18133   1.944   2.471   2.518  0.1125 -0.0028  0.3008
 2166SOL    HW118134   2.009   2.489   2.451 -0.1530 -3.6062 -0.9282
 2166SOL    HW218135   1.998   2.464   2.597 -2.2654 -0.7753  1.8786
 2167SOL     OW18136   0.126   4.693  15.591 -0.3152 -0.0586  0.6078
 2167SOL    HW118137   0.062   4.652  15.649  0.0849 -1.3657  0.1227
 2167SOL    HW218138   0.123   4.638  15.513 -0.0264  0.3504  0.3021
 2168SOL     OW18139   1.787   1.717   5.103  0.5050 -0.4117  0.2083
 2168SOL    HW118140   1.858   1.660   5.074  1.7802  1.5684 -0.5639
 2168SOL    HW218141   1.832   1.769   5.170 -2.8193  0.4427  1.7820
 2169SOL     OW18142   4.639   1.683   9.501 -0.1397 -0.1510  1.0066
 2169SOL    HW118143   4.624   1.752   9.566  0.4624  0.6986  0.2525
 2169SOL    HW218144   4.646   1.735   9.420 -1.0960 -0.4556  0.7355
 2170SOL     OW18145   0.283   2.038   7.535  0.3632  0.5844 -0.0334
 2170SOL    HW118146   0.266   2.022   7.442 -0.4516  0.7387  0.0855
 2170SOL    HW218147   0.344   1.966   7.552 -0.1954  0.8054  2.8540
 2171SOL     OW18148   4.582   3.642   6.658 -0.0608  0.6113  0.0368
 2171SOL    HW118149   4.652   3.586   6.689 -1.5304 -1.6044 -0.6607
 2171SOL    HW218150   4.628   3.726   6.659  2.6579 -0.9042 -0.2505
 2172SOL     OW18151   1.725   0.338   8.986 -0.0043  0.1788  0.0387
 2172SOL    HW118152   1.775   0.420   8.982 -0.7373  0.6194  0.0536
 2172SOL    HW218153   1.758   0.307   8.902  0.1976 -0.3240  0.3073
 2173SOL     OW18154   4.425   2.033   4.557  0.1715 -0.3333  0.0308
 2173SOL    HW118155   4.429   2.107   4.496  0.4396  0.5626  1.1395
 2173SOL    HW218156   4.500   2.055   4.613  0.4848 -0.3631 -0.3803
 2174SOL     OW18157   2.532   2.913   5.303  0.0117  0.1079  0.7557
 2174SOL    HW118158   2.498   2.866   5.379 -1.0330  1.2807  1.0302
 2174SOL    HW218159   2.603   2.856   5.274 -0.5251 -0.5981  0.8301
 2175SOL     OW18160   0.590   0.619   2.179 -0.0739 -0.1124  0.6349
 2175SOL    HW118161   0.588   0.694   2.120 -0.4395 -1.0985 -0.6080
 2175SOL    HW218162   0.671   0.579   2.149 -0.0041 -0.9242  1.8994
 2176SOL     OW18163   2.919   3.404  13.812  0.2616 -0.0278 -0.4302
 2176SOL    HW118164   2.887   3.347  13.882  1.9984 -0.7875 -0.2518
 2176SOL    HW218165   2.835   3.435  13.779 -0.0111  0.3969  0.6578
 2177SOL     OW18166   0.886   2.464  17.486 -0.3307 -0.4399  0.3745
 2177SOL    HW118167   0.837   2.545  17.500  1.7061  1.0128 -1.0643
 2177SOL    HW218168   0.877   2.462  17.391  0.8001 -1.1359  0.2840
 2178SOL     OW18169   3.717   3.638   7.502  0.3810  0.2174  0.5206
 2178SOL    HW118170   3.715   3.543   7.500 -1.3457  0.2341  0.8318
 2178SOL    HW218171   3.632   3.654   7.543 -0.1394  0.3404 -0.5937
 2179SOL     OW18172   2.838   0.358   6.069 -0.5901  0.1427  0.1690
 2179SOL    HW118173   2.889   0.429   6.107 -1.3659  0.4825  0.5667
 2179SOL    HW218174   2.841   0.374   5.974  1.8703  1.4302  0.4643
 2180SOL     OW18175   0.004   1.759   3.112 -0.3781  0.5016  0.2893
 2180SOL    HW118176   0.048   1.833   3.070 -1.6568  0.5219 -1.0289
 2180SOL    HW218177   4.719   1.704   3.036  2.3271 -1.9372  1.2976
 2181SOL     OW18178   3.662   4.420   5.357  0.6621  0.2563  0.0009
 2181SOL    HW118179   3.718   4.358   5.405 -1.1977 -1.6368 -0.2755
 2181SOL    HW218180   3.601   4.461   5.418 -0.2812  0.2549 -0.9393
 2182SOL     OW18181   2.421   3.747   1.836 -0.9000 -0.1956 -0.0283
 2182SOL    HW118182   2.507   3.765   1.872 -0.8190 -0.6934  0.0223
 2182SOL    HW218183   2.376   3.712   1.912 -0.5775  0.4098  0.4413
 2183SOL     OW18184   3.708   3.644   4.177 -0.2339  0.1099  0.6181
 2183SOL    HW118185   3.654   3.575   4.137 -1.9587  1.5353  0.5242
 2183SOL    HW218186   3.671   3.720   4.133 -0.2395 -0.5785 -0.5831
 2184SOL     OW18187   2.428   2.436   4.327  0.4844  0.4513  0.0913
 2184SOL    HW118188   2.515   2.396   4.322 -0.0298 -1.0177  3.2612
 2184SOL    HW218189   2.440   2.513   4.382 -1.8068  2.2412 -1.9053
 2185SOL     OW18190   2.535   0.634   6.334  0.6203  0.1312  0.1042
 2185SOL    HW118191   2.443   0.626   6.311  0.6590  0.3861 -0.1431
 2185SOL    HW218192   2.569   0.662   6.248  0.5054 -0.1247 -0.0236
 2186SOL     OW18193   2.592   4.445   2.382  0.2560  0.0923  0.3993
 2186SOL    HW118194   2.610   4.402   2.465 -1.2085  0.4806  0.9155
 2186SOL    HW218195   2.498   4.435   2.368  0.3952 -0.3235 -0.2491
 2187SOL     OW18196   2.908   3.134   5.107 -0.2075  0.0663  0.4342
 2187SOL    HW118197   2.970   3.133   5.034 -0.0557 -0.0478  0.5655
 2187SOL    HW218198   2.845   3.065   5.085  0.0866 -0.8130  2.3410
 2188SOL     OW18199   2.983   3.323   4.718 -0.3902  0.7443 -0.2280
 2188SOL    HW118200   2.911   3.281   4.766  2.1212 -0.4590  2.4928
 2188SOL    HW218201   2.941   3.397   4.675  2.4016  1.0772 -2.3660
 2189SOL     OW18202   1.427   1.585  17.593  0.2240 -0.3820 -0.1098
 2189SOL    HW118203   1.358   1.522  17.614  0.8614 -1.2337 -0.5205
 2189SOL    HW218204   1.474   1.582  17.676  0.0247  0.4814  0.0279
 2190SOL     OW18205   4.515   4.281   5.580 -0.7267  0.3399  0.5449
 2190SOL    HW118206   4.421   4.294   5.592 -0.4958 -0.8744  3.6028
 2190SOL    HW218207   4.535   4.320   5.495  0.9325 -0.1991  0.6841
 2191SOL     OW18208   3.116   3.312   5.174  0.3642 -0.3000  0.5001
 2191SOL    HW118209   3.022   3.303   5.160  0.4645  0.9155 -0.9593
 2191SOL    HW218210   3.118   3.335   5.267 -0.7322  0.5396  0.3180
 2192SOL     OW18211   4.565   3.122   7.246 -0.1895  0.1330 -0.6080
 2192SOL    HW118212   4.587   3.203   7.292 -0.5306 -1.5066  2.4198
 2192SOL    HW218213   4.482   3.139   7.202 -0.6612  0.4392  0.4073
 2193SOL     OW18214   0.375   1.761   7.447  0.2936 -0.0474 -1.1652
 2193SOL    HW118215   0.454   1.734   7.494  0.9456  0.1703 -2.1109
 2193SOL    HW218216   0.417   1.798   7.368 -0.0490  1.9687 -0.4065
 2194SOL     OW18217   3.262   3.126   2.586 -0.4704 -0.1616 -0.1671
 2194SOL    HW118218   3.307   3.043   2.568  0.5950 -0.1258  2.4231
 2194SOL    HW218219   3.222   3.143   2.501 -1.5145 -3.4992 -0.3411
 2195SOL     OW18220   2.743   2.883   9.051  0.1766 -0.1935 -0.1924
 2195SOL    HW118221   2.707   2.825   9.118  1.1544 -0.9170 -0.2956
 2195SOL    HW218222   2.786   2.942   9.114  0.7867 -2.1668  1.2220
 2196SOL     OW18223   4.453   1.884   8.596 -0.1954 -0.1604 -0.4276
 2196SOL    HW118224   4.425   1.961   8.645  0.6463  1.5260 -2.6028
 2196SOL    HW218225   4.468   1.822   8.668  0.4917 -1.5839 -1.8078
 2197SOL     OW18226   3.439   3.964  12.894 -0.1389 -0.1323  0.0329
 2197SOL    HW118227   3.355   3.992  12.858 -1.4144 -1.3477  2.0765
 2197SOL    HW218228   3.458   4.049  12.934 -1.7249 -0.3002  1.1811
 2198SOL     OW18229   1.288   3.851   5.405 -0.6541  0.1234 -0.1803
 2198SOL    HW118230   1.365   3.859   5.349  0.5965  0.2173  1.5347
 2198SOL    HW218231   1.283   3.756   5.408 -0.2315  0.1568  1.6198
 2199SOL     OW18232   1.225   1.754   3.367 -0.1072  0.0316 -0.7449
 2199SOL    HW118233   1.287   1.800   3.311 -1.6111  3.5067  0.4876
 2199SOL    HW218234   1.282   1.688   3.408 -1.4236 -0.5560  0.1571
 2200SOL     OW18235   0.861   0.573  13.583 -0.1991  0.1575  0.7005
 2200SOL    HW118236   0.856   0.612  13.670  1.9944 -2.8799  2.2006
 2200SOL    HW218237   0.952   0.543  13.588 -0.6909 -1.3500  0.6495
 2201SOL     OW18238   0.304   3.604   6.106  0.1401  0.0601  0.3808
 2201SOL    HW118239   0.393   3.583   6.135  0.7196  0.2988 -1.2317
 2201SOL    HW218240   0.288   3.526   6.052 -0.0889  0.5970 -0.3277
 2202SOL     OW18241   4.581   0.460   2.105  0.5920 -0.2606  0.1871
 2202SOL    HW118242   4.608   0.374   2.074 -0.7808 -2.0065  3.8661
 2202SOL    HW218243   4.651   0.516   2.072 -0.2719  1.3926  1.1551
 2203SOL     OW18244   0.742   2.782  11.944 -0.3031 -0.2741  0.0700
 2203SOL    HW118245   0.712   2.704  11.989 -1.6318  0.6181  0.7193
 2203SOL    HW218246   0.813   2.806  12.004 -1.2825 -1.1405  1.5682
 2204SOL     OW18247   3.069   3.816   2.142 -0.2514 -0.2638  0.3939
 2204SOL    HW118248   3.050   3.863   2.224  0.8019 -0.8504  0.9700
 2204SOL    HW218249   3.054   3.879   2.072  0.2085  0.0421  0.5737
 2205SOL     OW18250   3.907   0.229  14.567 -0.1489  0.8862 -0.0122
 2205SOL    HW118251   3.907   0.223  14.663 -0.8873  0.0556 -0.0634
 2205SOL    HW218252   3.814   0.241  14.552 -0.2093  1.4770  0.8414
 2206SOL     OW18253   2.849   2.173   7.807 -0.2542 -0.3330 -0.0381
 2206SOL    HW118254   2.797   2.094   7.816 -2.0601  0.5568 -2.6074
 2206SOL    HW218255   2.797   2.230   7.864 -1.2135 -4.2390  3.0006
 2207SOL     OW18256   0.155   4.429   2.947 -0.4459 -0.0681 -0.0904
 2207SOL    HW118257   0.145   4.383   3.030 -0.6770  0.2219  0.0418
 2207SOL    HW218258   0.084   4.492   2.955  0.6454  1.1519  0.0342
 2208SOL     OW18259   2.718   0.360   2.837  0.0643  0.0078 -0.3246
 2208SOL    HW118260   2.670   0.352   2.919 -2.3585  0.3567 -1.7217
 2208SOL    HW218261   2.641   0.369   2.781 -0.9438 -0.1395  1.0365
 2209SOL     OW18262   0.554   2.192   2.254  0.1623 -0.6421  0.4046
 2209SOL    HW118263   0.465   2.171   2.225 -0.1170  2.2408 -0.8390
 2209SOL    HW218264   0.555   2.288   2.257 -1.6167 -0.5997  0.0425
 2210SOL     OW18265   3.412   2.590  14.154  0.2769  0.1749 -0.3627
 2210SOL    HW118266   3.341   2.551  14.205  0.3896 -0.9301 -1.0428
 2210SOL    HW218267   3.415   2.526  14.083  2.1736 -1.4927  1.2138
 2211SOL     OW18268   2.105   3.675   4.792  0.2163  0.6112 -0.4585
 2211SOL    HW118269   2.166   3.606   4.765 -2.1819 -1.0795 -1.4977
 2211SOL    HW218270   2.127   3.674   4.885  1.5070  2.0432 -0.7489
 2212SOL     OW18271   0.864   1.469  16.071 -0.1572  0.0520  0.3963
 2212SOL    HW118272   0.808   1.474  16.149 -0.3746 -1.5556  0.3552
 2212SOL    HW218273   0.796   1.461  16.004  0.9034 -0.3443 -0.6408
 2213SOL     OW18274   2.300   2.440   7.673 -0.1893 -0.6327 -0.2041
 2213SOL    HW118275   2.204   2.449   7.678  0.0575  2.9083 -1.6908
 2213SOL    HW218276   2.303   2.395   7.589 -2.4857 -1.7223  0.2990
 2214SOL     OW18277   3.949   2.769  10.950 -0.1711 -0.3183 -0.2007
 2214SOL    HW118278   3.934   2.730  11.036 -1.5914 -0.0777 -0.3480
 2214SOL    HW218279   3.958   2.689  10.898  2.1512 -0.0167 -0.2728
 2215SOL     OW18280   2.279   2.185   1.658  0.0026  0.2359 -0.2368
 2215SOL    HW118281   2.220   2.132   1.604  0.1471  1.1514 -1.2888
 2215SOL    HW218282   2.251   2.273   1.632 -0.3144 -0.3398 -1.8396
 2216SOL     OW18283   0.824   4.065   6.036  0.1927 -0.1130 -0.3739
 2216SOL    HW118284   0.738   4.030   6.062 -0.2002  1.2016  0.1248
 2216SOL    HW218285   0.872   4.039   6.114  2.6083  0.4903 -1.6776
 2217SOL     OW18286   0.472   1.137   1.433  0.2953  0.6352  0.3888
 2217SOL    HW118287   0.507   1.226   1.426  1.4587  0.1707  0.3848
 2217SOL    HW218288   0.541   1.100   1.487 -0.5209  0.7701  1.5394
 2218SOL     OW18289   2.023   2.562  16.971  0.0267 -0.8811 -0.2522
 2218SOL    HW118290   2.076   2.589  17.046 -0.4031 -2.5579  0.6696
 2218SOL    HW218291   2.082   2.577  16.898 -3.3039 -1.8558 -3.1340
 2219SOL     OW18292   2.106   0.289   7.186  0.3683  0.0235  0.2743
 2219SOL    HW118293   2.148   0.324   7.265 -0.4728  0.6204  0.4546
 2219SOL    HW218294   2.020   0.329   7.200 -1.1870 -2.8126 -1.0855
 2220SOL     OW18295   4.525   1.167   8.773 -0.4892 -0.1534  0.0846
 2220SOL    HW118296   4.526   1.253   8.731  1.3236 -1.9548 -3.5664
 2220SOL    HW218297   4.615   1.137   8.763  0.5849  3.1219 -0.1436
 2221SOL     OW18298   0.983   1.128  12.350  0.1434 -0.1594  0.0997
 2221SOL    HW118299   0.932   1.098  12.274  0.1478 -1.1505  0.4870
 2221SOL    HW218300   1.067   1.111  12.308 -0.0463 -0.4882 -0.1555
 2222SOL     OW18301   4.427   1.032   0.598  0.1171  0.0521 -0.4869
 2222SOL    HW118302   4.373   0.960   0.631  0.0248 -0.1266 -1.0388
 2222SOL    HW218303   4.396   1.033   0.508 -3.6897  2.0898  0.8416
 2223SOL     OW18304   0.308   1.291   4.858  0.2637 -0.4085  0.3685
 2223SOL    HW118305   0.359   1.214   4.883 -2.8666 -1.9365  2.1074
 2223SOL    HW218306   0.220   1.259   4.878 -0.1745  1.0137  0.7548
 2224SOL     OW18307   2.986   3.497   5.937 -0.1456  0.1714  0.0539
 2224SOL    HW118308   2.942   3.413   5.925  1.4329 -0.8705  1.5201
 2224SOL    HW218309   2.908   3.553   5.936 -0.8657 -0.8415 -0.3046
 2225SOL     OW18310   0.435   1.049   4.970  0.0485 -0.7356  0.3209
 2225SOL    HW118311   0.526   1.026   4.950  0.1513  0.2845 -0.4146
 2225SOL    HW218312   0.389   0.988   4.912 -1.7279  1.7026 -0.8228
 2226SOL     OW18313   2.031   4.517  14.172  0.4579 -0.0941 -0.1876
 2226SOL    HW118314   1.963   4.584  14.178  0.6229  0.1180 -0.6819
 2226SOL    HW218315   2.094   4.552  14.109 -0.0098 -0.9296 -1.1185
 2227SOL     OW18316   2.658   1.013  16.796  0.5138  0.1508  0.3132
 2227SOL    HW118317   2.676   0.934  16.847 -0.2203  0.0823  0.4698
 2227SOL    HW218318   2.642   1.076  16.867 -1.6954 -1.2781  1.0830
 2228SOL     OW18319   4.645   2.403   2.787  0.1759 -0.5002 -0.7912
 2228SOL    HW118320   4.567   2.413   2.732 -1.0850  0.2842  1.1226
 2228SOL    HW218321   4.634   2.485   2.835  0.1863 -0.2869 -1.1504
 2229SOL     OW18322   3.735   4.675   5.267 -0.6267 -0.1020  0.2643
 2229SOL    HW118323   3.703   4.588   5.244 -0.1728 -0.8470  2.4549
 2229SOL    HW218324   3.827   4.671   5.242 -0.2869 -0.6081  1.5993
 2230SOL     OW18325   4.039   2.444  17.450  0.1675  0.3769  0.3255
 2230SOL    HW118326   4.126   2.407  17.431  0.0951  0.7134 -0.6444
 2230SOL    HW218327   3.976   2.383  17.411  0.3891  0.0155  0.5268
 2231SOL     OW18328   2.955   1.927  17.246  0.1412  0.1938  1.0558
 2231SOL    HW118329   2.883   1.991  17.245 -1.8877 -2.1018  0.7475
 2231SOL    HW218330   3.013   1.972  17.308 -1.6390  0.4781  2.5368
 2232SOL     OW18331   1.498   3.214   4.734  0.5331  0.8289  0.1061
 2232SOL    HW118332   1.530   3.143   4.791  0.5889  0.3535 -0.5187
 2232SOL    HW218333   1.471   3.168   4.655 -0.4912  1.1801  0.2518
 2233SOL     OW18334   1.872   3.566   7.168 -0.0824  0.2373  0.3017
 2233SOL    HW118335   1.863   3.627   7.095  0.1598  1.0393  0.9440
 2233SOL    HW218336   1.934   3.505   7.129 -1.5314 -1.1593  0.1727
 2234SOL     OW18337   1.163   2.146   2.198 -0.2973 -0.4881  0.7650
 2234SOL    HW118338   1.118   2.075   2.245 -0.5969 -0.0097  1.2024
 2234SOL    HW218339   1.244   2.104   2.168 -0.7166 -0.6627 -0.1259
 2235SOL     OW18340   1.445   0.241  16.436  0.1586 -0.2566 -0.1806
 2235SOL    HW118341   1.461   0.292  16.516  2.0018 -2.6272  0.9348
 2235SOL    HW218342   1.373   0.295  16.403  1.7231  0.9937 -1.5353
 2236SOL     OW18343   4.173   1.714   6.812 -0.1927  0.1704  0.1422
 2236SOL    HW118344   4.239   1.685   6.875 -1.0215 -1.0763  0.4266
 2236SOL    HW218345   4.200   1.673   6.730 -0.1518  3.6829 -1.6025
 2237SOL     OW18346   3.704   3.612   7.920  0.1923 -0.2964  0.2546
 2237SOL    HW118347   3.732   3.702   7.905 -1.7270  0.7180  2.7169
 2237SOL    HW218348   3.609   3.619   7.914 -0.1105 -1.2068  3.4624
 2238SOL     OW18349   4.693   3.725   8.766 -0.3510  0.3091  0.1691
 2238SOL    HW118350   4.671   3.633   8.780 -0.5160  0.8833  3.7202
 2238SOL    HW218351   0.038   3.723   8.817 -1.9891  1.7426  2.8403
 2239SOL     OW18352   4.442   3.260   2.809 -0.7325 -0.3016  0.3157
 2239SOL    HW118353   4.402   3.241   2.725 -0.0551  0.5601 -0.2066
 2239SOL    HW218354   4.412   3.185   2.860 -1.9012 -0.2355 -0.2861
 2240SOL     OW18355   0.680   0.249   2.950 -0.3440 -0.2835 -0.6313
 2240SOL    HW118356   0.648   0.339   2.940  0.3097  0.1259  1.0394
 2240SOL    HW218357   0.619   0.203   2.893  2.0703 -1.5642 -2.1829
 2241SOL     OW18358   1.406   0.432   1.646 -0.5513  0.4571  0.4919
 2241SOL    HW118359   1.489   0.463   1.610 -1.1536 -0.0641 -1.3606
 2241SOL    HW218360   1.447   0.397   1.725 -1.8941 -0.6088  0.7125
 2242SOL     OW18361   3.168   0.864   1.507 -0.9187 -0.2661  0.2291
 2242SOL    HW118362   3.208   0.783   1.539 -0.5219 -0.3628 -0.5050
 2242SOL    HW218363   3.113   0.819   1.443  0.1538 -0.3048 -0.6674
 2243SOL     OW18364   4.530   3.813   1.203  0.3619 -0.4630  0.2804
 2243SOL    HW118365   4.452   3.822   1.258  0.1847 -0.0433 -0.0414
 2243SOL    HW218366   4.596   3.850   1.260  1.3600 -4.0549  1.4736
 2244SOL     OW18367   2.361   3.591   3.303  0.0312 -0.0440 -0.1137
 2244SOL    HW118368   2.407   3.512   3.272  0.1475 -0.0318  0.0274
 2244SOL    HW218369   2.268   3.571   3.291 -0.0245 -0.8405  1.7393
 2245SOL     OW18370   0.718   0.707   9.113  0.0407  0.3735 -0.9489
 2245SOL    HW118371   0.773   0.644   9.159  1.3541  2.5178  0.4157
 2245SOL    HW218372   0.673   0.730   9.195 -1.4141  0.4192 -1.7611
 2246SOL     OW18373   3.707   2.917  11.424  0.4501 -0.3855 -0.3901
 2246SOL    HW118374   3.695   3.009  11.448  0.0229 -0.4042 -0.5300
 2246SOL    HW218375   3.734   2.893  11.512  0.7457  1.8539  0.1340
 2247SOL     OW18376   4.002   4.205  10.767  0.4594  0.0064 -0.0349
 2247SOL    HW118377   4.034   4.294  10.748  3.0911 -0.3806  2.5819
 2247SOL    HW218378   3.995   4.169  10.678  1.6641 -0.9832  0.2745
 2248SOL     OW18379   0.735   2.884  15.130 -0.1612  0.9798  0.3888
 2248SOL    HW118380   0.824   2.894  15.165 -0.1746 -0.1363  0.7506
 2248SOL    HW218381   0.748   2.813  15.067 -0.3127  1.4230 -0.1372
 2249SOL     OW18382   4.722   0.431  12.632  0.2562  0.6791 -0.2957
 2249SOL    HW118383   0.000   0.340  12.609 -1.0811 -0.1932  2.2622
 2249SOL    HW218384   4.641   0.453  12.586 -1.4669 -1.8485  1.5684
 2250SOL     OW18385   0.549   3.224   8.317 -0.1502  0.1828  0.2196
 2250SOL    HW118386   0.485   3.187   8.256  1.8918 -1.4297 -0.9231
 2250SOL    HW218387   0.549   3.316   8.292 -1.0467  0.5708  1.6320
 2251SOL     OW18388   0.528   1.732   0.379  0.1972  0.3871  0.0334
 2251SOL    HW118389   0.581   1.735   0.300  0.0328 -1.8180 -0.1613
 2251SOL    HW218390   0.594   1.733   0.448  1.9037 -1.5082 -1.5982
 2252SOL     OW18391   1.928   2.945   8.149  0.3016  0.1164  0.4908
 2252SOL    HW118392   1.942   3.036   8.175 -0.5345 -0.8160  4.1301
 2252SOL    HW218393   1.914   2.901   8.233 -0.2937  0.6713  0.6834
 2253SOL     OW18394   1.556   2.252   4.018  0.3614  1.1633  0.0487
 2253SOL    HW118395   1.495   2.199   3.967  0.8075 -0.0103  0.7188
 2253SOL    HW218396   1.587   2.187   4.082 -0.4268  3.2344  2.5082
 2254SOL     OW18397   3.820   4.151  12.946  0.1936  0.3524  0.6519
 2254SOL    HW118398   3.902   4.197  12.926  1.0165 -1.2641  0.3736
 2254SOL    HW218399   3.850   4.106  13.025 -1.0738 -1.0950  0.2911
 2255SOL     OW18400   4.211   1.371  13.874 -0.4035  0.0152  0.0178
 2255SOL    HW118401   4.258   1.360  13.791 -0.7011  0.5483 -0.2232
 2255SOL    HW218402   4.221   1.464  13.897 -2.2817 -0.0823  1.2032
 2256SOL     OW18403   1.633   4.404   7.397 -0.3861  0.0319  0.0074
 2256SOL    HW118404   1.558   4.422   7.453  0.4606  1.6513  0.6054
 2256SOL    HW218405   1.643   4.493   7.365  3.9704 -1.0009 -1.5217
 2257SOL     OW18406   0.378   2.025   8.712 -0.6633  0.4399 -0.3110
 2257SOL    HW118407   0.380   2.012   8.807  1.1638 -3.7332 -0.9188
 2257SOL    HW218408   0.383   1.935   8.678 -1.6654  0.5735 -0.8209
 2258SOL     OW18409   3.484   2.122   5.277 -0.1022  0.0873 -0.0261
 2258SOL    HW118410   3.574   2.094   5.264  0.0741  0.9689 -0.7087
 2258SOL    HW218411   3.497   2.184   5.348 -0.5184 -0.8905  0.8930
 2259SOL     OW18412   0.295   2.669   5.763 -0.1230  0.4668 -0.0767
 2259SOL    HW118413   0.213   2.620   5.770  0.1545  0.3262  2.1424
 2259SOL    HW218414   0.281   2.740   5.825  1.1591 -0.1356  0.9012
 2260SOL     OW18415   3.733   2.622   8.009  0.0853  0.0969 -0.1239
 2260SOL    HW118416   3.680   2.583   7.939  0.7974 -1.7603  0.3711
 2260SOL    HW218417   3.733   2.713   7.979  1.6882  0.7256  1.8102
 2261SOL     OW18418   1.613   3.617   1.019 -0.4972  1.1303 -0.5647
 2261SOL    HW118419   1.543   3.661   1.068 -0.4800  0.2222  0.2745
 2261SOL    HW218420   1.584   3.634   0.930  0.4775  1.3543 -0.8435
 2262SOL     OW18421   1.509   2.591   8.989 -0.2180 -0.4641 -0.1964
 2262SOL    HW118422   1.562   2.563   8.914 -1.2857 -1.5816 -0.5271
 2262SOL    HW218423   1.581   2.612   9.049  0.1046  2.2265 -1.5439
 2263SOL     OW18424   3.352   3.382   3.452  0.1610  0.4263  0.1355
 2263SOL    HW118425   3.315   3.294   3.445 -1.7850  1.1185  1.7166
 2263SOL    HW218426   3.276   3.433   3.479  0.4072 -0.0136  1.6892
 2264SOL     OW18427   1.549   2.091   1.193  0.0084 -0.4835 -0.1576
 2264SOL    HW118428   1.588   2.031   1.257  1.1423 -0.6188 -0.9636
 2264SOL    HW218429   1.459   2.059   1.193 -0.1018 -0.1749  2.3742
 2265SOL     OW18430   3.781   1.210   7.064 -0.0017 -0.1215  0.3455
 2265SOL    HW118431   3.814   1.121   7.079 -1.2727 -0.0735  3.3959
 2265SOL    HW218432   3.740   1.196   6.979  0.6084  1.8690 -0.2662
 2266SOL     OW18433   2.639   1.251   1.336  0.2805 -0.3332 -0.4398
 2266SOL    HW118434   2.634   1.341   1.304  1.7844 -0.0381  0.1445
 2266SOL    HW218435   2.658   1.266   1.429  1.9490 -0.8687 -0.6838
 2267SOL     OW18436   4.029   4.192   9.700  0.6745 -0.5027  0.6546
 2267SOL    HW118437   3.975   4.195   9.621  1.7421 -0.2880 -0.0719
 2267SOL    HW218438   4.109   4.148   9.673 -0.3183 -2.2922  0.6485
 2268SOL     OW18439   2.518   3.276   6.343 -0.0032 -0.0190 -0.2963
 2268SOL    HW118440   2.597   3.327   6.359  0.6070 -1.0398 -0.0348
 2268SOL    HW218441   2.479   3.275   6.430 -1.0396 -0.7879 -0.7603
 2269SOL     OW18442   3.890   3.705   6.754  0.3724 -0.0768  0.5087
 2269SOL    HW118443   3.867   3.797   6.740 -0.8038 -0.8909 -2.9534
 2269SOL    HW218444   3.900   3.692   6.848 -3.1527  0.3498  0.9391
 2270SOL     OW18445   3.702   4.603   6.822  0.0972  0.2767  0.4637
 2270SOL    HW118446   3.666   4.629   6.738 -0.7048  0.7431  0.9538
 2270SOL    HW218447   3.624   4.581   6.873 -1.4630  0.8756 -1.6771
 2271SOL     OW18448   2.381   2.018   4.381  0.2547 -0.3273  0.2975
 2271SOL    HW118449   2.419   2.051   4.462 -3.3400  2.0074  1.0487
 2271SOL    HW218450   2.286   2.014   4.394  0.4082 -2.4371  0.7159
 2272SOL     OW18451   3.389   0.873   6.764 -0.0537 -0.1963  0.6025
 2272SOL    HW118452   3.369   0.883   6.671  0.4551  3.4065  0.8530
 2272SOL    HW218453   3.360   0.953   6.808 -1.7728 -1.1397  1.1530
 2273SOL     OW18454   4.322   1.611  13.933  0.0031 -0.3745  0.2751
 2273SOL    HW118455   4.334   1.634  14.026 -0.9215  0.1709  0.2578
 2273SOL    HW218456   4.407   1.635  13.896  0.8426 -2.0816  1.0827
 2274SOL     OW18457   4.266   3.177  13.446 -0.3168  0.0599 -0.1979
 2274SOL    HW118458   4.287   3.225  13.527 -0.3139 -1.6065  0.7791
 2274SOL    HW218459   4.171   3.169  13.451 -0.2167 -2.0707 -1.8533
 2275SOL     OW18460   1.325   2.359   2.561  0.3418  0.4193  0.2375
 2275SOL    HW118461   1.344   2.452   2.548 -1.6241  0.8273  0.2393
 2275SOL    HW218462   1.256   2.345   2.496  1.2362  0.8050 -0.8114
 2276SOL     OW18463   2.476   2.008   3.151  0.1205  0.0247 -0.5925
 2276SOL    HW118464   2.444   1.919   3.138  2.7610 -1.2165  1.3452
 2276SOL    HW218465   2.569   1.991   3.164 -0.2978 -2.3376 -0.6920
 2277SOL     OW18466   4.620   0.996   5.109 -0.0220  0.2720 -0.3460
 2277SOL    HW118467   4.712   1.008   5.132 -0.7691  1.4718  2.0038
 2277SOL    HW218468   4.621   0.914   5.060  0.2995  0.8188 -1.2588
 2278SOL     OW18469   3.274   2.174   2.197 -0.2960  0.6920  0.4605
 2278SOL    HW118470   3.181   2.154   2.194 -0.5543  2.0366 -0.3508
 2278SOL    HW218471   3.279   2.221   2.114 -1.0484  0.7894  0.4696
 2279SOL     OW18472   1.729   2.518   8.834 -0.2422 -0.0203  0.1019
 2279SOL    HW118473   1.683   2.471   8.764  2.0890 -2.7687  0.4457
 2279SOL    HW218474   1.819   2.524   8.801  0.1533  0.0300  1.2006
 2280SOL     OW18475   2.205   3.903   9.109 -0.2138  0.1311  0.1947
 2280SOL    HW118476   2.130   3.944   9.153 -1.2875 -0.1210 -1.3711
 2280SOL    HW218477   2.237   3.980   9.062  0.5260 -0.6359 -0.5479
 2281SOL     OW18478   0.054   0.700   6.983 -0.1462 -0.2362  0.4343
 2281SOL    HW118479   0.149   0.707   6.984 -0.1748  0.1781  0.2216
 2281SOL    HW218480   0.032   0.792   6.964  1.1509  0.2076  1.0842
 2282SOL     OW18481   4.438   3.239   9.388 -0.1868  0.4164 -0.4184
 2282SOL    HW118482   4.444   3.230   9.483  0.9630 -0.1622 -0.5447
 2282SOL    HW218483   4.436   3.334   9.373 -0.6502  0.2005 -1.7722
 2283SOL     OW18484   1.141   4.110   2.365 -0.6785  0.8397  0.3444
 2283SOL    HW118485   1.057   4.067   2.379  0.2412 -0.6774  1.1739
 2283SOL    HW218486   1.200   4.035   2.374  1.3635  2.0911 -2.3940
 2284SOL     OW18487   1.980   0.644   8.674  0.2154  0.8193  0.0788
 2284SOL    HW118488   1.997   0.560   8.630  3.2270  1.3632  0.1632
 2284SOL    HW218489   2.072   0.670   8.679  0.5894 -0.2644 -1.1374
 2285SOL     OW18490   4.350   0.824   4.976  0.5899 -0.0011  0.3838
 2285SOL    HW118491   4.320   0.851   4.890 -1.7606  3.3148  2.2331
 2285SOL    HW218492   4.328   0.905   5.023 -0.6144  2.5236 -4.5167
 2286SOL     OW18493   2.836   3.999  16.355 -0.1678  0.0479  0.2329
 2286SOL    HW118494   2.824   3.938  16.283  0.3007  1.3067 -0.9293
 2286SOL    HW218495   2.907   3.947  16.391 -2.4312 -2.3466  1.2445
 2287SOL     OW18496   2.164   0.401   2.151 -0.0803 -0.1228 -0.0508
 2287SOL    HW118497   2.205   0.349   2.082  0.8878 -1.6879  1.7060
 2287SOL    HW218498   2.113   0.458   2.095 -1.3609 -0.4790  0.7338
 2288SOL     OW18499   1.235   0.900  14.960 -0.0766 -0.1872  0.6602
 2288SOL    HW118500   1.237   0.811  14.925  0.6520 -0.6657  1.9158
 2288SOL    HW218501   1.165   0.878  15.020 -1.9223  1.6942 -0.7841
 2289SOL     OW18502   4.097   2.722   9.148  0.5681  0.4656 -0.3788
 2289SOL    HW118503   4.109   2.705   9.242  2.4282 -1.8233 -1.0344
 2289SOL    HW218504   4.051   2.806   9.155  1.4151  0.7849  1.5501
 2290SOL     OW18505   1.903   3.824   5.106  0.0063 -0.1519 -0.3040
 2290SOL    HW118506   1.915   3.919   5.101  4.3762 -0.5959  2.1057
 2290SOL    HW218507   1.972   3.812   5.172  0.3852 -1.1662 -0.8865
 2291SOL     OW18508   2.106   3.316   9.009 -0.0255 -0.3088  0.3033
 2291SOL    HW118509   2.171   3.366   9.059 -1.2173  0.3964  1.1379
 2291SOL    HW218510   2.120   3.348   8.920 -2.2474 -0.3556 -0.0607
 2292SOL     OW18511   2.966   4.454   5.695 -0.6740  0.1365  0.1049
 2292SOL    HW118512   2.885   4.404   5.704 -0.2752 -0.1275  2.1160
 2292SOL    HW218513   3.002   4.459   5.784 -0.1140  2.6474 -0.2546
 2293SOL     OW18514   2.516   1.752  13.180  0.0670  0.7686 -0.0530
 2293SOL    HW118515   2.510   1.690  13.253 -0.9352 -0.6526 -1.3295
 2293SOL    HW218516   2.424   1.773  13.163 -1.2124 -3.6125  1.2731
 2294SOL     OW18517   1.892   2.879  16.432 -0.5006  0.0137  0.6906
 2294SOL    HW118518   1.928   2.792  16.444  1.4178  0.5911 -0.8829
 2294SOL    HW218519   1.797   2.870  16.443 -0.7795  0.6686 -1.1025
 2295SOL     OW18520   4.058   2.475  12.148  0.3187 -0.0224 -0.7469
 2295SOL    HW118521   3.980   2.516  12.184  0.2587 -0.9654  0.1833
 2295SOL    HW218522   4.017   2.433  12.073 -0.2682 -0.8959  0.0637
 2296SOL     OW18523   0.827   2.130   4.096 -0.4876 -0.1219 -0.8921
 2296SOL    HW118524   0.761   2.197   4.077 -1.8152 -0.3878  2.7614
 2296SOL    HW218525   0.792   2.053   4.051 -1.0581 -2.3357  3.3201
 2297SOL     OW18526   1.269   2.097   2.648  0.6760  0.7770  0.0742
 2297SOL    HW118527   1.347   2.050   2.616  0.7734  0.8055  0.2689
 2297SOL    HW218528   1.297   2.188   2.634  1.3321  0.2327 -2.1752
 2298SOL     OW18529   2.491   0.925   2.045 -0.1581  0.5852 -0.3276
 2298SOL    HW118530   2.493   0.869   1.967 -1.4464 -1.3361  0.9978
 2298SOL    HW218531   2.413   0.892   2.090  0.7729 -1.1515  0.0079
 2299SOL     OW18532   4.568   0.012   6.011 -0.3811 -0.6264  0.5341
 2299SOL    HW118533   4.476   0.010   6.037 -0.1078  0.8076  1.5920
 2299SOL    HW218534   4.602   0.032   6.098 -0.5857  0.9474  0.2389
 2300SOL     OW18535   1.029   0.498   2.334 -0.0154 -0.0261  0.3713
 2300SOL    HW118536   1.038   0.419   2.282  0.4937  0.1673  0.1647
 2300SOL    HW218537   1.052   0.562   2.267 -2.0974  0.3885  0.0635
 2301SOL     OW18538   0.933   4.338   5.447 -0.1301 -0.0705 -0.5107
 2301SOL    HW118539   0.973   4.257   5.416 -1.4957 -0.9436  0.0248
 2301SOL    HW218540   0.846   4.305   5.471 -0.6218  0.4834 -1.5522
 2302SOL     OW18541   2.596   3.098   9.527 -0.3020 -0.2589 -0.1244
 2302SOL    HW118542   2.556   3.166   9.473 -0.1461 -0.4129 -0.4337
 2302SOL    HW218543   2.531   3.028   9.515 -1.5977  0.7028  1.2497
 2303SOL     OW18544   1.006   0.841   7.581  0.0612  1.0569 -0.4902
 2303SOL    HW118545   1.083   0.784   7.591 -2.8934 -3.4674 -3.0593
 2303SOL    HW218546   1.045   0.924   7.557  0.1263  1.0434 -0.4299
 2304SOL     OW18547   1.099   3.300  11.093  0.6487 -0.2309  0.0165
 2304SOL    HW118548   1.175   3.296  11.036 -0.2182  0.2988 -1.1675
 2304SOL    HW218549   1.041   3.241  11.046  0.4251 -0.2443  0.3042
 2305SOL     OW18550   3.732   0.266   8.509  0.1476  0.3074  0.0150
 2305SOL    HW118551   3.800   0.296   8.570  1.5322 -1.2768 -0.7356
 2305SOL    HW218552   3.656   0.250   8.564 -0.9580 -1.5027 -2.0514
 2306SOL     OW18553   3.868   2.155  11.516 -0.3038  1.1118 -0.1057
 2306SOL    HW118554   3.907   2.236  11.482 -0.3108  0.9375 -0.5177
 2306SOL    HW218555   3.948   2.128  11.562 -0.7924  1.5011  0.9770
 2307SOL     OW18556   2.543   3.930  12.832 -0.7117  0.3655 -0.5539
 2307SOL    HW118557   2.557   3.872  12.757  0.5065 -0.4746  0.3199
 2307SOL    HW218558   2.630   3.969  12.839 -1.1183  0.7573  2.2024
 2308SOL     OW18559   4.485   4.000   2.444  0.0884  0.0460  0.1785
 2308SOL    HW118560   4.395   3.975   2.425 -0.1468  0.0219  1.2861
 2308SOL    HW218561   4.461   4.055   2.519 -2.1541  3.0532 -2.7948
 2309SOL     OW18562   0.855   1.609   2.136  0.4148  0.3026 -0.1196
 2309SOL    HW118563   0.849   1.705   2.139 -0.1124  0.2398  0.9187
 2309SOL    HW218564   0.795   1.597   2.062 -0.0938 -0.1398  0.3627
 2310SOL     OW18565   3.468   2.896   6.173  0.0155  0.5255 -0.7107
 2310SOL    HW118566   3.450   2.990   6.164  0.8140  0.7929  0.4885
 2310SOL    HW218567   3.443   2.870   6.084  1.1842 -0.8826 -0.6256
 2311SOL     OW18568   3.055   4.244   8.360  0.0280  0.8912 -0.2060
 2311SOL    HW118569   3.006   4.265   8.280  1.4436 -0.8499 -1.5308
 2311SOL    HW218570   3.142   4.232   8.321 -0.6809  0.1699 -1.5688
 2312SOL     OW18571   1.499   3.239   1.171 -0.1391  0.4411  0.4381
 2312SOL    HW118572   1.424   3.232   1.230 -0.1281 -1.5394  0.2127
 2312SOL    HW218573   1.555   3.295   1.224  0.8893 -1.2682  1.1783
 2313SOL     OW18574   4.508   3.774   5.695  0.2592  0.1783 -0.1993
 2313SOL    HW118575   4.600   3.763   5.719  0.7605  1.0308 -1.7400
 2313SOL    HW218576   4.467   3.709   5.752  1.9335  1.4864  2.4982
 2314SOL     OW18577   2.519   2.140   1.446  0.5718  0.2570 -0.0879
 2314SOL    HW118578   2.559   2.076   1.505  0.7585  0.4754  0.0256
 2314SOL    HW218579   2.460   2.170   1.515 -0.5423  0.2505 -1.0443
 2315SOL     OW18580   1.777   1.532  12.902  0.0607 -0.0485 -0.1348
 2315SOL    HW118581   1.823   1.512  12.984 -2.7091  0.6134  1.5772
 2315SOL    HW218582   1.714   1.597  12.932  0.4384  0.9405 -1.5091
 2316SOL     OW18583   0.852   3.780   7.577  0.1427 -0.7267 -0.3654
 2316SOL    HW118584   0.830   3.789   7.485 -0.8387 -0.3678 -0.0863
 2316SOL    HW218585   0.782   3.831   7.617  0.6469 -0.1994 -0.1432
 2317SOL     OW18586   2.777   3.456   9.682 -0.1879 -0.2199 -0.7795
 2317SOL    HW118587   2.780   3.361   9.697 -1.1286 -0.1270 -0.0072
 2317SOL    HW218588   2.776   3.484   9.773 -0.0838 -1.4115 -0.4079
 2318SOL     OW18589   1.184   1.217   8.911 -0.1235 -0.0148 -0.0891
 2318SOL    HW118590   1.148   1.208   8.999  2.3520 -2.3924  0.6633
 2318SOL    HW218591   1.204   1.126   8.891  2.1345  0.6936 -1.0222
 2319SOL     OW18592   0.043   4.610   5.222  0.5039 -0.1517  0.2242
 2319SOL    HW118593   0.105   4.568   5.162  1.1273 -0.4786  1.0986
 2319SOL    HW218594   0.083   4.697   5.222 -0.1409  0.1421 -0.3310
 2320SOL     OW18595   3.652   2.807   8.451 -0.1350 -0.3246 -0.3205
 2320SOL    HW118596   3.646   2.898   8.482 -0.0590 -1.3448  2.6793
 2320SOL    HW218597   3.631   2.825   8.359  0.2732 -0.6271 -0.4714
 2321SOL     OW18598   0.673   1.592   1.919 -0.0596  0.6307 -0.1818
 2321SOL    HW118599   0.608   1.587   1.849 -1.9120 -3.4753  1.7676
 2321SOL    HW218600   0.733   1.655   1.880  0.4419  0.5359  0.4419
 2322SOL     OW18601   1.836   4.321   2.450 -0.3343 -0.2109 -0.4765
 2322SOL    HW118602   1.895   4.332   2.525  0.4098 -0.7547 -0.9828
 2322SOL    HW218603   1.873   4.243   2.409 -1.7375 -0.1304 -1.9193
 2323SOL     OW18604   3.752   2.969   6.639 -0.0938 -0.1217  0.4505
 2323SOL    HW118605   3.712   2.935   6.560 -0.0709 -1.2692  0.9368
 2323SOL    HW218606   3.707   3.053   6.647  0.5843  0.2852  0.0037
 2324SOL     OW18607   0.479   4.426   5.027  0.0623 -0.5400 -0.1088
 2324SOL    HW118608   0.468   4.498   5.089  1.2715 -0.8482  0.4687
 2324SOL    HW218609   0.512   4.359   5.088  0.2917  2.0886  2.6761
 2325SOL     OW18610   3.801   2.706   5.359  0.0885  0.0582  0.0263
 2325SOL    HW118611   3.875   2.728   5.302  0.8199  1.2649  1.4261
 2325SOL    HW218612   3.750   2.638   5.315  0.1036 -0.3588  0.6604
 2326SOL     OW18613   4.276   0.313  14.292 -0.2559  0.3900 -0.2881
 2326SOL    HW118614   4.262   0.287  14.202  1.0149 -2.1372  0.2667
 2326SOL    HW218615   4.250   0.405  14.280 -0.0495  0.2634 -1.6942
 2327SOL     OW18616   2.505   4.009   0.209 -0.4253 -0.1866  0.6002
 2327SOL    HW118617   2.518   4.058   0.128  1.9897 -3.3684 -0.9497
 2327SOL    HW218618   2.526   4.075   0.275 -2.6961 -1.0960  2.2705
 2328SOL     OW18619   3.505   4.035   4.523 -0.4393  0.2003  0.8064
 2328SOL    HW118620   3.559   4.114   4.515 -2.4362  1.4150 -0.9972
 2328SOL    HW218621   3.455   4.040   4.604  1.8605  3.8119  1.9747
 2329SOL     OW18622   2.233   3.154   5.919 -0.0229 -0.4903  0.7113
 2329SOL    HW118623   2.245   3.060   5.907 -0.8964 -0.7367  1.7160
 2329SOL    HW218624   2.314   3.180   5.876 -1.1117  0.8018 -0.5533
 2330SOL     OW18625   3.109   0.612   4.006 -0.5096  0.3940  0.3089
 2330SOL    HW118626   3.097   0.599   3.912 -0.8483 -0.0138  0.4110
 2330SOL    HW218627   3.024   0.585   4.041  0.4999 -0.1672  2.2779
 2331SOL     OW18628   0.521   0.945   8.418  0.7021  0.4299  0.4253
 2331SOL    HW118629   0.591   0.888   8.452  0.7330 -0.6270 -1.3611
 2331SOL    HW218630   0.453   0.877   8.416  0.4925  0.6929 -1.0519
 2332SOL     OW18631   0.677   3.054   3.950 -0.3766  0.2102  0.0694
 2332SOL    HW118632   0.615   3.072   4.021 -1.5601  0.4194 -1.0282
 2332SOL    HW218633   0.762   3.091   3.974 -0.2571  0.3742 -0.6296
 2333SOL     OW18634   1.888   2.318   4.610  0.0121  0.0549  0.0007
 2333SOL    HW118635   1.838   2.399   4.626 -1.3495 -0.4993 -1.4203
 2333SOL    HW218636   1.823   2.268   4.561  0.2771  0.5701 -0.8859
 2334SOL     OW18637   2.125   2.697   0.559  0.2332 -0.3869 -0.5384
 2334SOL    HW118638   2.081   2.669   0.479 -0.2791 -3.8379  0.9698
 2334SOL    HW218639   2.172   2.775   0.528  0.3422  0.4779  1.8260
 2335SOL     OW18640   0.379   4.218  15.224 -0.1495 -0.1396  0.1435
 2335SOL    HW118641   0.371   4.272  15.146  0.2714 -1.1079 -0.5653
 2335SOL    HW218642   0.332   4.137  15.204 -1.1566  0.1323  1.3549
 2336SOL     OW18643   3.341   2.413   9.066 -0.1382 -0.2807 -0.0532
 2336SOL    HW118644   3.387   2.389   8.985 -0.7969 -2.2430  0.1532
 2336SOL    HW218645   3.421   2.428   9.117 -1.8191  1.5182  2.0124
 2337SOL     OW18646   0.637   2.942   2.029 -0.3164  0.1245  0.2526
 2337SOL    HW118647   0.575   3.015   2.031 -1.1195 -0.5579 -0.1017
 2337SOL    HW218648   0.710   3.002   2.046 -0.5824  0.5957 -0.2756
 2338SOL     OW18649   2.996   1.410   8.162  0.0510  0.3990 -0.8273
 2338SOL    HW118650   3.045   1.485   8.129  2.2083 -0.8749 -0.4967
 2338SOL    HW218651   2.912   1.452   8.180 -1.1372 -2.3882  0.2559
 2339SOL     OW18652   0.261   1.992   7.839 -0.4638  0.3496 -0.3464
 2339SOL    HW118653   0.270   2.009   7.745 -0.9056 -0.6149 -0.5591
 2339SOL    HW218654   0.319   2.059   7.875 -0.7401  0.8439 -0.8224
 2340SOL     OW18655   1.169   2.445   7.115 -0.3988 -0.3001  0.0331
 2340SOL    HW118656   1.114   2.367   7.103 -0.5169  0.3215 -3.4674
 2340SOL    HW218657   1.152   2.459   7.208 -0.7761  1.1605 -0.2495
 2341SOL     OW18658   0.344   0.538   1.822 -0.2439  0.4113 -0.4817
 2341SOL    HW118659   0.319   0.517   1.912 -2.0716 -1.3420 -1.3968
 2341SOL    HW218660   0.404   0.612   1.835 -0.4761  0.4014  0.7100
 2342SOL     OW18661   1.895   0.990   1.833  0.1987  0.2559  0.1622
 2342SOL    HW118662   1.861   1.067   1.788  1.7201  0.1674 -1.1412
 2342SOL    HW218663   1.887   1.011   1.926 -0.3588 -1.8150  0.5857
 2343SOL     OW18664   3.921   2.420   4.998 -0.1070  0.4453 -0.2228
 2343SOL    HW118665   3.958   2.393   5.082 -1.0085  2.8125  0.9522
 2343SOL    HW218666   3.995   2.470   4.964  1.1996 -2.8147 -2.1864
 2344SOL     OW18667   3.144   2.080   8.040  0.1307  0.1222  0.3540
 2344SOL    HW118668   3.098   2.091   7.957  1.2613  1.5237 -0.0823
 2344SOL    HW218669   3.234   2.059   8.012  0.5699  1.0873  1.0288
 2345SOL     OW18670   4.481   2.806   5.230 -0.3132 -0.1334  0.4267
 2345SOL    HW118671   4.544   2.748   5.274 -1.0380 -0.4594  1.0252
 2345SOL    HW218672   4.506   2.896   5.251  0.2580  0.1238 -1.4123
 2346SOL     OW18673   2.040   4.023   5.414  0.1376 -0.0105 -0.3870
 2346SOL    HW118674   2.072   3.940   5.380 -1.9120 -0.5374 -1.0190
 2346SOL    HW218675   2.005   3.993   5.497 -0.1377 -0.3575 -0.6321
 2347SOL     OW18676   3.902   1.171  10.191  0.0937 -0.0163 -0.5635
 2347SOL    HW118677   3.847   1.209  10.260 -0.8856 -1.7391 -0.3973
 2347SOL    HW218678   3.962   1.243  10.169 -0.8131  1.0507  0.4343
 2348SOL     OW18679   0.897   0.711   7.289  0.3208  0.3105 -0.4615
 2348SOL    HW118680   0.971   0.655   7.312  1.3668  2.4843  1.5196
 2348SOL    HW218681   0.934   0.800   7.292  1.2235  0.0172 -2.6244
 2349SOL     OW18682   2.222   4.704   7.755  0.1841  0.2815  0.2973
 2349SOL    HW118683   2.255   0.035   7.814 -0.7288  0.1379  0.9638
 2349SOL    HW218684   2.131   4.724   7.736 -0.5860 -1.0250  2.6578
 2350SOL     OW18685   3.133   3.058   9.780  0.0171 -0.1555  0.0850
 2350SOL    HW118686   3.218   3.037   9.743  0.0016 -1.8322  0.9734
 2350SOL    HW218687   3.104   2.972   9.813 -2.0830  0.9222  1.1087
 2351SOL     OW18688   0.664   4.048   6.736  0.0944 -0.6540 -0.0814
 2351SOL    HW118689   0.663   4.119   6.671 -1.5578  1.2721  2.0216
 2351SOL    HW218690   0.744   4.065   6.786  1.0198  0.4112 -1.9224
 2352SOL     OW18691   0.847   2.547   0.934  0.5572  0.0679  0.2324
 2352SOL    HW118692   0.916   2.498   0.979  1.2993  0.7838 -0.1312
 2352SOL    HW218693   0.876   2.635   0.958 -0.5349 -0.0577  2.0450
 2353SOL     OW18694   0.138   3.443  17.310  0.6680  0.4747 -0.3640
 2353SOL    HW118695   0.055   3.462  17.266 -0.6814 -1.8612  1.1950
 2353SOL    HW218696   0.113   3.377  17.374  1.3184  1.1422  0.5769
 2354SOL     OW18697   0.839   4.585   8.546 -0.1046 -0.4648  0.2265
 2354SOL    HW118698   0.900   4.575   8.619  0.9819 -1.4491 -0.8240
 2354SOL    HW218699   0.775   4.647   8.582  1.2545  0.9357  0.2344
 2355SOL     OW18700   0.412   0.837  13.034 -0.4520 -0.1032 -0.3722
 2355SOL    HW118701   0.333   0.886  13.054 -1.8148 -0.9402 -3.7600
 2355SOL    HW218702   0.442   0.824  13.124  1.3284  2.2388 -0.6370
 2356SOL     OW18703   3.692   2.283   4.946  0.4079 -0.1472  0.9253
 2356SOL    HW118704   3.685   2.201   4.997 -4.3167 -0.2634  0.1366
 2356SOL    HW218705   3.763   2.335   4.983  1.3131 -0.1426 -0.8557
 2357SOL     OW18706   0.941   0.119  12.669  0.0846 -0.7211 -0.0659
 2357SOL    HW118707   0.868   0.178  12.685 -0.2106 -0.8422 -0.9425
 2357SOL    HW218708   0.933   0.102  12.575  0.1754  1.3343 -0.4484
 2358SOL     OW18709   2.536   4.266   7.411 -0.3482  0.3870  0.0600
 2358SOL    HW118710   2.561   4.191   7.466  0.8001  0.5723 -0.2149
 2358SOL    HW218711   2.450   4.264   7.453  0.0063  1.8372  0.8625
 2359SOL     OW18712   3.201   2.537  12.878 -0.8779  0.1577  0.3865
 2359SOL    HW118713   3.284   2.575  12.847  0.0394 -1.3762  0.9894
 2359SOL    HW218714   3.185   2.469  12.813 -3.6986  1.3480 -0.1747
 2360SOL     OW18715   3.707   2.916   2.598 -0.6468  0.6275 -0.4137
 2360SOL    HW118716   3.655   2.848   2.641  0.9272  0.6820  1.5708
 2360SOL    HW218717   3.650   2.963   2.537 -0.8067  2.2525  0.9941
 2361SOL     OW18718   4.517   1.347  13.852  0.2035 -0.7078  0.1941
 2361SOL    HW118719   4.517   1.423  13.794  2.2442 -0.7252  0.1775
 2361SOL    HW218720   4.574   1.383  13.920 -0.7102 -0.2579  0.7178
 2362SOL     OW18721   3.264   3.716   5.326 -0.1429  0.8850  0.3667
 2362SOL    HW118722   3.286   3.666   5.405  1.0343 -1.0354 -1.1584
 2362SOL    HW218723   3.169   3.711   5.317 -0.1635 -1.8333  1.9739
 2363SOL     OW18724   4.420   3.550  13.673 -0.2698  0.5974  0.6890
 2363SOL    HW118725   4.480   3.582  13.606 -1.1633 -1.6493 -1.1736
 2363SOL    HW218726   4.482   3.523  13.740 -0.1470 -1.5431 -0.2970
 2364SOL     OW18727   3.553   4.366  15.906 -1.0452 -0.0414  0.0380
 2364SOL    HW118728   3.606   4.366  15.985  0.1608  1.0243 -0.7704
 2364SOL    HW218729   3.584   4.286  15.864  0.5564 -0.0580  1.2512
 2365SOL     OW18730   3.986   2.985   9.205  0.4192 -0.3808 -0.3254
 2365SOL    HW118731   3.897   2.952   9.217 -0.1903  2.1156  1.8265
 2365SOL    HW218732   3.973   3.072   9.243  0.1158 -0.6293  0.1353
 2366SOL     OW18733   0.693   2.652   5.968  0.0157 -0.1663  0.4221
 2366SOL    HW118734   0.750   2.581   5.998 -2.7997 -2.7448 -0.2581
 2366SOL    HW218735   0.709   2.722   6.031  0.1700  2.4885 -2.5761
 2367SOL     OW18736   3.864   4.617   8.801  0.3772 -0.6760 -0.5670
 2367SOL    HW118737   3.951   4.640   8.768  0.7951  0.1179  1.0818
 2367SOL    HW218738   3.809   4.659   8.735 -1.3373  0.2688  1.4696
 2368SOL     OW18739   1.824   1.557   9.331 -0.2004 -0.0276  0.1731
 2368SOL    HW118740   1.789   1.639   9.297  1.0857  0.9009  1.0838
 2368SOL    HW218741   1.776   1.496   9.275  2.3128 -0.4493 -1.5107
 2369SOL     OW18742   4.256   1.096  17.477  0.3779  0.4036  0.2863
 2369SOL    HW118743   4.219   1.131  17.558 -0.3806 -1.3941  0.7219
 2369SOL    HW218744   4.257   1.002  17.498  0.6771  0.7940  1.9910
 2370SOL     OW18745   1.116   2.558   7.432  0.5885  0.0987  0.3353
 2370SOL    HW118746   1.048   2.506   7.389 -2.0757  1.5570  2.7758
 2370SOL    HW218747   1.067   2.577   7.512 -0.8592 -0.3391 -0.4447
 2371SOL     OW18748   2.232   4.597   2.053 -0.0925 -0.0615  0.6858
 2371SOL    HW118749   2.321   4.612   2.022  0.4287  0.6892  2.5527
 2371SOL    HW218750   2.176   4.668   2.022 -0.4076 -0.5354  0.1538
 2372SOL     OW18751   2.962   2.883   3.898 -0.5563 -0.2911 -0.1641
 2372SOL    HW118752   3.014   2.930   3.833  1.7814 -0.8213  1.3545
 2372SOL    HW218753   2.938   2.954   3.957  4.0966  0.3329  0.9733
 2373SOL     OW18754   3.809   1.959  12.479  0.2563  0.2657  0.2575
 2373SOL    HW118755   3.808   2.053  12.462 -1.0139  0.2725  0.3346
 2373SOL    HW218756   3.745   1.918  12.421 -2.6775 -0.4100  3.9361
 2374SOL     OW18757   1.746   0.929   6.929  0.1695 -0.6342  0.1299
 2374SOL    HW118758   1.669   0.910   6.982  1.8364 -0.8928  2.4319
 2374SOL    HW218759   1.810   0.920   6.999  2.1515  0.3948 -1.5241
 2375SOL     OW18760   0.428   2.350   7.052 -0.1384 -0.4091  0.7025
 2375SOL    HW118761   0.486   2.426   7.062 -0.2496 -0.1682 -0.4213
 2375SOL    HW218762   0.370   2.349   7.128 -0.3402 -0.9738  0.5366
 2376SOL     OW18763   1.797   2.077   6.228  0.7192 -0.6155 -1.0551
 2376SOL    HW118764   1.718   2.061   6.176 -0.7243 -2.3984  1.6714
 2376SOL    HW218765   1.803   2.033   6.313 -1.2520  0.5534 -0.3280
 2377SOL     OW18766   0.798   0.320   7.163 -0.0423 -0.2162 -0.5581
 2377SOL    HW118767   0.812   0.234   7.122  1.8745  0.1873 -0.7857
 2377SOL    HW218768   0.757   0.289   7.244 -2.8608 -4.9770 -3.7997
 2378SOL     OW18769   0.751   3.141   5.644 -0.3082  0.5351 -0.2559
 2378SOL    HW118770   0.700   3.065   5.617 -2.7746  1.8038  0.8746
 2378SOL    HW218771   0.843   3.113   5.637  0.0774  1.7304 -0.0564
 2379SOL     OW18772   1.476   2.059   2.070  0.4556 -0.2958  0.3925
 2379SOL    HW118773   1.513   2.135   2.114  0.3906  0.1943 -0.4052
 2379SOL    HW218774   1.454   2.005   2.146  2.0046  1.1667  1.8636
 2380SOL     OW18775   3.881   1.435   7.441 -0.0779 -0.1657  1.0587
 2380SOL    HW118776   3.939   1.412   7.368 -0.3274  2.3071  0.0857
 2380SOL    HW218777   3.936   1.506   7.474  3.0261 -2.8097  1.5590
 2381SOL     OW18778   1.544   2.097   5.616  0.5007 -0.0719  0.1298
 2381SOL    HW118779   1.519   2.141   5.697  1.3863  0.2476  0.2268
 2381SOL    HW218780   1.589   2.022   5.654  1.6943 -1.0886 -3.2847
 2382SOL     OW18781   2.992   0.621  13.946 -0.8568  0.3371  0.3704
 2382SOL    HW118782   3.060   0.570  13.902 -2.0444 -1.9428  1.1481
 2382SOL    HW218783   2.921   0.556  13.946  1.2713 -1.9759 -0.5088
 2383SOL     OW18784   4.358   0.278  13.468 -0.2161 -0.2094  0.3075
 2383SOL    HW118785   4.304   0.328  13.406  1.1447  0.8434 -0.0268
 2383SOL    HW218786   4.363   0.195  13.421  0.6197 -0.8481  1.5301
 2384SOL     OW18787   2.271   1.090   8.427  0.5742  0.0272  0.5696
 2384SOL    HW118788   2.306   1.008   8.390 -2.5005 -2.3724  3.0107
 2384SOL    HW218789   2.299   1.080   8.518 -0.5712 -1.9594  0.7078
 2385SOL     OW18790   3.405   1.848   6.695  0.5043  0.4430 -0.3340
 2385SOL    HW118791   3.490   1.829   6.655 -1.8327 -3.5500 -3.3847
 2385SOL    HW218792   3.397   1.940   6.718 -3.6080 -0.3604  1.3815
 2386SOL     OW18793   0.839   0.088   4.512  0.4513 -0.3394 -0.3301
 2386SOL    HW118794   0.860   0.002   4.548  1.2055 -0.0255 -0.0080
 2386SOL    HW218795   0.855   0.138   4.592  0.1386 -0.3848 -0.2374
 2387SOL     OW18796   1.996   1.383   6.316 -0.7388 -0.7482  0.1148
 2387SOL    HW118797   1.945   1.353   6.241 -0.2248  1.8675 -1.2925
 2387SOL    HW218798   2.035   1.464   6.282 -0.1075 -0.8662  0.5621
 2388SOL     OW18799   3.284   4.427   2.352 -0.6047 -0.8592  0.2202
 2388SOL    HW118800   3.284   4.494   2.421 -2.3408  0.4725 -1.0756
 2388SOL    HW218801   3.377   4.431   2.330 -0.6536 -2.7032 -0.3107
 2389SOL     OW18802   2.822   2.538   3.346 -0.0580  0.2474 -0.0200
 2389SOL    HW118803   2.869   2.534   3.429 -1.1795 -0.8765  0.5589
 2389SOL    HW218804   2.842   2.453   3.306 -0.0613  0.0915  0.3102
 2390SOL     OW18805   0.645   3.929   2.234 -0.7310 -0.4555  0.2053
 2390SOL    HW118806   0.565   3.877   2.242 -0.9554 -0.2169 -0.5012
 2390SOL    HW218807   0.678   3.881   2.158  1.4488  1.0560  0.2043
 2391SOL     OW18808   0.298   0.354   9.226  0.4886  0.1747  0.1882
 2391SOL    HW118809   0.226   0.413   9.203 -0.7538 -0.5762  2.1970
 2391SOL    HW218810   0.310   0.378   9.317  2.7177  2.0737 -0.6065
 2392SOL     OW18811   3.414   3.680  14.507 -0.6900  0.5876 -0.7257
 2392SOL    HW118812   3.412   3.624  14.585  0.5689  0.8686 -0.4994
 2392SOL    HW218813   3.319   3.692  14.498 -0.5507  2.4799  0.4647
 2393SOL     OW18814   1.210   0.747   2.860 -0.4441  0.3123  0.2728
 2393SOL    HW118815   1.211   0.790   2.774 -0.0434  2.3260  1.2749
 2393SOL    HW218816   1.123   0.707   2.859 -0.1724 -0.2702  0.5903
 2394SOL     OW18817   2.298   1.894   5.468 -0.1697 -0.7377  0.9008
 2394SOL    HW118818   2.315   1.936   5.384  1.0906  1.2440  2.1166
 2394SOL    HW218819   2.249   1.960   5.518  3.8110  2.3132  0.8389
 2395SOL     OW18820   2.751   4.486   0.298  0.9471  1.0285  0.6581
 2395SOL    HW118821   2.686   4.551   0.271  0.1494  0.0811  0.3012
 2395SOL    HW218822   2.771   4.526   0.383  0.8924  1.3146  0.5388
 2396SOL     OW18823   1.766   2.642  12.134 -0.2220 -0.1699  0.2737
 2396SOL    HW118824   1.704   2.652  12.061  0.8767  1.2440 -0.4568
 2396SOL    HW218825   1.756   2.727  12.178 -1.9564 -0.5035  0.5421
 2397SOL     OW18826   2.394   4.422   9.015  0.6017  0.9738 -0.2048
 2397SOL    HW118827   2.483   4.444   9.042  0.3973  2.2789 -0.5971
 2397SOL    HW218828   2.352   4.502   9.045 -0.9898  0.0590  0.0275
 2398SOL     OW18829   4.354   1.131   7.452 -0.3597 -0.0033  0.4731
 2398SOL    HW118830   4.322   1.053   7.409  1.0061 -0.4921  0.3327
 2398SOL    HW218831   4.312   1.116   7.537  1.7536 -2.1512  1.1415
 2399SOL     OW18832   2.110   0.244   3.474 -0.1881  0.5626  0.1566
 2399SOL    HW118833   2.059   0.199   3.542 -0.0089 -0.4273 -0.3666
 2399SOL    HW218834   2.060   0.325   3.470  1.2517  1.4362  0.0656
 2400SOL     OW18835   3.400   4.500   8.024 -0.6136 -0.3477 -0.1639
 2400SOL    HW118836   3.466   4.465   8.085  1.1921  1.2741 -1.1917
 2400SOL    HW218837   3.444   4.481   7.942 -1.3263 -2.2477 -0.1124
 2401SOL     OW18838   1.451   4.047   2.929  0.1949 -0.2077  0.0378
 2401SOL    HW118839   1.413   3.959   2.926 -0.1624 -0.0881  0.9743
 2401SOL    HW218840   1.398   4.084   2.859  0.5581 -0.0854 -0.1736
 2402SOL     OW18841   4.642   0.753   9.011 -0.0352 -0.1053  0.1814
 2402SOL    HW118842   4.686   0.690   8.954 -1.2124 -2.8217  2.2584
 2402SOL    HW218843   4.554   0.716   9.020  0.1789 -0.9196 -1.0367
 2403SOL     OW18844   1.246   0.555   7.153 -0.0791  0.4366  0.4221
 2403SOL    HW118845   1.276   0.612   7.083 -1.3950 -0.1855 -0.6361
 2403SOL    HW218846   1.184   0.497   7.109  0.8772  1.4484 -2.2600
 2404SOL     OW18847   2.033   2.154  16.663 -0.4883  0.3512 -0.3211
 2404SOL    HW118848   2.041   2.222  16.596  2.1847  2.7324  2.3888
 2404SOL    HW218849   1.942   2.164  16.692 -0.6406 -2.8390  0.2461
 2405SOL     OW18850   0.413   3.601   5.038  0.3645  0.2966  0.2428
 2405SOL    HW118851   0.325   3.589   5.075 -1.0583  3.3881 -2.1518
 2405SOL    HW218852   0.456   3.531   5.087 -0.1275 -0.1443  0.0428
 2406SOL     OW18853   2.766   2.749   5.240 -0.1921  0.4046 -0.2343
 2406SOL    HW118854   2.830   2.765   5.310 -1.1932  0.9272  0.5495
 2406SOL    HW218855   2.771   2.653   5.232  0.0876  0.4077 -0.0998
 2407SOL     OW18856   4.211   0.579  14.731 -0.4147 -0.1076  0.1045
 2407SOL    HW118857   4.270   0.577  14.656 -0.0678  1.2512  0.3547
 2407SOL    HW218858   4.184   0.670  14.728 -1.6346 -0.4865 -0.7180
 2408SOL     OW18859   1.959   2.568  16.448 -0.4178  0.7371 -1.1235
 2408SOL    HW118860   1.917   2.585  16.532  2.2706 -1.2585  0.6027
 2408SOL    HW218861   2.040   2.522  16.471 -1.6308 -0.1142  1.4368
 2409SOL     OW18862   0.673   2.403  16.681 -0.5200 -0.1626  0.3284
 2409SOL    HW118863   0.632   2.348  16.613  1.3760  0.4677 -1.3266
 2409SOL    HW218864   0.656   2.491  16.646 -0.4039 -0.1492  0.3063
 2410SOL     OW18865   4.155   1.939  11.753 -0.2835  0.5276  0.0843
 2410SOL    HW118866   4.242   1.914  11.722 -0.4625  2.3262 -1.8376
 2410SOL    HW218867   4.142   1.870  11.819 -2.9580 -0.6983 -1.7126
 2411SOL     OW18868   0.315   4.257  17.318 -0.0946  0.5949  0.2405
 2411SOL    HW118869   0.322   4.187  17.254  0.6421 -0.5243  1.5600
 2411SOL    HW218870   0.289   4.334  17.267 -0.0564  1.0828  0.9397
 2412SOL     OW18871   2.512   0.699  17.671 -0.1838 -0.3390  0.9438
 2412SOL    HW118872   2.424   0.668  17.694 -0.5641 -0.6194 -0.8803
 2412SOL    HW218873   2.529   0.659  17.586  1.2387 -0.9989  1.5462
 2413SOL     OW18874   1.748   0.653   3.815 -0.1800  0.2680  0.6176
 2413SOL    HW118875   1.781   0.738   3.844 -2.4392  0.5332  2.3695
 2413SOL    HW218876   1.767   0.658   3.721 -1.7432 -2.6162  0.1408
 2414SOL     OW18877   3.900   3.553   8.741 -0.1464  0.1966  0.5024
 2414SOL    HW118878   3.810   3.580   8.759 -0.9273 -0.9862 -1.6892
 2414SOL    HW218879   3.951   3.632   8.757  0.7008 -0.2504  0.0084
 2415SOL     OW18880   4.182   2.972   7.493  0.6832 -0.3430  0.2111
 2415SOL    HW118881   4.208   3.018   7.573 -0.0331  0.0259  0.2302
 2415SOL    HW218882   4.112   3.026   7.457  0.0952 -0.9780  0.3990
 2416SOL     OW18883   2.773   0.990   6.121  0.1763  0.4007 -0.1151
 2416SOL    HW118884   2.694   0.987   6.066  1.0559  0.9770 -1.4164
 2416SOL    HW218885   2.746   0.958   6.207  2.8887 -1.1710  0.1414
 2417SOL     OW18886   2.347   3.162   2.981 -0.8467  0.4708  0.2613
 2417SOL    HW118887   2.377   3.152   2.891 -0.9816  0.4083  0.2235
 2417SOL    HW218888   2.317   3.071   2.988 -0.6445  0.4545  1.0000
 2418SOL     OW18889   3.359   1.338   6.883  0.0314  0.2561 -0.0178
 2418SOL    HW118890   3.425   1.353   6.951 -1.8658 -2.2719  2.3752
 2418SOL    HW218891   3.356   1.427   6.848  0.0659  0.2879  0.0609
 2419SOL     OW18892   4.611   1.968  10.179 -0.1137  0.5253  0.0747
 2419SOL    HW118893   4.632   2.061  10.173 -1.7943  0.8453 -0.8023
 2419SOL    HW218894   4.544   1.973  10.247 -0.5988  1.0722 -0.4465
 2420SOL     OW18895   1.271   0.821   7.791  0.7142  0.4849  0.1686
 2420SOL    HW118896   1.226   0.818   7.876  1.9364  0.4840  0.8126
 2420SOL    HW218897   1.353   0.785   7.825  0.8143 -1.3563 -2.0420
 2421SOL     OW18898   1.454   2.241  16.708  0.0238  0.4650 -0.0270
 2421SOL    HW118899   1.542   2.220  16.676  0.1047 -1.6016  1.6075
 2421SOL    HW218900   1.419   2.158  16.739  0.7722  0.4760  0.8564
 2422SOL     OW18901   4.675   3.267  13.619 -0.3437  0.2178  0.7006
 2422SOL    HW118902   4.684   3.359  13.591  1.9205 -0.7125 -1.6241
 2422SOL    HW218903   4.618   3.292  13.692 -1.4419  0.0834 -0.1114
 2423SOL     OW18904   3.479   4.706  13.890 -0.0619 -0.0485  0.2680
 2423SOL    HW118905   3.426   4.651  13.948  0.7968 -1.5115 -0.3346
 2423SOL    HW218906   3.431   0.053  13.892  0.6095  0.3942 -2.1188
 2424SOL     OW18907   4.018   0.711   0.517 -0.3991 -0.3841 -0.0256
 2424SOL    HW118908   4.109   0.731   0.499 -0.3716  0.0630  0.5853
 2424SOL    HW218909   4.029   0.692   0.610 -0.3941  0.4155  0.1436
 2425SOL     OW18910   3.216   4.670  10.903  0.0556 -0.5351  0.0421
 2425SOL    HW118911   3.235   0.027  10.895  2.0014 -0.8500  0.8521
 2425SOL    HW218912   3.230   4.650  10.996  1.2289  2.5074  0.5417
 2426SOL     OW18913   4.506   3.410   6.206 -0.2930 -0.3496  0.1532
 2426SOL    HW118914   4.411   3.407   6.194 -0.1765  0.7355 -1.0941
 2426SOL    HW218915   4.519   3.459   6.287  0.5647  0.4391 -0.4557
 2427SOL     OW18916   3.754   3.337   0.321 -0.0160  0.3648  0.4198
 2427SOL    HW118917   3.667   3.339   0.362  0.8343 -0.0472  2.2794
 2427SOL    HW218918   3.807   3.366   0.396  0.9185  0.7251 -0.3742
 2428SOL     OW18919   4.360   2.746  17.118 -0.8278 -0.4208  0.6479
 2428SOL    HW118920   4.320   2.680  17.175  2.5799 -2.7904  0.2720
 2428SOL    HW218921   4.285   2.796  17.085  0.2322  0.9795  0.3876
 2429SOL     OW18922   2.245   2.793   8.212 -0.2741 -0.1416 -0.7529
 2429SOL    HW118923   2.317   2.737   8.241 -1.3639 -1.5059 -0.6777
 2429SOL    HW218924   2.177   2.770   8.276  0.3887  2.0372  0.7182
 2430SOL     OW18925   3.294   3.710   4.932 -0.1454  0.1051 -0.0953
 2430SOL    HW118926   3.203   3.681   4.924  0.3541 -1.1680 -1.0953
 2430SOL    HW218927   3.301   3.786   4.874 -0.9417 -1.0132 -1.6643
 2431SOL     OW18928   0.977   3.156  11.976  0.1449 -0.3851  0.8891
 2431SOL    HW118929   0.885   3.179  11.961 -0.1011 -1.2248  1.1105
 2431SOL    HW218930   1.004   3.232  12.028  0.1700 -1.1675  2.0213
 2432SOL     OW18931   4.376   4.718  14.795 -0.1241  0.2853 -0.8361
 2432SOL    HW118932   4.460   4.675  14.783 -0.6340 -0.5927 -1.2968
 2432SOL    HW218933   4.411   0.051  14.851 -2.1868 -0.5009  1.4289
 2433SOL     OW18934   3.982   1.197  13.832  0.2333 -0.1678  0.2223
 2433SOL    HW118935   3.898   1.243  13.824 -1.2700 -2.3448  3.1509
 2433SOL    HW218936   4.035   1.263  13.877 -1.2852  0.9382  0.4178
 2434SOL     OW18937   4.350   2.474   0.974 -0.5693  0.3860 -0.1706
 2434SOL    HW118938   4.417   2.543   0.971  1.5623 -1.6064  1.7297
 2434SOL    HW218939   4.396   2.392   0.959  1.2032  1.4362 -0.5011
 2435SOL     OW18940   3.532   1.485   0.189 -0.6757  0.0330 -0.3337
 2435SOL    HW118941   3.560   1.521   0.273 -1.5943  1.5198 -0.6678
 2435SOL    HW218942   3.493   1.401   0.211  0.3498 -0.6199 -1.0217
 2436SOL     OW18943   2.494   0.580   2.661 -0.4393  0.0120 -0.0334
 2436SOL    HW118944   2.533   0.639   2.726  0.5473 -0.6522 -0.0136
 2436SOL    HW218945   2.524   0.626   2.582 -0.4345 -3.5516 -2.1026
 2437SOL     OW18946   4.577   3.607   7.744 -0.2123 -0.6145 -0.2853
 2437SOL    HW118947   4.607   3.697   7.751  0.2882 -0.7002 -1.3343
 2437SOL    HW218948   4.640   3.570   7.682  0.3441 -2.1411  1.1742
 2438SOL     OW18949   3.792   4.487   4.964  0.5164 -0.3918  0.1425
 2438SOL    HW118950   3.759   4.403   4.996 -0.3053 -0.7803 -1.7202
 2438SOL    HW218951   3.864   4.469   4.904 -0.6184 -0.1892 -1.3042
 2439SOL     OW18952   3.427   2.434   3.514 -0.3890 -0.6029 -0.2958
 2439SOL    HW118953   3.347   2.425   3.566 -0.9631 -1.5252 -1.3375
 2439SOL    HW218954   3.498   2.416   3.575 -0.0820  1.4222 -0.0682
 2440SOL     OW18955   0.570   2.390   1.412 -0.0703  0.7040  0.0090
 2440SOL    HW118956   0.552   2.411   1.321  0.0645  1.7100  0.2121
 2440SOL    HW218957   0.664   2.372   1.412 -0.0025  1.0561  0.2985
 2441SOL     OW18958   3.728   3.379   5.438  0.0308 -0.4410 -0.2716
 2441SOL    HW118959   3.652   3.381   5.379 -0.2185  0.8898  0.0862
 2441SOL    HW218960   3.798   3.372   5.374 -0.4843  0.3697 -0.9281
 2442SOL     OW18961   0.534   0.722  16.022 -0.2547  0.3957 -0.3804
 2442SOL    HW118962   0.541   0.695  16.113 -0.6524 -0.6027 -0.6348
 2442SOL    HW218963   0.576   0.807  16.035 -1.5434  1.0080 -0.2014
 2443SOL     OW18964   0.259   1.203   9.055 -0.1440  0.2697  0.0247
 2443SOL    HW118965   0.188   1.140   9.044 -0.5116  1.0451 -1.9414
 2443SOL    HW218966   0.266   1.231   8.964  0.0925 -2.5678 -0.8148
 2444SOL     OW18967   1.667   3.495   5.898  0.1184  0.0430 -0.3338
 2444SOL    HW118968   1.745   3.502   5.952 -0.4925 -1.6692  0.7748
 2444SOL    HW218969   1.644   3.405   5.924  0.2725  0.4313  1.1149
 2445SOL     OW18970   4.029   0.667   3.131  0.0084  0.0047 -0.4799
 2445SOL    HW118971   3.951   0.612   3.135  1.0201 -1.2572  1.5525
 2445SOL    HW218972   4.085   0.626   3.196  0.2257  0.4395 -0.3908
 2446SOL     OW18973   2.989   1.756   6.010  0.2113  0.2658 -0.5894
 2446SOL    HW118974   2.977   1.662   6.005 -0.7948  0.5603 -3.6724
 2446SOL    HW218975   3.084   1.754   6.019 -0.1098  0.6401  2.8233
 2447SOL     OW18976   1.366   3.992   9.002  0.5629 -0.4915 -0.1324
 2447SOL    HW118977   1.372   4.060   8.935 -0.2033 -0.7307 -0.4448
 2447SOL    HW218978   1.349   4.045   9.079 -0.5267 -0.7579 -0.1980
 2448SOL     OW18979   3.179   3.223   4.255  1.0429 -0.8535 -0.8102
 2448SOL    HW118980   3.169   3.307   4.299 -1.4210 -2.8006  2.3847
 2448SOL    HW218981   3.228   3.173   4.320 -0.6735 -1.3429  0.1193
 2449SOL     OW18982   0.033   3.185   5.857 -0.5745  0.1022  0.1702
 2449SOL    HW118983   4.703   3.177   5.789  1.1026  0.7650 -1.5718
 2449SOL    HW218984   4.722   3.142   5.928  0.0316  0.3997  0.7662
 2450SOL     OW18985   1.326   0.040   7.169 -0.2814  0.0725 -0.1735
 2450SOL    HW118986   1.273   0.074   7.241  0.0629 -1.6784  0.9086
 2450SOL    HW218987   1.366   0.124   7.146  0.6966 -0.7106 -1.3374
 2451SOL     OW18988   1.062   2.288  15.577  0.5872 -0.2007  0.1991
 2451SOL    HW118989   1.128   2.342  15.534  0.3502 -1.3374 -1.5555
 2451SOL    HW218990   1.065   2.323  15.666 -0.1976 -2.4193  1.0991
 2452SOL     OW18991   0.445   3.927   9.208 -0.1980 -0.3302 -0.0183
 2452SOL    HW118992   0.395   3.967   9.279 -0.7008 -0.2065 -0.4465
 2452SOL    HW218993   0.532   3.937   9.247  1.0761  2.0328 -3.5273
 2453SOL     OW18994   1.719   2.879   4.320 -0.8081  0.5885  0.5520
 2453SOL    HW118995   1.696   2.831   4.240 -0.0064  0.3997  0.4285
 2453SOL    HW218996   1.731   2.799   4.371  0.8223  1.2813  1.2356
 2454SOL     OW18997   0.459   3.004   8.533 -0.0407  0.0645  0.2169
 2454SOL    HW118998   0.467   2.955   8.452  0.9902 -0.7606  0.8102
 2454SOL    HW218999   0.461   3.096   8.505 -3.1269 -0.1476 -0.6907
 2455SOL     OW19000   3.630   1.546   5.788 -0.0885 -0.3092  0.3704
 2455SOL    HW119001   3.585   1.627   5.812 -0.0176  0.2851 -1.5198
 2455SOL    HW219002   3.711   1.589   5.762  0.5040 -1.1395  0.8242
 2456SOL     OW19003   1.956   2.471   1.137  0.7181 -0.3665  0.2291
 2456SOL    HW119004   2.038   2.453   1.183  1.1836  0.6002 -0.2268
 2456SOL    HW219005   1.905   2.532   1.189 -0.9115 -2.8234  1.5373
 2457SOL     OW19006   3.544   2.402   3.855 -0.0710  0.9051  0.2218
 2457SOL    HW119007   3.591   2.484   3.839 -1.1316  0.9959 -2.4775
 2457SOL    HW219008   3.591   2.385   3.936 -2.2736  1.7326  1.6534
 2458SOL     OW19009   3.972   2.615  11.769  0.7983 -0.1250  0.0358
 2458SOL    HW119010   3.957   2.521  11.781  1.7317 -0.4250 -1.1747
 2458SOL    HW219011   3.922   2.649  11.843  2.0163  2.8612 -0.5123
 2459SOL     OW19012   3.715   1.679   1.608 -0.1686 -0.5058  0.2579
 2459SOL    HW119013   3.733   1.699   1.700 -0.8876  1.3222  0.0162
 2459SOL    HW219014   3.727   1.764   1.565  0.7712 -1.4332 -1.3340
 2460SOL     OW19015   1.029   2.785  10.572 -0.5042 -0.1955 -0.0162
 2460SOL    HW119016   1.028   2.718  10.640  3.3269 -1.1955 -0.9347
 2460SOL    HW219017   0.991   2.732  10.502 -0.1432  0.2383 -0.5519
 2461SOL     OW19018   2.350   3.434   3.749  0.5235 -0.6970  0.5183
 2461SOL    HW119019   2.359   3.508   3.688 -1.3596 -0.1906  0.8271
 2461SOL    HW219020   2.306   3.472   3.826  3.0028  0.7746  1.1922
 2462SOL     OW19021   1.511   3.897  15.123  0.1938  0.1502  0.3673
 2462SOL    HW119022   1.571   3.857  15.061  1.1929  0.9033  0.8411
 2462SOL    HW219023   1.560   3.911  15.204 -0.5688  1.7769  0.5588
 2463SOL     OW19024   0.944   3.879  13.535  0.2958 -0.1615 -0.2840
 2463SOL    HW119025   1.012   3.935  13.497  0.4990 -0.4393 -0.3275
 2463SOL    HW219026   1.000   3.824  13.591  0.0442 -0.6374 -0.5049
 2464SOL     OW19027   3.690   3.810   7.258  0.1799 -0.6456 -0.7927
 2464SOL    HW119028   3.730   3.750   7.321 -0.9532 -0.4977  0.0756
 2464SOL    HW219029   3.720   3.896   7.288 -4.3164  0.8340 -0.5188
 2465SOL     OW19030   4.460   3.772   9.399  0.5629 -0.4390  0.0224
 2465SOL    HW119031   4.523   3.719   9.350 -0.2563 -0.3075 -1.1686
 2465SOL    HW219032   4.509   3.854   9.404  0.1638 -0.1377 -0.9690
 2466SOL     OW19033   3.781   3.963   6.607  0.2195  0.2856  0.1897
 2466SOL    HW119034   3.860   4.017   6.605  1.1445 -1.0764 -0.1558
 2466SOL    HW219035   3.773   3.941   6.514 -0.1779 -0.5762  0.4241
 2467SOL     OW19036   0.775   1.469   0.633 -0.5156  0.1799  0.6070
 2467SOL    HW119037   0.860   1.508   0.650 -0.5072  0.2949  0.2965
 2467SOL    HW219038   0.731   1.542   0.590 -0.3243  1.0113  1.8091
 2468SOL     OW19039   4.036   3.060   8.178 -0.4816  0.0621  0.6023
 2468SOL    HW119040   4.035   2.964   8.178 -0.8349  0.0652 -1.0298
 2468SOL    HW219041   3.969   3.066   8.247 -0.5714  3.4080  0.1883
 2469SOL     OW19042   4.605   1.344   3.184  0.0456 -0.0023  0.4909
 2469SOL    HW119043   4.558   1.262   3.197  0.5659  0.0092  2.4851
 2469SOL    HW219044   4.557   1.382   3.110  0.0155 -1.5423 -0.2919
 2470SOL     OW19045   3.156   2.518   4.767 -0.3779  0.4055 -0.1779
 2470SOL    HW119046   3.168   2.442   4.825  0.1878  0.0803 -0.7341
 2470SOL    HW219047   3.147   2.482   4.679  1.6787  1.6603 -0.8991
 2471SOL     OW19048   1.898   3.998   6.903  0.2799  0.1628  0.4887
 2471SOL    HW119049   1.983   4.022   6.939  0.3495 -0.9589  1.0892
 2471SOL    HW219050   1.871   3.945   6.978  1.6990 -0.3080  0.6698
 2472SOL     OW19051   0.488   1.037   9.189  0.3453 -0.3131  0.0041
 2472SOL    HW119052   0.420   1.095   9.223  2.6931  1.4738  1.6955
 2472SOL    HW219053   0.455   0.999   9.108 -0.7895  1.1573 -0.2288
 2473SOL     OW19054   0.144   0.991   5.165  0.6001 -0.3968 -0.0426
 2473SOL    HW119055   0.199   0.966   5.239  0.8402  1.9912  0.5934
 2473SOL    HW219056   0.210   0.963   5.101  0.5735 -0.2439 -0.1372
 2474SOL     OW19057   4.500   3.741   2.662  0.2423 -0.3154 -0.3063
 2474SOL    HW119058   4.469   3.762   2.750 -2.8314 -0.7797 -1.2928
 2474SOL    HW219059   4.588   3.775   2.679  0.4784 -1.5964  1.0942
 2475SOL     OW19060   2.316   1.315   0.818  0.4161 -0.4824  0.2632
 2475SOL    HW119061   2.347   1.337   0.730 -2.9783 -0.8919 -1.0152
 2475SOL    HW219062   2.378   1.347   0.884 -1.5144 -0.3518  2.0339
 2476SOL     OW19063   2.779   0.662   3.092  0.6445 -0.5670 -0.4417
 2476SOL    HW119064   2.814   0.714   3.020 -1.4696  0.0753 -1.0055
 2476SOL    HW219065   2.850   0.617   3.137  1.5621 -0.7965 -2.1384
 2477SOL     OW19066   3.760   2.677   3.412  0.0232  0.0545 -0.4643
 2477SOL    HW119067   3.822   2.625   3.361  0.9181  0.7531 -0.0817
 2477SOL    HW219068   3.820   2.695   3.485 -1.1535  3.5122 -0.3584
 2478SOL     OW19069   1.501   3.183  14.202  0.2716  0.2324  0.6814
 2478SOL    HW119070   1.452   3.234  14.138 -0.3021 -0.7473  0.3401
 2478SOL    HW219071   1.493   3.093  14.172 -0.5426  0.7167 -0.4970
 2479SOL     OW19072   2.255   2.200  10.535  0.9108  0.7941  0.3736
 2479SOL    HW119073   2.282   2.118  10.495 -1.0189 -0.2876  1.3267
 2479SOL    HW219074   2.330   2.213  10.593  1.1222  0.1035  0.2485
 2480SOL     OW19075   1.049   1.970   4.380  0.1622  0.4391 -0.3882
 2480SOL    HW119076   1.094   1.924   4.450 -0.4424 -0.1827 -0.4158
 2480SOL    HW219077   1.038   1.907   4.309 -1.4533 -0.1162  0.3763
 2481SOL     OW19078   1.789   2.500   3.303 -0.8199  0.3256  0.2858
 2481SOL    HW119079   1.806   2.423   3.357 -0.3663  1.3050  1.5285
 2481SOL    HW219080   1.824   2.577   3.347 -1.3256  0.0231  1.2235
 2482SOL     OW19081   3.062   2.290  17.129 -0.0920 -0.0107  0.7945
 2482SOL    HW119082   2.967   2.291  17.118 -0.0515  0.5368  0.5266
 2482SOL    HW219083   3.068   2.241  17.211 -1.9727 -0.5813  0.5899
 2483SOL     OW19084   2.958   3.018  12.061  0.0618 -0.0880  0.0831
 2483SOL    HW119085   2.963   3.031  12.156  0.5786 -1.1859  0.1998
 2483SOL    HW219086   3.038   3.063  12.036 -0.5490  0.8915 -0.1218
 2484SOL     OW19087   1.157   2.772   5.443  0.7718 -0.0195  0.3927
 2484SOL    HW119088   1.140   2.845   5.384 -0.8138 -0.1821  0.6590
 2484SOL    HW219089   1.076   2.769   5.494  1.8362 -0.1297  2.0697
 2485SOL     OW19090   2.201   0.299   1.703 -0.1268 -0.3012  0.5918
 2485SOL    HW119091   2.227   0.387   1.674  0.6936 -0.9945 -0.7751
 2485SOL    HW219092   2.111   0.304   1.672 -1.0468  1.5078  3.5387
 2486SOL     OW19093   1.949   4.258   9.503 -0.0734  0.3569 -0.0176
 2486SOL    HW119094   1.939   4.169   9.535 -0.3743 -0.2120 -1.6770
 2486SOL    HW219095   1.911   4.243   9.416  1.0843  0.5009 -0.5528
 2487SOL     OW19096   2.770   3.656   5.896  0.1442  0.4608 -1.1165
 2487SOL    HW119097   2.691   3.624   5.854  1.8844 -2.6903 -2.0591
 2487SOL    HW219098   2.736   3.652   5.986  0.8419 -0.1159 -0.8755
 2488SOL     OW19099   3.218   0.389   2.317 -0.0908 -0.1918  0.6175
 2488SOL    HW119100   3.133   0.360   2.283 -0.0246  0.0363  0.2541
 2488SOL    HW219101   3.228   0.466   2.261 -2.1036 -0.6578 -0.4132
 2489SOL     OW19102   4.194   3.133  16.831  0.1203  0.3135  0.2961
 2489SOL    HW119103   4.218   3.097  16.917  1.8698  0.6052 -0.0612
 2489SOL    HW219104   4.220   3.225  16.835  0.2782  0.3776 -1.9058
 2490SOL     OW19105   3.847   0.679  10.917 -0.0167 -0.0919 -0.4756
 2490SOL    HW119106   3.825   0.666  11.009  0.2883 -1.1860 -0.5588
 2490SOL    HW219107   3.923   0.622  10.907  1.0804  1.2781  0.1294
 2491SOL     OW19108   0.304   4.646  16.457  0.5515 -0.6569 -0.2134
 2491SOL    HW119109   0.291   0.004  16.445  0.4205 -0.5440  0.8757
 2491SOL    HW219110   0.276   4.652  16.548 -0.1234  0.6132 -0.4982
 2492SOL     OW19111   1.380   2.049  13.164  0.7800 -0.3414  0.5021
 2492SOL    HW119112   1.403   2.142  13.157  0.8226 -0.4635 -1.0465
 2492SOL    HW219113   1.464   2.021  13.201  1.8658  0.9935 -0.9169
 2493SOL     OW19114   4.477   4.016  14.416  0.6175  0.3984  0.5457
 2493SOL    HW119115   4.455   4.090  14.360 -2.0833  0.2960  1.5053
 2493SOL    HW219116   4.449   3.938  14.369  2.6680 -0.0871  0.1132
 2494SOL     OW19117   3.463   2.428   5.030 -0.0462  0.1555  0.1667
 2494SOL    HW119118   3.541   2.396   4.985 -1.4150 -0.5246 -1.7246
 2494SOL    HW219119   3.401   2.355   5.031 -0.6754  0.6849 -0.6697
 2495SOL     OW19120   1.011   3.768   1.840 -0.2569 -0.1808 -0.3468
 2495SOL    HW119121   1.080   3.824   1.805  0.4928 -0.7249  0.2634
 2495SOL    HW219122   0.982   3.712   1.768  0.6499 -3.0019  1.4779
 2496SOL     OW19123   3.423   1.687  13.826  0.4982  0.1579 -0.7785
 2496SOL    HW119124   3.402   1.669  13.918 -2.1462  0.7618 -1.2499
 2496SOL    HW219125   3.387   1.774  13.809  1.2793  0.6761  0.2220
 2497SOL     OW19126   1.451   2.107   6.599 -0.0563 -0.7770  0.2611
 2497SOL    HW119127   1.449   2.018   6.634  0.8161 -0.8776  0.0466
 2497SOL    HW219128   1.541   2.132   6.620  0.1381 -2.5253  1.4874
 2498SOL     OW19129   3.290   2.855   3.528  0.3245  0.4606  0.1745
 2498SOL    HW119130   3.298   2.880   3.436  1.9539  0.7854  0.4050
 2498SOL    HW219131   3.220   2.917   3.549  0.4373  1.3476 -2.0469
 2499SOL     OW19132   2.854   3.300   6.040  0.2871  0.2901  0.5340
 2499SOL    HW119133   2.761   3.314   6.055 -0.1017 -2.8007  0.8313
 2499SOL    HW219134   2.862   3.206   6.027 -2.6081  0.3734 -1.9830
 2500SOL     OW19135   0.233   2.189   8.525 -0.1535 -0.2209  0.2427
 2500SOL    HW119136   0.237   2.146   8.439 -0.1519 -0.1665  0.2159
 2500SOL    HW219137   0.255   2.123   8.590 -1.5173  0.3267  1.2533
 2501SOL     OW19138   4.367   3.550   9.518 -0.5619  0.9874  0.1109
 2501SOL    HW119139   4.397   3.637   9.493 -2.7812  1.9387  0.8016
 2501SOL    HW219140   4.452   3.508   9.530 -0.3912  1.5199  0.7317
 2502SOL     OW19141   1.529   3.851   3.236  0.0035 -0.1568  0.4704
 2502SOL    HW119142   1.538   3.781   3.301 -3.4439  0.3627  1.4838
 2502SOL    HW219143   1.468   3.809   3.175  2.2193 -0.2463 -1.6942
 2503SOL     OW19144   4.390   3.969   2.128 -0.2058  0.0498 -0.2020
 2503SOL    HW119145   4.372   4.037   2.194  0.5947  2.7015 -2.7372
 2503SOL    HW219146   4.314   3.912   2.140 -0.2283  0.0113 -0.5412
 2504SOL     OW19147   1.293   2.867   2.215 -0.5636 -0.2791 -0.3822
 2504SOL    HW119148   1.280   2.922   2.138 -2.1057 -2.3093 -1.5732
 2504SOL    HW219149   1.235   2.796   2.187  1.1969 -1.6298 -0.5335
 2505SOL     OW19150   1.349   2.740   6.851  0.2443 -0.3106 -0.0293
 2505SOL    HW119151   1.368   2.652   6.820  0.0310 -0.7950  1.2090
 2505SOL    HW219152   1.258   2.731   6.879 -0.2928  2.9879 -0.6753
 2506SOL     OW19153   4.578   0.186  16.688 -0.1670 -0.0995 -0.4004
 2506SOL    HW119154   4.665   0.148  16.678 -0.0505  0.4010 -1.2447
 2506SOL    HW219155   4.576   0.242  16.611  2.4671  0.4376 -0.0702
 2507SOL     OW19156   3.631   2.910   5.836  0.1874 -1.0154  0.1442
 2507SOL    HW119157   3.697   2.842   5.846  0.4811 -0.6921  0.4173
 2507SOL    HW219158   3.670   2.991   5.869 -1.1159 -0.4924  0.4102
 2508SOL     OW19159   3.861   4.470   5.805 -0.3136 -0.0090 -0.1523
 2508SOL    HW119160   3.863   4.505   5.716 -2.6720  0.9313  0.1556
 2508SOL    HW219161   3.897   4.384   5.787 -0.3671 -0.0756  0.0605
 2509SOL     OW19162   2.617   1.307   7.382 -0.1928 -0.2028  0.3692
 2509SOL    HW119163   2.545   1.350   7.334 -0.1055 -2.1254 -1.4807
 2509SOL    HW219164   2.666   1.281   7.304 -0.3946  2.3339 -0.6380
 2510SOL     OW19165   0.021   0.856   6.387  0.0606  0.0620  0.3025
 2510SOL    HW119166   0.011   0.846   6.292  1.0596  2.1352 -0.0133
 2510SOL    HW219167   4.730   0.947   6.392 -1.4882 -0.4115  0.5683
 2511SOL     OW19168   3.193   2.605  13.152 -0.0567  0.0746 -0.0570
 2511SOL    HW119169   3.160   2.593  13.063  0.2643  2.6910 -0.5398
 2511SOL    HW219170   3.259   2.671  13.130  1.7313 -1.8801 -0.4921
 2512SOL     OW19171   0.085   1.289   7.448 -0.0854 -0.1320  0.2505
 2512SOL    HW119172   0.114   1.238   7.372 -3.3705 -1.0067 -0.3909
 2512SOL    HW219173   0.130   1.371   7.429 -0.8803  0.2776  0.1895
 2513SOL     OW19174   3.546   3.850   6.288  0.5246  0.1757  0.8940
 2513SOL    HW119175   3.639   3.869   6.280  0.5925 -0.1355  0.9486
 2513SOL    HW219176   3.516   3.932   6.327  0.7302 -0.1979  1.8269
 2514SOL     OW19177   3.291   1.137   5.870  0.6061  0.0150 -0.3537
 2514SOL    HW119178   3.314   1.047   5.846 -1.5995 -0.9383  1.0750
 2514SOL    HW219179   3.230   1.153   5.797  1.0784 -0.4853 -0.8506
 2515SOL     OW19180   4.050   4.282   7.147 -0.4654  0.0443 -0.4205
 2515SOL    HW119181   4.012   4.215   7.091  1.9150  0.0714 -2.0876
 2515SOL    HW219182   4.138   4.302   7.115 -0.1678 -0.5830 -0.0068
 2516SOL     OW19183   0.441   3.306   2.567  0.1919  0.1665 -0.0883
 2516SOL    HW119184   0.362   3.253   2.577 -1.6079  2.9724  0.8145
 2516SOL    HW219185   0.406   3.379   2.618  2.3993  0.2423  1.3197
 2517SOL     OW19186   2.541   0.946   6.023  0.2450 -0.1165 -0.4516
 2517SOL    HW119187   2.560   0.852   6.029 -0.0794 -0.2798 -2.0924
 2517SOL    HW219188   2.491   0.939   5.942  1.4291  0.4301 -1.2279
 2518SOL     OW19189   2.664   0.974   2.734  0.0728 -0.2125 -0.1122
 2518SOL    HW119190   2.692   1.056   2.774 -1.0414 -1.1098  2.4709
 2518SOL    HW219191   2.572   0.999   2.726  0.0684  0.6515  2.5467
 2519SOL     OW19192   4.353   2.499  13.457  0.1139 -0.0418 -0.1590
 2519SOL    HW119193   4.327   2.579  13.412  0.6458 -0.8045 -1.8078
 2519SOL    HW219194   4.332   2.429  13.395 -3.1495 -0.4342  1.4058
 2520SOL     OW19195   3.329   0.220  11.597 -0.5453 -0.7511  0.2195
 2520SOL    HW119196   3.354   0.313  11.592 -2.3332 -0.3768 -1.9493
 2520SOL    HW219197   3.402   0.183  11.646  0.7888 -0.8689 -1.8667
 2521SOL     OW19198   3.176   0.685   2.880  0.0993 -0.4757 -0.0534
 2521SOL    HW119199   3.129   0.603   2.893  0.8966 -0.7903  0.7678
 2521SOL    HW219200   3.107   0.730   2.830 -0.3059 -0.5744  0.4189
 2522SOL     OW19201   0.590   1.645   7.901 -0.1509  0.2316 -0.3513
 2522SOL    HW119202   0.630   1.718   7.854 -0.2242  1.1523  0.9934
 2522SOL    HW219203   0.500   1.662   7.872  1.1518  2.8121 -2.8595
 2523SOL     OW19204   2.437   2.993   6.128  0.2473 -0.5893  0.2334
 2523SOL    HW119205   2.493   2.989   6.206 -0.2902  0.4544  0.6839
 2523SOL    HW219206   2.348   2.992   6.165  0.0381  0.1362 -0.2454
 2524SOL     OW19207   4.606   0.160   4.744  0.0778  0.3276  0.3870
 2524SOL    HW119208   4.659   0.216   4.802  2.6663 -0.8961 -0.7956
 2524SOL    HW219209   4.605   0.223   4.672 -0.3053 -1.2656 -0.9827
 2525SOL     OW19210   0.399   3.385  12.670 -0.2357 -0.2185 -0.2224
 2525SOL    HW119211   0.468   3.320  12.653  1.7908  1.3977  1.9035
 2525SOL    HW219212   0.393   3.435  12.588  1.6073 -0.3245 -0.4217
 2526SOL     OW19213   4.029   0.053   8.671  0.5037 -0.4583 -0.2475
 2526SOL    HW119214   4.091   4.728   8.630  0.6481 -0.8200  0.5119
 2526SOL    HW219215   4.055   0.131   8.623  0.6221 -0.1198  0.3727
 2527SOL     OW19216   2.170   0.803   1.634 -0.4050  0.4520 -1.0065
 2527SOL    HW119217   2.141   0.894   1.636  0.3672  0.7225 -2.6704
 2527SOL    HW219218   2.243   0.810   1.573  1.4390  1.0947  1.2825
 2528SOL     OW19219   3.169   4.713   8.518 -0.4088 -0.5145 -0.0861
 2528SOL    HW119220   3.101   4.647   8.510 -0.1861 -0.7682  0.0870
 2528SOL    HW219221   3.168   0.004   8.427 -3.6232  3.3186  1.1345
 2529SOL     OW19222   4.526   2.244   8.501  0.1839  0.2182  0.3858
 2529SOL    HW119223   4.561   2.196   8.575  0.9341 -2.2663 -1.5624
 2529SOL    HW219224   4.503   2.327   8.542  1.5320 -0.0772  1.7103
 2530SOL     OW19225   3.548   1.160   2.545 -0.6713 -0.1016  0.0452
 2530SOL    HW119226   3.523   1.142   2.455 -1.0241 -0.1263  0.1480
 2530SOL    HW219227   3.469   1.208   2.570 -1.3995 -1.6943  0.7978
 2531SOL     OW19228   3.162   2.523   4.447 -0.1007 -0.2262  0.1890
 2531SOL    HW119229   3.079   2.571   4.447  0.8008  1.2955 -1.8610
 2531SOL    HW219230   3.143   2.470   4.370  0.2168  2.1140 -1.4711
 2532SOL     OW19231   2.414   4.219   8.559  0.2973 -0.0655  0.1058
 2532SOL    HW119232   2.452   4.277   8.493 -0.1922  0.0734 -0.0507
 2532SOL    HW219233   2.498   4.187   8.594 -0.1421 -2.5565 -1.0549
 2533SOL     OW19234   2.507   2.195  12.318 -0.0501 -0.0956 -0.3161
 2533SOL    HW119235   2.484   2.130  12.251 -0.4224 -0.3225  0.0338
 2533SOL    HW219236   2.498   2.146  12.399  1.9404  1.9366  1.1295
 2534SOL     OW19237   4.178   4.381   4.226 -0.4017 -0.3262  0.0797
 2534SOL    HW119238   4.225   4.410   4.148  2.6675 -1.4796  1.5035
 2534SOL    HW219239   4.088   4.378   4.194 -0.5599  0.1517  0.4764
 2535SOL     OW19240   3.732   1.075   8.096  0.1585  0.3567  0.3020
 2535SOL    HW119241   3.686   1.036   8.022 -0.7601  0.4119  0.8464
 2535SOL    HW219242   3.741   1.005   8.161  0.5612  1.7449  1.7419
 2536SOL     OW19243   4.545   4.499   5.839  0.0112  0.7520 -0.4292
 2536SOL    HW119244   4.641   4.505   5.834  0.0023  0.0374 -1.4352
 2536SOL    HW219245   4.525   4.583   5.879  0.4968 -0.9447  3.3596
 2537SOL     OW19246   3.790   3.130   1.763  0.1961  0.9981 -0.7217
 2537SOL    HW119247   3.770   3.105   1.853  0.4935  0.4460 -0.8081
 2537SOL    HW219248   3.759   3.047   1.726  2.0534  0.9557 -2.1922
 2538SOL     OW19249   1.713   4.085   5.795  0.1626 -0.1732  0.0114
 2538SOL    HW119250   1.772   4.102   5.868  0.2486  1.5446 -0.4620
 2538SOL    HW219251   1.648   4.028   5.836  0.3279 -0.0111  0.4986
 2539SOL     OW19252   0.077   2.413   5.502 -0.1848  0.6469 -0.4129
 2539SOL    HW119253   0.084   2.319   5.487  0.3256  0.9286 -1.8876
 2539SOL    HW219254   0.102   2.446   5.416 -0.9306  2.5038  0.0756
 2540SOL     OW19255   0.819   2.635  12.550  0.3494 -0.0830 -0.0068
 2540SOL    HW119256   0.896   2.688  12.570 -1.0005  2.2405 -0.9788
 2540SOL    HW219257   0.757   2.650  12.621 -0.2504 -1.9829 -0.1331
 2541SOL     OW19258   4.102   1.784   0.831 -0.0821 -0.4444  0.3325
 2541SOL    HW119259   4.177   1.821   0.877 -0.6671  1.1085  0.0190
 2541SOL    HW219260   4.134   1.694   0.837 -2.4127 -1.2423  0.8154
 2542SOL     OW19261   4.204   3.907  14.740 -0.4935  0.4321  0.9007
 2542SOL    HW119262   4.198   4.002  14.750  1.1601  0.8399 -2.1023
 2542SOL    HW219263   4.159   3.893  14.657  0.4931 -1.9417  0.7577
 2543SOL     OW19264   4.599   1.794   3.775  0.5869 -0.3956 -0.4314
 2543SOL    HW119265   4.535   1.729   3.745 -0.3602 -0.4826  1.8050
 2543SOL    HW219266   4.682   1.766   3.737  1.6252  2.8952 -0.5872
 2544SOL     OW19267   0.175   0.878  13.268 -0.8040  0.1442 -0.1629
 2544SOL    HW119268   0.250   0.844  13.318 -1.0788  0.2052  0.2955
 2544SOL    HW219269   0.101   0.820  13.288  2.5083 -3.5486  1.3545
 2545SOL     OW19270   1.983   3.336   6.617  0.2980  0.6538 -0.2502
 2545SOL    HW119271   2.021   3.396   6.553  3.5437 -2.1579 -0.9090
 2545SOL    HW219272   2.046   3.335   6.689 -0.9258 -0.3499  0.8053
 2546SOL     OW19273   2.222   1.564   8.659 -0.2299 -0.3414 -0.0410
 2546SOL    HW119274   2.146   1.513   8.685  0.0201 -1.2135 -1.0411
 2546SOL    HW219275   2.178   1.646   8.637  3.4132  0.9809 -2.4128
 2547SOL     OW19276   2.740   0.662   0.881  0.2172 -0.2118  0.2612
 2547SOL    HW119277   2.700   0.735   0.929  0.9760  0.4350 -0.1019
 2547SOL    HW219278   2.691   0.672   0.800  1.4746  0.2682 -0.4279
 2548SOL     OW19279   2.293   3.336   4.154  1.1669 -0.3713  0.4563
 2548SOL    HW119280   2.267   3.380   4.073  2.6100 -1.7574 -0.7418
 2548SOL    HW219281   2.302   3.406   4.219  0.2807  0.8480 -0.7273
 2549SOL     OW19282   2.417   4.406   0.107 -0.1897  0.1877  0.4453
 2549SOL    HW119283   2.435   4.432   0.197  0.6131  1.3745 -0.0528
 2549SOL    HW219284   2.426   4.486   0.055  1.6837 -1.6194 -2.0001
 2550SOL     OW19285   4.725   4.518   3.765 -0.2563  0.2429 -0.4566
 2550SOL    HW119286   4.654   4.492   3.708 -0.1632 -1.4162  0.1791
 2550SOL    HW219287   4.687   4.496   3.850 -0.8561  1.1766 -0.4862
 2551SOL     OW19288   4.540   1.133   9.289  0.4150 -0.6017 -0.2685
 2551SOL    HW119289   4.480   1.120   9.363  0.3076  2.5444  0.2018
 2551SOL    HW219290   4.600   1.060   9.302  0.5229 -0.2371  1.2868
 2552SOL     OW19291   4.072   4.351  11.406  0.4896  0.1120 -0.1593
 2552SOL    HW119292   4.097   4.287  11.340 -0.0920  0.1829 -0.4462
 2552SOL    HW219293   4.039   4.424  11.353  0.1109 -0.1156 -0.2358
 2553SOL     OW19294   3.539   2.700  11.311 -0.1810 -0.4170  0.5567
 2553SOL    HW119295   3.589   2.752  11.374  1.9918  0.5776 -1.9594
 2553SOL    HW219296   3.596   2.625  11.320 -0.8236 -0.9216  0.4312
 2554SOL     OW19297   3.055   1.058   2.415  0.4865  0.6636 -0.2963
 2554SOL    HW119298   2.961   1.043   2.407  0.7610 -0.1321 -2.0623
 2554SOL    HW219299   3.076   0.991   2.480 -0.8958 -1.4706 -2.0142
 2555SOL     OW19300   2.722   0.688   3.809 -0.3679 -0.5313  0.1606
 2555SOL    HW119301   2.657   0.627   3.773  1.1011 -1.2083 -1.3417
 2555SOL    HW219302   2.797   0.662   3.756 -0.5842  0.0114 -0.4028
 2556SOL     OW19303   4.605   2.045   8.134 -0.1815  0.1982 -0.1565
 2556SOL    HW119304   4.583   2.133   8.104  0.5433  0.2656 -0.4854
 2556SOL    HW219305   4.641   1.990   8.064 -2.2066 -2.1435  0.6417
 2557SOL     OW19306   4.237   0.413  17.217  0.1761 -0.2479  0.1363
 2557SOL    HW119307   4.161   0.369  17.256  0.6276 -0.4957  0.7279
 2557SOL    HW219308   4.239   0.384  17.125 -1.5329  0.8615 -0.2605
 2558SOL     OW19309   1.049   4.686  14.412 -0.1965  0.4301 -0.4692
 2558SOL    HW119310   0.983   4.669  14.479 -0.7303  1.3930 -0.7463
 2558SOL    HW219311   1.134   4.698  14.455 -0.3932 -0.6619  0.2270
 2559SOL     OW19312   2.327   3.816   8.364 -0.0110  0.6182  0.5206
 2559SOL    HW119313   2.416   3.798   8.394 -0.1004  0.1387  0.4901
 2559SOL    HW219314   2.340   3.857   8.279 -2.1314  1.4726  0.6116
 2560SOL     OW19315   0.352   3.910   1.725 -0.0911 -0.3304 -0.4147
 2560SOL    HW119316   0.278   3.955   1.683  0.9853  1.3421 -0.5346
 2560SOL    HW219317   0.329   3.906   1.818  1.5716  0.7118  0.0323
 2561SOL     OW19318   4.003   0.899   1.480  0.0748 -0.4689 -0.2364
 2561SOL    HW119319   4.082   0.943   1.449  1.2478 -0.6591  2.5529
 2561SOL    HW219320   3.936   0.943   1.428 -0.8016 -0.4867  0.8770
 2562SOL     OW19321   2.127   0.775   2.526  0.2860 -0.0789 -0.2952
 2562SOL    HW119322   2.126   0.680   2.519 -1.5615 -0.0248 -0.7993
 2562SOL    HW219323   2.142   0.798   2.434 -1.7860  0.2852 -0.5386
 2563SOL     OW19324   1.490   3.084  16.154 -0.3374 -0.1610 -0.0910
 2563SOL    HW119325   1.567   3.045  16.114 -0.4189 -1.2631  0.8356
 2563SOL    HW219326   1.428   3.063  16.084  0.3168 -0.7288 -0.4956
 2564SOL     OW19327   3.097   4.662   1.188 -0.0127 -0.0847  0.6854
 2564SOL    HW119328   3.025   4.599   1.198 -0.5090  0.3690 -0.0277
 2564SOL    HW219329   3.092   4.707   1.272  0.6346 -0.8640  1.1447
 2565SOL     OW19330   1.191   2.270  15.141  0.0887  0.6127  0.1602
 2565SOL    HW119331   1.234   2.189  15.168 -0.8322  0.0501 -0.0626
 2565SOL    HW219332   1.253   2.335  15.175  0.9606 -0.2241  0.1785
 2566SOL     OW19333   0.888   3.396   1.050  0.6248 -0.0547 -0.0512
 2566SOL    HW119334   0.933   3.313   1.065 -2.7605 -1.9633 -0.3685
 2566SOL    HW219335   0.931   3.449   1.117 -1.2601  0.3378  0.8493
 2567SOL     OW19336   2.257   3.923   4.824  0.2219 -1.0139 -0.9622
 2567SOL    HW119337   2.202   3.848   4.800  1.8723 -1.7421 -2.4841
 2567SOL    HW219338   2.259   3.974   4.744 -0.3114  1.0443  0.3243
 2568SOL     OW19339   0.702   4.395   4.867  0.6655 -0.6535  0.3003
 2568SOL    HW119340   0.648   4.425   4.940 -0.4873 -2.4104  0.1811
 2568SOL    HW219341   0.747   4.316   4.898  1.6112 -0.1697  0.1643
 2569SOL     OW19342   2.552   4.681  11.186  0.2918 -0.0347 -0.1020
 2569SOL    HW119343   2.644   4.664  11.203  1.2515  0.3325 -4.9749
 2569SOL    HW219344   2.528   4.632  11.107  2.7548 -1.7047  0.1963
 2570SOL     OW19345   3.205   3.264   3.728 -0.2801  0.1082 -0.1251
 2570SOL    HW119346   3.173   3.306   3.648 -1.1792 -0.3143  0.0095
 2570SOL    HW219347   3.181   3.325   3.798  0.3698 -1.4241  1.4335
 2571SOL     OW19348   2.960   2.750   4.143  0.0461  0.3194 -0.2254
 2571SOL    HW119349   2.926   2.797   4.067  0.4376 -0.0033 -0.5961
 2571SOL    HW219350   3.053   2.747   4.122 -0.0501 -2.6505 -0.2043
 2572SOL     OW19351   0.551   3.560   9.904 -0.1171  0.3540 -0.1899
 2572SOL    HW119352   0.545   3.571   9.999 -1.2868  1.0714 -0.3486
 2572SOL    HW219353   0.619   3.492   9.902  1.0113  1.4328  1.0696
 2573SOL     OW19354   4.490   4.226   6.670  0.5759  0.4254 -0.2430
 2573SOL    HW119355   4.566   4.231   6.729  1.2670  0.5181 -1.1308
 2573SOL    HW219356   4.491   4.133   6.649 -0.4743  0.3488  0.0647
 2574SOL     OW19357   2.573   3.835   9.424  0.1672  0.2257  0.1303
 2574SOL    HW119358   2.486   3.873   9.410  0.2665  0.1652 -0.6412
 2574SOL    HW219359   2.594   3.795   9.340 -0.4744  0.3996 -0.1110
 2575SOL     OW19360   1.814   2.927   8.817 -0.2556  0.1943 -0.3161
 2575SOL    HW119361   1.731   2.912   8.773 -0.8621 -0.9252  1.1911
 2575SOL    HW219362   1.854   2.841   8.831  1.0732  1.0355  1.1210
 2576SOL     OW19363   2.476   2.067   0.220 -0.2627 -0.1407 -0.3817
 2576SOL    HW119364   2.454   1.985   0.266  0.1248 -0.0299 -0.0045
 2576SOL    HW219365   2.568   2.043   0.210 -0.5871 -0.9181 -1.5366
 2577SOL     OW19366   0.047   2.062  13.432 -0.5188 -0.0770  0.0885
 2577SOL    HW119367   4.704   2.085  13.383  0.7409  1.3357 -1.2983
 2577SOL    HW219368   0.063   2.142  13.482  4.1540 -1.0532  0.1603
 2578SOL     OW19369   3.868   1.123  12.847  0.0121 -0.6150 -0.0142
 2578SOL    HW119370   3.876   1.163  12.760  1.4247  0.9770  0.8404
 2578SOL    HW219371   3.825   1.040  12.826 -1.4250 -0.0074  0.5218
 2579SOL     OW19372   2.627   0.702   4.345  0.2244 -0.5775 -0.5359
 2579SOL    HW119373   2.698   0.767   4.348 -0.2651  0.0006 -1.5465
 2579SOL    HW219374   2.650   0.665   4.430  0.3849  0.0914 -0.2860
 2580SOL     OW19375   4.356   2.421   2.073  0.0736 -0.3185 -0.1224
 2580SOL    HW119376   4.402   2.428   1.990  1.1718 -1.9927  0.3368
 2580SOL    HW219377   4.421   2.381   2.131 -1.1197 -2.8727 -0.5416
 2581SOL     OW19378   4.154   4.707  12.170  0.7304  0.0258 -0.4416
 2581SOL    HW119379   4.154   4.641  12.239 -0.6812  0.2955 -0.1829
 2581SOL    HW219380   4.209   4.673  12.100  2.0626 -0.5590  0.8885
 2582SOL     OW19381   0.960   3.810   8.515 -0.9508  0.0180  0.2431
 2582SOL    HW119382   0.987   3.742   8.577  1.1679 -0.7219 -1.4943
 2582SOL    HW219383   0.889   3.854   8.562 -0.3656  0.8403  0.3578
 2583SOL     OW19384   1.150   3.240  16.196 -0.1509  0.6849  0.6260
 2583SOL    HW119385   1.212   3.255  16.267 -0.5241  0.0114  1.1130
 2583SOL    HW219386   1.124   3.329  16.176 -0.0983  0.4141 -0.6384
 2584SOL     OW19387   1.944   3.957   3.260 -0.6252 -0.1599 -0.2544
 2584SOL    HW119388   1.989   3.873   3.245 -1.8251 -0.7835 -0.3419
 2584SOL    HW219389   1.918   3.974   3.170  1.3854 -1.6258 -1.1330
 2585SOL     OW19390   2.697   1.011   4.250  0.4143  0.4893  0.3193
 2585SOL    HW119391   2.732   1.081   4.305  0.5195  1.2806 -0.7536
 2585SOL    HW219392   2.774   0.994   4.194  0.8620 -0.7215  1.2964
 2586SOL     OW19393   1.234   3.535   2.967 -0.2651 -0.0179 -0.4723
 2586SOL    HW119394   1.146   3.515   2.999 -0.1807  1.7377  0.8533
 2586SOL    HW219395   1.276   3.450   2.976 -2.6041 -0.8694  2.1715
 2587SOL     OW19396   4.390   3.987   7.852  0.2243 -0.0305  0.4056
 2587SOL    HW119397   4.360   3.973   7.942 -2.6078  1.4007 -0.3121
 2587SOL    HW219398   4.328   4.050   7.816 -0.7974 -1.3306 -0.0962
 2588SOL     OW19399   3.893   2.037   4.815 -0.0493 -0.2148  0.2036
 2588SOL    HW119400   3.983   2.012   4.793  1.1825  2.7819  1.8536
 2588SOL    HW219401   3.898   2.083   4.899  2.4923 -3.4021  1.8038
 2589SOL     OW19402   4.518   4.451   3.585 -0.1494 -0.3166  0.6988
 2589SOL    HW119403   4.524   4.547   3.590 -2.1232 -0.1560 -0.0017
 2589SOL    HW219404   4.426   4.434   3.601 -0.3158 -1.5803 -1.6152
 2590SOL     OW19405   3.205   1.101   7.877 -0.2702  0.2075 -0.1319
 2590SOL    HW119406   3.204   1.184   7.924  1.2174  1.2042 -1.8604
 2590SOL    HW219407   3.151   1.124   7.801  1.0139  0.9259 -0.8243
 2591SOL     OW19408   1.697   2.256   3.125  0.1920  0.1675  0.0333
 2591SOL    HW119409   1.736   2.249   3.213  0.8880  0.1971 -0.2787
 2591SOL    HW219410   1.659   2.343   3.138  0.0569  0.4252 -2.2453
 2592SOL     OW19411   1.214   0.155   7.646 -0.5778  0.0278 -0.6310
 2592SOL    HW119412   1.214   0.105   7.727  1.4051  0.2607 -0.5032
 2592SOL    HW219413   1.128   0.141   7.605 -0.5379 -0.0617 -0.6856
 2593SOL     OW19414   0.617   4.246   5.202  0.4466 -0.1792 -0.0606
 2593SOL    HW119415   0.668   4.167   5.186 -1.8108 -1.3492 -1.5255
 2593SOL    HW219416   0.670   4.325   5.190  1.1040 -0.5229  0.6295
 2594SOL     OW19417   0.052   1.959   6.723 -0.3881 -0.2242 -0.1015
 2594SOL    HW119418   0.101   2.026   6.676 -0.5780  0.6569  0.9493
 2594SOL    HW219419   4.696   1.986   6.725 -0.4449 -0.3628 -1.1984
 2595SOL     OW19420   2.329   0.866   4.562  0.5414 -0.7211 -0.7410
 2595SOL    HW119421   2.386   0.805   4.609  0.5130 -0.0216  0.1923
 2595SOL    HW219422   2.402   0.922   4.535  0.5813 -0.2751  0.3005
 2596SOL     OW19423   1.924   2.700   7.131  0.2432 -0.2013 -0.2969
 2596SOL    HW119424   1.995   2.760   7.106 -0.1635  0.6298  0.5647
 2596SOL    HW219425   1.853   2.763   7.145 -0.2274 -0.2677 -2.3043
 2597SOL     OW19426   2.178   1.832  11.935  0.3662  0.1833 -0.4397
 2597SOL    HW119427   2.163   1.751  11.887  1.8567 -0.7190  0.5898
 2597SOL    HW219428   2.096   1.848  11.981 -0.4992 -1.1384 -1.5352
 2598SOL     OW19429   4.232   4.543  14.992  0.2205 -0.3337 -0.2064
 2598SOL    HW119430   4.261   4.628  14.959 -0.9859 -0.8559 -2.6114
 2598SOL    HW219431   4.253   4.482  14.921  1.1100 -0.5887  0.2725
 2599SOL     OW19432   1.742   3.684   6.956 -0.7118  0.3347 -0.5649
 2599SOL    HW119433   1.808   3.697   6.888 -1.1751 -2.7179 -1.6371
 2599SOL    HW219434   1.663   3.669   6.905  0.1806 -1.0694 -1.5376
 2600SOL     OW19435   2.138   2.590   3.152  0.1004  0.2564 -0.3098
 2600SOL    HW119436   2.053   2.634   3.145  0.2879  0.8798  1.5346
 2600SOL    HW219437   2.175   2.624   3.233  1.1695 -0.2729 -0.5797
 2601SOL     OW19438   3.092   1.546   6.698  0.0733 -0.1572  0.6450
 2601SOL    HW119439   3.170   1.578   6.653  0.2124 -0.4196  0.6994
 2601SOL    HW219440   3.095   1.451   6.693 -1.5934 -0.2359  1.0082
 2602SOL     OW19441   3.380   1.262   0.233  0.0819  0.4770 -0.1377
 2602SOL    HW119442   3.318   1.254   0.161  1.0079  0.9145 -0.9902
 2602SOL    HW219443   3.411   1.171   0.234  2.4468  1.2534 -2.1687
 2603SOL     OW19444   0.524   3.506   4.760 -0.1746 -0.0658  0.3236
 2603SOL    HW119445   0.500   3.547   4.843 -0.3720 -2.3150  1.3872
 2603SOL    HW219446   0.585   3.438   4.787 -0.1555 -0.9372 -1.8577
 2604SOL     OW19447   1.118   1.535   3.620 -0.0974 -0.2987 -0.2569
 2604SOL    HW119448   1.106   1.626   3.592 -0.3031 -0.3711 -0.3959
 2604SOL    HW219449   1.132   1.547   3.714 -0.9878 -0.2540 -0.1363
 2605SOL     OW19450   4.278   1.101   1.581 -0.1677 -0.3599  0.1708
 2605SOL    HW119451   4.314   1.176   1.628  0.1715 -0.0958 -0.5016
 2605SOL    HW219452   4.185   1.107   1.602  0.2102 -0.1989  1.8250
 2606SOL     OW19453   0.362   0.493  16.199 -0.3505  0.7788  0.0218
 2606SOL    HW119454   0.346   0.527  16.111 -0.8197  2.5133  0.7842
 2606SOL    HW219455   0.320   0.407  16.194  2.6494 -0.5947 -1.5703
 2607SOL     OW19456   0.204   0.584   4.800 -0.2143 -0.1208  0.4640
 2607SOL    HW119457   0.269   0.545   4.741  1.8975  1.6528  1.6251
 2607SOL    HW219458   0.142   0.511   4.808 -1.5080  0.9427  0.1123
 2608SOL     OW19459   0.521   4.582   3.554  0.5596 -0.2363 -0.0041
 2608SOL    HW119460   0.582   4.582   3.628 -0.2634 -1.2881  0.7025
 2608SOL    HW219461   0.455   4.644   3.584 -0.4181 -0.8470 -0.8910
 2609SOL     OW19462   4.504   0.887  14.783  0.3418  0.3108  0.2745
 2609SOL    HW119463   4.428   0.940  14.808  1.1389  1.8008 -0.5347
 2609SOL    HW219464   4.546   0.957  14.734  0.7664 -1.2314 -1.5794
 2610SOL     OW19465   2.471   0.372   7.183  0.4753 -0.2313 -0.2767
 2610SOL    HW119466   2.517   0.307   7.237  2.0359  1.3483  0.2999
 2610SOL    HW219467   2.508   0.454   7.215  0.4015 -0.2101 -0.2464
 2611SOL     OW19468   3.281   0.657  17.671  0.4087  0.3367  0.6029
 2611SOL    HW119469   3.262   0.568  17.700  2.5649 -0.0005  1.0079
 2611SOL    HW219470   3.266   0.651  17.577 -1.0933  0.6675  0.8270
 2612SOL     OW19471   0.311   1.935   1.277 -0.1864 -0.3140 -0.3688
 2612SOL    HW119472   0.325   1.995   1.203 -1.1078 -2.2958 -2.1692
 2612SOL    HW219473   0.403   1.912   1.289 -0.3496 -0.8887 -0.1990
 2613SOL     OW19474   4.226   1.767  12.787  0.4675 -0.2962 -0.1836
 2613SOL    HW119475   4.198   1.686  12.829 -1.4311  0.5268  0.1620
 2613SOL    HW219476   4.195   1.749  12.698 -2.0032  0.1799  0.5728
 2614SOL     OW19477   2.261   2.673   6.859 -0.2872  0.1248  0.0454
 2614SOL    HW119478   2.338   2.681   6.804  0.1519  1.4689  0.8504
 2614SOL    HW219479   2.283   2.730   6.933  0.3675 -0.5614  0.3852
 2615SOL     OW19480   0.939   0.393   5.012 -0.0166  0.3366 -0.0541
 2615SOL    HW119481   0.973   0.413   4.925 -0.6984  0.3215 -0.3196
 2615SOL    HW219482   0.922   0.299   5.007  0.4775  0.2784 -0.6192
 2616SOL     OW19483   3.577   0.704   2.004  0.0179  0.7125 -0.0020
 2616SOL    HW119484   3.578   0.755   2.085  0.0465 -0.8577  1.0022
 2616SOL    HW219485   3.650   0.749   1.961  1.3638 -0.4804  1.0373
 2617SOL     OW19486   4.249   2.717   9.965  0.5489 -0.4454  0.4183
 2617SOL    HW119487   4.327   2.676  10.004  0.8406  1.8674  2.2277
 2617SOL    HW219488   4.187   2.710  10.038  0.7295 -1.9323  0.4406
 2618SOL     OW19489   2.012   4.340  16.910 -0.6829 -0.0964  0.1268
 2618SOL    HW119490   2.056   4.269  16.863  0.6046 -0.1923  1.4897
 2618SOL    HW219491   1.990   4.398  16.837 -0.0369 -0.4853 -0.3738
 2619SOL     OW19492   1.614   3.681   7.473  0.3144  0.0494  0.4523
 2619SOL    HW119493   1.571   3.631   7.403 -0.5658 -0.7172  1.5365
 2619SOL    HW219494   1.543   3.723   7.521 -1.1919 -2.0794  0.0970
 2620SOL     OW19495   1.217   3.374   4.413  0.1505 -0.4516 -0.0590
 2620SOL    HW119496   1.272   3.444   4.376  1.1620  0.2201  2.7099
 2620SOL    HW219497   1.243   3.299   4.359 -2.1219 -1.2533 -0.0217
 2621SOL     OW19498   0.594   1.342   7.695 -0.0236 -0.4464  0.1342
 2621SOL    HW119499   0.643   1.285   7.635  0.9529 -0.0908  0.6023
 2621SOL    HW219500   0.666   1.358   7.755  0.5729 -0.5404 -0.5513
 2622SOL     OW19501   0.253   1.298  16.731 -0.0508 -0.2221  0.7058
 2622SOL    HW119502   0.230   1.279  16.822 -1.0373  0.9113  0.6949
 2622SOL    HW219503   0.271   1.209  16.700 -0.9104  0.4666 -1.8353
 2623SOL     OW19504   0.677   3.414   4.391 -0.0064 -0.2012 -0.6708
 2623SOL    HW119505   0.750   3.447   4.339  0.1726  0.8672  0.2573
 2623SOL    HW219506   0.700   3.444   4.479 -0.3047 -1.9543  0.0024
 2624SOL     OW19507   0.464   3.792   8.230  0.1938 -0.0894  0.1754
 2624SOL    HW119508   0.438   3.801   8.138  2.4578 -0.2447 -0.4832
 2624SOL    HW219509   0.426   3.871   8.268  1.1602  0.0911  0.7382
 2625SOL     OW19510   2.360   4.674   7.400  0.5727  0.3166  0.0240
 2625SOL    HW119511   2.428   4.678   7.467 -0.4535  1.8142  1.0008
 2625SOL    HW219512   2.287   4.629   7.443 -0.8960  0.7175 -2.0479
 2626SOL     OW19513   4.658   3.957   0.892 -0.1246 -0.6397  0.0940
 2626SOL    HW119514   4.659   4.035   0.838 -0.3642 -0.3642  0.4849
 2626SOL    HW219515   4.677   4.009   0.970 -0.1437 -0.1260 -0.2479
 2627SOL     OW19516   0.438   2.766   1.348  0.5419 -0.1954  0.5883
 2627SOL    HW119517   0.509   2.817   1.310  0.2591 -0.4997 -0.3644
 2627SOL    HW219518   0.434   2.688   1.293  3.1606 -1.1376  1.7369
 2628SOL     OW19519   3.000   1.698  10.975  0.2133 -0.1741  0.6432
 2628SOL    HW119520   2.928   1.658  11.023  0.7339 -1.8600  0.0207
 2628SOL    HW219521   3.003   1.637  10.902  2.6456  0.8993 -0.1838
 2629SOL     OW19522   0.471   2.251   8.262 -0.1852  0.5086  0.5970
 2629SOL    HW119523   0.498   2.339   8.236 -0.9446  0.9380  1.2500
 2629SOL    HW219524   0.496   2.248   8.355 -1.8181  1.1012  1.0597
 2630SOL     OW19525   2.134   4.266   3.146  0.2651  0.4380  0.0480
 2630SOL    HW119526   2.172   4.205   3.083 -2.8269  1.4986 -2.8293
 2630SOL    HW219527   2.040   4.246   3.139  0.3058  0.6652 -1.1833
 2631SOL     OW19528   0.286   3.606   9.840 -0.2971 -0.1119  0.0959
 2631SOL    HW119529   0.298   3.698   9.860  2.5152 -0.0288 -2.0337
 2631SOL    HW219530   0.372   3.585   9.875  0.3335  1.7656 -0.3464
 2632SOL     OW19531   0.187   4.598  13.828  0.0030 -0.2159 -0.0504
 2632SOL    HW119532   0.178   4.596  13.923  0.2859  0.8702  0.0056
 2632SOL    HW219533   0.242   4.677  13.831 -1.8897  1.0117  2.3426
 2633SOL     OW19534   0.121   0.797  12.056 -0.0143  0.6494 -0.1323
 2633SOL    HW119535   0.053   0.864  12.065 -0.7565 -0.0420 -0.5498
 2633SOL    HW219536   0.076   0.713  12.067  1.0703 -0.1847 -1.9927
 2634SOL     OW19537   3.556   1.737   4.416 -0.3170 -0.0995  0.8501
 2634SOL    HW119538   3.625   1.698   4.362  1.7300  3.2421  1.0302
 2634SOL    HW219539   3.583   1.828   4.430 -2.0110  0.9020 -2.3386
 2635SOL     OW19540   1.221   1.132   5.513  0.1400  0.5999 -0.0451
 2635SOL    HW119541   1.208   1.172   5.599  1.5929  1.0205 -0.0198
 2635SOL    HW219542   1.222   1.205   5.452 -0.6446  0.2183 -0.5190
 2636SOL     OW19543   1.756   4.532   8.273  0.4252  0.0365  0.2819
 2636SOL    HW119544   1.839   4.578   8.256  0.9044 -1.6183 -1.8530
 2636SOL    HW219545   1.723   4.532   8.183  0.3181 -1.1731  0.3199
 2637SOL     OW19546   3.553   2.422   9.234  0.4837  0.4269  0.1712
 2637SOL    HW119547   3.641   2.412   9.198  0.7018 -0.6334  0.9950
 2637SOL    HW219548   3.573   2.418   9.327  0.6510  1.7967  0.1872
 2638SOL     OW19549   4.049   2.788   8.242  0.3277 -0.4113 -0.4893
 2638SOL    HW119550   4.134   2.777   8.284 -0.1338 -1.9396  0.0518
 2638SOL    HW219551   3.983   2.743   8.296  1.2079 -2.1466 -0.8604
 2639SOL     OW19552   3.841   1.737  14.788 -0.1754 -0.2305  0.5473
 2639SOL    HW119553   3.890   1.774  14.715  0.1976 -0.5639  0.6329
 2639SOL    HW219554   3.775   1.805  14.806 -1.6290 -0.9754 -1.9484
 2640SOL     OW19555   3.004   4.477   6.960  0.1901  0.2227  0.0822
 2640SOL    HW119556   3.040   4.392   6.986  1.0640  0.0525 -1.6542
 2640SOL    HW219557   2.911   4.462   6.980 -0.0046 -0.5835 -1.3292
 2641SOL     OW19558   3.828   0.413   2.737  0.1610 -0.8117  0.5056
 2641SOL    HW119559   3.734   0.429   2.746  0.2699 -1.8428  3.2399
 2641SOL    HW219560   3.854   0.481   2.675  0.3599 -2.5752 -1.3645
 2642SOL     OW19561   1.943   0.542   9.088  0.3144  0.1557  0.8417
 2642SOL    HW119562   1.951   0.447   9.082  0.1401  0.2741 -1.1485
 2642SOL    HW219563   1.914   0.552   9.179  0.3769  0.3631  0.8371
 2643SOL     OW19564   1.042   1.395   3.381  0.1771  0.0654 -0.7661
 2643SOL    HW119565   1.104   1.386   3.309 -1.5993  0.5734 -2.3521
 2643SOL    HW219566   1.084   1.464   3.433 -0.2781 -1.3101  1.4335
 2644SOL     OW19567   1.854   1.458   0.751 -0.8288  0.7941  0.3580
 2644SOL    HW119568   1.870   1.439   0.659 -0.2341 -0.5265  0.7398
 2644SOL    HW219569   1.938   1.483   0.790 -0.7870 -0.0128  0.7679
 2645SOL     OW19570   0.884   4.522   2.251  0.5746  0.5108  0.0766
 2645SOL    HW119571   0.871   4.465   2.327  1.8529 -0.2188 -0.2597
 2645SOL    HW219572   0.825   4.479   2.190 -0.7470  2.8383 -0.2847
 2646SOL     OW19573   1.389   0.297  16.933  0.1048  0.0468  0.0045
 2646SOL    HW119574   1.384   0.311  16.838  0.0904 -0.5674 -0.0854
 2646SOL    HW219575   1.372   0.384  16.970  1.0924  0.7692 -1.2265
 2647SOL     OW19576   1.111   1.813   8.759 -0.1470  0.2553  0.4791
 2647SOL    HW119577   1.092   1.896   8.804  0.8004  1.3125 -1.0749
 2647SOL    HW219578   1.161   1.771   8.828  0.5874 -1.8361 -1.3390
 2648SOL     OW19579   0.499   1.371   2.532 -0.1167 -0.1708  0.9696
 2648SOL    HW119580   0.561   1.336   2.467 -1.2973  2.8029 -1.7309
 2648SOL    HW219581   0.476   1.294   2.584 -0.0729 -0.4923  0.5147
 2649SOL     OW19582   4.354   1.634   7.011  0.4519 -0.0177 -0.0349
 2649SOL    HW119583   4.424   1.660   6.951  0.6195  1.3930  0.8003
 2649SOL    HW219584   4.389   1.546   7.027  2.0487  0.5534 -0.4513
 2650SOL     OW19585   0.729   1.856   5.754  0.8543  0.1790  0.4447
 2650SOL    HW119586   0.824   1.865   5.746  0.8320  0.0830  0.0580
 2650SOL    HW219587   0.717   1.762   5.740  1.2248  0.5398 -2.3924
 2651SOL     OW19588   4.691   4.145   8.498 -0.3548  0.1294 -0.8492
 2651SOL    HW119589   4.664   4.118   8.410  0.7220  2.1384 -1.7881
 2651SOL    HW219590   4.614   4.155   8.554  1.3723 -1.3167  1.8082
 2652SOL     OW19591   2.245   2.125   8.427  0.0286  0.0730 -0.7877
 2652SOL    HW119592   2.297   2.124   8.347  0.2026 -0.9890 -0.6634
 2652SOL    HW219593   2.180   2.191   8.406  0.5791  1.2372  1.1320
 2653SOL     OW19594   3.520   3.728   4.365 -0.4778  0.1261 -0.5754
 2653SOL    HW119595   3.532   3.812   4.409 -2.2684  0.3349 -0.4990
 2653SOL    HW219596   3.584   3.741   4.295 -0.2349 -2.1284 -0.7627
 2654SOL     OW19597   3.021   3.983   2.413  0.2695  0.1892 -0.1497
 2654SOL    HW119598   2.969   3.919   2.462 -0.8238  0.2177 -1.2706
 2654SOL    HW219599   3.112   3.958   2.429  1.0943  2.6205 -0.9902
 2655SOL     OW19600   0.547   0.606   0.992 -0.1202 -0.6723 -0.1206
 2655SOL    HW119601   0.574   0.653   0.913  0.2517 -2.6581 -1.1608
 2655SOL    HW219602   0.470   0.659   1.014  1.5932  1.9665 -0.5954
 2656SOL     OW19603   4.253   1.360   9.386 -0.0121  0.2768 -0.2951
 2656SOL    HW119604   4.231   1.267   9.379 -1.3472  0.5603  0.1761
 2656SOL    HW219605   4.200   1.391   9.460  1.2798 -1.1749  1.2457
 2657SOL     OW19606   4.138   3.847  10.735 -0.6395 -0.0850 -0.6490
 2657SOL    HW119607   4.171   3.904  10.665  0.0617  0.4737  0.1375
 2657SOL    HW219608   4.180   3.882  10.813  2.2514 -1.5723 -1.4982
 2658SOL     OW19609   1.883   1.531  12.370 -0.3755  0.0690 -0.3798
 2658SOL    HW119610   1.829   1.457  12.344 -0.7281  1.2581 -3.0493
 2658SOL    HW219611   1.848   1.555  12.456  1.8388 -0.0766  0.5793
 2659SOL     OW19612   1.001   3.805   2.892  0.0602 -0.0163  0.3042
 2659SOL    HW119613   0.998   3.711   2.906 -1.0658  0.0683  0.5671
 2659SOL    HW219614   0.916   3.830   2.856  0.6852 -0.2991 -1.3674
 2660SOL     OW19615   4.675   0.092   5.785  0.5155  0.2042  0.3425
 2660SOL    HW119616   4.720   0.172   5.811 -2.1924  2.1283 -0.9813
 2660SOL    HW219617   4.638   0.059   5.867 -1.3183  0.2269 -0.4808
 2661SOL     OW19618   3.432   3.593   7.826  0.1799  0.2757 -0.3259
 2661SOL    HW119619   3.437   3.615   7.733 -0.8489 -1.5826 -0.8102
 2661SOL    HW219620   3.451   3.499   7.826 -0.1082  0.2077  1.9642
 2662SOL     OW19621   2.915   4.241  16.288  0.2499 -0.2296  0.0506
 2662SOL    HW119622   2.884   4.152  16.304 -0.3124 -0.1063 -0.3332
 2662SOL    HW219623   2.991   4.248  16.346  0.0374  2.1161  0.0429
 2663SOL     OW19624   0.649   3.897   7.721 -0.6600  0.5226 -0.4246
 2663SOL    HW119625   0.629   3.808   7.750  0.9030 -0.0425 -1.1273
 2663SOL    HW219626   0.691   3.933   7.800 -1.2005  0.1310  0.0400
 2664SOL     OW19627   1.376   2.838   6.538 -0.7090  0.3486  0.3340
 2664SOL    HW119628   1.450   2.802   6.587 -0.0432  0.0747 -0.8769
 2664SOL    HW219629   1.304   2.839   6.602  1.1662 -1.6573  2.4779
 2665SOL     OW19630   2.089   1.707   3.516 -0.1122 -0.3257 -0.0908
 2665SOL    HW119631   2.132   1.631   3.555  0.0349 -0.0153  0.3478
 2665SOL    HW219632   2.016   1.720   3.577  0.2628  0.4694  0.1896
 2666SOL     OW19633   3.558   0.806   7.182  0.5019 -0.0146 -0.2557
 2666SOL    HW119634   3.524   0.798   7.093 -0.5184 -1.5292  0.2724
 2666SOL    HW219635   3.528   0.723   7.218  1.9056 -0.3377  0.1501
 2667SOL     OW19636   3.421   2.574   0.841 -0.2484  0.4077  0.0896
 2667SOL    HW119637   3.495   2.523   0.875 -0.8164  1.3743  2.7937
 2667SOL    HW219638   3.476   2.638   0.796  1.0163 -1.5893 -1.2005
 2668SOL     OW19639   0.968   1.599  17.517  0.1914  0.0998  0.0076
 2668SOL    HW119640   0.925   1.684  17.509 -2.9086 -1.2695  2.5094
 2668SOL    HW219641   1.035   1.623  17.581  0.7465 -0.3934 -0.3778
 2669SOL     OW19642   0.423   0.012   1.738 -0.1058 -0.1876  0.1867
 2669SOL    HW119643   0.465   4.694   1.805 -1.4087 -0.2974  0.9143
 2669SOL    HW219644   0.483   0.026   1.665 -1.5304  0.0795 -0.9371
 2670SOL     OW19645   3.430   4.242   3.258 -0.2888 -0.4674 -0.0792
 2670SOL    HW119646   3.348   4.199   3.283 -0.8171  0.2207 -0.6108
 2670SOL    HW219647   3.493   4.173   3.281 -0.5598 -0.1912  1.4305
 2671SOL     OW19648   4.339   4.729   3.740  0.7423  0.0820  0.2621
 2671SOL    HW119649   4.369   4.695   3.825 -0.3256  4.4107  2.3843
 2671SOL    HW219650   4.244   4.724   3.749  0.7999 -2.6092 -0.6073
 2672SOL     OW19651   3.848   1.537   8.884  0.5906  0.2535  0.5124
 2672SOL    HW119652   3.936   1.523   8.848 -0.0270 -1.2743 -0.4439
 2672SOL    HW219653   3.864   1.563   8.974  1.0569  1.6778  0.0255
 2673SOL     OW19654   1.125   3.628  13.403 -0.3220 -0.3302 -0.3126
 2673SOL    HW119655   1.137   3.616  13.497 -0.4493 -2.2029 -0.5392
 2673SOL    HW219656   1.031   3.615  13.402 -0.2146 -0.9112 -1.9170
 2674SOL     OW19657   2.847   0.048   5.244  0.1522 -0.2180  0.3166
 2674SOL    HW119658   2.892   0.126   5.277 -1.7218  1.5350 -1.3362
 2674SOL    HW219659   2.855   0.075   5.152 -0.4238  0.2637  0.4092
 2675SOL     OW19660   3.924   0.637   2.525 -0.3133 -0.3593  0.1527
 2675SOL    HW119661   3.938   0.722   2.568 -1.6115  0.5778 -1.2879
 2675SOL    HW219662   4.013   0.616   2.497  0.1181 -0.2418  1.4412
 2676SOL     OW19663   3.729   4.316  16.767  0.1358  0.6738  0.1961
 2676SOL    HW119664   3.660   4.278  16.820 -1.4996  1.6851 -1.2136
 2676SOL    HW219665   3.752   4.387  16.827 -1.8483 -0.1753  1.9646
 2677SOL     OW19666   1.635   1.952  15.269  0.3646 -0.5522  0.1527
 2677SOL    HW119667   1.601   2.024  15.321 -0.6130  0.7107 -2.2276
 2677SOL    HW219668   1.611   1.878  15.324  1.3330  1.2168  2.9551
 2678SOL     OW19669   4.217   3.008   3.486  0.5535  0.9767 -0.2270
 2678SOL    HW119670   4.202   2.992   3.579 -1.1184 -0.8453 -0.7877
 2678SOL    HW219671   4.187   2.923   3.453  0.9266  0.9921 -0.5982
 2679SOL     OW19672   2.664   3.984   3.554 -1.0333 -0.3310  0.2318
 2679SOL    HW119673   2.705   4.068   3.573 -0.3974 -0.1794 -1.8244
 2679SOL    HW219674   2.572   4.003   3.573 -1.4323 -2.3182  0.2667
 2680SOL     OW19675   1.066   2.140   6.470  0.1004  0.1166 -0.4125
 2680SOL    HW119676   1.066   2.058   6.519 -2.0739 -0.3472 -1.1789
 2680SOL    HW219677   0.987   2.188   6.495  0.7220  2.2255 -2.4700
 2681SOL     OW19678   0.312   2.101   4.466  0.2939  0.2544 -0.1400
 2681SOL    HW119679   0.382   2.156   4.503  0.8774  0.5543 -1.7104
 2681SOL    HW219680   0.302   2.041   4.541  1.7691 -0.7372 -0.7169
 2682SOL     OW19681   1.415   1.884   3.184  0.3122  0.5977  0.2579
 2682SOL    HW119682   1.402   1.914   3.094  1.4806 -1.4606 -0.5930
 2682SOL    HW219683   1.412   1.963   3.239  0.3262  0.1502  0.9016
 2683SOL     OW19684   3.895   4.379   8.215  0.4339 -0.1955 -0.1503
 2683SOL    HW119685   3.875   4.458   8.164 -0.4510 -0.1736  0.2234
 2683SOL    HW219686   3.909   4.417   8.302 -0.2073 -2.6586  1.0319
 2684SOL     OW19687   1.293   0.832   1.134  0.3642  0.0400  0.5527
 2684SOL    HW119688   1.373   0.780   1.122  0.5307  0.2694  0.6566
 2684SOL    HW219689   1.234   0.758   1.133 -1.7971  1.7871 -0.1901
 2685SOL     OW19690   3.514   1.006   3.008  0.1987  0.2151 -0.0926
 2685SOL    HW119691   3.537   1.014   2.915  1.0498 -4.2401 -0.2787
 2685SOL    HW219692   3.503   1.098   3.028  0.1332  0.7684 -2.6598
 2686SOL     OW19693   3.319   4.160   8.247  0.1547 -0.1727  0.1285
 2686SOL    HW119694   3.279   4.103   8.181 -2.1029  1.3181  0.2252
 2686SOL    HW219695   3.362   4.225   8.192  1.2817 -0.3924  0.7570
 2687SOL     OW19696   0.429   3.404   1.498  0.2193  0.4523  0.2438
 2687SOL    HW119697   0.430   3.494   1.532 -1.7791  0.4163  0.3860
 2687SOL    HW219698   0.475   3.417   1.415 -0.7827  0.9059 -0.2410
 2688SOL     OW19699   2.373   0.953   8.651 -0.0015  0.2304 -0.5563
 2688SOL    HW119700   2.451   0.905   8.626  0.3956 -0.7443  2.5220
 2688SOL    HW219701   2.377   0.952   8.747 -0.4254 -1.5006 -0.5505
 2689SOL     OW19702   1.361   2.814   4.790  0.4954 -0.3530  0.3111
 2689SOL    HW119703   1.445   2.857   4.806 -1.9572  4.5903  0.1046
 2689SOL    HW219704   1.298   2.881   4.815  0.0976 -0.4728 -0.3942
 2690SOL     OW19705   0.752   2.791   0.376 -0.0312 -0.1259  1.0830
 2690SOL    HW119706   0.801   2.754   0.449  0.7875 -1.8863 -0.3453
 2690SOL    HW219707   0.659   2.786   0.397 -0.5588  2.4959 -0.5028
 2691SOL     OW19708   2.142   0.558   5.940  0.4935  0.0894  0.3918
 2691SOL    HW119709   2.098   0.642   5.954 -1.2574 -0.6439 -0.5989
 2691SOL    HW219710   2.145   0.540   6.034 -1.5995 -0.2552  0.4039
 2692SOL     OW19711   0.538   3.753   1.322 -0.0155 -0.6161 -0.0298
 2692SOL    HW119712   0.460   3.770   1.374  0.2171 -0.0467  0.1320
 2692SOL    HW219713   0.513   3.690   1.254  2.3518 -0.2684 -1.2593
 2693SOL     OW19714   3.393   2.694   5.934 -0.0502  0.4603  0.1474
 2693SOL    HW119715   3.447   2.616   5.939 -0.5771  0.0547 -0.4791
 2693SOL    HW219716   3.448   2.735   5.867 -1.1018 -2.2328 -2.3890
 2694SOL     OW19717   1.105   2.106   5.160  0.2590  0.0372  0.0961
 2694SOL    HW119718   1.084   2.193   5.127  0.0257  0.2153  0.7168
 2694SOL    HW219719   1.197   2.113   5.184 -0.2565 -0.2558  2.1566
 2695SOL     OW19720   0.809   3.490   4.601  0.2640  0.1539  0.0300
 2695SOL    HW119721   0.809   3.567   4.658 -0.8267  0.8226 -0.8683
 2695SOL    HW219722   0.840   3.426   4.664 -0.2265  0.8952  1.0250
 2696SOL     OW19723   3.921   1.352   2.229  0.1230 -0.0591  0.1061
 2696SOL    HW119724   3.869   1.405   2.290 -0.8279  0.2174 -0.9443
 2696SOL    HW219725   3.852   1.307   2.181  0.6137 -1.1778  0.4637
 2697SOL     OW19726   0.245   1.853   0.641  0.2874  0.0950  0.1009
 2697SOL    HW119727   0.195   1.794   0.696  0.3152  0.5676  0.6289
 2697SOL    HW219728   0.299   1.894   0.709  1.1606  0.1552 -0.6235
 2698SOL     OW19729   0.658   4.160   5.476  0.4107 -0.3711 -0.3112
 2698SOL    HW119730   0.601   4.222   5.431  0.3615 -1.2876 -1.5210
 2698SOL    HW219731   0.687   4.098   5.408  1.2553  0.1728 -0.4511
 2699SOL     OW19732   1.576   2.105   8.690 -0.6929 -0.0497  0.4852
 2699SOL    HW119733   1.632   2.045   8.641 -1.3054 -0.1571 -0.0944
 2699SOL    HW219734   1.633   2.120   8.765  1.2413  1.7686 -1.3658
 2700SOL     OW19735   0.476   2.295   2.566 -0.4199  0.1008  0.0162
 2700SOL    HW119736   0.545   2.242   2.527 -2.3273 -1.3515 -1.4201
 2700SOL    HW219737   0.413   2.229   2.596  1.1174 -0.2702  2.4078
 2701SOL     OW19738   4.554   2.823   2.344  0.0867 -0.0208  0.0318
 2701SOL    HW119739   4.493   2.892   2.371 -0.1248 -0.5521  0.9056
 2701SOL    HW219740   4.571   2.850   2.254 -0.3519  0.2340  0.0225
 2702SOL     OW19741   4.019   4.161  15.104 -0.7994  0.2343 -0.3841
 2702SOL    HW119742   4.029   4.243  15.057 -0.6887  1.1342  1.2081
 2702SOL    HW219743   3.934   4.127  15.077 -2.1695  1.5392  2.3336
 2703SOL     OW19744   3.400   0.888   2.404  0.0962  0.1771  0.3060
 2703SOL    HW119745   3.318   0.929   2.429 -1.5043 -2.6315 -0.3303
 2703SOL    HW219746   3.399   0.806   2.454 -2.6801 -0.5031 -0.8555
 2704SOL     OW19747   3.229   1.687   6.505 -0.1357  0.1266 -0.5216
 2704SOL    HW119748   3.286   1.750   6.549  0.6629  0.1580 -1.5986
 2704SOL    HW219749   3.293   1.645   6.447 -1.4654  0.5178 -2.2658
 2705SOL     OW19750   1.078   3.484   5.842 -0.1309  0.0877  0.2849
 2705SOL    HW119751   1.005   3.544   5.823 -0.2927 -0.8260 -2.0603
 2705SOL    HW219752   1.037   3.401   5.866  0.1943 -0.2621 -0.3598
 2706SOL     OW19753   3.416   1.990   7.607  0.1961 -0.1001 -0.3785
 2706SOL    HW119754   3.495   2.043   7.618  1.5199 -2.2936  0.7042
 2706SOL    HW219755   3.456   1.906   7.583 -2.5635 -1.6796  0.5621
 2707SOL     OW19756   3.778   3.322  14.883  0.5311 -0.2184 -0.3485
 2707SOL    HW119757   3.734   3.262  14.823 -0.5559 -1.4941  1.7221
 2707SOL    HW219758   3.861   3.276  14.895  0.6354 -0.6361 -2.5213
 2708SOL     OW19759   1.331   0.941   0.736 -0.0719  0.2528  0.4567
 2708SOL    HW119760   1.291   0.953   0.822  0.7470  5.2572  0.1427
 2708SOL    HW219761   1.259   0.902   0.687 -0.6687  1.4144  0.3970
 2709SOL     OW19762   0.380   4.310  14.686 -0.0304 -0.0678  0.7828
 2709SOL    HW119763   0.418   4.359  14.613 -2.0602  0.4227  0.0504
 2709SOL    HW219764   0.315   4.253  14.645  0.6309 -1.3496  1.5198
 2710SOL     OW19765   4.558   4.052   3.766 -0.1005  0.0226  0.0713
 2710SOL    HW119766   4.500   4.114   3.810 -2.2323 -0.5694 -1.9841
 2710SOL    HW219767   4.640   4.052   3.816  1.5924 -2.6596 -2.6905
 2711SOL     OW19768   3.571   3.647   8.856 -0.0026 -0.1668 -0.2386
 2711SOL    HW119769   3.619   3.726   8.833 -2.1075  0.9086 -0.9084
 2711SOL    HW219770   3.537   3.654   8.945 -1.9336  0.2340 -1.0174
 2712SOL     OW19771   1.730   4.132  12.818  0.5308 -0.4263  0.4236
 2712SOL    HW119772   1.760   4.048  12.783 -0.5831 -0.7562  0.2666
 2712SOL    HW219773   1.744   4.126  12.913  1.9108  0.9144  0.3070
 2713SOL     OW19774   0.399   1.798  10.446  0.2796 -0.3307  0.1726
 2713SOL    HW119775   0.492   1.784  10.428  0.1968 -0.3605 -0.2250
 2713SOL    HW219776   0.396   1.891  10.426 -1.1343 -0.2587  0.7080
 2714SOL     OW19777   2.489   1.015   4.420 -0.1645  0.1423  0.1816
 2714SOL    HW119778   2.459   0.942   4.365  0.5385 -0.2530  0.3162
 2714SOL    HW219779   2.584   1.006   4.417 -0.0447  0.8286  1.9332
 2715SOL     OW19780   4.293   2.519   7.040 -0.1075 -0.5517  0.0590
 2715SOL    HW119781   4.231   2.589   7.058  0.3005  0.4960 -2.6831
 2715SOL    HW219782   4.324   2.514   7.131  0.8939 -0.1491 -0.2609
 2716SOL     OW19783   4.656   4.223   5.065  0.0626 -0.4019 -0.5843
 2716SOL    HW119784   4.701   4.295   5.021 -0.7844  0.8195  0.5566
 2716SOL    HW219785   4.673   4.153   5.002  0.3539 -1.7463  0.9942
 2717SOL     OW19786   1.932   1.474   7.274  0.2286 -0.3253 -0.2572
 2717SOL    HW119787   1.902   1.448   7.187  1.9375 -0.8251 -0.7056
 2717SOL    HW219788   1.849   1.479   7.321  0.8462 -0.4598  0.8441
 2718SOL     OW19789   1.055   1.981   1.333 -0.0541  0.7555  0.2527
 2718SOL    HW119790   1.052   1.991   1.428 -1.8142 -1.8508  0.4641
 2718SOL    HW219791   0.996   1.907   1.319  0.2630  0.4346  0.6064
 2719SOL     OW19792   4.191   3.396  14.709  0.5270  0.2840 -0.6288
 2719SOL    HW119793   4.134   3.423  14.637  1.2598  1.2308 -0.8569
 2719SOL    HW219794   4.277   3.405  14.668  1.2967 -0.5203  0.8345
 2720SOL     OW19795   2.060   3.645   6.817  0.0464 -0.0441 -0.0339
 2720SOL    HW119796   1.979   3.679   6.777  1.8083  1.7195 -2.0917
 2720SOL    HW219797   2.106   3.597   6.748 -1.7919 -1.9232  0.0114
 2721SOL     OW19798   2.927   3.860   9.380  0.0491  0.2982 -0.0609
 2721SOL    HW119799   2.871   3.825   9.311 -1.9901  2.7082  0.3732
 2721SOL    HW219800   3.018   3.844   9.354  0.7062  0.6446  2.0185
 2722SOL     OW19801   3.365   0.671   4.835  0.4825  0.2871 -0.0632
 2722SOL    HW119802   3.442   0.618   4.813  0.2943 -0.0282  0.0323
 2722SOL    HW219803   3.299   0.637   4.773 -1.1726  0.9097  1.3474
 2723SOL     OW19804   2.077   0.821   8.275 -0.4231 -0.3971  0.2009
 2723SOL    HW119805   2.171   0.836   8.285 -0.1600 -0.6066 -1.9586
 2723SOL    HW219806   2.045   0.845   8.362 -0.3891 -0.7187  0.3013
 2724SOL     OW19807   2.618   4.233   6.874  0.1800 -0.3570  0.3223
 2724SOL    HW119808   2.547   4.294   6.855  0.2315 -0.3451  0.1704
 2724SOL    HW219809   2.613   4.232   6.969 -1.2551  0.0690  0.2474
 2725SOL     OW19810   0.408   2.405   9.491  0.6851  0.2384 -0.1020
 2725SOL    HW119811   0.345   2.335   9.472  0.4743 -0.4224  2.9756
 2725SOL    HW219812   0.386   2.471   9.426  3.4527  0.3733 -0.8921
 2726SOL     OW19813   0.214   3.136   2.250  0.0191  0.0768  0.5086
 2726SOL    HW119814   0.280   3.203   2.267  0.9248 -0.1338 -2.1292
 2726SOL    HW219815   0.165   3.180   2.181 -0.2479 -1.3510 -0.2063
 2727SOL     OW19816   2.506   1.273   5.398 -0.2536 -0.3259  0.7183
 2727SOL    HW119817   2.467   1.283   5.485 -0.3471 -4.1235  1.1415
 2727SOL    HW219818   2.434   1.313   5.351 -0.2514 -0.1911  0.8304
 2728SOL     OW19819   1.441   1.947   9.166  0.3761  0.0696 -0.1378
 2728SOL    HW119820   1.410   1.995   9.242  1.2233 -1.3963  1.1303
 2728SOL    HW219821   1.474   2.030   9.132  1.2781  0.8354  2.6382
 2729SOL     OW19822   2.523   4.074   1.491  0.2357 -0.2806  0.3837
 2729SOL    HW119823   2.583   4.006   1.461  0.6316  0.5944 -0.8320
 2729SOL    HW219824   2.578   4.102   1.565  0.3813  1.5099 -0.3834
 2730SOL     OW19825   2.081   1.845   2.058  0.6039  0.2593 -0.2833
 2730SOL    HW119826   2.092   1.852   2.153 -2.5096 -0.0466  0.1134
 2730SOL    HW219827   2.138   1.916   2.029 -2.6347  2.5272 -1.2104
 2731SOL     OW19828   2.346   1.107   0.520  0.0451 -0.0960  0.1000
 2731SOL    HW119829   2.431   1.152   0.524 -0.7736  1.4842 -0.1758
 2731SOL    HW219830   2.311   1.154   0.444 -2.2991 -1.6136  0.2438
 2732SOL     OW19831   4.502   0.302   0.667 -0.1916 -0.2556  0.0117
 2732SOL    HW119832   4.426   0.343   0.708  1.0424  0.9658  1.0868
 2732SOL    HW219833   4.552   0.284   0.747  0.1531  0.8816  0.0513
 2733SOL     OW19834   0.494   2.988   5.491 -0.0223  0.1980  0.6647
 2733SOL    HW119835   0.444   3.025   5.564  4.1039  2.5008  2.3533
 2733SOL    HW219836   0.454   2.901   5.488  0.7274 -0.0040 -3.3732
 2734SOL     OW19837   1.534   0.058   1.136  0.5901  0.4026  0.2873
 2734SOL    HW119838   1.494   0.145   1.141 -1.5542 -0.5266 -0.4901
 2734SOL    HW219839   1.603   0.055   1.202 -0.1291  1.2882  1.0789
 2735SOL     OW19840   0.334   1.299   7.624  0.2138  0.1576  0.7073
 2735SOL    HW119841   0.425   1.314   7.649 -0.6129  2.1883  2.4885
 2735SOL    HW219842   0.335   1.339   7.537  0.0909  1.1273  1.1456
 2736SOL     OW19843   0.510   1.226  16.993  0.4641  0.4662  0.7093
 2736SOL    HW119844   0.478   1.316  16.992 -3.0059 -0.7412  1.2853
 2736SOL    HW219845   0.430   1.173  16.988  0.0069  1.1412  0.7925
 2737SOL     OW19846   2.552   1.093  15.749  0.4513 -0.3718 -0.0729
 2737SOL    HW119847   2.487   1.120  15.684  0.9484 -0.6693 -0.7059
 2737SOL    HW219848   2.613   1.044  15.693 -0.4943  1.2946 -2.5705
 2738SOL     OW19849   3.820   2.541   2.582  0.8432  0.3597 -0.2560
 2738SOL    HW119850   3.897   2.598   2.577 -1.1502  3.1579  1.3751
 2738SOL    HW219851   3.788   2.535   2.492 -0.9574  1.5911  0.3122
 2739SOL     OW19852   4.466   0.089   2.856 -0.6475  0.1934  0.1396
 2739SOL    HW119853   4.540   0.028   2.850 -1.7315 -1.3083  2.0596
 2739SOL    HW219854   4.487   0.150   2.785 -0.6729 -1.1584 -1.0324
 2740SOL     OW19855   0.858   1.589  16.599  0.2798  0.6753 -0.2312
 2740SOL    HW119856   0.942   1.602  16.556  1.9199 -1.4574  2.2636
 2740SOL    HW219857   0.864   1.496  16.621 -0.3763  0.4264 -1.1085
 2741SOL     OW19858   3.340   0.730  14.955  0.3833 -0.3337  0.1934
 2741SOL    HW119859   3.331   0.762  15.045 -3.3536 -0.1392 -0.2399
 2741SOL    HW219860   3.268   0.670  14.937  1.3383 -1.5215  0.3693
 2742SOL     OW19861   4.154   1.668   8.640  0.0998 -0.5915 -0.1321
 2742SOL    HW119862   4.143   1.620   8.558 -1.2272 -1.0491  0.3130
 2742SOL    HW219863   4.143   1.588   8.691 -0.1370 -0.5957 -0.1916
 2743SOL     OW19864   3.083   0.502   6.468  0.1427  0.3183 -0.4763
 2743SOL    HW119865   3.143   0.498   6.542 -0.6577  0.0440  0.1582
 2743SOL    HW219866   3.057   0.411   6.455  0.1166  0.4788 -1.4929
 2744SOL     OW19867   3.358   0.044   9.164 -0.0161 -0.0737 -0.2239
 2744SOL    HW119868   3.443   0.025   9.127  0.9757  0.4671  1.7711
 2744SOL    HW219869   3.392   0.087   9.243 -1.4742  2.5115 -1.0224
 2745SOL     OW19870   1.215   1.618  14.839  0.3003 -0.0585 -0.1817
 2745SOL    HW119871   1.231   1.681  14.769 -1.8031 -0.1501 -0.7233
 2745SOL    HW219872   1.291   1.635  14.895  0.0429 -0.2439  0.2219
 2746SOL     OW19873   0.386   2.813   2.524  0.4067  0.6552  0.2807
 2746SOL    HW119874   0.375   2.721   2.498 -0.3903  0.4242  1.4661
 2746SOL    HW219875   0.300   2.852   2.511  0.9203  1.3887 -0.9242
 2747SOL     OW19876   2.920   2.775  17.032  0.0327  0.0396  0.0175
 2747SOL    HW119877   2.988   2.760  16.966  0.6069 -2.1817  1.0970
 2747SOL    HW219878   2.968   2.832  17.092  2.0438  0.0446 -1.5721
 2748SOL     OW19879   3.094   1.451  14.123  0.1459  0.2138  0.1430
 2748SOL    HW119880   3.027   1.437  14.056  0.8934 -2.6340 -0.0195
 2748SOL    HW219881   3.049   1.506  14.187 -1.2711  0.7680 -1.3178
 2749SOL     OW19882   3.249   2.551   6.685  0.1695  0.6948 -0.4537
 2749SOL    HW119883   3.178   2.580   6.743  0.6285 -2.5691  1.7891
 2749SOL    HW219884   3.315   2.607   6.726  1.0002 -0.3257 -0.4131
 2750SOL     OW19885   0.715   1.856   0.556  0.1123  0.1398  0.7136
 2750SOL    HW119886   0.682   1.935   0.513  2.3387  0.1206 -1.0473
 2750SOL    HW219887   0.760   1.896   0.631  0.7195 -2.3429  1.6818
 2751SOL     OW19888   3.585   3.401   7.320 -0.4032 -0.2856  0.3688
 2751SOL    HW119889   3.496   3.368   7.306 -1.0476  0.6383  2.3346
 2751SOL    HW219890   3.584   3.405   7.415 -0.1367  0.9513  0.3152
 2752SOL     OW19891   2.216   2.824  16.448 -0.6823  0.1534  0.2463
 2752SOL    HW119892   2.279   2.752  16.437 -2.0094 -1.2680  2.0291
 2752SOL    HW219893   2.178   2.826  16.360  2.2967 -0.7769 -1.0737
 2753SOL     OW19894   2.691   3.752   5.570  0.0197 -0.3728 -0.3373
 2753SOL    HW119895   2.720   3.834   5.529 -1.5882 -0.1205 -0.9833
 2753SOL    HW219896   2.773   3.707   5.590  0.7593  0.6752 -1.0199
 2754SOL     OW19897   4.416   2.805  13.671  0.0943  0.1391 -0.1353
 2754SOL    HW119898   4.428   2.789  13.578 -0.4901 -1.0973  0.0093
 2754SOL    HW219899   4.510   2.798  13.687 -0.2063 -2.3095  0.5387
 2755SOL     OW19900   0.533   3.689   4.367  0.2555 -0.0115 -0.1963
 2755SOL    HW119901   0.517   3.718   4.277 -0.5866  1.1535  0.3407
 2755SOL    HW219902   0.571   3.603   4.347  0.3893 -0.2751  1.1736
 2756SOL     OW19903   1.547   0.555   2.035  0.4602  0.0443  0.0362
 2756SOL    HW119904   1.476   0.578   2.095 -2.0813  2.8070 -4.0351
 2756SOL    HW219905   1.552   0.632   1.978 -1.5781 -1.4210 -2.0920
 2757SOL     OW19906   4.144   0.241   8.516 -0.5755 -0.2930 -0.8806
 2757SOL    HW119907   4.188   0.325   8.531 -1.5796 -0.3989  2.7709
 2757SOL    HW219908   4.209   0.188   8.470 -0.9596 -1.0805 -0.5117
 2758SOL     OW19909   1.103   2.855   8.791 -0.0552  0.1540 -0.3954
 2758SOL    HW119910   1.192   2.886   8.774  0.1471  0.2072  0.7446
 2758SOL    HW219911   1.078   2.923   8.854  0.4082  1.6491 -1.8266
 2759SOL     OW19912   3.723   4.221  15.691 -0.6980 -0.1967  0.0092
 2759SOL    HW119913   3.728   4.186  15.602 -2.1351  0.8508 -0.4816
 2759SOL    HW219914   3.702   4.312  15.672  0.0164 -0.2312 -0.9362
 2760SOL     OW19915   2.393   4.316   1.628  0.0712  0.0476  0.2066
 2760SOL    HW119916   2.368   4.241   1.574 -1.3151  1.1651 -0.6965
 2760SOL    HW219917   2.321   4.375   1.611  0.0659 -0.0055  0.0440
 2761SOL     OW19918   1.835   0.012   2.858 -0.0693 -0.2095 -0.5471
 2761SOL    HW119919   1.816   4.687   2.928 -2.8341 -0.3469 -1.4132
 2761SOL    HW219920   1.906   4.698   2.819  0.0179  0.1023 -0.7998
 2762SOL     OW19921   0.834   3.420   5.445  0.0281 -0.1880  0.0634
 2762SOL    HW119922   0.749   3.402   5.484  0.7547 -0.9576  1.3406
 2762SOL    HW219923   0.855   3.331   5.415 -1.2912  0.6400 -3.2664
 2763SOL     OW19924   3.316   0.034  17.554 -1.0488 -0.2563  0.2128
 2763SOL    HW119925   3.228   0.044  17.590 -2.2051 -2.9847 -1.8083
 2763SOL    HW219926   3.352   0.002  17.637  0.5309  0.7215 -0.0862
 2764SOL     OW19927   2.218   2.984   3.852 -0.0004 -0.0223  0.2462
 2764SOL    HW119928   2.224   3.012   3.760 -0.2285 -1.8270 -0.3138
 2764SOL    HW219929   2.127   3.011   3.863 -0.7947 -1.8012 -2.0821
 2765SOL     OW19930   3.587   1.802   3.329  1.0090 -0.3661 -0.0060
 2765SOL    HW119931   3.546   1.751   3.399  1.4580 -1.2930 -0.4113
 2765SOL    HW219932   3.548   1.778   3.246 -0.3800  1.4927  0.1130
 2766SOL     OW19933   4.698   4.229   6.175 -0.0020  0.2889 -0.3716
 2766SOL    HW119934   4.626   4.224   6.239 -1.1375  2.4913 -1.4620
 2766SOL    HW219935   4.664   4.309   6.134 -4.5154 -1.0775  0.6011
 2767SOL     OW19936   4.086   1.676   3.483 -0.0463  0.0979 -0.6782
 2767SOL    HW119937   4.031   1.735   3.432 -0.3422  0.6782  0.3116
 2767SOL    HW219938   4.171   1.699   3.447  1.8577 -2.8481  1.8833
 2768SOL     OW19939   1.545   4.366   5.077 -0.0259  0.4126 -0.1933
 2768SOL    HW119940   1.499   4.297   5.030 -1.4855  1.5421 -0.4469
 2768SOL    HW219941   1.574   4.323   5.157  2.0647  0.7854 -0.7626
 2769SOL     OW19942   0.215   2.724   1.517  0.2307 -0.4985 -0.3572
 2769SOL    HW119943   0.151   2.751   1.451 -1.9091 -1.5698  1.2667
 2769SOL    HW219944   0.297   2.731   1.468 -0.9385  0.1780 -2.2173
 2770SOL     OW19945   1.779   2.176   3.704  0.1976 -0.6118 -0.6434
 2770SOL    HW119946   1.744   2.121   3.774  2.0582  0.1306  0.8692
 2770SOL    HW219947   1.863   2.130   3.699  0.5717 -0.0792  0.6368
 2771SOL     OW19948   0.744   0.129   6.251 -0.0906  0.0605 -0.1796
 2771SOL    HW119949   0.653   0.151   6.234 -0.2315  0.1731  0.7448
 2771SOL    HW219950   0.764   0.094   6.164  0.5506 -1.1752  0.4568
 2772SOL     OW19951   4.626   1.801  17.281  0.1418 -0.3930 -0.3907
 2772SOL    HW119952   4.566   1.786  17.354  1.1287 -1.3239  0.2245
 2772SOL    HW219953   4.708   1.758  17.307  0.2313  0.1629  0.2347
 2773SOL     OW19954   2.484   4.219   3.463 -0.1861  0.1154 -0.1658
 2773SOL    HW119955   2.408   4.168   3.434 -0.2905  0.7457 -0.9823
 2773SOL    HW219956   2.517   4.249   3.378 -1.3995  0.9326 -0.3342
 2774SOL     OW19957   2.536   3.245   2.559 -0.0898 -0.1217 -0.3219
 2774SOL    HW119958   2.534   3.208   2.471  2.1281 -1.3674  0.1283
 2774SOL    HW219959   2.627   3.272   2.545 -0.6760  0.7397 -2.5292
 2775SOL     OW19960   3.353   0.960  15.485 -0.4001  0.2800 -0.0108
 2775SOL    HW119961   3.283   0.898  15.505 -1.2355  1.0231 -0.6689
 2775SOL    HW219962   3.328   1.032  15.543 -0.5914  0.0647  0.1721
 2776SOL     OW19963   3.363   1.408  17.496  0.3239 -0.1873 -0.3441
 2776SOL    HW119964   3.352   1.502  17.509 -0.1500 -0.3994  0.7963
 2776SOL    HW219965   3.438   1.391  17.440 -0.1394 -1.2149 -0.6587
 2777SOL     OW19966   2.171   3.878   5.779  0.3845 -0.2574  0.2505
 2777SOL    HW119967   2.166   3.955   5.722  0.6770 -0.5429 -0.1669
 2777SOL    HW219968   2.245   3.904   5.834  0.4497 -1.9004  0.9331
 2778SOL     OW19969   1.110   2.802  16.233  0.2271 -0.2184 -0.5463
 2778SOL    HW119970   1.166   2.728  16.214  1.6355  0.4823  0.8372
 2778SOL    HW219971   1.151   2.875  16.187  2.0312 -1.0839 -0.2819
 2779SOL     OW19972   2.859   3.863  10.183 -0.7254  0.2039  0.5838
 2779SOL    HW119973   2.916   3.794  10.216 -1.0213 -1.9646 -3.3829
 2779SOL    HW219974   2.811   3.817  10.114  0.1102 -1.4011  1.0722
 2780SOL     OW19975   3.286   1.504   2.180 -0.0296  0.4324 -0.6056
 2780SOL    HW119976   3.355   1.540   2.236  0.1024  0.2834 -0.6720
 2780SOL    HW219977   3.216   1.467   2.233  0.2778  0.0064 -0.4929
 2781SOL     OW19978   3.250   4.073   2.714  0.1357 -0.1388 -0.1176
 2781SOL    HW119979   3.236   4.006   2.648 -0.7902  0.4453 -0.5138
 2781SOL    HW219980   3.271   4.137   2.645 -1.5525  1.6341  1.0244
 2782SOL     OW19981   3.754   2.724  11.965  0.2628  0.5127  0.0461
 2782SOL    HW119982   3.717   2.754  12.048 -0.0285 -1.3697  0.5804
 2782SOL    HW219983   3.686   2.743  11.900  1.1005  1.2784 -0.6124
 2783SOL     OW19984   0.644   2.230   9.387 -0.3712 -0.5437  0.1187
 2783SOL    HW119985   0.695   2.161   9.344  1.2205  1.2890 -0.9451
 2783SOL    HW219986   0.622   2.289   9.315  2.0741  3.0432  2.2763
 2784SOL     OW19987   0.865   4.126  14.783  0.0870 -0.5386  0.1700
 2784SOL    HW119988   0.785   4.095  14.742 -0.1497  0.2465  0.0381
 2784SOL    HW219989   0.915   4.044  14.786 -0.6401 -0.8541  3.1032
 2785SOL     OW19990   1.278   4.429   8.722 -0.0888 -0.2631 -0.3653
 2785SOL    HW119991   1.196   4.379   8.716 -1.1250  1.5593 -1.1543
 2785SOL    HW219992   1.338   4.357   8.744 -0.8390  0.0318  2.7762
 2786SOL     OW19993   1.888   0.304   5.897  0.0670  0.0776 -0.2265
 2786SOL    HW119994   1.797   0.281   5.915 -0.2926  0.9537 -0.9042
 2786SOL    HW219995   1.889   0.306   5.801  1.2978  2.9546 -0.1284
 2787SOL     OW19996   3.157   4.716   2.925 -0.0668 -0.1955  0.0013
 2787SOL    HW119997   3.079   4.714   2.981 -0.2808 -2.9022 -0.3769
 2787SOL    HW219998   3.163   4.624   2.899  3.1191 -0.0157  0.1405
 2788SOL     OW19999   0.304   0.167  16.403 -0.4635 -0.0423 -0.0077
 2788SOL    HW120000   0.216   0.203  16.418 -0.4852  0.6138 -1.7099
 2788SOL    HW220001   0.354   0.230  16.456  1.0204 -0.5628 -0.8077
 2789SOL     OW20002   3.582   0.159   2.290  0.1171  0.2056 -0.1440
 2789SOL    HW120003   3.502   0.167   2.343 -0.2360  2.2456 -1.0183
 2789SOL    HW220004   3.546   0.104   2.220  3.3159  0.5441 -2.0472
 2790SOL     OW20005   2.013   3.263   4.588 -0.0239  0.0578  0.1129
 2790SOL    HW120006   1.974   3.212   4.659  0.5247 -0.6011 -0.0536
 2790SOL    HW220007   2.073   3.198   4.551 -1.9263 -1.0674 -0.9916
 2791SOL     OW20008   2.077   2.240   3.135  0.2880 -0.1705 -0.0356
 2791SOL    HW120009   2.040   2.318   3.176  1.2184  0.4674 -0.4240
 2791SOL    HW220010   2.131   2.205   3.206  4.1985  1.9159 -2.0332
 2792SOL     OW20011   0.147   2.624   7.789  0.0146  0.3576 -0.0701
 2792SOL    HW120012   0.113   2.537   7.810 -0.4329  0.4476 -0.4252
 2792SOL    HW220013   0.193   2.650   7.868 -1.1850 -1.9900  1.3796
 2793SOL     OW20014   1.298   4.402   1.617 -0.2186  0.5733  0.0060
 2793SOL    HW120015   1.375   4.441   1.659  1.4306 -1.8047 -0.8442
 2793SOL    HW220016   1.230   4.447   1.666 -3.3814 -0.3207 -3.5885
 2794SOL     OW20017   1.592   0.734   2.806 -0.0764 -0.2378  0.2559
 2794SOL    HW120018   1.534   0.706   2.735  2.3192 -0.0423 -1.7670
 2794SOL    HW220019   1.524   0.768   2.864  0.9700  0.8528  0.8483
 2795SOL     OW20020   3.437   3.909  15.112 -0.0574 -0.3741  0.5670
 2795SOL    HW120021   3.496   3.834  15.109  0.5949  0.1929 -0.9371
 2795SOL    HW220022   3.354   3.862  15.106 -1.1602  1.4251  2.0593
 2796SOL     OW20023   0.255   1.649   6.465 -0.5106 -0.6045  0.0577
 2796SOL    HW120024   0.276   1.556   6.450  0.9949 -0.3196  0.3926
 2796SOL    HW220025   0.282   1.688   6.382 -2.4740  2.4281  0.8647
 2797SOL     OW20026   0.065   3.392   2.470 -0.2243  0.3259 -0.2505
 2797SOL    HW120027   4.716   3.349   2.474 -0.5613  1.2394  2.6707
 2797SOL    HW220028   0.063   3.430   2.383  0.3919 -0.2869 -0.5272
 2798SOL     OW20029   4.643   3.428   3.410  0.2203 -0.1881  0.3243
 2798SOL    HW120030   4.569   3.461   3.359  0.6662  0.9291  0.3881
 2798SOL    HW220031   4.693   3.380   3.344  0.4917 -1.9959  1.8529
 2799SOL     OW20032   3.601   4.695   6.569  0.1953 -0.1372 -0.3042
 2799SOL    HW120033   3.523   4.699   6.514  0.6309 -0.7299 -0.9568
 2799SOL    HW220034   3.616   0.050   6.595 -1.2460 -0.3421  1.2672
 2800SOL     OW20035   2.816   0.117   5.002  0.4855 -0.6614  0.6168
 2800SOL    HW120036   2.774   0.042   4.958  2.6495 -1.4537 -0.0632
 2800SOL    HW220037   2.899   0.111   4.956  0.6702 -3.0994  1.2505
 2801SOL     OW20038   1.077   3.808  13.188 -0.2866  0.0198  0.0785
 2801SOL    HW120039   1.123   3.760  13.257  1.4450  1.2802 -0.1881
 2801SOL    HW220040   1.121   3.893  13.191  1.7037 -1.0092  0.2926
 2802SOL     OW20041   0.555   0.184   1.102 -0.3431  0.0935  0.4107
 2802SOL    HW120042   0.513   0.169   1.018  1.4033  0.0033 -0.4455
 2802SOL    HW220043   0.500   0.122   1.150  2.7412  0.4517  4.4321
 2803SOL     OW20044   1.951   4.001  15.533 -0.5954 -0.1192  0.0226
 2803SOL    HW120045   1.943   4.092  15.504  0.0806  0.8351  2.7721
 2803SOL    HW220046   1.901   3.953  15.468 -1.1971 -3.0399  2.6659
 2804SOL     OW20047   1.625   1.955  12.329  0.1615 -0.3780 -0.5437
 2804SOL    HW120048   1.579   1.994  12.403  2.7315 -0.4815  1.1265
 2804SOL    HW220049   1.691   1.900  12.372  1.2007  1.4516  0.1831
 2805SOL     OW20050   3.888   2.913   4.091 -1.2695  0.2120 -0.2754
 2805SOL    HW120051   3.966   2.934   4.041  1.2327 -1.7360  2.8389
 2805SOL    HW220052   3.929   2.910   4.178 -0.2446  2.0465 -0.6881
 2806SOL     OW20053   1.010   0.117   2.482  0.1176 -0.5058  0.1690
 2806SOL    HW120054   0.993   0.207   2.508  0.6961 -0.0817 -0.9535
 2806SOL    HW220055   0.926   0.085   2.450  0.2615 -1.8082  1.0802
 2807SOL     OW20056   1.296   3.171   4.255  0.4738  0.3720 -0.1092
 2807SOL    HW120057   1.391   3.167   4.253  0.5619  2.7495 -0.8332
 2807SOL    HW220058   1.271   3.087   4.216  2.3699 -0.2738  0.0833
 2808SOL     OW20059   3.945   4.358  14.900  0.6150  0.5763  0.1879
 2808SOL    HW120060   3.956   4.446  14.937 -0.6087  1.1904 -0.9104
 2808SOL    HW220061   3.853   4.341  14.920  1.0506 -0.6818  1.0841
 2809SOL     OW20062   2.579   3.139   8.678 -0.0034  0.0664 -0.4393
 2809SOL    HW120063   2.498   3.154   8.629  0.0618 -0.9909 -0.8735
 2809SOL    HW220064   2.557   3.149   8.771  2.1746  0.3753  0.0500
 2810SOL     OW20065   0.129   2.555   6.605  0.6660 -0.3610  0.8564
 2810SOL    HW120066   0.170   2.579   6.689  0.4096  1.8161  0.3625
 2810SOL    HW220067   0.109   2.643   6.573  0.7561 -0.9672 -0.8359
 2811SOL     OW20068   1.085   1.239   4.211  0.1982  0.2582 -0.1019
 2811SOL    HW120069   1.011   1.199   4.257  0.6855  0.7976  1.1356
 2811SOL    HW220070   1.119   1.161   4.167  1.9522  0.1079  1.5581
 2812SOL     OW20071   0.644   2.073   9.704 -0.0850 -0.6039  0.1594
 2812SOL    HW120072   0.588   2.009   9.659  0.6740 -0.9163 -0.3412
 2812SOL    HW220073   0.675   2.122   9.627 -2.5056 -1.0728 -1.1280
 2813SOL     OW20074   1.318   0.075   3.450  0.2046  0.0747 -0.2719
 2813SOL    HW120075   1.260   0.000   3.465 -0.6255  0.8927  0.5759
 2813SOL    HW220076   1.378   0.052   3.521  0.4083 -0.2851 -0.5591
 2814SOL     OW20077   1.797   1.247   2.920 -0.1228  0.3278 -1.0584
 2814SOL    HW120078   1.816   1.289   2.836 -1.9936 -0.8147 -2.0420
 2814SOL    HW220079   1.752   1.314   2.971 -0.0501  0.0454 -0.6197
 2815SOL     OW20080   0.434   3.529   6.940 -0.0478 -0.3095 -0.9161
 2815SOL    HW120081   0.459   3.616   6.972 -0.4376  0.6812 -3.2842
 2815SOL    HW220082   0.523   3.493   6.942 -0.0125 -0.2598 -1.5225
 2816SOL     OW20083   0.781   1.058   3.816 -0.0192  0.2007 -0.8699
 2816SOL    HW120084   0.840   0.991   3.782  1.4960  1.3307 -0.4314
 2816SOL    HW220085   0.718   1.073   3.745  0.2357 -1.1289 -1.3778
 2817SOL     OW20086   3.377   0.301   5.202 -0.7321  0.4109  0.0754
 2817SOL    HW120087   3.469   0.277   5.211 -1.2183 -2.6087 -2.9620
 2817SOL    HW220088   3.334   0.233   5.255 -2.5850  2.7961  1.6178
 2818SOL     OW20089   1.206   2.935   4.098  0.1319  0.8144  0.7151
 2818SOL    HW120090   1.139   2.893   4.152  0.1779 -0.6008 -0.3360
 2818SOL    HW220091   1.239   2.859   4.049 -0.3840  1.6383 -0.8912
 2819SOL     OW20092   1.550   0.855   5.757  0.1101 -0.0559 -0.0994
 2819SOL    HW120093   1.569   0.774   5.804  1.2036 -1.7133 -3.3952
 2819SOL    HW220094   1.455   0.850   5.752 -0.0200  2.2061 -0.1415
 2820SOL     OW20095   0.063   4.628   8.074 -0.0072 -0.2444 -0.4177
 2820SOL    HW120096   0.079   4.721   8.057  0.9724 -0.5985 -1.4584
 2820SOL    HW220097   0.083   4.633   8.168  1.0970  3.3279 -0.8491
 2821SOL     OW20098   2.978   0.900  13.708 -0.0069  0.2864  0.0843
 2821SOL    HW120099   3.063   0.880  13.747 -1.2454 -0.3084  2.4707
 2821SOL    HW220100   2.983   0.854  13.624  0.2236  0.3255  0.0763
 2822SOL     OW20101   1.807   3.069   7.526  0.0991 -0.7516  0.4560
 2822SOL    HW120102   1.763   3.017   7.459  0.5016  0.9434 -1.1299
 2822SOL    HW220103   1.730   3.108   7.568 -0.6515 -1.2388 -0.4701
 2823SOL     OW20104   1.691   4.071  14.147  0.0478 -0.3187 -0.2476
 2823SOL    HW120105   1.750   4.142  14.172  0.1436  0.0639 -1.5446
 2823SOL    HW220106   1.740   3.995  14.176 -1.2698 -0.6692  1.0354
 2824SOL     OW20107   2.958   3.650   3.739 -0.3094 -0.3281 -0.2418
 2824SOL    HW120108   2.865   3.651   3.718 -0.3661 -0.0777  0.0252
 2824SOL    HW220109   2.984   3.736   3.705 -1.1179 -0.2430 -0.6396
 2825SOL     OW20110   3.097   0.618   8.183 -0.9287 -0.4365  0.5977
 2825SOL    HW120111   3.093   0.698   8.131 -1.2934 -1.8211 -1.4829
 2825SOL    HW220112   3.193   0.613   8.186 -0.5799  4.6814 -2.3798
 2826SOL     OW20113   2.361   0.617   2.243  0.1265  0.8924  0.5330
 2826SOL    HW120114   2.307   0.682   2.199 -1.2891 -0.4775  0.2223
 2826SOL    HW220115   2.320   0.536   2.213  0.5572  2.3029 -3.8672
 2827SOL     OW20116   4.285   4.253   4.447  0.0315 -0.7171 -0.7665
 2827SOL    HW120117   4.242   4.305   4.379 -0.9222 -0.5514 -0.0477
 2827SOL    HW220118   4.203   4.208   4.471  0.9595 -0.3484  3.0959
 2828SOL     OW20119   3.822   1.038   2.455  0.1607  0.1344  0.0666
 2828SOL    HW120120   3.734   1.070   2.435 -0.1747  1.0597  3.0277
 2828SOL    HW220121   3.839   0.994   2.372  1.6426  1.5895 -0.4125
 2829SOL     OW20122   2.093   3.995  11.742 -0.2879  0.0718 -0.3511
 2829SOL    HW120123   2.050   4.028  11.820 -0.0829  0.2014 -0.2937
 2829SOL    HW220124   2.126   3.917  11.788 -1.6568 -2.1693 -3.1964
 2830SOL     OW20125   3.306   3.522   4.038 -0.7283  0.6087 -0.0248
 2830SOL    HW120126   3.246   3.556   4.105 -1.5665 -1.7246  0.4148
 2830SOL    HW220127   3.239   3.482   3.982  1.1252 -0.0727 -1.7376
 2831SOL     OW20128   4.184   1.597   6.033 -0.1845  0.0176 -0.1311
 2831SOL    HW120129   4.232   1.627   6.111  0.3408 -2.1581  0.3862
 2831SOL    HW220130   4.204   1.505   6.018 -1.2008 -0.1083 -0.6718
 2832SOL     OW20131   3.652   4.433  15.477  0.4445 -0.3614 -0.5645
 2832SOL    HW120132   3.633   4.485  15.399 -1.2032  1.7311  1.2180
 2832SOL    HW220133   3.680   4.350  15.439  1.8723  0.4920 -1.3540
 2833SOL     OW20134   3.051   2.698   2.278  1.0748 -0.5953 -0.1368
 2833SOL    HW120135   3.127   2.646   2.250  2.3038  1.2717 -0.3135
 2833SOL    HW220136   2.994   2.624   2.299  0.1494 -0.0692 -0.8234
 2834SOL     OW20137   3.669   1.457   6.062  0.3938 -0.4840 -0.6238
 2834SOL    HW120138   3.681   1.468   5.968 -0.7658  2.2708 -0.4351
 2834SOL    HW220139   3.699   1.367   6.078  0.7573 -0.1949  0.3026
 2835SOL     OW20140   3.411   0.817   3.382  0.0077 -0.8014 -0.7994
 2835SOL    HW120141   3.387   0.909   3.370 -0.2008 -0.6478  0.7602
 2835SOL    HW220142   3.371   0.792   3.299 -1.5307 -3.0383  0.6120
 2836SOL     OW20143   1.795   3.517  10.232 -0.5204  0.4359 -0.2747
 2836SOL    HW120144   1.798   3.595  10.178  1.1341  1.9911  2.0405
 2836SOL    HW220145   1.800   3.560  10.318  0.9656  0.3927 -0.3325
 2837SOL     OW20146   2.987   2.965  16.451  0.6401  0.2500 -0.5625
 2837SOL    HW120147   2.988   3.047  16.501  2.1933  0.3885 -0.8247
 2837SOL    HW220148   2.906   2.975  16.401  0.0790  0.9794  0.5006
 2838SOL     OW20149   3.509   3.072   2.861  0.0732 -0.3132  0.1707
 2838SOL    HW120150   3.541   3.134   2.927  1.1484  1.0640 -1.6597
 2838SOL    HW220151   3.413   3.074   2.869 -0.0332 -1.4586 -0.8450
 2839SOL     OW20152   4.515   0.882   7.090 -0.5362 -0.3077 -0.3041
 2839SOL    HW120153   4.526   0.884   6.995  0.2383 -1.4260 -0.2295
 2839SOL    HW220154   4.562   0.956   7.128  1.9262 -1.9094 -0.2742
 2840SOL     OW20155   0.613   3.224  15.627  0.2899  0.4785 -0.2692
 2840SOL    HW120156   0.606   3.320  15.630  2.6807  0.5997  1.2954
 2840SOL    HW220157   0.556   3.218  15.550 -0.8378 -0.5650  0.6441
 2841SOL     OW20158   3.894   1.616   2.904 -0.2713  0.0360 -0.4173
 2841SOL    HW120159   3.966   1.679   2.897 -0.1257 -0.0625  0.2256
 2841SOL    HW220160   3.946   1.539   2.928  0.7757  0.5503 -1.0074
 2842SOL     OW20161   4.657   2.908   6.086 -0.2171  0.7071  0.2932
 2842SOL    HW120162   4.652   2.871   6.175  1.5576 -0.0313  0.0806
 2842SOL    HW220163   4.605   2.987   6.099 -0.1646  1.0723 -1.7828
 2843SOL     OW20164   0.124   3.313   8.570 -0.2984  0.1422  0.0612
 2843SOL    HW120165   0.156   3.277   8.653 -0.7625  1.6760  0.8937
 2843SOL    HW220166   0.030   3.297   8.579 -0.2951 -1.9537 -3.2682
 2844SOL     OW20167   4.351   1.911   7.808  0.4415  0.6081 -0.3741
 2844SOL    HW120168   4.373   1.996   7.770 -0.5892  1.5576  1.1368
 2844SOL    HW220169   4.278   1.887   7.750 -0.7161  1.5994  0.6742
 2845SOL     OW20170   1.962   1.199  10.167 -0.2708  0.7472  0.0745
 2845SOL    HW120171   2.042   1.249  10.186  0.2228 -0.4388  1.0587
 2845SOL    HW220172   1.929   1.183  10.255 -0.3213  0.5760  0.0235
 2846SOL     OW20173   2.454   1.744   4.616  0.1566 -0.3261 -0.0873
 2846SOL    HW120174   2.414   1.659   4.635  0.2780 -0.0457  1.3725
 2846SOL    HW220175   2.515   1.728   4.544  0.3301 -1.2893  0.2735
 2847SOL     OW20176   2.286   2.477   8.635 -0.1073  0.2368 -0.1885
 2847SOL    HW120177   2.329   2.392   8.625  0.9120  0.7440 -0.1340
 2847SOL    HW220178   2.363   2.525   8.665  0.0055  0.1478 -0.3381
 2848SOL     OW20179   0.054   1.603   6.187 -0.0905 -0.1037 -0.0584
 2848SOL    HW120180   4.728   1.628   6.119 -2.1512 -2.5474  0.9499
 2848SOL    HW220181   0.018   1.660   6.255 -0.4250 -0.5974  0.1823
 2849SOL     OW20182   2.637   2.703   3.459  0.5986 -0.4652  0.3160
 2849SOL    HW120183   2.694   2.638   3.417  1.7234  1.2043 -0.7284
 2849SOL    HW220184   2.553   2.658   3.456  1.3155 -1.5874 -2.7209
 2850SOL     OW20185   3.668   2.906  15.434 -0.1836  0.6731  0.0772
 2850SOL    HW120186   3.720   2.986  15.443 -1.7167  1.3249  3.2529
 2850SOL    HW220187   3.730   2.835  15.418  1.6965  1.7303  2.6349
 2851SOL     OW20188   0.149   4.053   3.209 -0.5838  0.5352 -0.7037
 2851SOL    HW120189   0.135   4.148   3.208  0.3391  0.6826  1.5251
 2851SOL    HW220190   0.233   4.052   3.254 -1.6106  1.9831  1.2481
 2852SOL     OW20191   0.355   4.194   2.704  0.2460 -0.4673  0.5540
 2852SOL    HW120192   0.342   4.289   2.701 -1.4683 -0.7377 -0.5454
 2852SOL    HW220193   0.356   4.176   2.798  1.9450 -0.0340  0.6161
 2853SOL     OW20194   1.620   2.833   5.969  0.1151 -0.1278 -0.0550
 2853SOL    HW120195   1.611   2.754   6.022  0.5801 -0.3657 -0.3405
 2853SOL    HW220196   1.641   2.886   6.047 -1.8324  0.5609  0.0205
 2854SOL     OW20197   3.209   2.259   8.754  0.2489  0.3078 -0.2686
 2854SOL    HW120198   3.224   2.171   8.789  0.4422  0.6714  0.5676
 2854SOL    HW220199   3.191   2.235   8.663 -1.1379  1.4568 -0.2836
 2855SOL     OW20200   0.476   1.615  14.488 -0.3406  0.0095 -0.2191
 2855SOL    HW120201   0.518   1.698  14.510 -1.0977  0.7922 -1.6959
 2855SOL    HW220202   0.468   1.576  14.575 -0.7742 -0.1176 -0.3164
 2856SOL     OW20203   3.613   3.048  12.712  0.2319 -0.0283 -0.1697
 2856SOL    HW120204   3.637   2.996  12.789 -0.0539 -0.3374 -0.2896
 2856SOL    HW220205   3.692   3.038  12.660 -0.4982  0.0448 -1.2944
 2857SOL     OW20206   4.173   3.130  17.392 -0.7579 -0.0054 -0.1034
 2857SOL    HW120207   4.154   3.058  17.452  0.0471 -1.0942 -1.1509
 2857SOL    HW220208   4.231   3.167  17.459  1.6725 -1.7899 -1.2096
 2858SOL     OW20209   1.617   1.744  13.026  0.6198 -0.2878 -0.2589
 2858SOL    HW120210   1.541   1.695  13.058  0.0732  1.3643  0.9565
 2858SOL    HW220211   1.624   1.804  13.100  1.8980  0.3937 -0.9343
 2859SOL     OW20212   1.187   3.879   5.901 -0.4136  0.1328  0.1597
 2859SOL    HW120213   1.233   3.810   5.854  0.1147  0.2120  0.5561
 2859SOL    HW220214   1.138   3.922   5.831  0.7336  0.6679 -0.3301
 2860SOL     OW20215   1.947   4.345   4.760 -0.0628  0.3999  0.1548
 2860SOL    HW120216   1.989   4.408   4.701  1.2505  0.6594  1.3843
 2860SOL    HW220217   1.939   4.387   4.845 -0.6962  1.4144 -0.3994
 2861SOL     OW20218   2.033   1.432   3.386  0.5596 -0.3528 -0.0493
 2861SOL    HW120219   2.016   1.379   3.308 -1.2333  1.1757 -0.7147
 2861SOL    HW220220   2.056   1.520   3.356  0.8330 -0.0792  0.9735
 2862SOL     OW20221   2.003   0.627   7.084 -0.5550 -0.4279 -0.3699
 2862SOL    HW120222   1.978   0.539   7.112  0.3704 -0.7626 -0.6108
 2862SOL    HW220223   2.091   0.613   7.118  0.1075  1.5574 -1.2692
 2863SOL     OW20224   4.383   2.707   2.092 -0.9565 -0.3104  0.0953
 2863SOL    HW120225   4.337   2.623   2.096  0.3642 -1.0519 -0.2517
 2863SOL    HW220226   4.413   2.707   2.001  0.2801  1.1443  0.5313
 2864SOL     OW20227   3.937   2.639   0.386  0.2035 -0.1656  0.0844
 2864SOL    HW120228   3.878   2.705   0.424 -0.9525 -0.9140 -0.4434
 2864SOL    HW220229   3.993   2.692   0.330 -2.7920  0.5416 -2.2345
 2865SOL     OW20230   2.917   0.173   0.310 -0.0309 -0.4316  0.0380
 2865SOL    HW120231   2.934   0.236   0.239 -2.4711  0.5161  0.2849
 2865SOL    HW220232   2.927   0.093   0.258 -2.2159 -1.1044  0.6927
 2866SOL     OW20233   1.763   4.283   9.294 -0.1622 -0.2410  0.3548
 2866SOL    HW120234   1.764   4.194   9.258 -0.0039 -0.3106  0.5339
 2866SOL    HW220235   1.708   4.334   9.234 -1.8402  1.7801  3.6430
 2867SOL     OW20236   1.289   0.829   5.849 -0.1977  0.0595  0.1104
 2867SOL    HW120237   1.256   0.855   5.763 -3.6417  1.4034  1.8685
 2867SOL    HW220238   1.255   0.902   5.901  1.2675  1.6477 -1.1179
 2868SOL     OW20239   2.352   2.572  15.714  0.1275 -0.6973 -0.0711
 2868SOL    HW120240   2.339   2.649  15.658  1.2467  0.3588  1.1268
 2868SOL    HW220241   2.448   2.567  15.717 -0.0195 -1.7426  2.4043
 2869SOL     OW20242   0.033   1.244  14.075  0.2731  0.2652 -0.0099
 2869SOL    HW120243   0.050   1.169  14.132 -0.6065  0.8387  1.0107
 2869SOL    HW220244   4.681   1.274  14.097 -0.3862 -0.7415 -1.3260
 2870SOL     OW20245   1.203   2.276   1.931  0.1534 -0.2592 -0.4898
 2870SOL    HW120246   1.161   2.276   2.018  0.4371 -2.3277 -0.3614
 2870SOL    HW220247   1.292   2.305   1.951  0.2043  0.6838 -2.0931
 2871SOL     OW20248   0.471   0.339  13.019  0.1603  0.0954 -0.6689
 2871SOL    HW120249   0.556   0.351  13.062  0.5260 -0.9031 -1.1237
 2871SOL    HW220250   0.474   0.264  12.961  2.1114 -0.3553 -0.0057
 2872SOL     OW20251   3.722   2.557   4.314 -0.1220 -0.1524 -0.4841
 2872SOL    HW120252   3.816   2.542   4.322 -0.5484 -1.9375  1.0594
 2872SOL    HW220253   3.714   2.637   4.365 -0.5227 -0.0397 -0.7179
 2873SOL     OW20254   0.116   0.311   8.547 -0.0675 -0.1679  0.1935
 2873SOL    HW120255   0.076   0.285   8.464 -1.4018  0.4628  0.6479
 2873SOL    HW220256   0.036   0.335   8.594 -0.2003  2.1570 -1.2596
 2874SOL     OW20257   3.596   3.163   3.483 -0.0788  0.6551 -0.9650
 2874SOL    HW120258   3.674   3.179   3.430  1.9348 -0.1686  1.7969
 2874SOL    HW220259   3.529   3.144   3.417 -1.1611 -0.3631  0.4383
 2875SOL     OW20260   2.630   2.274   7.496  0.1333 -0.7958  0.0748
 2875SOL    HW120261   2.555   2.215   7.491 -2.0937  1.8991  1.6180
 2875SOL    HW220262   2.686   2.251   7.422  1.8398  3.7943 -0.0452
 2876SOL     OW20263   0.615   0.523   8.297  0.3755  0.1054  0.5108
 2876SOL    HW120264   0.642   0.516   8.206 -0.0062  0.3966  0.3736
 2876SOL    HW220265   0.580   0.612   8.298 -0.8476 -0.3602 -0.7666
 2877SOL     OW20266   1.464   2.843   7.624 -0.0906 -0.1696 -0.2150
 2877SOL    HW120267   1.422   2.775   7.571 -1.3979 -1.3223  2.3106
 2877SOL    HW220268   1.513   2.888   7.555 -0.2250 -0.6110 -0.5989
 2878SOL     OW20269   0.223   3.810  13.843 -0.2496  0.1319  0.2277
 2878SOL    HW120270   0.261   3.888  13.882  1.0144 -0.7658  0.8096
 2878SOL    HW220271   0.165   3.792  13.917 -0.3032 -0.7963 -0.0362
 2879SOL     OW20272   0.389   3.839  13.622 -0.7003  0.1232  0.7457
 2879SOL    HW120273   0.334   3.831  13.700  0.7931 -0.4313  1.7486
 2879SOL    HW220274   0.447   3.914  13.638  1.2251 -0.6214 -2.6118
 2880SOL     OW20275   4.599   0.526  15.129  0.8339 -0.5656  0.2528
 2880SOL    HW120276   4.577   0.553  15.040  0.9397 -1.4706 -0.0480
 2880SOL    HW220277   4.564   0.437  15.127 -1.6550  0.3938  1.0851
 2881SOL     OW20278   0.398   2.527   1.946  0.2345 -0.1080 -0.6441
 2881SOL    HW120279   0.338   2.458   1.917 -1.1391  1.0520 -0.5778
 2881SOL    HW220280   0.369   2.526   2.038 -0.0705  0.7276 -0.7343
 2882SOL     OW20281   0.276   3.015  14.759 -0.0689 -0.4361 -0.1378
 2882SOL    HW120282   0.331   2.948  14.799  0.8320  0.3500 -0.0414
 2882SOL    HW220283   0.237   3.053  14.838 -0.9264  0.2460 -0.8864
 2883SOL     OW20284   3.121   4.255   0.168 -0.0748  0.1217 -0.0434
 2883SOL    HW120285   3.031   4.246   0.199 -0.9956 -0.2510 -2.9116
 2883SOL    HW220286   3.144   4.340   0.205 -1.5303  0.2213  0.6214
 2884SOL     OW20287   0.727   0.239   8.780  0.0785 -0.1785 -0.2530
 2884SOL    HW120288   0.770   0.189   8.849 -0.0543 -1.6708 -1.2530
 2884SOL    HW220289   0.797   0.291   8.740 -1.3560  0.6967 -1.6588
 2885SOL     OW20290   4.381   4.465   1.097 -0.3467 -0.0508  0.3966
 2885SOL    HW120291   4.462   4.422   1.124  0.0311 -0.8744 -2.0419
 2885SOL    HW220292   4.393   4.556   1.125 -0.5334  0.5236 -1.4130
 2886SOL     OW20293   3.858   0.115   3.501 -0.1542 -0.1936  0.1686
 2886SOL    HW120294   3.921   0.111   3.429  1.8462 -1.0973  1.9572
 2886SOL    HW220295   3.775   0.091   3.460  0.2390 -0.2547 -0.5953
 2887SOL     OW20296   3.564   4.651   9.015  0.7848  0.2391  0.4318
 2887SOL    HW120297   3.587   4.559   9.005 -0.4278  0.0675 -0.8579
 2887SOL    HW220298   3.545   4.662   8.921  0.8079 -0.3450  0.3601
 2888SOL     OW20299   2.117   3.381  15.750 -0.3767 -0.0482 -0.1648
 2888SOL    HW120300   2.078   3.327  15.818 -0.3026  0.5048  0.3167
 2888SOL    HW220301   2.063   3.460  15.743  0.0603  0.4009  1.5549
 2889SOL     OW20302   0.841   2.247  10.230 -0.0226 -0.1525 -0.4862
 2889SOL    HW120303   0.861   2.235  10.138 -0.2157  2.2276 -0.8392
 2889SOL    HW220304   0.746   2.242  10.225 -0.1912  3.6534 -1.1816
 2890SOL     OW20305   4.232   2.375   9.310  0.2446 -0.1728  0.1060
 2890SOL    HW120306   4.165   2.423   9.358 -0.0015  0.3861 -0.7903
 2890SOL    HW220307   4.276   2.433   9.247 -1.0383  1.0673  0.3650
 2891SOL     OW20308   0.401   3.605   6.492 -0.3507  0.3216 -0.5105
 2891SOL    HW120309   0.365   3.673   6.549 -2.4799 -0.7503 -0.5958
 2891SOL    HW220310   0.426   3.532   6.549 -0.2359 -0.2434 -1.2861
 2892SOL     OW20311   2.645   2.769  16.375 -0.1738 -0.3978 -0.2759
 2892SOL    HW120312   2.605   2.739  16.456  1.8428  0.3472  1.0019
 2892SOL    HW220313   2.734   2.742  16.397 -0.4599 -0.2730  1.0200
 2893SOL     OW20314   4.268   2.244  17.320  0.0627 -0.0071  0.0779
 2893SOL    HW120315   4.181   2.210  17.340 -0.4454  0.8465 -0.6702
 2893SOL    HW220316   4.334   2.182  17.350  0.5620  0.1237 -0.7776
 2894SOL     OW20317   0.469   1.507   4.868 -0.1532 -0.3971  0.0515
 2894SOL    HW120318   0.448   1.414   4.878  0.8165 -0.5596  0.6871
 2894SOL    HW220319   0.400   1.535   4.809  1.0357  1.7293 -0.3293
 2895SOL     OW20320   3.178   4.485   4.940 -0.0528 -0.1144  0.0515
 2895SOL    HW120321   3.231   4.476   5.019 -0.4054  0.3086  0.3370
 2895SOL    HW220322   3.100   4.440   4.971 -1.0405  1.8628  0.4556
 2896SOL     OW20323   3.716   1.700   1.920 -0.3749 -0.2309 -0.1373
 2896SOL    HW120324   3.662   1.779   1.930  2.7582  1.7809  0.6543
 2896SOL    HW220325   3.662   1.626   1.947  0.5076  0.0185  2.2738
 2897SOL     OW20326   2.993   1.789   8.838 -0.2997 -0.1672  0.5804
 2897SOL    HW120327   2.957   1.760   8.754  0.2692  0.7525  0.0214
 2897SOL    HW220328   2.967   1.718   8.898 -0.0921  0.4863  1.4302
 2898SOL     OW20329   0.158   2.284   6.743  0.3044 -0.3886 -0.1815
 2898SOL    HW120330   0.243   2.289   6.699  0.7868 -0.6114  0.7280
 2898SOL    HW220331   0.139   2.375   6.767 -0.1921 -0.5997  0.2401
 2899SOL     OW20332   1.914   0.500   2.603 -0.8034  0.5376  0.0988
 2899SOL    HW120333   1.926   0.416   2.646  1.7839 -0.3187 -2.2728
 2899SOL    HW220334   1.985   0.498   2.539  1.0039  2.0232  2.0472
 2900SOL     OW20335   0.405   2.201  10.532 -0.4914 -0.5277  0.0789
 2900SOL    HW120336   0.323   2.199  10.483  0.1471 -0.2379 -1.0086
 2900SOL    HW220337   0.456   2.136  10.483  1.0180  0.0988  0.8222
 2901SOL     OW20338   2.250   3.063   7.274 -0.4977 -0.2718 -0.4959
 2901SOL    HW120339   2.306   3.064   7.351 -0.2705  0.6902 -0.6769
 2901SOL    HW220340   2.256   3.154   7.245 -2.8241  0.7365  2.1884
 2902SOL     OW20341   2.669   3.594   3.693  0.5187  0.7518 -0.1697
 2902SOL    HW120342   2.673   3.561   3.783  3.5236  0.4660 -0.4175
 2902SOL    HW220343   2.628   3.680   3.707  1.2813  0.8288  1.6003
 2903SOL     OW20344   3.703   4.632   7.182  0.4558  0.0900 -0.3516
 2903SOL    HW120345   3.792   4.664   7.169  0.0419  1.5374  0.3698
 2903SOL    HW220346   3.664   4.717   7.160 -0.5715 -0.1685  0.4450
 2904SOL     OW20347   2.188   3.529   3.962 -0.3729 -0.3268 -0.5311
 2904SOL    HW120348   2.093   3.529   3.946 -0.3926 -1.9345 -0.3765
 2904SOL    HW220349   2.185   3.613   4.007  0.2434 -1.7096  2.1027
 2905SOL     OW20350   0.637   3.168   3.430  0.2829  0.3734 -0.3073
 2905SOL    HW120351   0.668   3.229   3.363  3.7113 -0.6261  0.3698
 2905SOL    HW220352   0.654   3.086   3.383  0.3202  1.0146 -1.4091
 2906SOL     OW20353   1.761   4.496   6.600 -0.5617 -0.3405 -1.0343
 2906SOL    HW120354   1.719   4.413   6.581  0.6692 -0.9128 -1.2724
 2906SOL    HW220355   1.713   4.537   6.672  0.9196 -3.9330  2.0101
 2907SOL     OW20356   0.467   3.333   0.589 -0.2343  0.2495  0.2665
 2907SOL    HW120357   0.495   3.381   0.668 -0.0459  1.5114 -0.5686
 2907SOL    HW220358   0.533   3.265   0.577 -1.0029 -0.0329 -2.3407
 2908SOL     OW20359   0.457   0.688   2.423 -0.1854  0.3334 -0.4536
 2908SOL    HW120360   0.509   0.764   2.449  0.4378 -1.0559  2.3380
 2908SOL    HW220361   0.487   0.690   2.332  3.6011  0.7206  0.8218
 2909SOL     OW20362   4.708   4.643   0.551  0.3446  0.0200 -0.1146
 2909SOL    HW120363   0.052   4.677   0.511  1.7559 -1.6821  1.2611
 2909SOL    HW220364   4.727   4.560   0.509  0.2390 -0.4956  0.8483
 2910SOL     OW20365   1.404   3.718   1.169 -0.3599  0.2810 -0.1816
 2910SOL    HW120366   1.310   3.721   1.156 -0.4406  2.6540  0.8955
 2910SOL    HW220367   1.414   3.701   1.263  0.9770 -0.3252 -0.4347
 2911SOL     OW20368   1.508   0.370   2.393  0.5181 -0.1887 -0.5370
 2911SOL    HW120369   1.415   0.353   2.382  0.3360  0.1427  0.4718
 2911SOL    HW220370   1.510   0.331   2.480 -1.6801 -1.2097 -0.9498
 2912SOL     OW20371   3.419   1.001   4.212 -0.2299  0.1150  0.0782
 2912SOL    HW120372   3.426   0.953   4.295  3.0607  1.1706  0.4052
 2912SOL    HW220373   3.397   0.925   4.158  1.4550 -0.5774  0.3876
 2913SOL     OW20374   3.457   3.751   2.142 -0.1991  0.4487 -0.5816
 2913SOL    HW120375   3.410   3.675   2.177 -1.9752  0.3750 -3.0910
 2913SOL    HW220376   3.547   3.728   2.166  0.0716  2.8252  0.6676
 2914SOL     OW20377   3.867   4.591  10.405 -0.6928 -0.2179  0.3189
 2914SOL    HW120378   3.961   4.574  10.396 -0.8039 -1.2925  1.1293
 2914SOL    HW220379   3.810   4.553  10.338 -0.4958 -1.9581  1.1310
 2915SOL     OW20380   0.857   4.232   9.553  0.0961  0.0820  0.2903
 2915SOL    HW120381   0.773   4.231   9.507 -0.3393  0.2021  1.0844
 2915SOL    HW220382   0.842   4.160   9.615  2.9826  0.1432  1.0616
 2916SOL     OW20383   2.482   2.754   2.843 -0.4513  0.0193 -0.6416
 2916SOL    HW120384   2.480   2.848   2.828 -1.2834  0.2943  1.1119
 2916SOL    HW220385   2.426   2.742   2.920  0.1944 -0.4212 -0.2449
 2917SOL     OW20386   1.634   0.528   1.519  0.5070  0.2584 -0.3249
 2917SOL    HW120387   1.696   0.545   1.590 -0.3224  1.7774  0.0272
 2917SOL    HW220388   1.641   0.594   1.450  0.4774  0.5969  0.0017
 2918SOL     OW20389   0.636   3.822  15.400  0.6112 -0.0053 -0.0728
 2918SOL    HW120390   0.692   3.890  15.438  0.7062  0.5466 -1.2202
 2918SOL    HW220391   0.705   3.769  15.360 -0.0335 -0.7352 -0.2068
 2919SOL     OW20392   3.338   0.412   2.712  0.0255 -0.5663  0.0358
 2919SOL    HW120393   3.285   0.372   2.781 -0.5617 -0.2935 -0.2559
 2919SOL    HW220394   3.327   0.346   2.643 -0.0400  1.7102 -2.1246
 2920SOL     OW20395   3.962   0.601   6.472 -0.1291  0.1092 -0.2833
 2920SOL    HW120396   3.988   0.685   6.511 -2.7117 -0.4619  2.6633
 2920SOL    HW220397   3.982   0.604   6.379  0.7337  0.9688 -0.0739
 2921SOL     OW20398   2.466   2.751   2.427  0.3516 -0.0586 -0.3295
 2921SOL    HW120399   2.434   2.691   2.494  1.1290 -0.9283 -0.7464
 2921SOL    HW220400   2.396   2.815   2.435 -0.5250 -0.8589 -1.6514
 2922SOL     OW20401   1.277   1.882  11.600  0.8334 -0.3433  0.1161
 2922SOL    HW120402   1.330   1.807  11.625  1.2753  0.1416  0.6390
 2922SOL    HW220403   1.266   1.865  11.507 -1.3568 -0.5850  0.4262
 2923SOL     OW20404   3.966   3.755   4.107 -0.4570  0.2985  0.1242
 2923SOL    HW120405   3.893   3.701   4.137 -0.0751 -1.2228 -1.6715
 2923SOL    HW220406   4.016   3.687   4.061 -1.4197  0.1911 -0.7867
 2924SOL     OW20407   2.656   1.193   8.670  0.2819  0.8504  0.2247
 2924SOL    HW120408   2.630   1.166   8.582  3.2010  2.8284 -1.2602
 2924SOL    HW220409   2.569   1.204   8.707 -0.3423 -1.6645 -0.5171
 2925SOL     OW20410   0.220   4.273   3.538 -0.1843  0.1817 -0.6789
 2925SOL    HW120411   0.308   4.291   3.571 -1.3182  0.0667  2.4697
 2925SOL    HW220412   0.199   4.334   3.467 -0.3494  1.5954  0.5598
 2926SOL     OW20413   1.630   4.548   8.002 -0.2332 -0.4355  0.1647
 2926SOL    HW120414   1.604   4.625   7.952  2.2397  0.1371 -0.2586
 2926SOL    HW220415   1.567   4.549   8.074 -2.5687  1.1653 -1.9335
 2927SOL     OW20416   2.104   2.914  16.702 -0.0877  0.0690 -0.2982
 2927SOL    HW120417   2.012   2.928  16.681 -0.1975  0.8951  0.7068
 2927SOL    HW220418   2.145   2.869  16.629  0.9150 -1.2051  1.0405
 2928SOL     OW20419   4.504   3.134   5.741 -0.2935  0.0165  0.2383
 2928SOL    HW120420   4.523   3.205   5.680  1.0661 -0.2177  0.3858
 2928SOL    HW220421   4.414   3.119   5.713 -0.0204  1.6808 -1.4931
 2929SOL     OW20422   2.657   2.607   3.144 -0.1392  0.1676  0.0679
 2929SOL    HW120423   2.680   2.534   3.087  0.3278  1.5908 -1.5321
 2929SOL    HW220424   2.717   2.585   3.215  1.3849  0.5777 -1.1154
 2930SOL     OW20425   0.059   4.616   6.882 -0.0473  0.1765 -0.4377
 2930SOL    HW120426   0.063   4.581   6.970 -2.7744  1.1701  0.0636
 2930SOL    HW220427   0.132   4.674   6.907 -1.1962  1.0758  0.7888
 2931SOL     OW20428   2.185   4.101   5.642  0.4936  0.1876  0.2277
 2931SOL    HW120429   2.210   4.192   5.627 -2.1735  0.9388  0.1994
 2931SOL    HW220430   2.161   4.079   5.552 -2.2454 -0.1282  1.0119
 2932SOL     OW20431   1.696   2.345   1.259 -0.1245 -0.1812 -0.2218
 2932SOL    HW120432   1.662   2.370   1.346 -0.1250  2.4062 -0.9637
 2932SOL    HW220433   1.643   2.267   1.241 -1.8742  0.6213  1.4236
 2933SOL     OW20434   3.870   3.055   9.553 -0.0066  0.3749 -0.0537
 2933SOL    HW120435   3.961   3.034   9.572 -0.0561 -0.0815 -0.3162
 2933SOL    HW220436   3.877   3.150   9.539  1.6311  0.6898  2.7999
 2934SOL     OW20437   4.252   3.283   3.453  0.1360 -0.0464 -0.0983
 2934SOL    HW120438   4.247   3.194   3.488 -1.0040  1.0876  2.5905
 2934SOL    HW220439   4.251   3.341   3.529  2.3700 -1.2902  0.8799
 2935SOL     OW20440   0.631   4.183  16.360 -0.6429  0.4024 -0.2881
 2935SOL    HW120441   0.588   4.258  16.318  0.7827  1.3336 -0.0864
 2935SOL    HW220442   0.560   4.119  16.363  1.3691 -1.8570 -0.6613
 2936SOL     OW20443   4.118   3.623  10.988 -0.2988  0.0197  0.4693
 2936SOL    HW120444   4.205   3.613  10.948  0.0087 -1.1134  1.4074
 2936SOL    HW220445   4.096   3.530  10.984 -1.0131  0.3738 -3.8378
 2937SOL     OW20446   2.587   4.446   5.653 -0.3434 -0.2451  0.3281
 2937SOL    HW120447   2.527   4.506   5.696  1.6925  2.5197 -0.6382
 2937SOL    HW220448   2.641   4.428   5.730  2.0498 -0.9143 -1.4918
 2938SOL     OW20449   3.783   3.291   4.089  0.0273 -0.3700  0.4995
 2938SOL    HW120450   3.764   3.211   4.040  3.0069 -1.5600  1.2476
 2938SOL    HW220451   3.694   3.324   4.081  1.1980  2.7104 -0.0574
 2939SOL     OW20452   1.846   1.274   4.754 -0.5218  0.1807  0.1262
 2939SOL    HW120453   1.760   1.308   4.777  0.4063  1.9284  1.0380
 2939SOL    HW220454   1.881   1.247   4.839 -0.2569  2.3147  0.6891
 2940SOL     OW20455   1.899   2.475   0.566  0.5292 -0.2436  0.3121
 2940SOL    HW120456   1.854   2.543   0.616  0.7493 -1.6165  2.3935
 2940SOL    HW220457   1.955   2.453   0.641 -0.1457  0.3509  1.0012
 2941SOL     OW20458   1.196   3.879   1.051 -0.2809  0.0021  0.4440
 2941SOL    HW120459   1.273   3.922   1.088  0.3695 -0.8031  0.0188
 2941SOL    HW220460   1.130   3.949   1.051  0.0301  0.3024  2.1388
 2942SOL     OW20461   2.235   3.199   4.380 -0.0223  0.1328 -0.2146
 2942SOL    HW120462   2.187   3.133   4.330 -0.8633  1.4931 -1.2208
 2942SOL    HW220463   2.252   3.264   4.312 -2.0925 -0.4485 -1.3000
 2943SOL     OW20464   3.164   1.216   3.099  0.7546 -0.4514  0.1771
 2943SOL    HW120465   3.091   1.268   3.134  0.8619  0.0117 -0.2969
 2943SOL    HW220466   3.192   1.281   3.035  3.9400 -1.5167  0.5110
 2944SOL     OW20467   1.367   2.852   4.372 -0.3302 -0.7451  0.0471
 2944SOL    HW120468   1.422   2.776   4.354 -1.3231 -0.6761 -3.3194
 2944SOL    HW220469   1.283   2.827   4.335 -1.1524  1.4946  0.3700
 2945SOL     OW20470   1.137   0.218   5.534 -0.0297 -0.9182 -0.7896
 2945SOL    HW120471   1.085   0.265   5.468  1.4019  1.1323 -0.4504
 2945SOL    HW220472   1.228   0.244   5.518  0.2434 -2.4924 -1.8588
 2946SOL     OW20473   0.259   1.489   9.153 -0.4429 -0.0589 -0.0822
 2946SOL    HW120474   0.237   1.411   9.103  1.4132 -1.2272  0.9192
 2946SOL    HW220475   0.175   1.522   9.185  0.3156 -1.0804  2.9552
 2947SOL     OW20476   1.381   2.644   7.443 -0.3267  0.2617  0.3004
 2947SOL    HW120477   1.439   2.637   7.367  0.5726 -2.9586  1.2750
 2947SOL    HW220478   1.297   2.648   7.397  0.1958  5.0165 -0.2644
 2948SOL     OW20479   0.675   1.108  13.202 -0.0689 -0.2876  0.2145
 2948SOL    HW120480   0.704   1.047  13.269  1.1805 -0.7025 -0.7033
 2948SOL    HW220481   0.621   1.162  13.260 -0.6893 -2.0649  1.2726
 2949SOL     OW20482   3.624   4.505   7.848  0.1149  0.1920  0.1345
 2949SOL    HW120483   3.679   4.512   7.926  0.3904 -0.9226  0.0450
 2949SOL    HW220484   3.644   4.588   7.805  2.1110 -0.6670 -0.6114
 2950SOL     OW20485   3.557   3.081   8.463  0.1697  0.3098  0.1449
 2950SOL    HW120486   3.491   3.100   8.530  0.0555 -0.5324  0.2700
 2950SOL    HW220487   3.505   3.086   8.383 -0.0526 -1.6887  0.1710
 2951SOL     OW20488   1.886   3.898   4.808 -0.3197 -0.1767 -0.5677
 2951SOL    HW120489   1.958   3.836   4.821 -1.1094 -0.9635  0.0196
 2951SOL    HW220490   1.924   3.945   4.733 -0.0861  0.8534  0.1916
 2952SOL     OW20491   3.985   4.302   7.686 -0.7318 -0.7564  0.3386
 2952SOL    HW120492   4.006   4.305   7.593  0.2846 -0.1192  0.5916
 2952SOL    HW220493   4.067   4.278   7.728 -1.4135 -2.9664  0.3908
 2953SOL     OW20494   1.308   3.603   9.503 -0.8752  0.1915 -0.1884
 2953SOL    HW120495   1.320   3.511   9.482 -0.3728  0.0963  0.5053
 2953SOL    HW220496   1.370   3.610   9.576 -1.2909 -1.2214  0.2962
 2954SOL     OW20497   0.402   4.339   6.934  0.2390 -0.1979  0.0150
 2954SOL    HW120498   0.360   4.352   6.849  1.4139 -0.2674 -0.5731
 2954SOL    HW220499   0.468   4.406   6.915 -0.2926 -0.0604 -1.2929
 2955SOL     OW20500   1.709   3.731  16.151 -0.5315  0.8165 -0.7424
 2955SOL    HW120501   1.616   3.729  16.128 -1.2325  0.6427  2.1325
 2955SOL    HW220502   1.737   3.796  16.086  2.1710 -0.1250 -0.5005
 2956SOL     OW20503   3.162   1.013   3.515  0.1436  0.2071 -0.0044
 2956SOL    HW120504   3.212   1.066   3.453 -2.8283 -0.8973 -3.3543
 2956SOL    HW220505   3.228   1.021   3.584  2.4106  0.1685 -2.1815
 2957SOL     OW20506   2.048   4.061   7.571  0.6120  0.5156 -0.1934
 2957SOL    HW120507   2.038   4.009   7.650 -1.4263  1.4252  0.1486
 2957SOL    HW220508   2.061   3.997   7.501  1.0365  0.6706 -0.2592
 2958SOL     OW20509   3.700   3.155   7.243  0.0402 -0.0202 -0.2569
 2958SOL    HW120510   3.657   3.235   7.273 -0.9613 -0.3825 -0.7218
 2958SOL    HW220511   3.663   3.089   7.303 -1.8842  0.5862 -0.7797
 2959SOL     OW20512   3.091   3.919  16.421 -0.4984  0.2179  0.4782
 2959SOL    HW120513   3.128   3.955  16.340  2.2538 -1.8689  0.8096
 2959SOL    HW220514   3.168   3.887  16.468  0.4174  1.8178  0.0599
 2960SOL     OW20515   0.886   3.798   9.000  0.1345 -0.7594 -0.1219
 2960SOL    HW120516   0.882   3.715   8.952 -0.5400 -0.1740 -1.0747
 2960SOL    HW220517   0.979   3.820   8.992  0.0189 -0.3740 -0.3971
 2961SOL     OW20518   0.993   0.915   6.410 -0.0130 -0.0945 -0.0350
 2961SOL    HW120519   0.933   0.956   6.347 -0.1488 -1.8530 -1.0512
 2961SOL    HW220520   1.002   0.826   6.377 -0.8372 -1.0864  2.3797
 2962SOL     OW20521   3.562   3.754   6.665  0.1297 -0.3229 -1.0764
 2962SOL    HW120522   3.602   3.738   6.750  0.0223  0.6839 -0.8361
 2962SOL    HW220523   3.631   3.808   6.625 -0.5430 -0.2161 -2.1056
 2963SOL     OW20524   3.972   4.224   5.726 -0.7122 -0.3989 -0.5998
 2963SOL    HW120525   3.933   4.145   5.763  2.4074 -0.5142  2.4511
 2963SOL    HW220526   3.925   4.230   5.642 -0.8332  0.2931 -0.4765
 2964SOL     OW20527   2.803   1.578   5.403 -0.3617 -0.0275 -0.6275
 2964SOL    HW120528   2.859   1.598   5.479  0.4240  0.2737 -1.2883
 2964SOL    HW220529   2.718   1.564   5.445  0.5889 -1.3907  0.8647
 2965SOL     OW20530   4.511   1.096   4.845 -0.0398 -0.2902  0.1324
 2965SOL    HW120531   4.501   1.109   4.939  0.4337 -0.0257  0.1453
 2965SOL    HW220532   4.431   1.142   4.819 -0.4461 -1.8932 -1.4550
 2966SOL     OW20533   1.572   3.094   4.163 -0.3449  0.1608 -0.3361
 2966SOL    HW120534   1.592   3.169   4.219  0.3430 -0.5724  0.4067
 2966SOL    HW220535   1.576   3.023   4.227  0.5263  1.2735  0.8575
 2967SOL     OW20536   1.796   4.668  12.603 -0.8704 -0.4447  0.2993
 2967SOL    HW120537   1.759   0.019  12.614 -0.6347 -0.6580  2.7435
 2967SOL    HW220538   1.713   4.621  12.598 -1.1961  0.3477 -2.0487
 2968SOL     OW20539   2.509   1.666   7.964 -0.4649 -0.1333 -0.2190
 2968SOL    HW120540   2.541   1.700   8.048  1.7426  1.8022 -1.8536
 2968SOL    HW220541   2.571   1.701   7.900  1.0217  0.1865  1.3782
 2969SOL     OW20542   0.365   4.050   8.266 -0.1635 -0.0396  0.2067
 2969SOL    HW120543   0.296   4.109   8.297  0.2385  0.4965  0.0720
 2969SOL    HW220544   0.389   4.024   8.355 -2.0532  0.5948  0.9018
 2970SOL     OW20545   2.151   0.878   2.776  0.0503 -0.7901 -0.6373
 2970SOL    HW120546   2.086   0.822   2.817 -1.3522  0.3770 -1.2482
 2970SOL    HW220547   2.140   0.841   2.688  1.1660  1.6650 -1.8351
 2971SOL     OW20548   3.776   3.363   2.855  0.2382 -0.3212  0.4151
 2971SOL    HW120549   3.772   3.267   2.858 -0.0313 -0.2563  1.9962
 2971SOL    HW220550   3.819   3.380   2.939  1.0914 -0.5652  0.0306
 2972SOL     OW20551   3.499   0.705  17.363 -0.2768 -0.8319 -1.0214
 2972SOL    HW120552   3.540   0.714  17.449  0.7457 -1.9223 -1.3999
 2972SOL    HW220553   3.565   0.655  17.315  0.1906 -0.0132 -1.2451
 2973SOL     OW20554   2.476   0.345   5.763 -0.0368 -0.0241 -0.1336
 2973SOL    HW120555   2.449   0.303   5.682  1.7966  2.0725 -1.8214
 2973SOL    HW220556   2.424   0.426   5.762  1.7732  1.1218 -2.1466
 2974SOL     OW20557   4.081   3.209  16.530  0.0195 -0.1584  0.2166
 2974SOL    HW120558   4.141   3.140  16.501  1.5879  1.7441 -1.1302
 2974SOL    HW220559   4.129   3.234  16.609 -0.9558 -0.1430  0.7985
 2975SOL     OW20560   2.841   0.222   1.155 -0.0278 -0.0637  0.1448
 2975SOL    HW120561   2.929   0.199   1.128  0.7653  1.5516  1.3196
 2975SOL    HW220562   2.811   0.141   1.196  0.5288 -0.9039 -1.1201
 2976SOL     OW20563   3.456   2.998  12.367 -0.5860 -0.5435  0.4204
 2976SOL    HW120564   3.409   3.051  12.431 -1.2776  0.8577 -1.2563
 2976SOL    HW220565   3.524   2.960  12.422  1.0661  1.4726 -0.2079
 2977SOL     OW20566   3.877   4.040  17.407  0.1459  0.3615  0.0722
 2977SOL    HW120567   3.862   4.126  17.447 -2.3082  0.5386 -1.2084
 2977SOL    HW220568   3.964   4.018  17.441  0.0005 -0.3450 -0.0154
 2978SOL     OW20569   3.109   0.825   0.119 -0.7198 -0.3560  0.5639
 2978SOL    HW120570   3.183   0.786   0.073  0.2315  4.7883 -2.2457
 2978SOL    HW220571   3.043   0.758   0.105  0.8729 -1.4320 -1.5928
 2979SOL     OW20572   3.908   3.052  10.573 -0.0681  0.5074 -0.5821
 2979SOL    HW120573   3.836   3.022  10.519 -1.6222  1.0891  1.1702
 2979SOL    HW220574   3.863   3.070  10.655  1.2649 -0.0639  0.2864
 2980SOL     OW20575   3.172   4.386   8.936 -0.4587 -0.3700  0.5787
 2980SOL    HW120576   3.099   4.432   8.895  0.1242  2.2602  2.5174
 2980SOL    HW220577   3.166   4.404   9.030 -0.5969  1.0121  0.2973
 2981SOL     OW20578   2.724   3.842   8.165  0.3937  0.3782  0.0752
 2981SOL    HW120579   2.670   3.882   8.097 -0.2040 -0.4171  0.0705
 2981SOL    HW220580   2.801   3.808   8.119  0.5922 -0.9717  1.4129
 2982SOL     OW20581   4.189   1.016   1.330 -0.2434  0.3402  0.1603
 2982SOL    HW120582   4.223   1.053   1.411 -1.2241 -0.3346  0.8847
 2982SOL    HW220583   4.254   0.949   1.309  1.6752  2.0317  0.7924
 2983SOL     OW20584   0.694   2.941  10.550 -0.1009  0.4132  0.8280
 2983SOL    HW120585   0.658   2.853  10.551  1.3963 -0.1625  2.6507
 2983SOL    HW220586   0.623   2.995  10.585  0.6355  0.5417  2.0993
 2984SOL     OW20587   1.411   4.366   3.630  0.0119 -0.1230  0.3968
 2984SOL    HW120588   1.429   4.322   3.547  1.0400 -1.2252  1.2096
 2984SOL    HW220589   1.320   4.349   3.654 -1.0336  1.6365 -2.3598
 2985SOL     OW20590   1.072   1.353  15.946  0.3364  0.2019  0.2526
 2985SOL    HW120591   0.986   1.369  15.986  0.7425  0.7076  0.9116
 2985SOL    HW220592   1.085   1.437  15.901  1.4776 -0.1650 -0.0928
 2986SOL     OW20593   1.983   0.846   4.667  0.5543 -0.3519 -0.1935
 2986SOL    HW120594   2.039   0.851   4.744 -0.5400  4.2785  0.3173
 2986SOL    HW220595   2.027   0.897   4.599 -1.3819  1.2421 -0.2537
 2987SOL     OW20596   3.782   3.462  11.188 -0.0279 -0.2485 -0.1132
 2987SOL    HW120597   3.851   3.415  11.236 -1.0738 -0.5487  1.0878
 2987SOL    HW220598   3.713   3.434  11.248 -0.3643  1.3776  0.2514
 2988SOL     OW20599   3.750   1.366   3.582 -0.2660 -0.5454 -0.5213
 2988SOL    HW120600   3.840   1.332   3.584  0.2251  0.7848 -0.6266
 2988SOL    HW220601   3.742   1.411   3.499 -0.9556  2.5409  1.2099
 2989SOL     OW20602   1.899   2.899   1.056 -0.1228 -0.0978  0.2635
 2989SOL    HW120603   1.883   2.992   1.039 -1.4920 -0.4062 -0.1377
 2989SOL    HW220604   1.958   2.883   0.982  0.1416  1.6143  0.1038
 2990SOL     OW20605   0.799   1.289  16.625  0.0292  0.0711 -0.3700
 2990SOL    HW120606   0.714   1.324  16.654  0.7133  0.5292  1.1054
 2990SOL    HW220607   0.803   1.214  16.686  0.8124  1.2100  0.9735
 2991SOL     OW20608   0.829   3.095  13.594  0.5426  0.1024  0.3095
 2991SOL    HW120609   0.921   3.072  13.593  0.2425 -1.0855 -0.7846
 2991SOL    HW220610   0.805   3.045  13.516 -1.3391  0.3207  0.7452
 2992SOL     OW20611   1.442   4.367   9.410 -0.0814  0.4096 -0.6066
 2992SOL    HW120612   1.516   4.326   9.455 -0.1676  2.9739  1.8693
 2992SOL    HW220613   1.490   4.428   9.354  0.6714  0.1948 -0.1970
 2993SOL     OW20614   2.446   0.292   2.877 -0.4123 -0.1798 -0.0757
 2993SOL    HW120615   2.454   0.348   2.955  1.3399 -0.4727 -0.0417
 2993SOL    HW220616   2.351   0.298   2.878 -0.3317  1.1376  0.8038
 2994SOL     OW20617   2.132   4.626   9.343  0.4584  0.2664  0.1893
 2994SOL    HW120618   2.163   4.634   9.434 -0.4074 -0.0508  0.5087
 2994SOL    HW220619   2.038   4.612   9.354  0.4760  0.2062  0.2622
 2995SOL     OW20620   2.797   3.015  16.201  0.1993  0.4813 -0.5791
 2995SOL    HW120621   2.813   2.959  16.125  0.8382 -0.8306  0.5220
 2995SOL    HW220622   2.873   3.073  16.198  1.2841 -0.8960  0.5798
 2996SOL     OW20623   0.102   0.038   3.762 -0.0437 -0.5114  0.4123
 2996SOL    HW120624   0.086   0.099   3.834 -0.1078  2.6284 -2.2988
 2996SOL    HW220625   0.057   4.697   3.796 -1.4016  0.6834  1.3353
 2997SOL     OW20626   0.803   4.693   2.740  0.0815  0.5412 -0.3593
 2997SOL    HW120627   0.780   4.603   2.765  0.6679  0.3189 -0.6291
 2997SOL    HW220628   0.736   4.707   2.672 -0.5004  1.1565  0.3412
 2998SOL     OW20629   2.430   1.248   4.878  0.2478 -0.0117 -0.1246
 2998SOL    HW120630   2.524   1.248   4.894  0.3891 -2.2243 -1.0893
 2998SOL    HW220631   2.433   1.277   4.787 -0.9451 -1.6151 -0.6718
 2999SOL     OW20632   1.995   2.035  12.759  0.8068 -0.5848  0.3291
 2999SOL    HW120633   1.939   1.957  12.764 -1.0989  0.8231  0.7825
 2999SOL    HW220634   2.048   2.027  12.838 -0.0007 -0.0374  0.9243
 3000SOL     OW20635   0.996   2.703   8.593 -0.6263 -0.5685 -0.1108
 3000SOL    HW120636   1.023   2.731   8.681  1.9660 -0.5826 -0.9239
 3000SOL    HW220637   0.959   2.616   8.605  0.8503 -1.2722 -0.7758
 3001SOL     OW20638   0.231   4.615   7.483 -0.6890 -0.0545  0.0549
 3001SOL    HW120639   0.207   4.705   7.461 -2.0181 -0.4596 -0.1686
 3001SOL    HW220640   0.156   4.588   7.536 -0.6223 -1.5785 -0.6045
 3002SOL     OW20641   1.616   0.666   9.254 -0.5463 -0.9881 -0.3572
 3002SOL    HW120642   1.700   0.622   9.268  1.1089  1.6085 -2.0723
 3002SOL    HW220643   1.626   0.702   9.165  2.8281  0.2108  0.4761
 3003SOL     OW20644   0.139   4.701   8.391 -0.2830  0.0769 -0.3704
 3003SOL    HW120645   0.151   0.036   8.453  1.9838 -1.2371  0.7089
 3003SOL    HW220646   0.180   4.627   8.436 -0.4374  1.7437  2.5416
 3004SOL     OW20647   3.722   2.153   2.960 -0.0987  0.1411  0.0844
 3004SOL    HW120648   3.783   2.175   3.030  0.0843  1.1473 -0.3891
 3004SOL    HW220649   3.740   2.222   2.896  0.0146  0.3655  0.3610
 3005SOL     OW20650   2.498   0.749   8.515 -0.0064 -0.6192 -0.2037
 3005SOL    HW120651   2.523   0.657   8.524  0.7985 -0.2150  1.6897
 3005SOL    HW220652   2.584   0.789   8.503 -0.7382  0.1357 -2.8688
 3006SOL     OW20653   4.361   2.369  10.033 -0.0826  0.3597  0.0873
 3006SOL    HW120654   4.365   2.413  10.118 -1.5141  0.1343  0.2851
 3006SOL    HW220655   4.270   2.396  10.016 -0.9008 -1.3380  1.6715
 3007SOL     OW20656   0.636   3.908   7.049  0.0407 -0.4809  0.3487
 3007SOL    HW120657   0.704   3.955   7.098  0.1361 -0.4969  0.2317
 3007SOL    HW220658   0.569   3.977   7.040 -2.0120 -2.3731  1.1436
 3008SOL     OW20659   0.336   1.267   2.303 -0.4942 -0.0990  0.3360
 3008SOL    HW120660   0.409   1.318   2.340 -1.0900  0.4064  0.8269
 3008SOL    HW220661   0.275   1.251   2.375  0.0997 -0.5880  0.7232
 3009SOL     OW20662   1.315   2.672   5.729 -0.3403  0.4211  0.9384
 3009SOL    HW120663   1.221   2.692   5.729 -0.2573  0.8034  0.8219
 3009SOL    HW220664   1.306   2.612   5.803  0.1647 -0.0750  0.5958
 3010SOL     OW20665   3.774   1.812   3.844  0.0531  0.2318  0.0588
 3010SOL    HW120666   3.689   1.768   3.842  0.7802 -1.2903  2.6545
 3010SOL    HW220667   3.832   1.749   3.801  0.6831  1.1533 -0.4331
 3011SOL     OW20668   0.198   0.967  17.657  0.0205 -0.0177 -0.5057
 3011SOL    HW120669   0.247   0.907  17.602 -0.0725 -0.3505 -0.2223
 3011SOL    HW220670   0.200   0.916  17.738  2.1256  0.9536  0.0621
 3012SOL     OW20671   2.189   0.181   1.970  0.6317 -0.1854 -0.0174
 3012SOL    HW120672   2.283   0.177   1.986  0.4824  0.4272  1.0238
 3012SOL    HW220673   2.187   0.202   1.877 -1.5666 -1.0571 -0.1813
 3013SOL     OW20674   2.023   0.873  11.228  0.5929 -0.4738 -0.0958
 3013SOL    HW120675   2.017   0.863  11.133 -1.4439 -1.4988  0.1362
 3013SOL    HW220676   2.052   0.964  11.231  0.6688 -0.5474  1.3358
 3014SOL     OW20677   4.230   2.077   7.350 -0.3165 -0.5685  0.2878
 3014SOL    HW120678   4.138   2.085   7.324  0.3648 -1.5801 -2.3487
 3014SOL    HW220679   4.233   2.127   7.432  1.7943  1.4337 -0.9979
 3015SOL     OW20680   2.502   4.185   5.671  0.2582  0.4824  0.1237
 3015SOL    HW120681   2.432   4.215   5.729  0.5243  1.3479 -0.0009
 3015SOL    HW220682   2.527   4.268   5.628 -0.7015  1.1304  0.8200
 3016SOL     OW20683   0.727   1.646   3.514  0.0211  0.4661 -0.1657
 3016SOL    HW120684   0.711   1.634   3.608 -0.6275 -1.8372 -0.5717
 3016SOL    HW220685   0.812   1.691   3.522 -0.3232  1.2296 -0.8706
 3017SOL     OW20686   0.782   2.158  11.783 -0.0317 -0.6251  0.5182
 3017SOL    HW120687   0.789   2.249  11.812  1.7950 -1.8126  3.8062
 3017SOL    HW220688   0.840   2.113  11.844 -0.4860 -4.6920 -2.0852
 3018SOL     OW20689   0.334   0.418   5.163 -0.3789 -0.0095  0.1475
 3018SOL    HW120690   0.373   0.496   5.202 -1.4012  0.5280  0.1039
 3018SOL    HW220691   0.410   0.381   5.118  0.4514 -0.1362  1.6895
 3019SOL     OW20692   3.355   3.000  12.816 -0.2598  0.0807 -0.3149
 3019SOL    HW120693   3.281   3.024  12.761 -0.4406 -0.7130 -0.4257
 3019SOL    HW220694   3.430   3.015  12.758 -1.7455  0.1720 -2.2196
 3020SOL     OW20695   4.669   4.235   0.242 -0.4353 -0.2681  0.0209
 3020SOL    HW120696   4.578   4.213   0.223  0.1788 -1.3318 -1.6716
 3020SOL    HW220697   4.704   4.217   0.154  0.9208 -0.9088  0.6916
 3021SOL     OW20698   3.610   3.374   7.586 -0.5400  0.3299 -0.1233
 3021SOL    HW120699   3.674   3.385   7.656  0.6770 -0.3300 -1.1202
 3021SOL    HW220700   3.532   3.342   7.632  0.6801 -2.1965  0.1696
 3022SOL     OW20701   0.097   3.749   3.541  0.8625  0.2181 -0.0669
 3022SOL    HW120702   0.188   3.726   3.561  0.3485 -0.1794  1.7945
 3022SOL    HW220703   0.080   3.842   3.557  2.3563  0.5123 -0.1689
 3023SOL     OW20704   0.849   4.050  16.220 -0.3464 -0.2747 -0.2635
 3023SOL    HW120705   0.776   4.021  16.165 -0.1702 -0.8451 -0.2005
 3023SOL    HW220706   0.815   4.103  16.292  0.3195  1.0432 -0.9338
 3024SOL     OW20707   3.658   2.690   2.761 -0.7583 -0.0376 -0.2603
 3024SOL    HW120708   3.584   2.632   2.742  0.4911 -1.4362 -0.8032
 3024SOL    HW220709   3.727   2.648   2.710 -0.4042  3.0009 -2.2882
 3025SOL     OW20710   4.079   4.058   4.572  0.2992  0.0381 -0.1258
 3025SOL    HW120711   4.021   4.089   4.503  0.2694 -1.2400 -0.6655
 3025SOL    HW220712   4.035   4.075   4.656 -0.1122  0.9803 -0.5256
 3026SOL     OW20713   1.492   0.370   5.219 -0.8212 -0.5785  0.0304
 3026SOL    HW120714   1.397   0.376   5.215 -0.6749  2.4657  1.1139
 3026SOL    HW220715   1.509   0.337   5.131 -0.0902 -1.9072  0.6697
 3027SOL     OW20716   1.489   3.770  10.749 -0.3307 -0.6883  0.0189
 3027SOL    HW120717   1.581   3.792  10.736  0.8413 -4.1935  2.3690
 3027SOL    HW220718   1.478   3.785  10.843  2.3262 -0.5906  0.3082
 3028SOL     OW20719   0.463   3.736   2.229  0.0152  0.4720 -0.1780
 3028SOL    HW120720   0.400   3.717   2.299  0.9454  0.7623  0.7332
 3028SOL    HW220721   0.417   3.708   2.150  0.3559  2.5501 -1.1096
 3029SOL     OW20722   4.054   1.879  15.094  0.3977 -0.7761 -0.3294
 3029SOL    HW120723   4.032   1.787  15.081  1.0363 -0.9889  0.0857
 3029SOL    HW220724   4.031   1.913  15.007 -0.5087 -2.4324 -0.7377
 3030SOL     OW20725   1.703   2.859   7.757  0.3638  0.2302  0.3071
 3030SOL    HW120726   1.747   2.808   7.688  0.3900 -0.5072  0.8681
 3030SOL    HW220727   1.609   2.843   7.745  1.1716 -3.3942 -1.4016
 3031SOL     OW20728   3.591   0.455   4.731 -0.8274 -0.2998 -0.2116
 3031SOL    HW120729   3.669   0.418   4.692 -0.1476 -0.5922  1.4263
 3031SOL    HW220730   3.616   0.430   4.820 -2.6732  1.2829  0.7733
 3032SOL     OW20731   4.328   2.383   5.948 -0.0854 -0.3269 -0.4914
 3032SOL    HW120732   4.239   2.415   5.963 -0.1003  0.1286 -1.5520
 3032SOL    HW220733   4.322   2.292   5.977 -0.9982 -0.1453 -0.1196
 3033SOL     OW20734   2.398   2.346   5.222 -0.2162 -0.2380  0.0113
 3033SOL    HW120735   2.451   2.372   5.147  1.2684  0.2492  1.2127
 3033SOL    HW220736   2.308   2.337   5.190 -0.0177 -1.2779 -0.2351
 3034SOL     OW20737   0.768   3.189   5.149 -0.2559  0.4044 -0.2013
 3034SOL    HW120738   0.689   3.164   5.197  0.6945 -0.9265  0.6745
 3034SOL    HW220739   0.833   3.156   5.211  0.6207 -1.1847 -1.9743
 3035SOL     OW20740   1.538   3.204   9.233  0.3154 -0.6261  0.4520
 3035SOL    HW120741   1.491   3.287   9.218  0.7726 -0.3123  0.7699
 3035SOL    HW220742   1.625   3.219   9.195 -0.5293 -0.1699 -1.3461
 3036SOL     OW20743   3.455   3.978  17.601  0.2430  0.7575 -0.0361
 3036SOL    HW120744   3.402   4.039  17.652  1.0091  1.0048  0.4619
 3036SOL    HW220745   3.535   4.031  17.601 -0.5300  1.9211  0.4155
 3037SOL     OW20746   0.512   0.231   5.914 -0.2350 -0.1720  0.1192
 3037SOL    HW120747   0.557   0.156   5.952  0.3761  0.4056  0.5277
 3037SOL    HW220748   0.576   0.299   5.932 -1.1452 -0.1184  3.2664
 3038SOL     OW20749   0.714   4.370  11.689  0.4836 -0.3668  0.0008
 3038SOL    HW120750   0.639   4.376  11.748 -0.6123 -0.2994 -1.3826
 3038SOL    HW220751   0.684   4.300  11.630 -0.2346 -0.6563  0.7109
 3039SOL     OW20752   0.930   4.321  16.732  0.2043 -0.5864 -0.0354
 3039SOL    HW120753   1.005   4.279  16.775  0.5076  1.3728  1.3614
 3039SOL    HW220754   0.891   4.249  16.682 -0.7981  0.9342 -1.4350
 3040SOL     OW20755   1.339   0.876   1.407  0.3897 -0.0048  0.1567
 3040SOL    HW120756   1.315   0.829   1.327 -2.3926 -2.6732  2.5523
 3040SOL    HW220757   1.369   0.955   1.362 -0.4635 -0.1076 -0.6016
 3041SOL     OW20758   2.701   2.885   3.678 -0.4164 -0.3059  0.2114
 3041SOL    HW120759   2.724   2.812   3.736 -0.0353 -0.8849 -0.6555
 3041SOL    HW220760   2.704   2.843   3.591 -0.5316 -1.8167  0.9427
 3042SOL     OW20761   1.542   4.379   5.807 -0.3446 -0.1330  0.0671
 3042SOL    HW120762   1.495   4.306   5.847  0.7129 -0.3634  0.8848
 3042SOL    HW220763   1.513   4.453   5.859  0.2696  0.2411 -0.1290
 3043SOL     OW20764   3.165   3.230   3.088 -0.6886  0.0647  0.0530
 3043SOL    HW120765   3.100   3.183   3.140  1.4005  0.0001  2.5757
 3043SOL    HW220766   3.143   3.323   3.097 -1.2266  0.0578 -1.1901
 3044SOL     OW20767   3.340   1.542  13.598  0.3014 -0.3218 -0.1406
 3044SOL    HW120768   3.429   1.517  13.573  0.2411 -0.6450 -0.0380
 3044SOL    HW220769   3.352   1.593  13.678 -2.2510 -0.2989  0.2081
 3045SOL     OW20770   3.592   2.564   3.072  0.3933 -0.7759 -0.8818
 3045SOL    HW120771   3.561   2.562   3.162 -1.3691 -1.6243 -1.5057
 3045SOL    HW220772   3.517   2.606   3.029 -0.1801  1.3020  2.1654
 3046SOL     OW20773   1.222   3.304   4.659 -0.4022  0.0356 -0.5639
 3046SOL    HW120774   1.213   3.336   4.569 -0.7978 -2.5994 -1.4483
 3046SOL    HW220775   1.288   3.364   4.692 -1.5859  0.3192  1.2735
 3047SOL     OW20776   4.267   4.713   6.004 -0.3726 -0.5091 -0.1838
 3047SOL    HW120777   4.265   4.696   6.098  1.3803  0.5783  0.0464
 3047SOL    HW220778   4.200   0.044   5.993  0.3713  0.4766  1.2984
 3048SOL     OW20779   2.168   2.823  16.171 -0.3244  0.0160  0.0650
 3048SOL    HW120780   2.168   2.759  16.100 -0.9094  1.3974 -1.1986
 3048SOL    HW220781   2.258   2.856  16.172 -0.5184  0.6541 -1.7484
 3049SOL     OW20782   0.285   2.727   1.793 -0.3972 -0.1911 -0.1494
 3049SOL    HW120783   0.314   2.655   1.850  2.1142  1.2366  0.3363
 3049SOL    HW220784   0.271   2.686   1.707 -0.4706 -0.4783 -0.0024
 3050SOL     OW20785   2.838   0.669  11.474  0.0751  0.1359  0.3747
 3050SOL    HW120786   2.819   0.593  11.529 -1.5234  0.0998 -0.2182
 3050SOL    HW220787   2.812   0.643  11.386 -0.7845  1.0198  0.3594
 3051SOL     OW20788   3.234   3.856   2.515 -0.0431 -0.3365  0.2667
 3051SOL    HW120789   3.201   3.769   2.491 -1.1562  1.1512 -3.5509
 3051SOL    HW220790   3.311   3.829   2.565  0.5076  2.0786  0.6954
 3052SOL     OW20791   2.604   4.427   1.462  0.3889  0.4270 -0.4164
 3052SOL    HW120792   2.553   4.480   1.401 -2.8192 -0.8668  1.1235
 3052SOL    HW220793   2.536   4.382   1.513  1.7477  1.1900  2.0840
 3053SOL     OW20794   1.856   2.934   0.406  0.2220  0.0849  0.0866
 3053SOL    HW120795   1.873   2.887   0.487 -2.5329 -0.5583  0.3220
 3053SOL    HW220796   1.946   2.932   0.374  1.3123  0.1521  3.1962
 3054SOL     OW20797   1.396   2.421   1.079 -0.2617  0.2038  0.4270
 3054SOL    HW120798   1.310   2.441   1.043  0.0375  0.3523 -0.1959
 3054SOL    HW220799   1.372   2.402   1.170 -0.0428 -2.0229  0.0329
 3055SOL     OW20800   0.091   0.420   5.329 -0.2154 -0.2532  0.5854
 3055SOL    HW120801   0.148   0.347   5.305  1.6556  1.0575  1.1096
 3055SOL    HW220802   0.004   0.382   5.313  0.3607 -0.6769 -1.4905
 3056SOL     OW20803   1.347   4.197   9.171 -0.3801  0.0176  0.2572
 3056SOL    HW120804   1.402   4.156   9.238 -1.8300 -1.1439  0.7439
 3056SOL    HW220805   1.362   4.289   9.192 -1.4591  0.4209 -0.7525
 3057SOL     OW20806   0.410   1.831   6.877 -0.0922  0.3082  0.4484
 3057SOL    HW120807   0.416   1.916   6.921  1.3276 -0.5526  1.9574
 3057SOL    HW220808   0.384   1.864   6.791  1.4289 -0.5707 -0.3524
 3058SOL     OW20809   3.940   4.060   4.828  0.5891  0.1801 -0.1270
 3058SOL    HW120810   3.975   4.145   4.857 -0.7969  1.0282 -0.9556
 3058SOL    HW220811   3.899   4.029   4.909 -0.2267  1.8944  0.1266
 3059SOL     OW20812   4.139   1.135   3.011 -0.4391 -0.0849 -0.4247
 3059SOL    HW120813   4.165   1.065   3.071  1.4242  3.1745  2.5976
 3059SOL    HW220814   4.173   1.099   2.929 -1.1009  0.1366 -0.7887
 3060SOL     OW20815   1.196   3.619   6.668 -0.6898 -0.1271 -0.2262
 3060SOL    HW120816   1.225   3.648   6.754 -0.3232 -1.3945  0.0762
 3060SOL    HW220817   1.227   3.528   6.669  0.6270  0.3437  1.5813
 3061SOL     OW20818   1.751   4.066   4.453 -0.4111 -0.6248  0.9389
 3061SOL    HW120819   1.702   4.148   4.465  0.1820  0.3714 -3.2547
 3061SOL    HW220820   1.825   4.081   4.511  1.2643 -0.6685 -1.1722
 3062SOL     OW20821   3.096   0.026  17.710 -0.6766  0.5154  0.5844
 3062SOL    HW120822   3.086   0.045   0.059 -1.1569  1.7324  0.2793
 3062SOL    HW220823   3.002   0.024  17.693 -0.6416 -0.4854  0.5286
 3063SOL     OW20824   0.449   2.641  12.922  0.0387 -0.5144 -0.0135
 3063SOL    HW120825   0.378   2.670  12.864 -0.0393  2.2605  1.4758
 3063SOL    HW220826   0.388   2.614  12.991  2.5890  3.4232  3.7806
 3064SOL     OW20827   4.617   4.599   3.232 -0.2160 -0.2018  0.3605
 3064SOL    HW120828   4.533   4.622   3.270 -0.8883  0.5897 -1.6292
 3064SOL    HW220829   4.666   4.574   3.311  1.3778 -1.3107 -0.9698
 3065SOL     OW20830   2.852   2.051   2.880  0.3163 -0.6447  0.1740
 3065SOL    HW120831   2.870   2.136   2.918  0.4928 -0.3892 -0.4745
 3065SOL    HW220832   2.836   2.075   2.788  1.8673 -3.0977 -0.7375
 3066SOL     OW20833   3.573   2.767   0.741  0.1366  0.1365  0.0821
 3066SOL    HW120834   3.654   2.755   0.790  0.7516 -0.5581 -1.1021
 3066SOL    HW220835   3.597   2.748   0.650 -1.4867 -0.0128 -0.3114
 3067SOL     OW20836   2.507   2.625   7.649 -0.5348  0.0249  0.0178
 3067SOL    HW120837   2.454   2.693   7.607 -1.3496 -0.8214 -0.3262
 3067SOL    HW220838   2.444   2.553   7.655  0.1254 -0.7893 -3.3385
 3068SOL     OW20839   2.151   4.532   7.541 -0.2578  0.0435  0.2548
 3068SOL    HW120840   2.120   4.449   7.577  0.3551 -1.3996 -2.5246
 3068SOL    HW220841   2.150   4.573   7.628  2.2869 -2.7735  1.6046
 3069SOL     OW20842   3.920   2.620  10.032 -0.2686  0.0876 -0.4006
 3069SOL    HW120843   3.982   2.684  10.068 -1.1548  1.0457 -0.5742
 3069SOL    HW220844   3.888   2.595  10.119 -0.2443 -0.6247 -0.5966
 3070SOL     OW20845   2.791   4.509   5.228  0.0885  0.4126 -0.0430
 3070SOL    HW120846   2.697   4.515   5.216 -0.5620 -2.4734  3.4284
 3070SOL    HW220847   2.817   4.601   5.236  1.1070  0.0788  0.5641
 3071SOL     OW20848   0.398   0.233   8.276 -0.4266  0.1236 -0.5521
 3071SOL    HW120849   0.418   0.142   8.298  1.1895  0.4257 -0.7768
 3071SOL    HW220850   0.461   0.256   8.208 -0.8976  0.1674 -0.9754
 3072SOL     OW20851   3.971   4.487  15.154 -0.1783 -0.1996 -0.0498
 3072SOL    HW120852   4.062   4.473  15.128 -0.6214 -0.7960 -1.2404
 3072SOL    HW220853   3.999   4.434  15.229  0.6856 -3.3221 -2.5806
 3073SOL     OW20854   3.642   1.697   8.802 -0.0189  0.5996  0.1676
 3073SOL    HW120855   3.716   1.651   8.841  0.6518  0.1541 -1.6579
 3073SOL    HW220856   3.683   1.765   8.750  0.5960 -1.7978 -2.4659
 3074SOL     OW20857   1.762   4.416   7.651 -0.3338 -0.1325 -0.2291
 3074SOL    HW120858   1.710   4.485   7.608 -2.4304 -1.1207  0.7435
 3074SOL    HW220859   1.700   4.392   7.719 -1.6968 -0.1161 -1.4778
 3075SOL     OW20860   3.650   3.237   6.579 -0.1324  0.1700 -0.2155
 3075SOL    HW120861   3.709   3.295   6.628  0.4157 -2.4511  2.1817
 3075SOL    HW220862   3.591   3.296   6.533 -2.1645 -2.4225 -0.9020
 3076SOL     OW20863   1.717   2.919   9.424  0.1398  0.5868 -0.8782
 3076SOL    HW120864   1.808   2.934   9.398 -0.2828  1.0397 -2.1086
 3076SOL    HW220865   1.715   2.872   9.507 -2.0368  0.2208 -1.1276
 3077SOL     OW20866   3.450   2.418  13.447  0.0374  0.2935  0.5986
 3077SOL    HW120867   3.507   2.465  13.387  0.1211  1.1537  1.3606
 3077SOL    HW220868   3.362   2.413  13.408 -0.4453  0.5310  1.6324
 3078SOL     OW20869   4.701   1.418  17.529  0.2511 -0.3193 -0.2409
 3078SOL    HW120870   4.622   1.377  17.493  0.3857 -1.9366  1.3593
 3078SOL    HW220871   4.717   1.378  17.614 -2.0283  2.1473  1.3238
 3079SOL     OW20872   1.595   0.605  11.183 -0.5151  0.0351  0.0443
 3079SOL    HW120873   1.624   0.514  11.190 -0.8758  0.1388  2.7227
 3079SOL    HW220874   1.638   0.641  11.105  0.6019 -0.9365  0.2041
 3080SOL     OW20875   0.982   2.043  15.598 -0.5342  0.5108 -0.2666
 3080SOL    HW120876   1.021   2.127  15.574  0.8231  0.4571  1.7169
 3080SOL    HW220877   0.973   2.052  15.693 -0.8004  0.0725 -0.2465
 3081SOL     OW20878   2.083   1.789   4.859 -0.0867  0.1697 -0.3818
 3081SOL    HW120879   2.133   1.789   4.941 -3.1772  1.4169  1.5234
 3081SOL    HW220880   2.106   1.712   4.807  2.7946  0.2000  0.8519
 3082SOL     OW20881   4.312   3.794   1.919  0.1582 -0.0660  0.7394
 3082SOL    HW120882   4.253   3.860   1.883  1.3062  1.0507  0.9294
 3082SOL    HW220883   4.261   3.754   1.990  1.5213 -1.1342  1.1004
 3083SOL     OW20884   2.727   2.636  10.121  0.1989 -0.3191 -0.2969
 3083SOL    HW120885   2.760   2.559  10.166 -1.2048  0.1260  1.4953
 3083SOL    HW220886   2.631   2.633  10.116  0.1349  1.1533 -0.0696
 3084SOL     OW20887   0.193   1.494   6.731 -0.1512  0.0401 -0.0766
 3084SOL    HW120888   0.167   1.524   6.644  3.8048  0.6097 -1.0855
 3084SOL    HW220889   0.287   1.513   6.735 -0.7226  2.3440  2.9677
 3085SOL     OW20890   3.780   0.688   7.913  0.1322  0.1510 -0.5698
 3085SOL    HW120891   3.744   0.776   7.914  0.5733  0.3295 -0.4067
 3085SOL    HW220892   3.824   0.697   7.829 -1.2521  0.6712 -1.2466
 3086SOL     OW20893   3.493   0.370  10.095 -0.3894  0.3928 -0.5488
 3086SOL    HW120894   3.438   0.297  10.067 -0.8464  0.6136 -0.2218
 3086SOL    HW220895   3.576   0.330  10.119 -1.4157 -0.4824  1.4933
 3087SOL     OW20896   1.047   2.174   7.066  1.0376 -0.0401  0.2759
 3087SOL    HW120897   0.973   2.121   7.094 -0.0915  1.9082  1.0268
 3087SOL    HW220898   1.120   2.119   7.095  0.0390 -2.2739 -1.5414
 3088SOL     OW20899   4.207   1.360   5.557  1.0036  0.3358 -0.1198
 3088SOL    HW120900   4.154   1.321   5.488 -0.0692 -2.6346  2.3697
 3088SOL    HW220901   4.149   1.347   5.632 -0.0862 -0.9211 -1.1851
 3089SOL     OW20902   3.592   0.295  16.092 -0.1657  0.3091  0.6179
 3089SOL    HW120903   3.539   0.216  16.093  0.9513 -0.4525 -0.2673
 3089SOL    HW220904   3.533   0.369  16.079 -1.4384 -1.0107 -1.1990
 3090SOL     OW20905   0.650   0.631   7.726  0.1957 -0.1987 -0.6065
 3090SOL    HW120906   0.577   0.642   7.787  1.0805  3.4116 -0.2350
 3090SOL    HW220907   0.720   0.680   7.768  0.0540  1.0290 -1.8053
 3091SOL     OW20908   2.693   2.913  12.873 -0.8839  0.0018  0.0842
 3091SOL    HW120909   2.763   2.852  12.893 -1.2020 -0.0685  0.9624
 3091SOL    HW220910   2.693   2.911  12.777 -0.1642 -0.4216  0.0951
 3092SOL     OW20911   4.580   3.734   0.628 -0.1235  0.1533  0.6396
 3092SOL    HW120912   4.558   3.641   0.627  1.7942 -0.3056  0.6329
 3092SOL    HW220913   4.667   3.728   0.588 -0.9819  1.2209 -1.4519
 3093SOL     OW20914   2.233   2.491   5.459 -0.5857 -0.1484  0.2284
 3093SOL    HW120915   2.206   2.568   5.508 -0.8038 -0.9335  1.3310
 3093SOL    HW220916   2.151   2.455   5.424 -1.0344 -2.1185  3.3674
 3094SOL     OW20917   4.035   4.021   7.875  0.0145 -0.1538  0.2149
 3094SOL    HW120918   4.045   3.947   7.815 -1.4538  1.3511 -1.9358
 3094SOL    HW220919   4.119   4.066   7.867  0.7111 -1.5381 -0.1147
 3095SOL     OW20920   3.779   3.547   1.328  0.4978 -0.6422  0.3627
 3095SOL    HW120921   3.771   3.456   1.298  1.0585 -0.1666 -1.2820
 3095SOL    HW220922   3.782   3.543   1.423  0.1219  1.4498  0.4670
 3096SOL     OW20923   1.103   1.240   6.697  0.5003  0.1300 -0.5224
 3096SOL    HW120924   1.104   1.336   6.697  1.8712  0.1223 -1.9064
 3096SOL    HW220925   1.192   1.241   6.734  0.6333  0.3287 -0.8431
 3097SOL     OW20926   2.621   3.798   8.872  0.0609  0.4000 -0.7213
 3097SOL    HW120927   2.680   3.870   8.895 -0.0230  0.3799 -0.4337
 3097SOL    HW220928   2.533   3.827   8.898  0.1536 -1.2646  1.5071
 3098SOL     OW20929   3.708   2.214   5.718  0.3478 -0.0682 -0.1803
 3098SOL    HW120930   3.706   2.254   5.631 -0.7827  0.0538 -0.1022
 3098SOL    HW220931   3.788   2.162   5.721 -0.2936 -0.9913  0.7813
 3099SOL     OW20932   3.347   0.684   2.582  0.0985 -0.4732  0.1636
 3099SOL    HW120933   3.371   0.620   2.516  1.0668  0.2055 -0.1281
 3099SOL    HW220934   3.261   0.655   2.612 -0.2554 -1.4270 -1.8102
 3100SOL     OW20935   4.394   1.099   6.637  0.1705 -0.2740 -0.0893
 3100SOL    HW120936   4.358   1.104   6.726 -0.3111 -1.0471 -0.2379
 3100SOL    HW220937   4.364   1.010   6.618 -2.2007  0.6793 -0.8119
 3101SOL     OW20938   2.659   3.031   7.419 -0.0520  0.2813  0.1276
 3101SOL    HW120939   2.710   2.958   7.383 -1.3012 -0.2388 -0.5889
 3101SOL    HW220940   2.734   3.090   7.421  1.8078 -2.0787  0.3205
 3102SOL     OW20941   2.852   3.844   9.106 -0.1938 -0.1560 -0.0860
 3102SOL    HW120942   2.836   3.938   9.113 -2.2033 -0.6013  1.2540
 3102SOL    HW220943   2.930   3.856   9.052  0.6410  0.1311  1.1766
 3103SOL     OW20944   3.081   2.891   4.714  0.0066 -0.2287 -0.3671
 3103SOL    HW120945   3.092   2.916   4.806  3.4106 -1.2571 -0.5039
 3103SOL    HW220946   2.988   2.870   4.723 -0.3299  1.1345 -0.7498
 3104SOL     OW20947   1.642   0.887   5.133 -0.0144  0.1455 -0.1338
 3104SOL    HW120948   1.630   0.811   5.190 -0.0689  0.8526  0.7915
 3104SOL    HW220949   1.623   0.842   5.051  0.7788 -0.4376  0.0059
 3105SOL     OW20950   0.434   4.369  11.587 -0.6648  0.0367  0.8333
 3105SOL    HW120951   0.420   4.294  11.529  2.5861  0.7709 -0.9213
 3105SOL    HW220952   0.384   4.436  11.540  0.9796 -0.1439 -1.1613
 3106SOL     OW20953   2.778   0.036  13.219 -0.0793 -0.4063 -0.5452
 3106SOL    HW120954   2.815   4.732  13.141  1.6260 -0.1272  0.1318
 3106SOL    HW220955   2.811   0.126  13.217  2.4708 -1.2505  5.1455
 3107SOL     OW20956   3.286   3.149   8.334  0.4547  0.8877 -0.3626
 3107SOL    HW120957   3.277   3.221   8.396 -2.0626 -0.8494  1.2599
 3107SOL    HW220958   3.223   3.092   8.376 -0.1159  0.0320 -2.3812
 3108SOL     OW20959   4.321   3.951  11.925  0.1068  0.7236 -0.4332
 3108SOL    HW120960   4.320   4.018  11.857 -1.0837 -1.9654 -3.0393
 3108SOL    HW220961   4.373   4.004  11.986  0.8315  0.0509 -0.4696
 3109SOL     OW20962   3.607   0.361  17.685  0.3160 -0.2240 -0.1480
 3109SOL    HW120963   3.534   0.355  17.623 -0.8742 -0.1048  1.2449
 3109SOL    HW220964   3.591   0.289   0.002 -0.2834  0.9780  1.0847
 3110SOL     OW20965   2.410   1.554   4.804  0.4296  0.1701 -0.2386
 3110SOL    HW120966   2.337   1.518   4.753  1.1602  0.8724 -1.7874
 3110SOL    HW220967   2.475   1.491   4.773  0.3274  0.6519 -1.4449
 3111SOL     OW20968   1.748   1.909   7.400 -0.2460 -0.6720 -0.4913
 3111SOL    HW120969   1.803   1.938   7.473 -2.4004  1.6146  0.2493
 3111SOL    HW220970   1.818   1.870   7.348 -0.1040 -1.9295  0.6282
 3112SOL     OW20971   4.649   2.811   6.344  0.2749  0.8393  0.7226
 3112SOL    HW120972   4.596   2.871   6.398  0.3046  2.8647 -1.5111
 3112SOL    HW220973   4.625   2.726   6.382  1.6708  1.4213  2.8702
 3113SOL     OW20974   0.266   2.417  12.217  0.0826  0.5107  0.4276
 3113SOL    HW120975   0.259   2.336  12.167 -0.9557  1.0775 -0.3347
 3113SOL    HW220976   0.271   2.481  12.147  0.1999 -0.7210 -0.7044
 3114SOL     OW20977   2.052   4.677   8.305  0.2073  0.0085 -0.4545
 3114SOL    HW120978   2.101   4.640   8.378 -0.2976 -0.2589 -0.2547
 3114SOL    HW220979   2.126   4.719   8.260 -0.2947  1.4046  0.0407
 3115SOL     OW20980   3.567   1.449   4.060  0.3425 -0.4245  0.1459
 3115SOL    HW120981   3.646   1.440   4.007  0.3246 -0.5083  0.1340
 3115SOL    HW220982   3.580   1.373   4.117 -5.2475 -1.3885  0.1177
 3116SOL     OW20983   1.254   3.980   2.045  0.2424 -0.3112 -0.2532
 3116SOL    HW120984   1.307   3.933   1.981 -0.4056 -0.5469 -0.6150
 3116SOL    HW220985   1.196   3.911   2.075  1.5525 -0.5578  1.7202
 3117SOL     OW20986   4.187   4.607  10.578  0.3103 -0.3169  0.0498
 3117SOL    HW120987   4.194   4.580  10.486  1.3660  1.0995 -0.2861
 3117SOL    HW220988   4.262   4.664  10.591  0.2480  0.3183 -2.3890
 3118SOL     OW20989   0.912   2.598   6.382 -0.1868  0.1694 -0.7182
 3118SOL    HW120990   0.965   2.542   6.326 -1.6084  0.3861 -2.2917
 3118SOL    HW220991   0.837   2.544   6.406 -0.5020  0.1892 -1.6816
 3119SOL     OW20992   0.293   4.479   8.443 -0.4641 -0.8166 -0.7061
 3119SOL    HW120993   0.241   4.423   8.385  0.9874 -0.3908 -2.4107
 3119SOL    HW220994   0.344   4.405   8.476  1.0657 -0.2726 -1.8333
 3120SOL     OW20995   4.118   4.342   1.063  0.2783 -0.3189  0.4978
 3120SOL    HW120996   4.061   4.362   1.137 -0.7143 -1.4825  0.0424
 3120SOL    HW220997   4.207   4.361   1.093 -0.3689  1.4268  1.3080
 3121SOL     OW20998   3.629   4.237   4.155 -0.1459 -0.1558  0.4783
 3121SOL    HW120999   3.572   4.312   4.137  0.7711  0.7164  1.1277
 3121SOL    HW221000   3.636   4.249   4.250 -3.7364 -1.5847  0.8972
 3122SOL     OW21001   1.715   0.937   8.608  0.6264  1.1192 -0.1997
 3122SOL    HW121002   1.681   1.026   8.615 -0.8237  0.6507 -1.1562
 3122SOL    HW221003   1.657   0.907   8.538 -2.8896  3.6067  1.6663
 3123SOL     OW21004   0.233   3.497  13.828  0.0899  0.3396 -1.0711
 3123SOL    HW121005   0.296   3.425  13.824 -1.0555 -0.7035 -0.4352
 3123SOL    HW221006   0.290   3.573  13.842  0.1730 -0.0561  0.7257
 3124SOL     OW21007   2.357   1.768  16.880  0.2139  0.2911  0.1724
 3124SOL    HW121008   2.402   1.853  16.879  0.7860 -0.0286 -1.2067
 3124SOL    HW221009   2.267   1.802  16.877  0.5868  1.3620  1.3255
 3125SOL     OW21010   4.479   0.211   3.272 -0.4304 -0.6044 -0.4325
 3125SOL    HW121011   4.430   0.129   3.278 -0.9925 -0.3096 -1.0116
 3125SOL    HW221012   4.476   0.218   3.367  0.7287 -0.4560 -0.4053
 3126SOL     OW21013   4.668   0.715   8.430 -0.3178 -0.4718 -0.4843
 3126SOL    HW121014   0.013   0.747   8.391 -1.8581  0.7752 -2.6546
 3126SOL    HW221015   4.683   0.736   8.522  2.0879 -1.8548 -0.5563
 3127SOL     OW21016   2.287   0.032   1.679 -0.4560  0.7423  0.6531
 3127SOL    HW121017   2.215   4.711   1.706  1.4538 -1.5853  0.7541
 3127SOL    HW221018   2.248   0.119   1.691 -1.4798  0.4022 -0.1865
 3128SOL     OW21019   2.923   1.184   8.597 -0.5692 -0.0240  0.5748
 3128SOL    HW121020   2.841   1.154   8.637  0.2764 -1.6631  1.0598
 3128SOL    HW221021   2.930   1.124   8.523 -0.8244  0.6130  0.0376
 3129SOL     OW21022   3.539   1.712   9.052 -0.7567 -0.3262 -0.6492
 3129SOL    HW121023   3.479   1.782   9.025  1.0435 -0.3073 -4.5724
 3129SOL    HW221024   3.595   1.686   8.979 -1.3632 -0.7476 -0.9559
 3130SOL     OW21025   0.863   4.220   5.809  0.0629  0.2613 -0.3591
 3130SOL    HW121026   0.934   4.271   5.846  0.5641 -1.5759  1.2049
 3130SOL    HW221027   0.847   4.155   5.878  1.6316 -0.7594 -0.9603
 3131SOL     OW21028   0.157   3.736   8.957 -0.1802 -0.0232  0.1828
 3131SOL    HW121029   0.243   3.777   8.944  0.4879 -1.5812 -0.2782
 3131SOL    HW221030   0.163   3.684   9.038  1.3379  0.4713  0.3879
 3132SOL     OW21031   1.659   0.796   0.188  0.6552 -0.3233  0.1982
 3132SOL    HW121032   1.702   0.879   0.204 -1.4186  0.5823  1.0664
 3132SOL    HW221033   1.615   0.815   0.105 -1.6247  1.6923  1.8719
 3133SOL     OW21034   4.576   3.244   8.638 -0.2746  0.3750  0.1752
 3133SOL    HW121035   4.577   3.153   8.668 -0.7944 -0.1789 -1.4722
 3133SOL    HW221036   4.487   3.259   8.670 -0.6302 -1.2057 -0.0577
 3134SOL     OW21037   2.707   1.022  16.515 -0.7330  0.4489 -0.2585
 3134SOL    HW121038   2.689   1.012  16.609  0.3850  1.2868  0.0364
 3134SOL    HW221039   2.768   0.949  16.504 -0.6281  0.5206 -0.1566
 3135SOL     OW21040   0.341   4.075  12.616 -0.2777 -0.0838  0.0071
 3135SOL    HW121041   0.282   4.012  12.574  1.5227  0.7407 -3.8004
 3135SOL    HW221042   0.315   4.092  12.706 -2.4786 -0.0983 -0.6432
 3136SOL     OW21043   2.024   3.535   7.396 -0.5712 -0.2861  0.0659
 3136SOL    HW121044   1.951   3.557   7.338 -0.0144  0.2341 -0.4329
 3136SOL    HW221045   2.006   3.443   7.416  2.3791 -0.9549 -0.4559
 3137SOL     OW21046   0.717   0.234   6.833 -0.4167 -0.5320  0.0890
 3137SOL    HW121047   0.665   0.260   6.909  1.2183  0.9127  0.7138
 3137SOL    HW221048   0.763   0.163   6.878  0.9032  0.4286  0.2447
 3138SOL     OW21049   4.555   1.848   9.010  0.0571  0.0059  0.4611
 3138SOL    HW121050   4.574   1.855   8.917  1.0909  0.1372  0.6832
 3138SOL    HW221051   4.512   1.762   9.010 -1.1115  0.6008 -0.1846
 3139SOL     OW21052   3.049   3.635   4.249 -0.0414  0.3225 -0.2936
 3139SOL    HW121053   3.036   3.700   4.319  1.0301  0.8017 -0.5429
 3139SOL    HW221054   3.095   3.567   4.298 -0.4339  0.1570 -0.1532
 3140SOL     OW21055   3.473   1.933   3.821 -0.4323  0.1416 -0.1597
 3140SOL    HW121056   3.537   1.966   3.884 -1.3788  1.6401  0.0411
 3140SOL    HW221057   3.466   1.843   3.851  1.8338 -0.0579 -0.2277
 3141SOL     OW21058   1.932   3.650  15.573 -0.5450 -0.3355 -0.3186
 3141SOL    HW121059   1.998   3.716  15.594  0.0608 -0.6492 -1.2320
 3141SOL    HW221060   1.861   3.688  15.625 -2.1863 -0.6247 -2.3166
 3142SOL     OW21061   0.723   2.736  12.273  0.9424 -0.9695  0.7715
 3142SOL    HW121062   0.780   2.696  12.339  0.8187  0.0601  1.5036
 3142SOL    HW221063   0.643   2.696  12.309 -1.0821  1.0631 -1.5166
 3143SOL     OW21064   4.481   3.074   5.290  0.3622 -0.2670 -0.3338
 3143SOL    HW121065   4.458   3.149   5.345 -0.0507  0.0943 -0.9997
 3143SOL    HW221066   4.404   3.016   5.289 -0.7501  1.2423 -3.9698
 3144SOL     OW21067   4.713   4.566  10.404  0.0109  0.2441 -1.0145
 3144SOL    HW121068   0.056   4.555  10.351  0.4486  2.0891 -0.7536
 3144SOL    HW221069   4.705   4.478  10.440 -0.3068  0.8338  0.3322
 3145SOL     OW21070   2.525   3.372   7.170  0.0180 -0.2001  0.3841
 3145SOL    HW121071   2.432   3.368   7.195 -0.3239  1.7697 -0.5145
 3145SOL    HW221072   2.574   3.407   7.245 -0.6578 -3.9578  2.5930
 3146SOL     OW21073   2.639   2.839   7.797  0.4944 -0.0153 -0.2465
 3146SOL    HW121074   2.619   2.783   7.722  1.2891 -2.1632  1.1582
 3146SOL    HW221075   2.624   2.776   7.867 -0.4610  0.2863 -0.1759
 3147SOL     OW21076   3.255   1.151   2.244  0.4424  0.0435  0.2554
 3147SOL    HW121077   3.201   1.126   2.319  0.9358 -2.7584 -0.3464
 3147SOL    HW221078   3.288   1.232   2.282  1.8958 -0.7432  0.6374
 3148SOL     OW21079   4.068   0.884   7.366  0.6966  0.7580 -0.0562
 3148SOL    HW121080   3.975   0.880   7.345 -0.0412 -0.6944  3.3409
 3148SOL    HW221081   4.091   0.794   7.388 -1.7503  0.3687  0.8533
 3149SOL     OW21082   0.440   2.477   0.908 -0.3933 -0.1163 -0.0656
 3149SOL    HW121083   0.384   2.480   0.830 -0.3486  2.1396 -0.0203
 3149SOL    HW221084   0.495   2.402   0.886  0.5295  0.4798  0.2262
 3150SOL     OW21085   4.213   4.083   8.721  0.4658  0.0525 -0.4727
 3150SOL    HW121086   4.269   4.048   8.790  0.3027  1.2332  0.2570
 3150SOL    HW221087   4.148   4.134   8.769  1.2306  1.2540 -0.7277
 3151SOL     OW21088   3.491   1.688   3.919  0.7934  0.7178 -0.2547
 3151SOL    HW121089   3.478   1.613   3.862 -1.8319  1.7222 -0.9867
 3151SOL    HW221090   3.508   1.639   3.999  0.7464  0.5432 -0.3515
 3152SOL     OW21091   1.148   4.386   6.852 -0.2402 -0.2947 -0.1024
 3152SOL    HW121092   1.196   4.468   6.860 -0.3699 -0.3419  1.2575
 3152SOL    HW221093   1.172   4.332   6.928  1.2942  1.4729  0.6756
 3153SOL     OW21094   0.155   0.551  12.396 -0.3395 -0.1569  0.1821
 3153SOL    HW121095   0.115   0.514  12.475 -0.5914  1.7568  0.9619
 3153SOL    HW221096   0.191   0.632  12.433 -0.9562  0.3074 -0.2476
 3154SOL     OW21097   3.490   3.485  16.598  0.2538 -0.2143  0.1886
 3154SOL    HW121098   3.443   3.553  16.549  0.3899  0.3448  0.8368
 3154SOL    HW221099   3.435   3.410  16.573 -0.5268 -0.2022  1.8742
 3155SOL     OW21100   4.369   4.306   7.617 -0.3280 -0.1053 -0.2140
 3155SOL    HW121101   4.413   4.244   7.558  0.8583  0.1159  0.4330
 3155SOL    HW221102   4.335   4.358   7.545  2.1854 -1.8132 -2.6453
 3156SOL     OW21103   3.542   3.804   3.262 -0.0934  0.3700 -0.2866
 3156SOL    HW121104   3.536   3.735   3.328  1.1904 -0.9470 -1.5413
 3156SOL    HW221105   3.480   3.866   3.300  0.4585  0.9857 -0.3748
 3157SOL     OW21106   1.723   2.907   5.740  0.5678 -0.1473 -0.2645
 3157SOL    HW121107   1.772   2.974   5.787  0.5463 -0.9413  0.8812
 3157SOL    HW221108   1.662   2.874   5.806  0.9096 -0.7561 -0.2590
 3158SOL     OW21109   1.387   2.628   5.449  0.3715 -0.0961 -0.0989
 3158SOL    HW121110   1.303   2.674   5.440 -0.6603 -2.1316 -1.0171
 3158SOL    HW221111   1.410   2.635   5.542 -3.1394  1.1062  0.6942
 3159SOL     OW21112   0.903   1.021   4.284 -0.3032 -0.0143 -0.4826
 3159SOL    HW121113   0.934   0.964   4.355  0.3143 -0.4260 -1.0762
 3159SOL    HW221114   0.867   0.956   4.223 -0.5232 -0.8866  0.5741
 3160SOL     OW21115   0.583   1.248   8.817 -0.2297 -0.0002  0.5387
 3160SOL    HW121116   0.627   1.259   8.901  0.3574 -0.0114  0.2329
 3160SOL    HW221117   0.603   1.158   8.792 -0.7707  0.0473 -0.0743
 3161SOL     OW21118   2.546   0.049  13.764 -0.2486  0.7571 -0.3537
 3161SOL    HW121119   2.526   0.061  13.857  2.8784 -1.1135  0.5522
 3161SOL    HW221120   2.639   0.072  13.759 -0.4223  1.5283 -0.1331
 3162SOL     OW21121   1.245   0.885   4.291 -0.1128  0.1311  0.8468
 3162SOL    HW121122   1.298   0.910   4.215 -1.1427  0.8445  0.3589
 3162SOL    HW221123   1.256   0.961   4.347  0.1369  0.8916 -0.2241
 3163SOL     OW21124   3.327   0.746  13.806 -0.3508  0.2712  0.2189
 3163SOL    HW121125   3.320   0.718  13.715 -0.5308  1.3501 -0.1067
 3163SOL    HW221126   3.423   0.750  13.815 -0.3711 -0.7546  0.8289
 3164SOL     OW21127   0.415   3.781   3.772 -0.0904  0.1964  0.1361
 3164SOL    HW121128   0.388   3.697   3.736  1.1257 -0.9476  1.9283
 3164SOL    HW221129   0.510   3.769   3.771 -0.1600 -0.4137  1.3391
 3165SOL     OW21130   2.213   4.207  12.277  0.3597 -0.2869  0.3081
 3165SOL    HW121131   2.164   4.286  12.255  0.8134 -0.6487 -2.0123
 3165SOL    HW221132   2.293   4.247  12.312  1.2452 -1.3434 -0.5158
 3166SOL     OW21133   1.772   1.538   3.755  0.4527 -0.7141 -0.2637
 3166SOL    HW121134   1.740   1.487   3.681 -1.3492 -0.5382  0.3782
 3166SOL    HW221135   1.848   1.485   3.779  1.3061  0.4014 -0.5111
 3167SOL     OW21136   4.445   2.636  15.619  0.0316 -0.0988  0.2156
 3167SOL    HW121137   4.408   2.574  15.555  1.6407  0.4252 -1.2071
 3167SOL    HW221138   4.409   2.610  15.704  4.3105 -1.3248  1.6329
 3168SOL     OW21139   0.054   3.635  15.457  0.3354 -0.4662 -0.4979
 3168SOL    HW121140   4.704   3.672  15.442  0.5138 -0.4769 -1.5533
 3168SOL    HW221141   0.106   3.706  15.419 -1.4288  1.4857  0.7589
 3169SOL     OW21142   3.564   0.214   3.067  0.1556 -0.6114  0.2748
 3169SOL    HW121143   3.652   0.210   3.105  0.0187 -0.1625  0.6473
 3169SOL    HW221144   3.543   0.307   3.074  1.2630 -0.3641  0.4084
 3170SOL     OW21145   2.467   4.012   9.664  0.3291 -0.2936  0.4101
 3170SOL    HW121146   2.443   4.095   9.624 -0.9658 -1.1482 -0.5766
 3170SOL    HW221147   2.559   4.031   9.683  0.3326 -1.0704  1.1664
 3171SOL     OW21148   0.375   1.465   6.071  0.2791 -0.3474  0.2314
 3171SOL    HW121149   0.329   1.390   6.034 -1.6991  0.7142  0.5587
 3171SOL    HW221150   0.457   1.474   6.022 -0.7883 -1.8497 -1.7877
 3172SOL     OW21151   0.956   1.134   5.838 -0.0143 -0.2530 -0.1361
 3172SOL    HW121152   0.895   1.096   5.775 -0.1940  0.1283 -0.1979
 3172SOL    HW221153   0.894   1.185   5.891 -1.3113  0.5056 -2.4180
 3173SOL     OW21154   1.379   4.622  14.149 -0.1788  0.3278 -0.8054
 3173SOL    HW121155   1.313   4.555  14.132 -0.8058  0.2965  1.6802
 3173SOL    HW221156   1.461   4.579  14.126 -0.9210 -0.7768 -1.3827
 3174SOL     OW21157   3.049   1.991   3.862 -0.0194  0.0568 -0.6257
 3174SOL    HW121158   3.073   2.028   3.947  2.1390  1.5517 -1.8618
 3174SOL    HW221159   3.021   1.902   3.883 -3.2097  1.0839 -0.6251
 3175SOL     OW21160   4.714   1.555  10.308  0.0031 -0.4525  0.3281
 3175SOL    HW121161   0.059   1.509  10.328  0.3777 -0.2498 -0.7330
 3175SOL    HW221162   4.689   1.538  10.217 -0.8236  0.0891  0.4516
 3176SOL     OW21163   2.672   4.145   8.640 -0.3626 -0.4379  0.1221
 3176SOL    HW121164   2.714   4.161   8.725 -0.7193 -0.5038  0.3096
 3176SOL    HW221165   2.732   4.074   8.617 -2.2675 -1.8803 -0.4001
 3177SOL     OW21166   4.662   3.454   5.849  0.0554 -0.4289  0.0532
 3177SOL    HW121167   4.685   3.523   5.787  0.7355  0.0488  0.8519
 3177SOL    HW221168   4.725   3.383   5.846  0.3910 -0.1657  0.8574
 3178SOL     OW21169   2.867   1.319   5.613 -0.5447 -0.5335 -0.3848
 3178SOL    HW121170   2.796   1.265   5.578 -1.5616  0.9922 -0.6551
 3178SOL    HW221171   2.823   1.376   5.676  1.6055 -0.5848  1.1802
 3179SOL     OW21172   3.577   3.974   9.019 -0.0410  0.2918 -0.1919
 3179SOL    HW121173   3.634   4.048   9.040 -1.5151  1.8681 -1.8301
 3179SOL    HW221174   3.520   4.014   8.954 -0.5746 -0.1590 -0.0017
 3180SOL     OW21175   1.849   3.342   9.062 -0.5504 -0.1490  0.2497
 3180SOL    HW121176   1.816   3.406   8.998  0.0446  0.5602  0.6473
 3180SOL    HW221177   1.941   3.338   9.035  0.0996  1.1090  2.2868
 3181SOL     OW21178   1.177   0.369  16.378 -0.5817 -0.0566 -0.1515
 3181SOL    HW121179   1.125   0.410  16.448 -0.2478  0.4124 -0.1778
 3181SOL    HW221180   1.114   0.305  16.344 -0.5464  0.0051 -0.3292
 3182SOL     OW21181   3.337   1.699   5.032  0.3941 -0.0154  0.1061
 3182SOL    HW121182   3.297   1.637   5.093 -1.2215  0.4818 -0.4395
 3182SOL    HW221183   3.329   1.779   5.084 -1.8834  0.1182 -0.4250
 3183SOL     OW21184   2.629   1.431   5.120 -0.5167  0.8886 -0.1732
 3183SOL    HW121185   2.601   1.504   5.063 -2.4125  0.1842 -0.1665
 3183SOL    HW221186   2.562   1.435   5.188 -1.9996  0.0300 -1.5803
 3184SOL     OW21187   1.852   3.780   1.868 -0.4787 -0.5623 -0.0278
 3184SOL    HW121188   1.913   3.835   1.917 -1.3441  0.9273 -0.6256
 3184SOL    HW221189   1.903   3.753   1.791 -2.3696 -0.9294 -1.1549
 3185SOL     OW21190   3.343   1.150   3.980  0.1223  0.0672  0.7219
 3185SOL    HW121191   3.329   1.231   4.028 -1.0399 -0.6086  1.5367
 3185SOL    HW221192   3.401   1.109   4.044  1.9826  0.5961 -0.6444
 3186SOL     OW21193   1.029   4.066   2.994  0.1535 -0.4960  0.1000
 3186SOL    HW121194   1.013   3.972   2.986 -1.5691 -0.0231 -1.9836
 3186SOL    HW221195   1.048   4.084   3.087  1.3516  2.6070 -0.7135
 3187SOL     OW21196   2.323   3.373   2.653  0.4328  0.2261 -0.2317
 3187SOL    HW121197   2.404   3.326   2.635  1.5323  2.0837 -0.0916
 3187SOL    HW221198   2.334   3.442   2.588  0.7191  1.2631  0.9264
 3188SOL     OW21199   4.669   3.540   3.045 -0.9111 -0.3400 -0.3798
 3188SOL    HW121200   4.627   3.612   3.093  0.8288  0.1684  0.3987
 3188SOL    HW221201   4.608   3.535   2.971 -0.3118 -1.8877 -0.7643
 3189SOL     OW21202   1.825   2.684   3.092 -0.4761  0.2518 -0.1847
 3189SOL    HW121203   1.824   2.603   3.143  0.8408 -0.6620 -1.6028
 3189SOL    HW221204   1.740   2.683   3.048  0.6198  1.6807 -2.3283
 3190SOL     OW21205   4.040   2.496   5.486 -0.2517 -0.1953 -0.1811
 3190SOL    HW121206   4.055   2.507   5.580 -0.3608  3.0086 -0.5408
 3190SOL    HW221207   4.095   2.563   5.446 -1.7901  0.2788 -1.5429
 3191SOL     OW21208   0.556   3.481  15.542  0.0089 -0.2039  0.3497
 3191SOL    HW121209   0.491   3.537  15.586 -2.0561 -2.0591 -0.3489
 3191SOL    HW221210   0.521   3.479  15.453  2.3239  0.1008 -0.5544
 3192SOL     OW21211   4.650   2.283  14.764 -0.4017  0.1817 -0.2929
 3192SOL    HW121212   4.595   2.233  14.824  1.3894  0.2227  1.3839
 3192SOL    HW221213   4.668   2.216  14.697 -2.9135 -0.9948  0.2006
 3193SOL     OW21214   4.587   4.341   0.613 -0.2790 -0.0088  0.5016
 3193SOL    HW121215   4.597   4.417   0.557  2.5960 -0.4489  0.4355
 3193SOL    HW221216   4.504   4.359   0.658 -0.8525 -1.6169  0.1045
 3194SOL     OW21217   4.001   1.350   6.696  0.3605  0.0426 -0.0275
 3194SOL    HW121218   4.063   1.281   6.719  0.3103 -0.1492 -0.4490
 3194SOL    HW221219   3.923   1.310   6.733  1.7521  0.0617  2.9116
 3195SOL     OW21220   3.972   3.705   9.356 -0.0498  0.0899 -0.0125
 3195SOL    HW121221   4.042   3.658   9.312 -0.3254  2.1739 -2.6602
 3195SOL    HW221222   3.997   3.794   9.330  2.8279  0.2542  3.1500
 3196SOL     OW21223   3.847   2.314   9.793 -0.0150  0.2776 -0.8185
 3196SOL    HW121224   3.798   2.293   9.872  1.5966  3.4326  0.9970
 3196SOL    HW221225   3.779   2.360   9.744  0.9873  2.9874  0.3405
 3197SOL     OW21226   3.023   3.105   2.741 -0.4888  0.2272 -0.0948
 3197SOL    HW121227   3.089   3.054   2.694 -1.6873 -2.0688  0.6782
 3197SOL    HW221228   2.995   3.165   2.672 -0.4859  0.6517  0.2719
 3198SOL     OW21229   1.444   4.609   5.364  0.3563 -0.2091 -0.5492
 3198SOL    HW121230   1.394   4.527   5.369 -0.1754  0.0629 -1.5439
 3198SOL    HW221231   1.490   4.607   5.280  1.7175  1.3021  0.1650
 3199SOL     OW21232   3.071   3.443   8.965  0.0270  0.2495 -0.7101
 3199SOL    HW121233   3.134   3.376   8.939 -1.4165 -1.1057 -0.6900
 3199SOL    HW221234   3.119   3.526   8.954 -0.1554  0.6824  1.7438
 3200SOL     OW21235   3.886   3.791   6.083 -0.3563 -0.2886  0.1623
 3200SOL    HW121236   3.856   3.718   6.029  0.3416 -1.8226  1.8447
 3200SOL    HW221237   3.967   3.814   6.037 -1.8880  1.6666 -1.5441
 3201SOL     OW21238   1.532   1.722   6.222  0.4065 -0.0664  0.1529
 3201SOL    HW121239   1.597   1.651   6.230 -1.7021 -2.1303 -1.1334
 3201SOL    HW221240   1.460   1.676   6.264 -0.8095  1.3428 -0.4242
 3202SOL     OW21241   1.550   1.586   5.138  0.0132 -0.0758 -0.4157
 3202SOL    HW121242   1.633   1.629   5.119  0.1820  0.5485  1.6252
 3202SOL    HW221243   1.512   1.655   5.194 -0.9860  0.8004 -2.1735
 3203SOL     OW21244   0.330   0.628   5.348 -0.0710  0.3790 -0.4548
 3203SOL    HW121245   0.401   0.571   5.378  0.4626  0.5057 -1.5032
 3203SOL    HW221246   0.258   0.565   5.341  0.4774 -0.2007 -0.8417
 3204SOL     OW21247   3.747   2.813   7.489 -0.6649 -0.1158  0.3316
 3204SOL    HW121248   3.745   2.827   7.584 -0.3109 -2.8105  0.7473
 3204SOL    HW221249   3.691   2.884   7.457  2.0259  1.2461 -1.2563
 3205SOL     OW21250   3.673   4.712  10.046  1.2605 -0.0569 -0.2659
 3205SOL    HW121251   3.690   0.053  10.099 -0.5401 -0.0712  0.3264
 3205SOL    HW221252   3.758   4.708  10.002  0.7250 -0.1742 -1.2833
 3206SOL     OW21253   1.164   2.706   8.333  1.1371  0.0955 -0.2001
 3206SOL    HW121254   1.138   2.625   8.289 -0.4865 -1.1587  3.0477
 3206SOL    HW221255   1.131   2.701   8.423  0.9452  2.7583 -0.1171
 3207SOL     OW21256   0.595   3.318   4.942  0.3531 -0.6901  0.0185
 3207SOL    HW121257   0.655   3.278   5.005  1.5988 -0.7480 -1.1951
 3207SOL    HW221258   0.533   3.246   4.931 -0.7771  0.3046 -0.0915
 3208SOL     OW21259   4.263   0.247   1.959 -0.1269 -0.9502  0.6483
 3208SOL    HW121260   4.171   0.221   1.971 -0.3536 -0.5643 -0.2435
 3208SOL    HW221261   4.315   0.191   2.017 -2.2762 -3.4305  0.2023
 3209SOL     OW21262   2.144   3.619   5.843 -0.0898 -0.0795 -0.6894
 3209SOL    HW121263   2.108   3.582   5.762  1.8740  0.2544 -1.7144
 3209SOL    HW221264   2.161   3.710   5.817  1.2432  0.1123  0.8373
 3210SOL     OW21265   2.039   2.091  11.432  0.0283 -0.6700 -0.1322
 3210SOL    HW121266   2.057   2.083  11.526 -0.1098 -0.5403 -0.0944
 3210SOL    HW221267   2.044   2.185  11.416  0.4248 -0.3588  1.7429
 3211SOL     OW21268   2.398   1.674   3.469 -0.1760 -0.2521 -0.3229
 3211SOL    HW121269   2.313   1.644   3.502  0.9329 -3.1019 -0.0648
 3211SOL    HW221270   2.422   1.590   3.428  0.5601 -0.7424  1.0784
 3212SOL     OW21271   0.803   1.082   9.263 -0.5710 -0.0295  0.1020
 3212SOL    HW121272   0.714   1.086   9.227  0.4754  2.0388 -2.2908
 3212SOL    HW221273   0.820   1.176   9.263  1.7716 -0.4525 -0.6848
 3213SOL     OW21274   3.609   2.902   8.195  0.2962  0.4792  0.6711
 3213SOL    HW121275   3.627   2.931   8.106  2.3430  0.9057  1.2208
 3213SOL    HW221276   3.513   2.895   8.197  0.2601  1.0341  1.0176
 3214SOL     OW21277   4.033   1.173   1.675  0.1224 -0.1958  0.3469
 3214SOL    HW121278   3.985   1.164   1.758  0.4226  0.3182  0.5752
 3214SOL    HW221279   4.019   1.265   1.652  0.1244 -0.1934  0.3553
 3215SOL     OW21280   4.551   0.065   8.210 -0.0235  0.0256 -0.6845
 3215SOL    HW121281   4.576   4.714   8.241 -2.9272 -0.5149  0.1089
 3215SOL    HW221282   4.509   0.039   8.128 -1.3725 -1.8069  0.5810
 3216SOL     OW21283   1.994   0.271   2.711 -0.4332  0.0011  0.1202
 3216SOL    HW121284   2.082   0.239   2.733 -0.2242  1.2919  1.1256
 3216SOL    HW221285   1.944   0.239   2.786 -0.5075  0.0575  0.0952
 3217SOL     OW21286   3.773   3.386   3.707 -0.1850  0.6580 -0.1043
 3217SOL    HW121287   3.704   3.332   3.747 -0.1478  0.8086  0.1601
 3217SOL    HW221288   3.755   3.473   3.742 -0.5123  0.6063 -0.1383
 3218SOL     OW21289   3.208   3.542  14.914 -0.0456 -0.0566  0.1948
 3218SOL    HW121290   3.155   3.554  14.835 -2.0110 -3.3339  1.0103
 3218SOL    HW221291   3.133   3.528  14.970  0.6071 -1.1524  0.8060
 3219SOL     OW21292   3.909   4.625  13.324 -0.1519  0.7414  0.4884
 3219SOL    HW121293   3.967   4.699  13.338  1.6041 -0.5825  0.1894
 3219SOL    HW221294   3.928   4.573  13.402 -0.6420 -2.3333 -1.4619
 3220SOL     OW21295   2.326   3.622   8.751 -0.0958 -0.1941  0.3904
 3220SOL    HW121296   2.353   3.707   8.785 -0.0001 -0.7567  1.7715
 3220SOL    HW221297   2.386   3.625   8.677 -0.3966 -0.2475  0.1473
 3221SOL     OW21298   1.078   4.246   1.566  0.2125 -0.6381  0.2317
 3221SOL    HW121299   0.998   4.298   1.553  0.3289 -0.2467  1.0639
 3221SOL    HW221300   1.143   4.316   1.573 -0.5756  0.0805  0.3652
 3222SOL     OW21301   4.309   0.292   4.673  0.5908  0.0980  0.3743
 3222SOL    HW121302   4.397   0.266   4.700  1.6304  3.4200  0.1902
 3222SOL    HW221303   4.312   0.266   4.581  3.7551  0.2337  0.4495
 3223SOL     OW21304   3.957   2.302   8.302 -0.8734 -0.1945  0.4301
 3223SOL    HW121305   3.886   2.366   8.295  1.1416  1.6428 -3.3665
 3223SOL    HW221306   3.969   2.304   8.207  0.5412 -2.2868  0.5644
 3224SOL     OW21307   0.343   2.659   7.338 -0.2237 -1.2705 -0.6128
 3224SOL    HW121308   0.337   2.710   7.419 -0.1713 -0.8982 -0.8424
 3224SOL    HW221309   0.289   2.716   7.283 -1.0522 -2.1182 -0.6869
 3225SOL     OW21310   2.081   2.460   6.866  0.1065  0.4746  0.0759
 3225SOL    HW121311   2.062   2.458   6.772  0.3028  2.9709 -0.0203
 3225SOL    HW221312   2.126   2.544   6.861 -0.0023  0.3819 -2.5135
 3226SOL     OW21313   0.855   1.054  12.582 -0.2929 -0.6153 -0.3680
 3226SOL    HW121314   0.763   1.073  12.568 -0.2270 -0.0788 -0.0875
 3226SOL    HW221315   0.892   1.088  12.500  0.1110 -0.4785 -0.1335
 3227SOL     OW21316   4.203   0.400  12.364 -0.2036 -0.0870  0.3909
 3227SOL    HW121317   4.271   0.435  12.421  0.0172  1.5922 -0.8981
 3227SOL    HW221318   4.166   0.479  12.324  1.4732 -0.0098 -1.0372
 3228SOL     OW21319   3.990   0.397   1.073  0.4430 -0.2352  0.5321
 3228SOL    HW121320   3.953   0.330   1.130  1.0196 -2.7904 -2.1379
 3228SOL    HW221321   3.971   0.350   0.992  1.0022 -4.0418  2.6372
 3229SOL     OW21322   3.706   2.090  11.162  0.3359 -0.4794  0.6134
 3229SOL    HW121323   3.799   2.111  11.157 -0.4489  3.1143  1.6436
 3229SOL    HW221324   3.715   2.016  11.223  0.1228  0.8255  2.2069
 3230SOL     OW21325   1.806   3.359   5.166 -0.1896 -0.2442 -0.1483
 3230SOL    HW121326   1.729   3.338   5.113 -0.4180 -2.7431  1.1775
 3230SOL    HW221327   1.825   3.447   5.133 -2.2410  0.3930  0.3606
 3231SOL     OW21328   1.620   3.161   8.496  0.1553  0.0506  0.2341
 3231SOL    HW121329   1.611   3.251   8.466  3.9792  0.3220 -0.1028
 3231SOL    HW221330   1.624   3.162   8.592 -3.2626  0.2930  0.3874
 3232SOL     OW21331   3.098   3.293   7.533 -0.0433  0.6705 -0.3459
 3232SOL    HW121332   3.078   3.343   7.612  0.8452 -2.3674  1.8035
 3232SOL    HW221333   3.119   3.206   7.566 -1.1080 -0.1964 -1.9236
 3233SOL     OW21334   2.747   1.932   3.154 -0.0856  0.5795 -0.3693
 3233SOL    HW121335   2.772   1.850   3.197  2.0049  2.7308  2.4863
 3233SOL    HW221336   2.829   1.980   3.165  0.2552 -0.0246 -0.2911
 3234SOL     OW21337   1.540   4.357   7.813  0.2000 -0.1895 -0.4214
 3234SOL    HW121338   1.503   4.279   7.852 -2.3789  0.3905 -1.7314
 3234SOL    HW221339   1.564   4.403   7.893 -0.7216  0.0699 -0.2986
 3235SOL     OW21340   1.249   0.849   5.563  0.4205 -0.4897  0.6802
 3235SOL    HW121341   1.321   0.830   5.503  2.2329 -0.0252  2.6928
 3235SOL    HW221342   1.230   0.941   5.543 -0.1978 -0.5631  0.9038
 3236SOL     OW21343   3.917   1.137   1.906  0.4970  0.1139 -0.2148
 3236SOL    HW121344   3.978   1.097   1.968  1.0932 -1.3903 -1.7659
 3236SOL    HW221345   3.858   1.188   1.961  1.6880  0.2215  0.9710
 3237SOL     OW21346   3.261   2.898  16.469 -0.2793 -0.7756  0.3716
 3237SOL    HW121347   3.276   2.944  16.386 -2.4164 -3.4711 -1.5135
 3237SOL    HW221348   3.167   2.907  16.484 -0.4377 -1.4470 -0.2103
 3238SOL     OW21349   2.134   0.205   2.407  0.5013 -0.2733 -0.3678
 3238SOL    HW121350   2.043   0.234   2.397  0.2827 -1.1336 -0.8745
 3238SOL    HW221351   2.152   0.210   2.501 -1.2003 -0.7833 -0.0128
 3239SOL     OW21352   4.372   3.004   2.894  0.4768  0.5795 -0.2697
 3239SOL    HW121353   4.374   3.001   2.990 -1.0062 -1.0282 -0.2864
 3239SOL    HW221354   4.315   2.932   2.866 -0.3369  1.2787 -0.3998
 3240SOL     OW21355   4.062   0.726   3.676 -0.2672  0.2961 -0.4756
 3240SOL    HW121356   4.108   0.750   3.595  1.5565 -0.3157  0.3662
 3240SOL    HW221357   4.017   0.810   3.684 -1.3509 -0.1727 -1.7603
 3241SOL     OW21358   3.067   4.439   8.010 -0.0910 -0.0429 -0.3150
 3241SOL    HW121359   3.154   4.399   8.009 -0.7564 -1.4957 -1.3332
 3241SOL    HW221360   3.041   4.403   7.925  0.4654  1.5240 -1.1280
 3242SOL     OW21361   4.534   4.476   6.165  0.5589  0.0290 -0.5820
 3242SOL    HW121362   4.565   4.472   6.074 -2.4185 -0.6001 -1.5653
 3242SOL    HW221363   4.582   4.550   6.201 -0.3973  0.5298 -0.3521
 3243SOL     OW21364   2.254   2.641  16.850  0.0546  0.0985  0.0991
 3243SOL    HW121365   2.272   2.733  16.867  0.2009  0.1367 -0.2617
 3243SOL    HW221366   2.331   2.603  16.893  1.2683  1.9561 -0.4440
 3244SOL     OW21367   4.325   2.790   4.664 -0.0247 -0.4058  0.0857
 3244SOL    HW121368   4.298   2.849   4.593  4.3418  1.4834  0.0012
 3244SOL    HW221369   4.246   2.788   4.718 -0.4057  1.4614 -0.3896
 3245SOL     OW21370   2.085   2.767   5.951 -0.5431 -0.2068 -0.7777
 3245SOL    HW121371   2.179   2.776   5.933 -0.5114 -0.0282 -0.5255
 3245SOL    HW221372   2.092   2.800   6.041  0.3528 -1.4525 -0.3885
 3246SOL     OW21373   4.701   2.853   3.076  0.1329  0.3921  0.5585
 3246SOL    HW121374   0.055   2.881   3.083  1.0036 -1.0552 -5.2931
 3246SOL    HW221375   4.679   2.901   2.997  1.6374 -1.8741 -1.2289
 3247SOL     OW21376   3.002   0.777   6.504 -0.0550 -0.0270 -0.5155
 3247SOL    HW121377   3.035   0.689   6.487 -1.0684 -0.2234 -1.5177
 3247SOL    HW221378   2.911   0.772   6.475  0.8204 -0.5943 -3.2299
 3248SOL     OW21379   1.039   0.903  14.691  0.1577 -0.0894 -0.8848
 3248SOL    HW121380   0.975   0.869  14.755  3.0650  0.8167  2.5127
 3248SOL    HW221381   1.027   0.997  14.678  1.2575  0.2266  0.3389
 3249SOL     OW21382   3.881   0.919   3.687 -0.1925  0.6539 -0.9903
 3249SOL    HW121383   3.856   1.003   3.725 -0.8494 -0.0543  0.1706
 3249SOL    HW221384   3.797   0.890   3.651 -0.3428 -1.0986  0.7421
 3250SOL     OW21385   1.568   1.144   6.017 -0.3905  0.0168  0.4719
 3250SOL    HW121386   1.516   1.075   5.974  0.6720 -0.2153 -0.4530
 3250SOL    HW221387   1.658   1.142   5.984 -0.4163 -0.2785  0.4172
 3251SOL     OW21388   1.106   1.148   9.199  0.1675  0.1191  0.8495
 3251SOL    HW121389   1.098   1.053   9.211  3.0830 -0.3768 -1.2600
 3251SOL    HW221390   1.087   1.173   9.289  0.3660  0.5918  0.7561
 3252SOL     OW21391   0.508   3.502   8.282  0.5183 -0.3254 -0.3173
 3252SOL    HW121392   0.597   3.487   8.314  0.2156 -2.3583 -0.4236
 3252SOL    HW221393   0.505   3.597   8.292  0.4688 -0.2451 -1.1566
 3253SOL     OW21394   0.220   0.108   6.392  0.1068 -0.3526 -0.4801
 3253SOL    HW121395   0.221   0.138   6.484  1.2603  1.3411 -1.0337
 3253SOL    HW221396   0.177   0.023   6.403  1.9869 -1.4865 -1.9839
 3254SOL     OW21397   3.138   4.090   9.963  0.2487 -0.5934  0.5704
 3254SOL    HW121398   3.170   4.005   9.993 -0.6624 -1.9547 -2.2465
 3254SOL    HW221399   3.206   4.129   9.908 -0.2907 -0.5653 -0.0814
 3255SOL     OW21400   4.508   4.050   5.876  0.1607  0.2572 -0.2020
 3255SOL    HW121401   4.432   4.000   5.846 -0.9385 -0.4431  3.7482
 3255SOL    HW221402   4.471   4.135   5.901  1.3542  0.1784  1.8958
 3256SOL     OW21403   1.124   2.648   6.549 -0.0058 -0.0639  0.0380
 3256SOL    HW121404   1.047   2.592   6.534  0.5641 -0.5169 -1.2386
 3256SOL    HW221405   1.190   2.601   6.498 -0.7979 -0.9805 -0.1626
 3257SOL     OW21406   2.095   0.486   2.392 -0.7452  0.4194 -0.3871
 3257SOL    HW121407   2.124   0.435   2.317 -0.2302  0.9752 -0.5746
 3257SOL    HW221408   2.177   0.496   2.440  0.7111 -0.0255 -2.7804
 3258SOL     OW21409   1.851   3.634  10.498  0.3140  0.2614 -0.3304
 3258SOL    HW121410   1.923   3.572  10.482  0.8533  1.3376 -2.1034
 3258SOL    HW221411   1.814   3.599  10.579  0.5631 -0.2029 -0.4151
 3259SOL     OW21412   0.751   4.013   5.230  0.0691  0.1300 -0.7232
 3259SOL    HW121413   0.725   3.927   5.195  0.1998  0.0896 -0.7220
 3259SOL    HW221414   0.829   3.985   5.279 -0.9626  0.3680  1.0368
 3260SOL     OW21415   3.691   4.368   4.694  0.4198  0.2991 -0.4336
 3260SOL    HW121416   3.682   4.455   4.732  0.4456 -0.0255  0.3202
 3260SOL    HW221417   3.660   4.304   4.758 -0.3287  1.6351  0.5287
 3261SOL     OW21418   3.373   3.961   5.720 -0.0319 -0.2103 -0.0947
 3261SOL    HW121419   3.409   3.953   5.808 -0.6362  1.4680  0.3022
 3261SOL    HW221420   3.371   4.055   5.701  0.6053 -0.3321 -0.7898
 3262SOL     OW21421   3.832   3.330   4.521  0.8119  0.5493  0.2017
 3262SOL    HW121422   3.780   3.296   4.594 -1.8712  1.0054 -1.4757
 3262SOL    HW221423   3.888   3.387   4.574  0.8605 -0.1391  0.8994
 3263SOL     OW21424   2.435   4.652   4.104 -0.4529 -0.0639 -0.2201
 3263SOL    HW121425   2.463   4.651   4.195  0.8282  1.3213 -0.6098
 3263SOL    HW221426   2.472   4.736   4.077  0.3823  0.4825  2.7084
 3264SOL     OW21427   2.289   1.402   5.258 -0.5478 -0.6696 -0.2578
 3264SOL    HW121428   2.288   1.434   5.168 -0.8650  0.8472  0.2870
 3264SOL    HW221429   2.226   1.462   5.298  1.4300  0.8227  0.6152
 3265SOL     OW21430   0.883   0.369   2.527  0.6114  0.0349 -0.1972
 3265SOL    HW121431   0.803   0.410   2.494 -0.6085 -2.0284  0.1713
 3265SOL    HW221432   0.936   0.416   2.464  0.0904  1.2187  0.2491
 3266SOL     OW21433   1.942   1.224   5.325  0.3687  0.3289  0.2525
 3266SOL    HW121434   1.885   1.147   5.316 -0.0995  0.5007  1.7634
 3266SOL    HW221435   2.025   1.190   5.292  0.2299  0.8034 -0.5829
 3267SOL     OW21436   0.378   1.616  14.227 -0.6017 -0.0886  0.0387
 3267SOL    HW121437   0.398   1.599  14.319  0.4767  0.6223 -0.0635
 3267SOL    HW221438   0.465   1.628  14.189 -1.7982 -0.4946 -2.8425
 3268SOL     OW21439   1.710   4.649   8.499 -0.1246 -0.1068  0.0402
 3268SOL    HW121440   1.759   4.719   8.456 -0.2151  0.2834  0.5679
 3268SOL    HW221441   1.682   4.605   8.419 -1.0890  1.1888 -0.3360
 3269SOL     OW21442   2.020   4.570   8.038  0.0597 -0.2641  0.4536
 3269SOL    HW121443   2.052   4.626   8.109  1.9516  0.8395 -1.2647
 3269SOL    HW221444   1.949   4.621   8.000  0.0785 -0.5478  0.0379
 3270SOL     OW21445   0.538   0.475  13.508 -0.1878  0.4037  0.1767
 3270SOL    HW121446   0.575   0.562  13.490  1.2108 -0.6010 -1.7484
 3270SOL    HW221447   0.468   0.479  13.442 -1.7644  0.2487  1.8595
 3271SOL     OW21448   3.968   3.271   2.446  0.1231 -0.0469 -0.3819
 3271SOL    HW121449   3.978   3.205   2.515 -0.2387  1.3716  1.0340
 3271SOL    HW221450   3.910   3.240   2.377 -2.5951  2.1883  0.9023
 3272SOL     OW21451   0.691   1.360   9.053 -0.7773  0.3114 -0.0237
 3272SOL    HW121452   0.759   1.379   9.118 -0.7536  0.2396 -0.0278
 3272SOL    HW221453   0.626   1.427   9.073  0.2534  1.2892  0.0276
 3273SOL     OW21454   2.694   4.518   8.089 -0.4751  0.2872  0.1228
 3273SOL    HW121455   2.723   4.559   8.008 -1.6312  0.7310 -0.0630
 3273SOL    HW221456   2.712   4.580   8.160  1.8711 -1.8250  1.3984
 3274SOL     OW21457   1.147   4.306   3.667  0.4128  0.0346 -0.2513
 3274SOL    HW121458   1.144   4.312   3.572  2.7544  1.6336 -0.2367
 3274SOL    HW221459   1.058   4.325   3.696 -0.5217  0.2891 -3.3182
 3275SOL     OW21460   4.389   1.033   0.267 -0.1202 -0.2839  0.2207
 3275SOL    HW121461   4.469   0.987   0.243 -0.2995 -0.4619 -0.0371
 3275SOL    HW221462   4.396   1.108   0.209  3.2048 -1.6160 -1.0501
 3276SOL     OW21463   4.287   2.536   3.498  0.3074 -0.2116  0.4108
 3276SOL    HW121464   4.289   2.461   3.438 -0.7845  0.7065 -0.7706
 3276SOL    HW221465   4.382   2.545   3.506  0.2922  0.0176  0.3287
 3277SOL     OW21466   3.416   1.163   8.186 -0.4978  0.0038 -0.3004
 3277SOL    HW121467   3.500   1.169   8.232 -0.0983  1.7297 -1.2772
 3277SOL    HW221468   3.369   1.242   8.210 -0.5714 -0.5508  1.3243
 3278SOL     OW21469   3.898   4.679   3.020  0.5701  0.1578  0.3102
 3278SOL    HW121470   3.909   0.002   2.946  0.7358 -0.9270 -0.5408
 3278SOL    HW221471   3.814   4.712   3.053 -0.3544 -2.1981  0.2788
 3279SOL     OW21472   1.810   3.915  15.989 -0.1679  0.0262  0.3129
 3279SOL    HW121473   1.795   3.995  15.938 -0.6599  0.4143  1.0649
 3279SOL    HW221474   1.891   3.938  16.035  1.2566 -1.4479 -1.4220
 3280SOL     OW21475   2.907   1.258   1.185  0.4448  0.2724 -0.0739
 3280SOL    HW121476   2.924   1.347   1.153 -1.3707  0.1652 -1.2911
 3280SOL    HW221477   2.839   1.229   1.124  0.1301 -2.1152  1.4233
 3281SOL     OW21478   0.993   2.929   7.538 -0.1607 -0.6718  0.3760
 3281SOL    HW121479   0.900   2.906   7.546 -0.5167  1.1596  1.5452
 3281SOL    HW221480   1.025   2.886   7.618  1.5667 -0.1149 -0.0260
 3282SOL     OW21481   3.631   0.263   9.196 -0.5413  0.5006 -0.4631
 3282SOL    HW121482   3.554   0.257   9.140 -2.5856  1.5483  2.2210
 3282SOL    HW221483   3.586   0.280   9.279 -1.9733 -1.5569 -0.8263
 3283SOL     OW21484   2.625   0.235   2.368 -0.0425 -0.3054  0.4429
 3283SOL    HW121485   2.577   0.299   2.420 -0.5865 -0.1241 -0.2861
 3283SOL    HW221486   2.630   0.169   2.437 -1.0005  1.1114  1.8684
 3284SOL     OW21487   4.161   2.759   3.429 -0.3994  0.3341  0.3153
 3284SOL    HW121488   4.212   2.679   3.443 -0.6083 -0.2804 -2.3754
 3284SOL    HW221489   4.094   2.744   3.497  1.3986  0.8467  2.1886
 3285SOL     OW21490   4.165   4.454  12.704  0.5209  0.0162 -0.3898
 3285SOL    HW121491   4.161   4.448  12.799 -0.2907  0.7297 -0.3870
 3285SOL    HW221492   4.080   4.416  12.681  0.0804  0.4953  0.4692
 3286SOL     OW21493   4.708   4.569   7.545 -0.0180 -0.1848  0.0097
 3286SOL    HW121494   4.656   4.569   7.465 -0.8889  0.2055  0.5739
 3286SOL    HW221495   4.670   4.640   7.598  2.3151 -0.4052  2.0123
 3287SOL     OW21496   0.612   3.318   1.023  0.0848 -0.0225 -0.2288
 3287SOL    HW121497   0.575   3.275   1.100 -0.6370 -1.2386 -1.2524
 3287SOL    HW221498   0.700   3.352   1.040 -0.1039 -0.2524  1.2454
 3288SOL     OW21499   3.452   4.450   3.087 -0.2531  0.3960  0.2925
 3288SOL    HW121500   3.365   4.442   3.048 -0.2395 -0.8178  0.5153
 3288SOL    HW221501   3.459   4.367   3.134  1.4259 -0.8501 -2.1722
 3289SOL     OW21502   4.157   2.905  17.518  0.1367 -0.4109 -0.2032
 3289SOL    HW121503   4.147   2.860  17.434 -1.3750  1.0674 -0.8175
 3289SOL    HW221504   4.241   2.869  17.547 -0.0093  0.6645  1.6122
 3290SOL     OW21505   0.218   2.852   2.257  0.4312  0.2553  0.3998
 3290SOL    HW121506   0.301   2.840   2.213  0.4343  0.8272  0.2450
 3290SOL    HW221507   0.195   2.944   2.243  0.2563  0.1293 -0.1469
 3291SOL     OW21508   0.630   1.852   8.256  0.3269 -0.3668  0.0657
 3291SOL    HW121509   0.578   1.778   8.286 -1.2652 -0.2571 -2.4035
 3291SOL    HW221510   0.717   1.814   8.267 -0.3092 -1.0379  2.8726
 3292SOL     OW21511   0.491   3.204   7.011 -0.4695  0.0428 -0.2081
 3292SOL    HW121512   0.405   3.161   7.012 -0.8056  0.6704 -1.8728
 3292SOL    HW221513   0.546   3.126   7.008 -0.4142  0.0061  1.5195
 3293SOL     OW21514   2.040   3.273  12.579 -0.2307  0.0164 -0.2498
 3293SOL    HW121515   2.088   3.275  12.496  0.3000  1.4070  0.0884
 3293SOL    HW221516   1.955   3.235  12.559  1.3465 -3.0438 -1.1545
 3294SOL     OW21517   0.044   1.691  13.127  0.0872  0.1650  0.6404
 3294SOL    HW121518   0.062   1.712  13.035  0.5165  1.9892  1.1362
 3294SOL    HW221519   4.725   1.764  13.154  0.4978  0.9173 -0.5417
 3295SOL     OW21520   2.130   2.918   0.393 -0.1885 -0.8387  0.4815
 3295SOL    HW121521   2.191   2.891   0.325  2.6308  2.4503  1.7036
 3295SOL    HW221522   2.160   3.006   0.417 -2.4302 -0.2669  1.1986
 3296SOL     OW21523   0.907   3.984  10.653  0.4530 -0.5047  0.2833
 3296SOL    HW121524   0.845   3.992  10.725  0.3634 -1.1411  0.2742
 3296SOL    HW221525   0.975   4.037  10.695  1.4067 -2.8495  1.6639
 3297SOL     OW21526   0.525   1.397  16.673  0.0661  0.2358 -0.5049
 3297SOL    HW121527   0.448   1.382  16.727 -0.3120  1.5419 -0.6917
 3297SOL    HW221528   0.560   1.465  16.730 -0.9594 -0.7947  1.3706
 3298SOL     OW21529   2.234   0.729   8.678  0.8882 -0.1889  0.1519
 3298SOL    HW121530   2.281   0.653   8.644  1.0176 -0.7519  1.5672
 3298SOL    HW221531   2.281   0.802   8.637  0.7558  0.4172  1.0671
 3299SOL     OW21532   3.016   0.928  17.425 -0.2579  0.2705  0.3801
 3299SOL    HW121533   2.936   0.896  17.466  0.3820 -2.0545 -0.1944
 3299SOL    HW221534   3.079   0.933  17.497  0.6864  1.6859 -0.5239
 3300SOL     OW21535   4.400   1.473   2.323 -0.2874 -0.5651 -0.3134
 3300SOL    HW121536   4.322   1.500   2.275 -1.0879  2.9909  2.9793
 3300SOL    HW221537   4.378   1.530   2.397 -0.5558 -2.1083  0.8205
 3301SOL     OW21538   2.668   4.095   2.348 -0.4257 -0.3604 -0.2512
 3301SOL    HW121539   2.631   4.169   2.397  1.5790 -0.4821  1.4227
 3301SOL    HW221540   2.654   4.111   2.254  2.7322  0.8431 -0.5075
 3302SOL     OW21541   4.096   3.615  11.592  0.0723 -0.0736  0.0298
 3302SOL    HW121542   4.189   3.605  11.613 -0.0579  0.4377  0.8411
 3302SOL    HW221543   4.087   3.641  11.500 -0.6016 -2.3355 -0.5346
 3303SOL     OW21544   1.791   3.315   9.667 -0.5488 -0.5540  0.4101
 3303SOL    HW121545   1.780   3.317   9.572  2.7802 -1.9407 -0.0142
 3303SOL    HW221546   1.705   3.305   9.706 -1.3420 -1.1907 -1.4818
 3304SOL     OW21547   2.270   0.835   6.646 -0.1089 -0.1163 -0.0771
 3304SOL    HW121548   2.358   0.798   6.639 -0.6162 -1.1055 -1.4045
 3304SOL    HW221549   2.241   0.767   6.708 -0.0181 -0.1553 -0.0768
 3305SOL     OW21550   2.639   1.936   5.149  0.1664  0.2363  0.3790
 3305SOL    HW121551   2.631   1.983   5.066 -2.3869 -0.0278  0.4733
 3305SOL    HW221552   2.734   1.947   5.157  0.2722 -2.4246  2.4737
 3306SOL     OW21553   4.170   2.757  16.233 -0.2630 -0.0778  0.0435
 3306SOL    HW121554   4.143   2.821  16.298 -2.0382 -2.1584  1.3389
 3306SOL    HW221555   4.096   2.698  16.219  1.9789 -2.6458 -0.9545
 3307SOL     OW21556   0.736   2.062   1.094 -0.3986 -0.2016 -0.5201
 3307SOL    HW121557   0.773   2.116   1.024 -1.5014  0.5954 -0.4924
 3307SOL    HW221558   0.802   2.074   1.163  1.0801 -1.7835 -1.6578
 3308SOL     OW21559   1.748   4.550   5.703  0.1718  0.0029 -0.4008
 3308SOL    HW121560   1.732   4.585   5.791  0.0000  1.6143 -1.0681
 3308SOL    HW221561   1.683   4.481   5.698  2.9227 -2.7102  1.1924
 3309SOL     OW21562   1.095   4.588   5.350 -0.2529 -0.2429  0.4146
 3309SOL    HW121563   1.006   4.552   5.350  0.5487 -2.3182 -3.1096
 3309SOL    HW221564   1.152   4.511   5.352 -2.0826 -1.5940  0.3642
 3310SOL     OW21565   1.634   3.689   1.366 -0.4935 -0.1309 -0.7562
 3310SOL    HW121566   1.671   3.758   1.421  0.4764 -0.2985 -1.2093
 3310SOL    HW221567   1.636   3.737   1.283  2.6931  0.1629 -0.5239
 3311SOL     OW21568   4.374   0.728   3.100  0.3536 -0.4081 -0.3869
 3311SOL    HW121569   4.458   0.758   3.135 -0.6902  1.8016  0.2092
 3311SOL    HW221570   4.347   0.668   3.170 -1.2247 -0.1234 -0.7705
 3312SOL     OW21571   4.616   2.875   8.459 -0.0356 -0.1377 -0.3384
 3312SOL    HW121572   4.606   2.884   8.553 -0.6868  0.3224 -0.4560
 3312SOL    HW221573   4.660   2.790   8.461 -1.6610 -0.9776 -0.5268
 3313SOL     OW21574   4.536   2.765  10.929 -0.2904  0.2152  1.1312
 3313SOL    HW121575   4.490   2.798  10.852 -2.9809  0.1643  2.7193
 3313SOL    HW221576   4.567   2.851  10.959  1.1948  0.3789 -0.8579
 3314SOL     OW21577   2.081   4.109   6.651 -0.2408 -0.1780  0.7376
 3314SOL    HW121578   1.986   4.118   6.656 -0.4437 -1.7824 -0.3264
 3314SOL    HW221579   2.095   4.058   6.731  3.2610  0.8317  0.7752
 3315SOL     OW21580   1.846   3.552   3.324  0.1788 -0.3309  0.3153
 3315SOL    HW121581   1.783   3.483   3.344 -0.4273  0.0252 -0.3577
 3315SOL    HW221582   1.805   3.623   3.373  1.4572 -0.0248  0.9392
 3316SOL     OW21583   0.700   1.962   1.863 -0.2617  0.1620  0.2602
 3316SOL    HW121584   0.785   2.002   1.850 -0.8969  0.8663 -1.6332
 3316SOL    HW221585   0.712   1.873   1.830 -3.2793 -0.2303  0.1528
 3317SOL     OW21586   1.440   0.191  14.540  0.1680 -0.3429 -0.2421
 3317SOL    HW121587   1.452   0.176  14.446  0.0447  2.0341 -0.6303
 3317SOL    HW221588   1.370   0.127  14.551 -1.2184  0.9913 -1.4289
 3318SOL     OW21589   3.218   3.368   2.824  0.2807 -0.4588 -0.4178
 3318SOL    HW121590   3.147   3.306   2.808  1.2010 -1.4510 -0.6610
 3318SOL    HW221591   3.230   3.362   2.919 -1.7292  1.7386 -0.0400
 3319SOL     OW21592   1.342   0.784  10.150 -0.3832 -0.0589  0.4584
 3319SOL    HW121593   1.265   0.838  10.169 -0.9475 -0.4041 -0.8775
 3319SOL    HW221594   1.334   0.781  10.055  0.6743  0.1359  0.3615
 3320SOL     OW21595   0.908   0.090   8.946  0.2513 -0.3596  0.5469
 3320SOL    HW121596   1.000   0.108   8.930 -0.0770  0.3965 -0.5370
 3320SOL    HW221597   0.917   0.018   9.007 -2.4188  0.2600  1.6963
 3321SOL     OW21598   4.482   2.657  10.108 -0.7410  0.3491  0.3768
 3321SOL    HW121599   4.437   2.617  10.182  0.7794 -1.1782  0.4798
 3321SOL    HW221600   4.534   2.584  10.076  1.2958  1.5076  0.9814
 3322SOL     OW21601   1.942   1.606   3.036 -0.5884  0.2298 -0.6955
 3322SOL    HW121602   2.015   1.549   3.012 -1.7346 -2.1191  1.5188
 3322SOL    HW221603   1.992   1.683   3.063  0.0886 -1.9260  4.1133
 3323SOL     OW21604   0.535   1.664  15.109 -0.0303 -0.2963 -0.6740
 3323SOL    HW121605   0.558   1.715  15.032 -1.2189  0.5053 -0.5024
 3323SOL    HW221606   0.585   1.690  15.186 -1.5007 -0.3179  0.2888
 3324SOL     OW21607   3.062   3.285   3.474  0.5460 -0.0830  0.4471
 3324SOL    HW121608   2.989   3.264   3.533  0.9646 -0.5826  0.7964
 3324SOL    HW221609   3.041   3.224   3.403 -0.6854 -1.4704  1.9771
 3325SOL     OW21610   0.579   4.159   7.475 -0.1709 -0.0276 -0.3625
 3325SOL    HW121611   0.509   4.224   7.477 -0.2408 -0.0540 -2.4308
 3325SOL    HW221612   0.559   4.114   7.557 -2.2252  0.2099 -0.7415
 3326SOL     OW21613   0.674   1.474  14.327 -0.5965 -0.1591  0.1658
 3326SOL    HW121614   0.688   1.550  14.271  2.4481  0.1152  1.3189
 3326SOL    HW221615   0.596   1.501  14.376 -2.2942 -1.8370 -1.5800
 3327SOL     OW21616   2.251   1.152   7.475  0.2249 -0.1007  0.4873
 3327SOL    HW121617   2.230   1.243   7.498 -1.1419 -0.0535 -0.9786
 3327SOL    HW221618   2.278   1.113   7.558 -0.6280  1.6095  1.5866
 3328SOL     OW21619   2.329   1.473  15.710  0.0516 -0.3419  0.2299
 3328SOL    HW121620   2.314   1.415  15.785  0.9377 -0.5577  0.2402
 3328SOL    HW221621   2.311   1.551  15.762 -1.3667 -0.6499  0.1991
 3329SOL     OW21622   4.088   0.901  12.283 -0.4791 -0.1226 -0.5148
 3329SOL    HW121623   4.024   0.951  12.333  1.2151  0.2782  1.2641
 3329SOL    HW221624   4.173   0.941  12.301  0.2072 -0.9682 -1.8450
 3330SOL     OW21625   2.611   2.758   9.542  0.0529 -0.6293  0.2028
 3330SOL    HW121626   2.703   2.756   9.518 -0.1565  1.5701 -0.7901
 3330SOL    HW221627   2.626   2.808   9.622 -0.5872  0.9957 -0.6914
 3331SOL     OW21628   4.394   1.637  11.171  0.5085 -0.5516  0.5893
 3331SOL    HW121629   4.392   1.574  11.099  1.0359  1.0994 -0.8841
 3331SOL    HW221630   4.379   1.580  11.246  1.1388 -1.7205 -0.1758
 3332SOL     OW21631   3.336   3.631   6.232  0.1209  0.3921  0.0989
 3332SOL    HW121632   3.427   3.656   6.217  0.1232  1.1850  1.5240
 3332SOL    HW221633   3.319   3.657   6.322  1.0595  0.3305  0.2906
 3333SOL     OW21634   2.260   4.674   4.789  0.0904 -0.3918 -0.3706
 3333SOL    HW121635   2.218   4.622   4.857  1.3108 -0.2579  0.4954
 3333SOL    HW221636   2.274   0.015   4.843  3.7360 -1.0942 -0.3077
 3334SOL     OW21637   3.714   2.690   1.818 -0.1040  0.6401 -0.1465
 3334SOL    HW121638   3.627   2.729   1.806 -0.7951 -1.0111 -0.5110
 3334SOL    HW221639   3.759   2.717   1.738  0.8698 -2.9499 -0.7917
 3335SOL     OW21640   2.647   3.506  10.790  0.3040 -0.1183 -0.3195
 3335SOL    HW121641   2.729   3.466  10.761  0.4643  1.0159 -1.4376
 3335SOL    HW221642   2.637   3.581  10.732 -0.8779  0.9526  1.2813
 3336SOL     OW21643   0.252   4.103   0.751 -0.1386  0.4953  0.0575
 3336SOL    HW121644   0.166   4.144   0.758  0.0802  1.1376 -1.2198
 3336SOL    HW221645   0.226   4.020   0.711  1.9605  0.0122 -0.2814
 3337SOL     OW21646   3.658   1.222   4.189 -0.2740  0.5235 -0.8679
 3337SOL    HW121647   3.625   1.234   4.278  0.6274  1.4069 -0.6508
 3337SOL    HW221648   3.655   1.126   4.182 -0.5856  0.6044 -1.7876
 3338SOL     OW21649   0.606   0.956   4.565  0.4222 -0.9833 -1.0969
 3338SOL    HW121650   0.657   1.020   4.613 -2.1059 -0.1447  0.5007
 3338SOL    HW221651   0.571   0.992   4.483 -1.9529  0.3201  0.4841
 3339SOL     OW21652   0.763   2.267   7.494 -0.1665 -0.5258 -0.5546
 3339SOL    HW121653   0.789   2.192   7.548 -0.3217 -0.5140 -0.4601
 3339SOL    HW221654   0.745   2.327   7.567 -0.0765  1.6418 -2.3217
 3340SOL     OW21655   3.945   2.815   6.331  0.3533 -0.1965  0.5266
 3340SOL    HW121656   3.956   2.873   6.407 -0.3168  1.0146 -0.2886
 3340SOL    HW221657   3.924   2.883   6.266  0.9886 -0.4365  0.0656
 3341SOL     OW21658   1.250   1.418   1.663  0.1794  0.3607  0.1216
 3341SOL    HW121659   1.247   1.367   1.744 -1.2898  0.0172 -0.1447
 3341SOL    HW221660   1.201   1.362   1.603 -0.5646  0.2720  0.8110
 3342SOL     OW21661   3.267   0.037  17.172  0.3083  0.2912 -0.5894
 3342SOL    HW121662   3.328   4.701  17.178 -0.8393 -0.7336 -1.3984
 3342SOL    HW221663   3.193   4.727  17.212 -0.7223  1.7851 -0.7370
 3343SOL     OW21664   3.322   0.686   3.767 -0.4503 -0.4913 -0.5995
 3343SOL    HW121665   3.400   0.741   3.768 -0.2167 -0.9035  2.2921
 3343SOL    HW221666   3.314   0.680   3.671 -0.4560 -1.8673 -0.5197
 3344SOL     OW21667   3.143   1.396  17.195 -0.3366  0.5427  0.1310
 3344SOL    HW121668   3.175   1.343  17.268 -3.7248  0.4135  1.5430
 3344SOL    HW221669   3.192   1.477  17.207  0.5951 -0.1060  0.6876
 3345SOL     OW21670   4.248   0.854   0.466 -0.1066  0.0463  0.4028
 3345SOL    HW121671   4.314   0.811   0.413  0.1311 -1.2811  1.7911
 3345SOL    HW221672   4.227   0.937   0.423  0.2646 -0.3328 -0.5016
 3346SOL     OW21673   3.557   2.810   2.154  0.8563  0.1054 -0.3114
 3346SOL    HW121674   3.508   2.739   2.111  1.4866 -0.2100 -0.5048
 3346SOL    HW221675   3.500   2.827   2.229  1.1800 -0.5680  0.0821
 3347SOL     OW21676   3.011   2.708   4.921 -0.1490  0.1592 -0.6085
 3347SOL    HW121677   3.020   2.630   4.976 -2.6977 -0.8313 -1.5623
 3347SOL    HW221678   3.077   2.683   4.857  0.8922  2.8107 -0.5638
 3348SOL     OW21679   3.314   1.978  13.854 -0.1181  0.6806  0.4242
 3348SOL    HW121680   3.386   1.996  13.794  0.9232 -1.7721  0.9586
 3348SOL    HW221681   3.322   2.048  13.919 -0.2878  1.8090 -0.7776
 3349SOL     OW21682   4.434   2.622   5.835  0.5073  0.2176 -0.2067
 3349SOL    HW121683   4.402   2.534   5.855 -0.1124 -0.3750 -3.8111
 3349SOL    HW221684   4.364   2.675   5.875 -0.2132 -0.6983 -0.2464
 3350SOL     OW21685   4.722   3.972   4.925  0.2064 -0.1028 -0.2821
 3350SOL    HW121686   4.690   4.026   4.852  0.5278 -1.2227 -1.2482
 3350SOL    HW221687   4.718   3.881   4.894  0.1834 -0.3134  0.3461
 3351SOL     OW21688   1.855   2.702   2.641 -0.3815  0.1230  0.2743
 3351SOL    HW121689   1.948   2.696   2.622 -0.8411 -0.5004 -1.8191
 3351SOL    HW221690   1.825   2.629   2.587 -0.6911 -2.8121  4.3298
 3352SOL     OW21691   2.487   1.076  14.692 -0.0512  0.1839  0.5702
 3352SOL    HW121692   2.491   1.158  14.642 -1.5226  0.2543  0.5673
 3352SOL    HW221693   2.492   1.109  14.782 -3.1420  0.1691  0.7610
 3353SOL     OW21694   3.601   3.898   4.921  0.3416 -0.3880  0.7147
 3353SOL    HW121695   3.548   3.864   4.848  1.3496  0.0793 -0.2364
 3353SOL    HW221696   3.646   3.818   4.945  0.2028  0.3606  3.4285
 3354SOL     OW21697   1.563   2.065   1.468  0.1261  0.8978 -0.3056
 3354SOL    HW121698   1.608   2.144   1.496 -1.5249  1.5148  0.6313
 3354SOL    HW221699   1.493   2.059   1.534 -0.3152  0.7825 -0.7803
 3355SOL     OW21700   1.182   0.328   4.840 -0.2766  0.4540  0.6905
 3355SOL    HW121701   1.165   0.235   4.825  1.5049  0.2547 -0.0236
 3355SOL    HW221702   1.170   0.360   4.750  0.0179 -1.1400  0.0935
 3356SOL     OW21703   4.441   2.569   9.665 -0.7655 -0.2253  0.8013
 3356SOL    HW121704   4.499   2.492   9.660 -1.2265 -0.5064 -0.0634
 3356SOL    HW221705   4.384   2.547   9.739 -1.2027 -2.6261 -0.2503
 3357SOL     OW21706   2.328   1.624   5.540 -0.3281 -0.1077 -0.3349
 3357SOL    HW121707   2.344   1.714   5.510 -0.9355 -0.0704 -0.5558
 3357SOL    HW221708   2.416   1.589   5.552  0.5921  2.1024 -0.7045
 3358SOL     OW21709   1.653   2.529   1.634 -0.5856  0.0303 -0.3795
 3358SOL    HW121710   1.626   2.560   1.721 -0.9018 -0.6940 -0.2245
 3358SOL    HW221711   1.732   2.581   1.614  0.2156 -1.5478 -1.3365
 3359SOL     OW21712   1.820   4.648   4.391 -0.3420 -0.6636  0.4451
 3359SOL    HW121713   1.911   4.669   4.371 -0.7912  2.2914  1.5285
 3359SOL    HW221714   1.786   4.655   4.301  3.8698 -1.6240 -1.1977
 3360SOL     OW21715   4.016   0.630   0.148 -0.5884  0.2855  1.2280
 3360SOL    HW121716   3.933   0.650   0.191 -0.7601  0.2478  0.9197
 3360SOL    HW221717   3.979   0.549   0.112 -1.1698  0.8761  0.4863
 3361SOL     OW21718   4.138   3.466   0.458 -0.4914  0.0668  0.2998
 3361SOL    HW121719   4.169   3.542   0.508  0.9708 -0.1154 -0.3287
 3361SOL    HW221720   4.216   3.425   0.421  0.0153  1.7117 -0.4526
 3362SOL     OW21721   1.442   0.038   4.199 -0.0260  0.3304  0.6246
 3362SOL    HW121722   1.504   4.719   4.245 -1.0441 -1.3434 -0.0276
 3362SOL    HW221723   1.367   0.047   4.258 -1.3313 -0.8364 -0.8452
 3363SOL     OW21724   3.524   0.862   3.827  0.3870 -0.3150 -0.1243
 3363SOL    HW121725   3.579   0.867   3.749  0.6017 -1.7841 -0.0742
 3363SOL    HW221726   3.578   0.898   3.898 -1.3837 -1.0035  1.5552
 3364SOL     OW21727   4.328   2.557   8.224 -0.1598 -0.9776 -0.8147
 3364SOL    HW121728   4.382   2.480   8.206  0.8120 -0.6709  0.7646
 3364SOL    HW221729   4.270   2.521   8.291 -1.0518 -2.2265 -2.2934
 3365SOL     OW21730   3.619   1.148   3.698 -0.4525  0.2701 -0.1363
 3365SOL    HW121731   3.682   1.133   3.769 -1.2009  3.5176  1.2204
 3365SOL    HW221732   3.657   1.225   3.655  1.8897  0.6883  2.6404
 3366SOL     OW21733   2.574   4.501   9.258  0.4382  0.3466  0.2562
 3366SOL    HW121734   2.560   4.450   9.338 -0.8041  0.1931 -0.0498
 3366SOL    HW221735   2.575   4.588   9.296 -2.0877  0.8785 -0.8655
 3367SOL     OW21736   1.978   2.030   2.972  0.1530 -0.1179  0.5024
 3367SOL    HW121737   2.000   2.110   3.020  1.7980 -1.1617  1.5195
 3367SOL    HW221738   1.896   1.999   3.011 -0.1393  0.9782  0.7590
 3368SOL     OW21739   2.743   2.596   2.599 -0.5362 -0.0189  0.3197
 3368SOL    HW121740   2.730   2.544   2.678  0.1480  1.0817  1.1665
 3368SOL    HW221741   2.658   2.629   2.573 -1.1196 -0.7643  1.2825
 3369SOL     OW21742   1.073   0.448   0.680 -0.6097  0.5238 -0.0073
 3369SOL    HW121743   1.120   0.527   0.704 -1.9919  1.0106  1.1052
 3369SOL    HW221744   1.137   0.400   0.627 -0.4495 -0.2281  0.8602
 3370SOL     OW21745   3.899   0.340   8.708  0.4587  0.4129  0.4804
 3370SOL    HW121746   3.977   0.310   8.661  0.0724  0.7850 -0.4210
 3370SOL    HW221747   3.889   0.290   8.788 -1.6262  0.2539  0.1196
 3371SOL     OW21748   2.995   2.605   5.863  0.6253 -0.0088 -0.1513
 3371SOL    HW121749   3.074   2.591   5.915  0.7816  2.7924  0.3809
 3371SOL    HW221750   2.941   2.526   5.863 -1.4583  1.4097  2.3853
 3372SOL     OW21751   1.758   4.228  17.643  0.1732 -0.0847  0.2107
 3372SOL    HW121752   1.821   4.205  17.574  0.6696  1.1957  0.2406
 3372SOL    HW221753   1.810   4.185  17.711  0.8062  1.0130  0.4170
 3373SOL     OW21754   4.345   3.119   7.962 -0.0236 -0.1418 -0.1941
 3373SOL    HW121755   4.316   3.181   8.030 -0.9170 -1.3137  0.4832
 3373SOL    HW221756   4.439   3.136   7.969 -0.6027  2.6686  0.8089
 3374SOL     OW21757   3.920   2.367  11.920 -0.8413  0.0205  0.0410
 3374SOL    HW121758   3.948   2.294  11.865 -0.5917  0.2577 -0.1502
 3374SOL    HW221759   3.826   2.357  11.932 -0.4217 -4.1609 -0.1884
 3375SOL     OW21760   2.760   1.862   9.136 -0.0590  0.1865  0.4212
 3375SOL    HW121761   2.832   1.877   9.197 -0.6345  0.2832  1.0805
 3375SOL    HW221762   2.695   1.839   9.202 -2.1873  0.7165 -1.4591
 3376SOL     OW21763   2.985   0.843   6.069 -0.2223  0.4805  0.2659
 3376SOL    HW121764   2.947   0.773   6.016 -0.0658  0.3801  0.2859
 3376SOL    HW221765   2.920   0.909   6.092 -0.1447  0.3024  0.9944
 3377SOL     OW21766   3.394   4.221   0.289  0.0065  0.0016  0.9596
 3377SOL    HW121767   3.386   4.141   0.339  0.1347 -1.9189 -2.0758
 3377SOL    HW221768   3.302   4.228   0.265 -0.2191  1.6162  2.2890
 3378SOL     OW21769   3.435   1.682  12.032  0.5211  0.0224  0.0197
 3378SOL    HW121770   3.411   1.656  12.121  0.7335  0.7423  0.2818
 3378SOL    HW221771   3.444   1.777  12.036 -0.3851  0.0097  2.3432
 3379SOL     OW21772   3.285   2.003  16.826  0.9073  0.0784  0.1390
 3379SOL    HW121773   3.335   2.084  16.812  0.8212 -0.0741 -1.0493
 3379SOL    HW221774   3.237   2.040  16.901 -1.3631  0.8376 -1.6623
 3380SOL     OW21775   3.135   4.636   9.732 -0.0512 -0.5294 -0.5488
 3380SOL    HW121776   3.068   4.625   9.665 -0.1036  1.1783 -0.7922
 3380SOL    HW221777   3.077   4.642   9.808 -0.3933 -2.9829 -0.6219
 3381SOL     OW21778   1.498   1.272  11.319  0.5474 -0.5650  0.1554
 3381SOL    HW121779   1.584   1.305  11.293  1.1623 -2.8069 -0.6349
 3381SOL    HW221780   1.464   1.339  11.378  1.3008  0.5567 -0.6666
 3382SOL     OW21781   1.376   3.421   2.468 -0.3833 -0.3876 -0.7595
 3382SOL    HW121782   1.294   3.401   2.422 -0.7966  0.3122 -0.3245
 3382SOL    HW221783   1.353   3.489   2.532 -1.5592 -1.3171 -0.1695
 3383SOL     OW21784   0.345   2.804   3.767  0.4719 -0.7866 -0.8076
 3383SOL    HW121785   0.434   2.772   3.752  0.4332 -0.9945 -0.5993
 3383SOL    HW221786   0.327   2.769   3.854  0.3187  0.7763 -0.2115
 3384SOL     OW21787   1.232   1.066   2.425  0.1853 -0.5298 -0.2612
 3384SOL    HW121788   1.165   1.054   2.493  1.3052 -0.9666  0.7700
 3384SOL    HW221789   1.306   1.015   2.459 -0.2638 -0.6023  0.6157
 3385SOL     OW21790   4.664   0.611   4.463 -0.2433 -0.4966  0.1082
 3385SOL    HW121791   4.616   0.669   4.404 -0.4115  0.2691  1.0111
 3385SOL    HW221792   0.015   0.625   4.429  0.2640 -0.7986  1.2987
 3386SOL     OW21793   3.786   4.127  12.534 -0.0523  0.4961  0.0349
 3386SOL    HW121794   3.853   4.192  12.556 -1.1401  1.3147  0.8970
 3386SOL    HW221795   3.832   4.065  12.477 -0.0091  1.3022 -0.8003
 3387SOL     OW21796   4.125   3.800  13.577 -0.2525  0.4139 -0.1040
 3387SOL    HW121797   4.157   3.792  13.488 -0.5386 -1.5662 -0.0347
 3387SOL    HW221798   4.035   3.774  13.558 -0.1534 -1.7716  2.3957
 3388SOL     OW21799   2.335   1.346   3.992 -0.3064  0.4190 -0.3187
 3388SOL    HW121800   2.264   1.319   3.934  0.3296 -2.4939  0.2502
 3388SOL    HW221801   2.326   1.440   3.977 -2.0949  0.1471 -0.9799
 3389SOL     OW21802   3.395   3.074   3.799 -0.1902  0.3758 -0.1670
 3389SOL    HW121803   3.324   3.120   3.754  0.0459  1.2157  0.3204
 3389SOL    HW221804   3.349   3.030   3.871  1.0821 -1.5749 -0.5422
 3390SOL     OW21805   1.402   2.616   2.550 -0.6860 -0.2111 -0.8628
 3390SOL    HW121806   1.450   2.666   2.617 -0.5921 -2.1541  0.4888
 3390SOL    HW221807   1.469   2.623   2.481  0.6561  0.3235  0.5108
 3391SOL     OW21808   0.849   2.318  11.246  0.3588 -0.0587 -0.2869
 3391SOL    HW121809   0.790   2.253  11.284 -0.2937 -0.7218 -2.4367
 3391SOL    HW221810   0.892   2.348  11.327  1.2363  1.3644 -1.2876
 3392SOL     OW21811   3.385   0.026   5.116 -0.2063  0.2064  0.3948
 3392SOL    HW121812   3.312   0.051   5.173  0.4600  0.7215  1.0218
 3392SOL    HW221813   3.391   4.670   5.140  1.9828  0.2441 -0.0713
 3393SOL     OW21814   2.564   0.335  15.331  0.2042 -0.2070 -0.5647
 3393SOL    HW121815   2.610   0.331  15.415 -2.3179 -1.1052  0.7532
 3393SOL    HW221816   2.575   0.243  15.310 -1.7999 -0.7856  0.9875
 3394SOL     OW21817   4.588   2.037   6.032 -0.1185 -0.1943  0.7205
 3394SOL    HW121818   4.640   2.103   6.077 -0.4228  1.0914 -0.8033
 3394SOL    HW221819   4.622   2.051   5.944 -2.0348  0.9633  0.1566
 3395SOL     OW21820   2.049   2.380   6.590  0.5140 -0.3305  0.0113
 3395SOL    HW121821   2.101   2.394   6.511 -1.7426 -0.7220 -1.5227
 3395SOL    HW221822   1.968   2.356   6.545  2.2321 -2.6099 -1.8510
 3396SOL     OW21823   4.449   2.682   5.550 -0.0896  0.0418 -0.2817
 3396SOL    HW121824   4.448   2.681   5.646 -0.8877  0.4668 -0.2934
 3396SOL    HW221825   4.528   2.633   5.526  0.2115 -0.6169  1.9558
 3397SOL     OW21826   1.215   3.556  13.168  0.2431 -0.4821  0.3548
 3397SOL    HW121827   1.165   3.547  13.250 -0.9440  1.5423 -0.1465
 3397SOL    HW221828   1.293   3.599  13.203  0.7274  0.2638 -1.6560
 3398SOL     OW21829   0.854   3.164   2.487 -0.0514 -0.2058  0.2908
 3398SOL    HW121830   0.884   3.253   2.507  0.5182 -0.1383 -0.9048
 3398SOL    HW221831   0.925   3.135   2.430  2.4912 -0.1141  3.4019
 3399SOL     OW21832   0.344   3.476  14.659  0.4639  0.3109 -0.2806
 3399SOL    HW121833   0.340   3.382  14.642 -2.8356 -0.5993  5.1648
 3399SOL    HW221834   0.330   3.471  14.754 -3.8852 -0.2200 -0.9194
 3400SOL     OW21835   1.844   0.756   5.902  0.4296  0.7941 -0.1657
 3400SOL    HW121836   1.857   0.842   5.942  0.0180  0.2245  1.1926
 3400SOL    HW221837   1.760   0.722   5.933 -0.1875  1.7823 -0.7380
 3401SOL     OW21838   4.175   2.208   1.965 -0.0995  0.5993  0.1452
 3401SOL    HW121839   4.184   2.138   2.030 -1.0721 -1.3290 -1.8176
 3401SOL    HW221840   4.244   2.269   1.988  0.8521 -0.0206 -1.0909
 3402SOL     OW21841   2.425   0.028   3.070 -0.5604  0.8113  0.7629
 3402SOL    HW121842   2.422   0.090   3.143 -1.2067 -0.7782  2.0872
 3402SOL    HW221843   2.331   0.026   3.052 -0.5122 -0.8195  0.6597
 3403SOL     OW21844   1.514   0.228   9.444 -0.1362  0.5680 -0.1035
 3403SOL    HW121845   1.520   0.302   9.505  1.7526  1.2238 -1.0920
 3403SOL    HW221846   1.602   0.192   9.451 -0.9967 -1.8498 -1.6731
 3404SOL     OW21847   4.720   0.902   4.795  0.0501  0.1180  0.0155
 3404SOL    HW121848   4.653   0.968   4.814  0.3123  0.3459  0.1573
 3404SOL    HW221849   4.668   0.847   4.738  0.8088 -1.3982  0.7907
 3405SOL     OW21850   3.701   2.990   3.673  0.2643 -0.3432  0.5520
 3405SOL    HW121851   3.697   3.053   3.601 -0.8007 -1.1278 -0.0679
 3405SOL    HW221852   3.624   2.937   3.654  0.4746 -0.2538 -0.5691
 3406SOL     OW21853   3.149   3.819  11.754 -0.5475  0.2939  0.2876
 3406SOL    HW121854   3.094   3.898  11.752  0.5408  1.1077  2.0499
 3406SOL    HW221855   3.092   3.772  11.693 -0.5590 -0.6092  0.9952
 3407SOL     OW21856   4.730   1.687  17.515 -0.3164  0.1539  0.5274
 3407SOL    HW121857   0.053   1.662  17.585 -1.0508 -2.4449  0.2230
 3407SOL    HW221858   4.700   1.598  17.499 -1.1106  0.6971 -0.9419
 3408SOL     OW21859   3.141   3.926  11.036  0.2123  0.0606 -0.4237
 3408SOL    HW121860   3.116   3.913  10.944 -0.7647 -1.9545  0.1215
 3408SOL    HW221861   3.209   3.993  11.031 -0.0684  0.5834  3.2006
 3409SOL     OW21862   4.531   3.971   1.438 -0.4096 -0.1350  0.0727
 3409SOL    HW121863   4.473   4.040   1.404 -0.3286  0.0224  0.2504
 3409SOL    HW221864   4.471   3.919   1.492 -0.9723 -0.9041 -1.3175
 3410SOL     OW21865   2.698   2.972   4.611 -0.0776  0.1677  0.3025
 3410SOL    HW121866   2.674   2.882   4.631 -0.9374  0.9195  2.6431
 3410SOL    HW221867   2.631   3.008   4.553  1.7461 -0.5147 -2.2125
 3411SOL     OW21868   2.110   0.222   6.928  0.1270  1.1253  0.2245
 3411SOL    HW121869   2.197   0.253   6.951  1.2968 -1.9556 -0.1750
 3411SOL    HW221870   2.057   0.242   7.005 -1.3980  0.3982 -0.6187
 3412SOL     OW21871   2.932   1.408   2.560  0.1150  0.1666  0.2237
 3412SOL    HW121872   2.964   1.386   2.648  0.7807 -1.3016 -0.3985
 3412SOL    HW221873   2.866   1.341   2.541 -0.6512  1.8243 -2.9054
 3413SOL     OW21874   2.646   2.417   7.164  0.2717  0.3694  0.0359
 3413SOL    HW121875   2.738   2.434   7.181  0.5052 -0.9792  0.1256
 3413SOL    HW221876   2.626   2.357   7.236 -0.3572  1.3923  0.7026
 3414SOL     OW21877   3.685   0.252  13.085 -0.0374 -0.1417  0.1828
 3414SOL    HW121878   3.681   0.164  13.049 -1.3511  1.0217 -2.5361
 3414SOL    HW221879   3.672   0.226  13.176  0.0627 -1.4620 -0.1781
 3415SOL     OW21880   3.761   4.242   6.775  0.5110 -0.4834  0.2252
 3415SOL    HW121881   3.803   4.302   6.836 -0.7009  1.6460 -1.0458
 3415SOL    HW221882   3.765   4.160   6.825 -1.6067 -0.2782  0.7106
 3416SOL     OW21883   1.800   1.139   5.845  0.3407 -0.7137  0.1965
 3416SOL    HW121884   1.856   1.074   5.887 -1.9964 -1.8739  1.4970
 3416SOL    HW221885   1.793   1.099   5.758 -0.2870 -2.1807  0.9314
 3417SOL     OW21886   4.130   3.413  10.673 -0.3591  0.0618 -0.1458
 3417SOL    HW121887   4.121   3.373  10.760  3.6201 -0.5386 -0.0097
 3417SOL    HW221888   4.090   3.498  10.689  2.4652  0.8518  2.8934
 3418SOL     OW21889   1.237   0.918  17.479  0.4847  0.0519  0.3643
 3418SOL    HW121890   1.288   0.837  17.473 -0.4569 -0.3969 -1.6992
 3418SOL    HW221891   1.216   0.931  17.387 -0.0196  2.5772  0.8415
 3419SOL     OW21892   4.190   1.223   1.931  0.4288  0.4516 -0.3248
 3419SOL    HW121893   4.200   1.242   1.838 -0.7703 -0.3601 -0.6182
 3419SOL    HW221894   4.114   1.278   1.952  0.3558 -0.2843  1.3283
 3420SOL     OW21895   3.818   4.720   4.471  0.3022 -0.0620  0.0004
 3420SOL    HW121896   3.828   0.061   4.417 -0.3185 -0.7482 -1.0830
 3420SOL    HW221897   3.898   4.732   4.523  0.5198  1.8627 -0.7838
 3421SOL     OW21898   1.029   0.461   0.301  0.9487  0.2763  0.5359
 3421SOL    HW121899   1.102   0.429   0.248  1.0798 -1.7018  1.9261
 3421SOL    HW221900   1.071   0.540   0.334  1.8617  0.9365 -2.1871
 3422SOL     OW21901   2.632   2.484   3.850 -0.3972 -0.3333  0.0567
 3422SOL    HW121902   2.674   2.559   3.892  0.4330  0.1435 -1.6277
 3422SOL    HW221903   2.681   2.421   3.902  1.7027 -0.4749 -2.0517
 3423SOL     OW21904   3.999   2.216   7.019 -0.1255 -0.3059 -0.1338
 3423SOL    HW121905   3.963   2.299   6.988  0.7966 -0.2133 -0.9426
 3423SOL    HW221906   4.080   2.214   6.968 -0.5133  0.6556 -0.7821
 3424SOL     OW21907   1.154   3.242  14.341  0.1269 -0.0779 -0.4770
 3424SOL    HW121908   1.169   3.336  14.346  1.3480 -0.4466  2.6777
 3424SOL    HW221909   1.239   3.201  14.327  1.0761  1.4737  0.7298
 3425SOL     OW21910   0.363   2.869   8.295 -0.3064  0.2094  0.0539
 3425SOL    HW121911   0.270   2.882   8.275 -0.5193 -1.0734  0.1968
 3425SOL    HW221912   0.376   2.785   8.339 -2.9063 -1.0665 -1.5680
 3426SOL     OW21913   1.890   0.731   5.073 -0.1342  0.5729  0.1903
 3426SOL    HW121914   1.876   0.726   4.979  0.6208  0.5778  0.0768
 3426SOL    HW221915   1.966   0.674   5.087 -2.1608 -2.7110 -2.2305
 3427SOL     OW21916   0.847   0.256   0.409 -0.2075 -0.3213 -0.2377
 3427SOL    HW121917   0.895   0.337   0.396 -0.4897  0.3251  2.7959
 3427SOL    HW221918   0.917   0.195   0.385 -1.0111 -1.0715 -0.6896
 3428SOL     OW21919   0.169   1.262   5.371  0.0425 -0.4232 -0.5919
 3428SOL    HW121920   0.177   1.203   5.446  1.3120  1.3435  0.6816
 3428SOL    HW221921   0.261   1.263   5.342 -0.3000 -4.8769 -1.8671
 3429SOL     OW21922   0.832   2.731   1.304 -0.0950  0.8625  0.4277
 3429SOL    HW121923   0.790   2.658   1.349 -0.6069  0.7121 -0.2950
 3429SOL    HW221924   0.914   2.688   1.283 -0.7740 -0.0982 -0.2530
 3430SOL     OW21925   3.674   1.768   6.650 -0.4147 -1.1231 -0.6141
 3430SOL    HW121926   3.766   1.763   6.624  0.3200  1.4296  1.6122
 3430SOL    HW221927   3.671   1.863   6.637 -1.3520 -1.2299 -1.1937
 3431SOL     OW21928   2.910   2.698  11.687 -0.1393  0.6077 -0.8809
 3431SOL    HW121929   2.962   2.716  11.609  1.9909 -1.8951 -0.0493
 3431SOL    HW221930   2.900   2.785  11.724 -0.9017 -0.0857  0.5659
 3432SOL     OW21931   4.134   2.358   8.972 -0.1130  0.2600 -0.0575
 3432SOL    HW121932   4.149   2.264   8.984 -0.8252  0.2151  0.5055
 3432SOL    HW221933   4.047   2.361   8.933  0.2348 -0.6100 -0.8715
 3433SOL     OW21934   0.093   3.381  17.705  0.3960  0.0040 -0.3390
 3433SOL    HW121935   0.130   3.427   0.035  0.2807  2.9654 -2.1091
 3433SOL    HW221936   0.052   3.443  17.645 -1.2862 -0.0836  0.7164
 3434SOL     OW21937   3.873   1.443   9.958 -0.4956 -0.0482  0.3359
 3434SOL    HW121938   3.874   1.360   9.911  1.6817  1.8465 -2.9606
 3434SOL    HW221939   3.939   1.424  10.025  1.6475  4.8377 -0.4105
 3435SOL     OW21940   0.370   4.357   6.604 -0.6037  0.3971  0.5747
 3435SOL    HW121941   0.324   4.405   6.535 -2.1735 -0.9510  0.6933
 3435SOL    HW221942   0.460   4.391   6.601 -0.4629 -0.1363 -1.2546
 3436SOL     OW21943   2.277   0.559   7.152 -0.4056 -0.8557 -0.1080
 3436SOL    HW121944   2.278   0.568   7.247 -1.4243 -0.4287 -0.1443
 3436SOL    HW221945   2.310   0.470   7.144  0.4695 -0.7937  2.6592
 3437SOL     OW21946   0.016   3.462   2.191  0.1502  0.4041  0.1315
 3437SOL    HW121947   0.025   3.406   2.114 -1.1339  0.1064  0.2092
 3437SOL    HW221948   4.658   3.475   2.183 -0.0060 -1.7416 -1.3868
 3438SOL     OW21949   4.498   2.046   1.162  0.2821  0.7919 -0.5743
 3438SOL    HW121950   4.578   2.035   1.112 -0.5950  1.3261 -2.1052
 3438SOL    HW221951   4.461   1.958   1.153 -1.2409  1.1852  1.7806
 3439SOL     OW21952   0.992   1.278   7.468  0.3935  0.8752  0.1276
 3439SOL    HW121953   0.912   1.313   7.509  0.7295  0.2327  1.3240
 3439SOL    HW221954   1.015   1.202   7.522 -0.1723  0.8276  0.3080
 3440SOL     OW21955   0.351   3.510   5.604  0.4667  0.0293 -0.2222
 3440SOL    HW121956   0.272   3.562   5.622 -0.5137 -1.4805 -0.2352
 3440SOL    HW221957   0.318   3.422   5.621 -0.2838  0.0858 -1.4114
 3441SOL     OW21958   3.111   0.389   7.219 -0.0329  0.5156 -0.3317
 3441SOL    HW121959   3.046   0.455   7.194 -0.4350 -0.0891 -0.8635
 3441SOL    HW221960   3.194   0.435   7.202 -0.2191  0.6309 -0.9267
 3442SOL     OW21961   1.218   1.356   5.347  0.2736 -0.7950  0.6800
 3442SOL    HW121962   1.189   1.436   5.304  1.0503  0.0254  1.7006
 3442SOL    HW221963   1.308   1.354   5.316 -0.3770 -0.7650 -1.2362
 3443SOL     OW21964   4.628   1.644   3.472  0.1709 -0.2046 -0.2275
 3443SOL    HW121965   4.614   1.738   3.487  0.4914  0.0353 -1.3984
 3443SOL    HW221966   4.570   1.599   3.533 -1.5816  2.8604  0.3813
 3444SOL     OW21967   1.166   2.633   4.343  0.3003  0.3099  0.3592
 3444SOL    HW121968   1.112   2.574   4.395  1.0650  1.1226  2.1026
 3444SOL    HW221969   1.155   2.598   4.255 -2.5149  0.2097  0.7563
 3445SOL     OW21970   1.297   0.656   3.424 -0.2368  0.5630  0.5746
 3445SOL    HW121971   1.299   0.567   3.391  1.4887  0.0215  2.0986
 3445SOL    HW221972   1.331   0.651   3.513  0.4451 -1.4180  0.1875
 3446SOL     OW21973   3.437   3.692   7.262  0.4857 -0.3098  0.3561
 3446SOL    HW121974   3.447   3.651   7.176  1.0724  0.3614  0.1005
 3446SOL    HW221975   3.513   3.750   7.252  0.0548  0.7326  3.1868
 3447SOL     OW21976   4.237   0.224   1.379 -0.3341  0.6909 -0.3684
 3447SOL    HW121977   4.217   0.314   1.403 -2.7341  0.7922 -2.7048
 3447SOL    HW221978   4.237   0.178   1.463 -0.3972  1.5941  0.1189
 3448SOL     OW21979   0.650   3.147   6.272  0.1071  0.3945 -0.8270
 3448SOL    HW121980   0.605   3.210   6.217 -0.9662 -2.4610 -3.2263
 3448SOL    HW221981   0.610   3.165   6.357 -0.2494  1.9635 -1.3281
 3449SOL     OW21982   3.296   0.846  17.273 -0.1329 -0.4052 -0.0773
 3449SOL    HW121983   3.222   0.805  17.318 -0.9610  0.8491 -0.3142
 3449SOL    HW221984   3.369   0.784  17.285 -0.8034 -1.6428 -2.2579
 3450SOL     OW21985   4.486   0.688   6.048 -0.0064 -0.6593 -0.2720
 3450SOL    HW121986   4.426   0.614   6.060  0.3402 -0.5859  2.0402
 3450SOL    HW221987   4.471   0.716   5.958  0.0802  0.7537  0.1410
 3451SOL     OW21988   4.268   0.471   5.704 -0.2000 -0.1097 -0.3075
 3451SOL    HW121989   4.201   0.534   5.679  0.0664  0.2786 -0.0364
 3451SOL    HW221990   4.328   0.528   5.752  0.8211 -0.4577 -1.1657
 3452SOL     OW21991   2.110   3.480   3.302 -0.7421 -0.1950  0.1048
 3452SOL    HW121992   2.098   3.428   3.223 -0.3441 -0.7640  0.4162
 3452SOL    HW221993   2.019   3.511   3.298 -0.7941 -0.0290  2.3491
 3453SOL     OW21994   2.054   3.913   0.331 -0.8567  0.2192 -0.0573
 3453SOL    HW121995   2.099   3.918   0.247  1.1117  0.8820  1.0521
 3453SOL    HW221996   1.966   3.908   0.294 -2.2040  1.8427  2.8884
 3454SOL     OW21997   0.046   4.014   2.435 -0.2154  0.4975 -0.3468
 3454SOL    HW121998   0.061   4.091   2.491 -0.7867  1.4852 -1.5372
 3454SOL    HW221999   4.690   4.006   2.456 -0.0304 -0.8098 -0.0765
 3455SOL     OW22000   3.062   2.719   3.245 -0.2633  0.0877 -0.1167
 3455SOL    HW122001   3.058   2.633   3.287  2.0924  0.2134  0.3925
 3455SOL    HW222002   3.153   2.751   3.251  0.3494 -1.8756  1.0174
 3456SOL     OW22003   4.051   0.166   3.691 -0.6720  0.3195 -0.0625
 3456SOL    HW122004   3.994   0.141   3.618 -1.1405  0.4903  0.2405
 3456SOL    HW222005   4.000   0.235   3.734 -0.4116  0.7344 -0.4369
 3457SOL     OW22006   4.601   1.297   2.769 -0.1947 -0.0546  0.3338
 3457SOL    HW122007   4.536   1.367   2.762  0.8928  1.0107  0.8161
 3457SOL    HW222008   4.553   1.221   2.801  1.9578 -2.6163 -2.4872
 3458SOL     OW22009   0.525   4.260   8.786  1.0669 -0.5846  0.4328
 3458SOL    HW122010   0.549   4.215   8.867  0.7881 -1.4248  0.0531
 3458SOL    HW222011   0.596   4.316   8.756  0.3086 -0.4810 -1.2066
 3459SOL     OW22012   0.067   3.652   1.591  0.4973 -0.2919 -0.3595
 3459SOL    HW122013   0.072   3.744   1.562  1.4314  0.3014  1.6933
 3459SOL    HW222014   4.714   3.643   1.622  0.8855 -0.9699  0.5389
 3460SOL     OW22015   1.371   3.613   1.461 -0.6058 -0.6506  0.1612
 3460SOL    HW122016   1.465   3.605   1.448 -0.7501  1.0509 -1.7848
 3460SOL    HW222017   1.357   3.701   1.497  1.4708  1.5072 -4.3443
 3461SOL     OW22018   4.217   0.084   3.016  0.4234  0.0020  0.0057
 3461SOL    HW122019   4.161   0.130   2.953 -0.7127 -0.9747  0.3158
 3461SOL    HW222020   4.299   0.095   2.968 -0.7085  0.4832 -1.8030
 3462SOL     OW22021   0.803   3.410   8.854 -0.9323 -0.2979  0.4822
 3462SOL    HW122022   0.855   3.415   8.934 -0.7727  1.4693  0.2701
 3462SOL    HW222023   0.868   3.409   8.784 -1.8502 -0.4821 -0.3622
 3463SOL     OW22024   0.707   0.206   7.385  0.2517  0.0941  0.5040
 3463SOL    HW122025   0.762   0.242   7.455 -1.5012  0.3130  1.7811
 3463SOL    HW222026   0.667   0.129   7.425  1.6998 -1.1060 -0.3847
 3464SOL     OW22027   0.138   2.112   9.711  0.5228  0.7513  0.1720
 3464SOL    HW122028   0.171   2.153   9.791 -0.7969  3.0334 -0.4771
 3464SOL    HW222029   0.163   2.160   9.632  1.0146 -1.4623 -1.0393
 3465SOL     OW22030   4.170   2.429  11.133 -0.3233 -0.0409 -0.4383
 3465SOL    HW122031   4.124   2.395  11.056 -1.6225  0.9015 -0.0786
 3465SOL    HW222032   4.229   2.493  11.093 -0.6036  0.8378  0.5589
 3466SOL     OW22033   2.362   3.550   6.002 -0.0879 -0.5122 -0.0201
 3466SOL    HW122034   2.292   3.586   5.948 -0.3633 -0.0889  0.6189
 3466SOL    HW222035   2.433   3.539   5.939  0.8953  2.2828  0.6329
 3467SOL     OW22036   0.067   2.130   5.050 -0.1769 -0.1846  0.2940
 3467SOL    HW122037   0.147   2.168   5.085 -0.4599  1.4063 -0.7779
 3467SOL    HW222038   0.102   2.087   4.972 -2.4828 -3.6980  1.1940
 3468SOL     OW22039   4.472   1.633  10.400  0.4839  0.1323  0.0275
 3468SOL    HW122040   4.559   1.601  10.373  0.6632  1.1765 -0.6333
 3468SOL    HW222041   4.498   1.715  10.441  1.3865  0.3496 -0.9769
 3469SOL     OW22042   0.180   2.391  12.954  0.1183 -0.3174  0.1019
 3469SOL    HW122043   0.268   2.359  12.938  0.3538  0.9884 -1.2308
 3469SOL    HW222044   0.149   2.381  12.864 -1.1966 -2.6817  0.8226
 3470SOL     OW22045   2.607   1.294   0.205 -0.2569  0.5231 -0.1580
 3470SOL    HW122046   2.626   1.384   0.179 -1.4684  1.0907  0.9434
 3470SOL    HW222047   2.573   1.256   0.124 -1.3595 -0.3623  0.7079
 3471SOL     OW22048   3.601   4.027   3.006  0.0532 -0.5093 -0.6059
 3471SOL    HW122049   3.598   4.089   2.933 -0.8001  2.0276  1.5613
 3471SOL    HW222050   3.525   3.970   2.995 -1.1618  0.6710  1.5951
 3472SOL     OW22051   2.065   1.103   6.285 -0.4551 -0.6397 -0.7916
 3472SOL    HW122052   2.081   1.197   6.289  3.4850 -1.2941 -1.7750
 3472SOL    HW222053   2.014   1.087   6.364  0.1891 -2.1934 -0.6831
 3473SOL     OW22054   1.361   3.477   2.104  0.1984  0.4776  0.1026
 3473SOL    HW122055   1.448   3.467   2.144  0.4866  0.4768 -0.5251
 3473SOL    HW222056   1.383   3.491   2.012  2.6634  0.2892  0.6355
 3474SOL     OW22057   3.603   3.147   5.191 -0.6618  0.1835  0.0365
 3474SOL    HW122058   3.691   3.117   5.215  0.3437  4.3190  1.6539
 3474SOL    HW222059   3.559   3.081   5.244 -1.3679 -1.5197 -2.6693
 3475SOL     OW22060   0.401   0.353  16.570 -0.2017  0.1260  0.0326
 3475SOL    HW122061   0.452   0.372  16.649 -1.0179 -0.1656  0.6331
 3475SOL    HW222062   0.407   0.431  16.515 -0.1566  0.7978  0.9893
 3476SOL     OW22063   2.858   1.421   4.546 -0.0104 -0.3716  0.5680
 3476SOL    HW122064   2.908   1.467   4.478  1.1456 -1.7328  0.4880
 3476SOL    HW222065   2.924   1.431   4.616  0.7302  1.6988 -0.4298
 3477SOL     OW22066   3.376   2.554  15.481 -0.2140 -0.4147 -0.2750
 3477SOL    HW122067   3.417   2.507  15.554  1.1823  3.1177  1.1771
 3477SOL    HW222068   3.307   2.491  15.462  1.0534 -1.3671 -1.8026
 3478SOL     OW22069   3.932   3.321   6.803 -0.4528 -0.2270 -0.3273
 3478SOL    HW122070   3.884   3.389   6.757  0.1786  0.2281 -0.3073
 3478SOL    HW222071   3.923   3.363   6.888  0.2280  0.2142 -0.4736
 3479SOL     OW22072   2.987   3.551   2.210 -0.3443  0.9065  0.4395
 3479SOL    HW122073   3.017   3.641   2.222  0.9122  0.3475  1.5648
 3479SOL    HW222074   2.892   3.561   2.203 -0.6713 -2.5934 -0.0540
 3480SOL     OW22075   3.252   1.099  11.300  0.6324 -0.1570  0.0661
 3480SOL    HW122076   3.270   1.142  11.384  2.4973 -0.2572 -0.2839
 3480SOL    HW222077   3.336   1.061  11.273 -0.8529 -2.8387 -0.7070
 3481SOL     OW22078   3.589   2.433   9.509  0.0133  0.2829  0.2049
 3481SOL    HW122079   3.600   2.456   9.601  0.9098  0.7430 -0.0162
 3481SOL    HW222080   3.677   2.403   9.487  0.0572  0.6965 -0.1742
 3482SOL     OW22081   4.248   3.240   8.190  0.2938 -0.8669  0.2474
 3482SOL    HW122082   4.295   3.207   8.267 -0.1662  0.9929  1.3163
 3482SOL    HW222083   4.185   3.168   8.192 -1.2400  0.5200  2.2955
 3483SOL     OW22084   0.300   2.181   2.179  0.7283  0.4156 -0.6189
 3483SOL    HW122085   0.225   2.121   2.178 -0.4668  1.9199 -1.0215
 3483SOL    HW222086   0.255   2.255   2.219 -1.4790 -1.2110 -0.0625
 3484SOL     OW22087   0.072   0.926  16.252 -0.4895 -0.3641 -0.1385
 3484SOL    HW122088   0.157   0.895  16.284  0.3875 -0.3900 -2.4868
 3484SOL    HW222089   0.012   0.924  16.327 -2.0474  0.3913 -1.3565
 3485SOL     OW22090   0.521   4.348   6.155  0.0053  0.0715 -0.2897
 3485SOL    HW122091   0.488   4.414   6.094  0.4847  1.2115  0.6838
 3485SOL    HW222092   0.506   4.269   6.103 -1.0017  0.6532 -0.8724
 3486SOL     OW22093   4.578   1.788   0.538  0.1587  0.4316  0.1067
 3486SOL    HW122094   4.560   1.782   0.444  0.8182  1.4708 -0.0855
 3486SOL    HW222095   4.632   1.710   0.554 -0.1286 -0.3111 -2.5662
 3487SOL     OW22096   3.958   3.800  11.751  0.1401  0.2686  0.0953
 3487SOL    HW122097   3.877   3.752  11.736  0.0333  0.8707 -1.3591
 3487SOL    HW222098   4.026   3.746  11.710  0.6265  0.2136  0.9688
 3488SOL     OW22099   1.870   2.174   5.210  0.0320 -0.1388 -0.3872
 3488SOL    HW122100   1.935   2.222   5.159  2.4725 -2.3532  0.6651
 3488SOL    HW222101   1.877   2.202   5.301 -1.1420  2.2773 -1.0388
 3489SOL     OW22102   4.352   3.051  10.235 -0.2300 -0.8111  0.7425
 3489SOL    HW122103   4.363   3.032  10.142 -3.6485 -4.0075  1.0028
 3489SOL    HW222104   4.340   3.146  10.232 -1.3402 -1.0583 -2.2964
 3490SOL     OW22105   2.251   1.347   6.506 -0.2827 -0.0068  0.5350
 3490SOL    HW122106   2.205   1.340   6.422  0.2861 -1.6264  0.3482
 3490SOL    HW222107   2.249   1.255   6.533  0.9047 -0.6912 -1.6259
 3491SOL     OW22108   2.351   2.486   3.038 -0.3076 -0.1281 -0.4871
 3491SOL    HW122109   2.264   2.513   3.069 -0.6242 -3.2805  1.3619
 3491SOL    HW222110   2.405   2.514   3.111  0.5380 -0.2307 -1.0762
 3492SOL     OW22111   0.054   0.856   3.427 -0.1798 -0.7110 -0.3963
 3492SOL    HW122112   0.115   0.836   3.357  0.4784 -0.8285  0.2070
 3492SOL    HW222113   0.049   0.952   3.420  0.7171 -0.8160 -2.2698
 3493SOL     OW22114   3.820   3.827   8.357 -0.3960 -0.6662 -0.6254
 3493SOL    HW122115   3.898   3.771   8.360 -1.0816 -1.6759 -1.5959
 3493SOL    HW222116   3.842   3.892   8.291 -1.5015  1.6306  1.2583
 3494SOL     OW22117   3.164   3.621   8.008  0.0407 -0.5796 -0.3613
 3494SOL    HW122118   3.190   3.549   8.066 -0.1998  0.4134  0.9697
 3494SOL    HW222119   3.218   3.604   7.931  0.9824 -1.3420  0.4741
 3495SOL     OW22120   2.512   3.790   3.225  0.2579  0.3791  0.3797
 3495SOL    HW122121   2.471   3.797   3.139 -1.5517  0.2174  1.2187
 3495SOL    HW222122   2.463   3.723   3.273  1.5297 -0.4942  0.4530
 3496SOL     OW22123   0.948   0.291  14.073 -0.4349 -0.2259  0.2450
 3496SOL    HW122124   0.862   0.270  14.111  0.6378  0.6720  3.1006
 3496SOL    HW222125   0.932   0.379  14.041  2.3010 -0.5094 -1.9124
 3497SOL     OW22126   1.027   0.614   3.771 -0.4313  0.2422  0.2378
 3497SOL    HW122127   0.965   0.550   3.809  0.4004  0.4846  1.9845
 3497SOL    HW222128   1.047   0.562   3.693 -0.8848 -1.4163  1.2016
 3498SOL     OW22129   3.855   3.471   2.594  0.2659  0.3249 -0.1073
 3498SOL    HW122130   3.853   3.434   2.682  0.0818  0.2627 -0.1390
 3498SOL    HW222131   3.926   3.421   2.554 -2.0927 -1.0355 -2.5285
 3499SOL     OW22132   3.079   3.625   8.304  0.1735  0.3513 -0.4285
 3499SOL    HW122133   3.146   3.583   8.251  0.1623  0.9144 -0.8785
 3499SOL    HW222134   3.054   3.550   8.359 -0.6441  1.4986  0.7796
 3500SOL     OW22135   4.345   2.730   5.015 -0.0251  0.0635  0.3273
 3500SOL    HW122136   4.380   2.763   5.097  0.9601  0.0114 -0.0688
 3500SOL    HW222137   4.407   2.769   4.954  0.1789 -0.6776  0.0601
 3501SOL     OW22138   1.766   1.939  17.247 -0.1100 -0.1107 -0.5904
 3501SOL    HW122139   1.693   1.972  17.298 -1.5511 -1.2239 -1.9483
 3501SOL    HW222140   1.779   2.012  17.185 -0.7833  0.8569  0.4187
 3502SOL     OW22141   1.032   0.907  13.614  0.0060  0.0321  0.4639
 3502SOL    HW122142   1.072   0.841  13.558 -0.4021  2.3956 -2.5952
 3502SOL    HW222143   1.095   0.904  13.686 -1.2516  3.9892  1.7466
 3503SOL     OW22144   4.664   1.418   3.967  0.0077 -0.1144 -0.4072
 3503SOL    HW122145   0.001   1.477   3.949  0.5408 -0.1578  1.5522
 3503SOL    HW222146   4.706   1.331   3.968  0.1141 -0.0541  1.6381
 3504SOL     OW22147   0.007   3.926  14.974 -0.0634  0.2879  0.1946
 3504SOL    HW122148   0.012   3.900  14.882 -1.6107 -0.4268  0.3164
 3504SOL    HW222149   0.010   4.021  14.979  0.6183  0.1658  2.4424
 3505SOL     OW22150   0.623   4.459   2.718 -0.3291  0.1369  0.2127
 3505SOL    HW122151   0.528   4.450   2.719 -0.3580  0.4441  0.0006
 3505SOL    HW222152   0.641   4.424   2.806  2.0187 -1.0248 -0.7272
 3506SOL     OW22153   4.367   2.778  16.504 -0.4018  0.0363  0.3280
 3506SOL    HW122154   4.328   2.858  16.469  1.3937  1.1348  0.8060
 3506SOL    HW222155   4.457   2.785  16.471 -0.0942  0.5264  1.2732
 3507SOL     OW22156   4.131   1.919   4.466  0.0036  0.2823 -0.1447
 3507SOL    HW122157   4.209   1.960   4.427  0.2971 -1.4249 -1.3850
 3507SOL    HW222158   4.108   1.986   4.530  1.7167  0.4728  0.2961
 3508SOL     OW22159   1.476   2.250   0.877  0.7927 -0.0743  0.4886
 3508SOL    HW122160   1.438   2.321   0.930  0.2693  0.5242 -0.6802
 3508SOL    HW222161   1.445   2.180   0.934 -0.0130  1.5344  2.0421
 3509SOL     OW22162   3.796   3.547   1.601 -0.8541  0.5280  0.2447
 3509SOL    HW122163   3.819   3.629   1.645 -0.3786  0.0691  0.8608
 3509SOL    HW222164   3.847   3.476   1.641 -1.8664 -1.3983 -1.9343
 3510SOL     OW22165   2.498   4.291   7.869 -1.0439  0.9176  0.5990
 3510SOL    HW122166   2.462   4.359   7.926  3.5012  1.0734  3.2781
 3510SOL    HW222167   2.416   4.242   7.858 -0.7561 -0.0008  2.5509
 3511SOL     OW22168   2.523   4.161   8.254  1.1973  0.0870 -0.4603
 3511SOL    HW122169   2.573   4.111   8.190  1.4337  1.0306 -1.0110
 3511SOL    HW222170   2.592   4.200   8.308  0.6541  0.4197 -0.0036
 3512SOL     OW22171   0.406   1.573   1.818  0.1816  0.7134 -0.1952
 3512SOL    HW122172   0.358   1.634   1.875  1.2850 -0.4755  2.0127
 3512SOL    HW222173   0.395   1.497   1.876 -0.3065 -1.5368 -3.2476
 3513SOL     OW22174   0.199   0.629   5.808  0.4399 -0.3269  0.0489
 3513SOL    HW122175   0.234   0.542   5.789 -3.1760 -2.4780  3.3277
 3513SOL    HW222176   0.195   0.616   5.902  0.5918  1.7499  0.3517
 3514SOL     OW22177   1.735   3.565   4.746 -0.0178  0.8226  0.2410
 3514SOL    HW122178   1.762   3.555   4.838  2.6219 -0.8258 -0.7194
 3514SOL    HW222179   1.818   3.546   4.704  0.8470  3.4435  0.7504
 3515SOL     OW22180   1.268   1.822   6.435  0.6872  0.3153 -0.1555
 3515SOL    HW122181   1.312   1.742   6.464  0.5105 -0.5103 -2.1388
 3515SOL    HW222182   1.230   1.855   6.517  1.3538 -4.7207  2.1561
 3516SOL     OW22183   3.577   3.593   2.847 -0.3803  0.2987  0.2482
 3516SOL    HW122184   3.631   3.514   2.844 -0.3261  0.3561 -0.2316
 3516SOL    HW222185   3.632   3.665   2.816  2.0785 -1.6519  0.0709
 3517SOL     OW22186   3.575   3.993   5.216  0.4419 -0.1946 -0.1732
 3517SOL    HW122187   3.541   3.932   5.151 -0.9351 -0.9021  1.2171
 3517SOL    HW222188   3.557   3.949   5.300 -1.0801 -1.5612 -1.2162
 3518SOL     OW22189   2.358   1.717   6.704  0.3953  0.1770  0.0506
 3518SOL    HW122190   2.420   1.734   6.633 -1.4934 -0.1968 -1.6670
 3518SOL    HW222191   2.321   1.804   6.719 -1.2173 -0.2863 -1.2241
 3519SOL     OW22192   4.001   2.871  11.690 -0.2864  0.1540 -0.1667
 3519SOL    HW122193   3.935   2.897  11.755  0.2014  0.9103  0.0246
 3519SOL    HW222194   3.988   2.777  11.682  1.7236 -0.3255  2.2229
 3520SOL     OW22195   2.732   1.739   3.381  0.6291  0.6542  0.6929
 3520SOL    HW122196   2.730   1.720   3.474  1.6017 -2.0681  0.1494
 3520SOL    HW222197   2.677   1.669   3.347 -0.2743  0.8628  1.7307
 3521SOL     OW22198   0.503   2.202   1.629 -0.5420  0.2094 -0.0409
 3521SOL    HW122199   0.580   2.149   1.611 -0.1807  1.4239 -2.1132
 3521SOL    HW222200   0.511   2.265   1.557 -1.1847  0.3164 -0.0220
 3522SOL     OW22201   4.226   3.591   3.062 -0.0730 -0.7524  0.1683
 3522SOL    HW122202   4.299   3.600   2.999 -2.0048  2.0425 -1.6350
 3522SOL    HW222203   4.160   3.635   3.009  1.9434  0.9985 -0.9195
 3523SOL     OW22204   1.531   2.368   6.488 -0.1235  0.1923 -0.5423
 3523SOL    HW122205   1.604   2.349   6.547 -2.6860 -2.2564  1.8522
 3523SOL    HW222206   1.472   2.380   6.563  1.7198 -1.9097  1.2688
 3524SOL     OW22207   3.203   1.424  15.325 -0.3909  0.4067  0.4649
 3524SOL    HW122208   3.219   1.408  15.418 -0.8639  0.6156  0.5791
 3524SOL    HW222209   3.214   1.518  15.340 -2.0873  0.3356  2.0413
 3525SOL     OW22210   4.375   1.596   4.679  0.2001 -0.0468 -0.2105
 3525SOL    HW122211   4.419   1.667   4.726  1.5653 -0.9176 -0.1886
 3525SOL    HW222212   4.285   1.587   4.711 -0.3816  3.2431 -0.9250
 3526SOL     OW22213   2.170   1.033   7.108 -0.5745  0.1263 -0.4299
 3526SOL    HW122214   2.193   1.059   7.019  0.4753 -2.1093 -0.8062
 3526SOL    HW222215   2.178   1.117   7.152 -1.2068 -1.1272  2.0758
 3527SOL     OW22216   1.414   0.031   0.171 -0.7930  0.5296  0.3589
 3527SOL    HW122217   1.462   0.026   0.088  1.9363 -0.0677  1.9431
 3527SOL    HW222218   1.478   0.005   0.238  0.3638 -0.7252 -1.2470
 3528SOL     OW22219   3.407   2.088   7.161  0.3204  0.0975  0.0153
 3528SOL    HW122220   3.453   2.027   7.104  0.3088  1.2230 -1.1961
 3528SOL    HW222221   3.470   2.099   7.232  1.1986  0.5285 -0.8272
 3529SOL     OW22222   0.647   2.952   3.667 -0.1955 -0.6418  0.2583
 3529SOL    HW122223   0.616   3.021   3.725 -0.2317 -1.0537  0.7298
 3529SOL    HW222224   0.641   2.998   3.583  1.2063  0.3581  0.7030
 3530SOL     OW22225   0.668   1.977   1.550  0.3847  0.2611  0.2887
 3530SOL    HW122226   0.743   1.968   1.610  0.1255 -1.2810  0.3865
 3530SOL    HW222227   0.610   1.904   1.571  2.3200 -1.3244  0.0999
 3531SOL     OW22228   0.992   2.597  16.552 -0.5128  0.2438 -0.2952
 3531SOL    HW122229   0.909   2.637  16.580 -0.3321  0.5687 -0.2178
 3531SOL    HW222230   1.042   2.679  16.543 -1.2200  0.7493  0.3742
 3532SOL     OW22231   4.220   3.342   3.843 -0.1676 -0.6240 -0.3777
 3532SOL    HW122232   4.161   3.408   3.879  0.0404  0.0939 -1.3309
 3532SOL    HW222233   4.164   3.293   3.783 -1.0383 -0.5617  0.4036
 3533SOL     OW22234   3.111   2.390   6.979  0.3514  0.0651  0.0272
 3533SOL    HW122235   3.051   2.328   6.937  0.1729  0.6034 -0.5173
 3533SOL    HW222236   3.196   2.367   6.941  0.7081  2.3121 -0.5378
 3534SOL     OW22237   0.985   2.718   7.046  0.2204  0.5006 -0.3072
 3534SOL    HW122238   0.997   2.653   6.976 -3.0746 -0.2995 -0.0953
 3534SOL    HW222239   1.074   2.718   7.083 -0.0417 -0.0073  0.3048
 3535SOL     OW22240   1.074   4.090   3.276  0.5152 -0.2016  0.1419
 3535SOL    HW122241   1.116   4.005   3.261 -1.4479 -0.3781 -4.1973
 3535SOL    HW222242   1.154   4.131   3.308  1.7910 -2.9462  0.4598
 3536SOL     OW22243   3.606   2.788   4.378  0.2771 -0.0024 -0.0016
 3536SOL    HW122244   3.542   2.746   4.435  2.7265 -0.7119  2.2359
 3536SOL    HW222245   3.637   2.858   4.436  0.6500  0.0432 -0.2557
 3537SOL     OW22246   1.917   0.140   3.640 -0.3184  0.4177  0.0803
 3537SOL    HW122247   1.959   0.054   3.640 -1.7836 -0.2983 -0.4937
 3537SOL    HW222248   1.838   0.108   3.686 -1.8803  2.1919 -1.3684
 3538SOL     OW22249   3.656   1.630   6.930 -0.3568 -0.7045  0.0092
 3538SOL    HW122250   3.608   1.675   6.860  1.0649  1.2258  0.2752
 3538SOL    HW222251   3.744   1.629   6.893 -1.9760  0.6333 -3.8693
 3539SOL     OW22252   3.548   3.977  15.642  0.4111 -0.6821  0.2030
 3539SOL    HW122253   3.603   4.049  15.672  0.7007 -0.8043 -0.0429
 3539SOL    HW222254   3.523   4.006  15.554 -0.3455 -0.8849  0.3457
 3540SOL     OW22255   0.044   0.303   4.899  0.4759  0.5609  0.1890
 3540SOL    HW122256   0.042   0.325   4.992  1.0287  0.2334  0.2779
 3540SOL    HW222257   0.077   0.214   4.900 -2.3397 -0.5093 -1.6594
 3541SOL     OW22258   2.534   0.751   7.510 -0.4759  0.1369 -0.1872
 3541SOL    HW122259   2.550   0.844   7.489 -0.2116 -0.1495 -1.2540
 3541SOL    HW222260   2.569   0.756   7.599 -0.9310  1.7002 -0.0931
 3542SOL     OW22261   4.005   3.750   2.581  0.6444  0.1667  0.4416
 3542SOL    HW122262   3.954   3.710   2.511  0.5926  1.2924 -0.1721
 3542SOL    HW222263   3.939   3.812   2.612  0.4972 -0.6958  1.8367
 3543SOL     OW22264   4.437   1.693   2.867 -0.3025  0.0865 -0.3957
 3543SOL    HW122265   4.352   1.703   2.825 -0.9412  0.9835  1.1113
 3543SOL    HW222266   4.492   1.733   2.799  1.3958 -0.9496  0.3407
 3544SOL     OW22267   1.304   0.918   9.145  0.3887 -0.0827 -0.5358
 3544SOL    HW122268   1.345   0.861   9.080  3.2511  0.8725  0.4493
 3544SOL    HW222269   1.256   0.849   9.191 -1.6605  1.7580  0.1051
 3545SOL     OW22270   4.527   3.355   6.628  0.0901 -0.2176  0.0571
 3545SOL    HW122271   4.543   3.442   6.592  1.9965  0.2789  2.0804
 3545SOL    HW222272   4.433   3.340   6.633  0.3104 -0.9262  1.9876
 3546SOL     OW22273   4.626   2.639  13.072 -0.1367 -0.2259 -0.2537
 3546SOL    HW122274   4.551   2.611  13.020 -0.6505  0.2166  0.2627
 3546SOL    HW222275   4.617   2.734  13.071 -1.4900 -0.3676 -0.6247
 3547SOL     OW22276   4.075   2.469   4.583 -0.1680  0.0372  0.1334
 3547SOL    HW122277   4.043   2.499   4.498  1.4278  1.7717  0.1312
 3547SOL    HW222278   4.014   2.521   4.635 -0.4435  0.0425 -0.1937
 3548SOL     OW22279   1.851   3.783   7.560 -0.5021  0.0354  0.3235
 3548SOL    HW122280   1.773   3.739   7.525  1.0404 -0.7864 -2.0926
 3548SOL    HW222281   1.907   3.774   7.482 -2.6636  1.0209 -1.3635
 3549SOL     OW22282   1.175   2.663  15.932 -0.4664 -0.0981  0.1847
 3549SOL    HW122283   1.146   2.633  15.846 -1.9650  2.3426 -0.1694
 3549SOL    HW222284   1.209   2.585  15.976  1.4061  0.1248 -0.8965
 3550SOL     OW22285   1.131   2.442   5.299 -0.2094  0.2568 -0.1661
 3550SOL    HW122286   1.077   2.521   5.310  0.1471  0.4878 -0.0767
 3550SOL    HW222287   1.099   2.408   5.215 -0.4954  0.1963 -0.0329
 3551SOL     OW22288   3.861   4.627   8.473  0.0138  0.3864  0.1253
 3551SOL    HW122289   3.806   4.691   8.519  2.4193  0.3972  2.9669
 3551SOL    HW222290   3.880   4.673   8.391 -1.6659 -0.2072 -0.6050
 3552SOL     OW22291   0.666   1.027   1.581 -0.1859 -0.5901 -0.3810
 3552SOL    HW122292   0.684   0.939   1.550 -1.5206 -0.6941 -0.8799
 3552SOL    HW222293   0.725   1.037   1.656  2.2657  0.1791 -2.4116
 3553SOL     OW22294   0.330   0.028   9.093  0.0521 -0.0494 -0.3322
 3553SOL    HW122295   0.349   0.116   9.125 -0.4643 -0.0155 -0.1155
 3553SOL    HW222296   0.258   0.039   9.031  0.4384 -0.3830 -0.8319
 3554SOL     OW22297   2.118   0.715   2.137 -0.1574 -0.1674  0.7509
 3554SOL    HW122298   2.159   0.798   2.161 -0.2092  0.3342 -0.8902
 3554SOL    HW222299   2.035   0.723   2.184 -1.1082 -1.7774 -0.6740
 3555SOL     OW22300   1.087   3.246   2.048 -0.3423 -0.2812  0.9197
 3555SOL    HW122301   1.003   3.292   2.045  1.3062  2.4885 -2.1679
 3555SOL    HW222302   1.121   3.252   1.959 -0.1566  0.4935  1.0391
 3556SOL     OW22303   0.272   0.055   6.957 -0.3972  0.4078 -0.6505
 3556SOL    HW122304   0.289   0.140   6.996 -0.1566  0.0038  0.1368
 3556SOL    HW222305   0.294   4.729   7.026  0.7873  0.2263 -1.1944
 3557SOL     OW22306   0.953   3.129   1.693  0.3052 -0.0741 -0.1282
 3557SOL    HW122307   0.861   3.154   1.700  0.8199  1.6813  0.4654
 3557SOL    HW222308   0.946   3.041   1.656 -1.3332  0.1549 -0.3579
 3558SOL     OW22309   4.410   4.146   3.996  0.7164  0.6003  0.3705
 3558SOL    HW122310   4.441   4.095   4.071  3.5915  1.4663 -0.2343
 3558SOL    HW222311   4.315   4.143   4.008  0.6364 -1.4888 -0.7627
 3559SOL     OW22312   4.138   0.969   0.712  0.4765 -0.1826 -0.4666
 3559SOL    HW122313   4.133   0.940   0.621  2.0805  0.9686 -0.9169
 3559SOL    HW222314   4.048   0.960   0.744  1.3368 -0.1868  2.0176
 3560SOL     OW22315   3.372   4.704   3.688 -0.2061 -0.1769  0.1246
 3560SOL    HW122316   3.284   4.732   3.711  0.3704 -0.1707  2.3416
 3560SOL    HW222317   3.356   4.638   3.620  0.1468 -0.0449 -0.0833
 3561SOL     OW22318   2.990   4.491  14.320  0.9149  0.0454  0.2187
 3561SOL    HW122319   2.940   4.501  14.400 -1.3627 -2.4997 -0.9152
 3561SOL    HW222320   3.027   4.403  14.332 -1.4832 -0.8556  0.8159
 3562SOL     OW22321   3.593   4.042   7.514  0.3826  0.1390 -0.1063
 3562SOL    HW122322   3.658   4.049   7.445  0.0996 -0.2393 -0.4078
 3562SOL    HW222323   3.648   4.069   7.588 -0.8353  2.2420  0.0139
 3563SOL     OW22324   2.066   2.046   3.708  0.0567 -0.1024 -0.2175
 3563SOL    HW122325   2.061   1.953   3.730  1.0751 -0.1553 -0.2105
 3563SOL    HW222326   2.118   2.078   3.782  1.4309  0.6014 -1.4883
 3564SOL     OW22327   3.745   3.824   2.896  0.7565  0.0975  0.0496
 3564SOL    HW122328   3.789   3.865   2.821 -0.3451  0.8981 -0.1510
 3564SOL    HW222329   3.730   3.899   2.952  0.1474 -1.2959  1.7545
 3565SOL     OW22330   4.577   2.608   2.968  0.1574 -0.1253  0.1836
 3565SOL    HW122331   4.489   2.622   2.934 -0.7756  2.3098  3.6454
 3565SOL    HW222332   4.597   2.695   3.000 -2.3914  0.1793  0.9374
 3566SOL     OW22333   4.046   2.405  16.416 -0.3599 -0.8550 -0.5816
 3566SOL    HW122334   4.034   2.449  16.332  2.0988 -1.4687 -1.2835
 3566SOL    HW222335   4.062   2.481  16.472 -2.6451 -2.0484  1.6892
 3567SOL     OW22336   0.219   2.804   4.708 -0.3280  0.3259  0.5607
 3567SOL    HW122337   0.248   2.833   4.621  1.7071  0.0433  1.1369
 3567SOL    HW222338   0.278   2.730   4.723 -0.6829  0.0684  0.6838
 3568SOL     OW22339   2.546   2.174  15.574  0.1257  0.0543  0.0472
 3568SOL    HW122340   2.499   2.255  15.557 -1.9535 -1.2556 -0.3822
 3568SOL    HW222341   2.519   2.114  15.505 -1.6415 -0.8181  1.4971
 3569SOL     OW22342   1.249   0.578   1.806 -0.7788 -0.8649 -0.1920
 3569SOL    HW122343   1.288   0.534   1.730 -0.8599 -1.3103  0.0295
 3569SOL    HW222344   1.289   0.665   1.809 -1.0475 -0.7592  0.3292
 3570SOL     OW22345   2.250   2.450   0.598 -0.3270  0.1437  0.6352
 3570SOL    HW122346   2.198   2.530   0.589  1.2267  0.8342 -2.0236
 3570SOL    HW222347   2.341   2.480   0.596 -0.0031 -0.8888 -0.0518
 3571SOL     OW22348   0.996   2.979   9.833  0.2828 -0.0160  0.7542
 3571SOL    HW122349   1.015   2.952   9.923  1.7367 -1.3735  0.0579
 3571SOL    HW222350   1.011   3.073   9.831  0.8224 -0.1350 -0.6423
 3572SOL     OW22351   1.986   2.602   4.014  0.4792  0.2003  0.2989
 3572SOL    HW122352   1.940   2.528   3.974  1.7309 -0.0711 -0.6390
 3572SOL    HW222353   1.985   2.666   3.943 -0.9920  1.6432  1.6215
 3573SOL     OW22354   1.205   4.223   7.065  0.0008 -0.4123 -0.4438
 3573SOL    HW122355   1.288   4.254   7.102  0.2617  0.1590 -1.4991
 3573SOL    HW222356   1.217   4.137   7.025 -0.5017 -0.9210  0.5049
 3574SOL     OW22357   4.226   0.264   5.526 -0.1578 -0.3748 -0.7477
 3574SOL    HW122358   4.257   0.341   5.573  1.7893 -1.5560 -0.0656
 3574SOL    HW222359   4.166   0.303   5.462 -1.2512  1.4372  1.3946
 3575SOL     OW22360   0.396   2.381  13.740  0.0431  0.1535  0.2940
 3575SOL    HW122361   0.481   2.370  13.697  0.5589  0.9242  1.0932
 3575SOL    HW222362   0.368   2.290  13.732  1.7160 -0.3843  0.5414
 3576SOL     OW22363   3.187   1.832   6.887  0.2359  0.6183 -0.4250
 3576SOL    HW122364   3.129   1.872   6.822  0.0956 -1.2151 -1.4381
 3576SOL    HW222365   3.269   1.822   6.839  0.1148  1.1767 -0.7501
 3577SOL     OW22366   1.632   0.181   3.105  0.3584 -0.0993 -0.0028
 3577SOL    HW122367   1.539   0.189   3.125  0.7889  2.2854  1.1019
 3577SOL    HW222368   1.650   0.093   3.137  0.4503  0.3469  1.1702
 3578SOL     OW22369   0.511   3.381   4.077  0.2658  0.5172 -0.1372
 3578SOL    HW122370   0.467   3.370   3.993  0.4619  0.4469 -0.2293
 3578SOL    HW222371   0.463   3.458   4.108  0.1620 -0.0772  1.1950
 3579SOL     OW22372   3.997   4.118  15.354 -0.5506  0.3319 -0.2206
 3579SOL    HW122373   4.023   4.120  15.263  1.3767  0.9924  0.3505
 3579SOL    HW222374   3.996   4.024  15.370 -0.8221  0.1316 -1.4118
 3580SOL     OW22375   3.992   2.358   3.460 -0.3904  0.3467 -0.6197
 3580SOL    HW122376   3.933   2.372   3.386  2.0690 -0.9748 -2.8037
 3580SOL    HW222377   3.931   2.374   3.533 -0.4139  0.8359 -0.7452
 3581SOL     OW22378   3.105   4.594   0.770 -0.3408  0.3943 -0.5977
 3581SOL    HW122379   3.187   4.610   0.816  0.4620  0.4557 -2.0622
 3581SOL    HW222380   3.065   4.682   0.767  0.3424  0.6686 -1.5376
 3582SOL     OW22381   2.191   0.469   4.836  0.8120  0.5415  0.4749
 3582SOL    HW122382   2.157   0.534   4.896 -0.6225  1.1733 -1.0298
 3582SOL    HW222383   2.164   0.504   4.751 -2.4410 -0.1851  1.2342
 3583SOL     OW22384   2.311   0.739   9.473 -0.0051  0.0582  0.2040
 3583SOL    HW122385   2.238   0.799   9.458  1.8414  1.9604 -1.0603
 3583SOL    HW222386   2.282   0.693   9.552  2.1764 -0.4660  0.7010
 3584SOL     OW22387   3.389   4.655   7.556  0.2630 -0.3440  0.0663
 3584SOL    HW122388   3.464   4.670   7.614 -0.0526  0.7006  0.1933
 3584SOL    HW222389   3.419   4.717   7.489 -1.6478  0.4979  0.0005
 3585SOL     OW22390   1.504   1.592  11.248  0.1826  0.8024  0.1234
 3585SOL    HW122391   1.586   1.608  11.202  0.5181  0.8422  0.7345
 3585SOL    HW222392   1.457   1.675  11.255 -0.1614  0.5552  0.7825
 3586SOL     OW22393   1.973   1.584   2.008  0.2426 -0.2706  0.5537
 3586SOL    HW122394   1.989   1.674   2.037 -1.8825  0.0976  0.5994
 3586SOL    HW222395   2.064   1.554   2.003  0.3149 -0.0523  0.5731
 3587SOL     OW22396   1.328   1.924   1.630  0.1217  0.0409 -0.5323
 3587SOL    HW122397   1.393   1.970   1.683 -0.1803 -0.4137  0.2211
 3587SOL    HW222398   1.335   1.833   1.659 -0.5668 -0.0405 -0.6113
 3588SOL     OW22399   4.260   1.530  10.262  0.0986  0.0918  0.4271
 3588SOL    HW122400   4.321   1.571  10.324  0.0231  1.2537 -0.2613
 3588SOL    HW222401   4.322   1.525  10.189  0.4648 -1.7082  0.8582
 3589SOL     OW22402   3.577   4.002   2.510 -0.6176  0.0815 -0.1917
 3589SOL    HW122403   3.526   3.932   2.552  0.3898 -0.5226  0.0299
 3589SOL    HW222404   3.518   4.053   2.454  0.7122  0.6704 -1.0570
 3590SOL     OW22405   1.301   1.022   3.147 -0.2895 -0.2118  0.0054
 3590SOL    HW122406   1.355   1.014   3.226 -1.1258  0.7437  0.6782
 3590SOL    HW222407   1.214   1.033   3.185 -0.2876  0.2076 -0.1103
 3591SOL     OW22408   2.040   4.631   3.650 -0.0027 -0.1736 -0.2431
 3591SOL    HW122409   2.125   4.592   3.673 -0.2656 -1.6558 -1.8042
 3591SOL    HW222410   1.974   4.563   3.638  0.1437 -0.4852  0.7337
 3592SOL     OW22411   0.459   2.090   3.356  0.3755  0.4622 -0.0357
 3592SOL    HW122412   0.414   2.036   3.291  0.0686 -1.3429  1.6359
 3592SOL    HW222413   0.501   2.157   3.303 -0.7825  2.0774  1.1101
 3593SOL     OW22414   0.015   3.022   6.965  1.1834  0.2926 -0.4305
 3593SOL    HW122415   4.659   3.039   6.985  0.6552 -1.2806 -1.4900
 3593SOL    HW222416   0.041   3.098   6.914 -1.3535  0.4237 -1.5279
 3594SOL     OW22417   1.887   1.519   1.774  0.2955 -0.4775  0.3173
 3594SOL    HW122418   1.969   1.562   1.750 -0.2996  0.1613 -0.5916
 3594SOL    HW222419   1.886   1.546   1.865  1.7242  0.0502  0.1780
 3595SOL     OW22420   2.763   1.907   8.575  0.3115  0.1588 -0.1117
 3595SOL    HW122421   2.842   1.956   8.555 -1.1013  2.5602  0.1776
 3595SOL    HW222422   2.784   1.879   8.664  0.7763  2.4930  0.5082
 3596SOL     OW22423   3.282   4.350   7.088 -0.0788  0.0327 -0.1163
 3596SOL    HW122424   3.308   4.405   7.162 -1.3798  2.1563 -1.2540
 3596SOL    HW222425   3.203   4.311   7.128 -0.3681  0.0539 -0.6733
 3597SOL     OW22426   2.459   1.916   3.599  0.0138  0.1276 -0.1147
 3597SOL    HW122427   2.436   1.832   3.559 -2.5211  1.0472 -0.5414
 3597SOL    HW222428   2.543   1.889   3.637  0.4415 -1.0237 -1.9031
 3598SOL     OW22429   1.498   2.007   2.507 -0.4529 -0.3860  0.2999
 3598SOL    HW122430   1.493   2.102   2.494  1.3401 -0.1307  1.5163
 3598SOL    HW222431   1.539   1.989   2.592  0.8970 -0.7050 -0.4194
 3599SOL     OW22432   0.944   1.225  11.345 -0.1123 -0.2965 -0.9709
 3599SOL    HW122433   1.037   1.226  11.323  0.7291  0.7161  2.5500
 3599SOL    HW222434   0.941   1.135  11.379 -2.7921 -0.4247 -1.5352
 3600SOL     OW22435   0.528   0.655  16.329  0.4482  0.1347  0.4215
 3600SOL    HW122436   0.487   0.584  16.280  0.1129  0.5558  0.1001
 3600SOL    HW222437   0.611   0.612  16.351  0.8055  1.3648  1.5365
 3601SOL     OW22438   2.645   4.243   5.357  0.4280  0.1688 -0.2196
 3601SOL    HW122439   2.685   4.330   5.355 -0.8393  0.7548  0.1409
 3601SOL    HW222440   2.694   4.200   5.286  1.0659 -1.5055  1.2370
 3602SOL     OW22441   1.246   4.078  16.636  0.0229  0.3715  0.2855
 3602SOL    HW122442   1.218   4.165  16.661 -0.4587  0.3815 -0.2956
 3602SOL    HW222443   1.162   4.033  16.639  0.5448 -0.4524  2.7331
 3603SOL     OW22444   3.776   0.464   8.283 -0.1701  0.6329 -0.0354
 3603SOL    HW122445   3.741   0.409   8.353  0.8025  0.5491  0.3799
 3603SOL    HW222446   3.852   0.507   8.323 -0.8321  0.3091  1.5540
 3604SOL     OW22447   4.270   2.736  13.356 -0.3790  0.7438 -0.0951
 3604SOL    HW122448   4.336   2.804  13.371 -1.8894  2.0926  0.5432
 3604SOL    HW222449   4.210   2.776  13.420 -1.8660  0.0323 -1.0425
 3605SOL     OW22450   2.589   1.799   6.580  0.0276 -0.1845 -0.7187
 3605SOL    HW122451   2.629   1.759   6.503 -2.3456 -1.2114 -1.4086
 3605SOL    HW222452   2.619   1.889   6.570  2.3101 -0.9459 -0.8075
 3606SOL     OW22453   0.893   2.722   4.086  0.0821  0.7992  0.0858
 3606SOL    HW122454   0.949   2.755   4.155  1.3798 -2.0337  0.3835
 3606SOL    HW222455   0.816   2.710   4.142 -1.3942 -0.0195 -2.0958
 3607SOL     OW22456   1.143   2.756  10.872  0.2846  0.5858 -0.5260
 3607SOL    HW122457   1.071   2.692  10.870  1.1511 -0.4168  0.1436
 3607SOL    HW222458   1.198   2.702  10.929  1.4230  1.7094 -0.5638
 3608SOL     OW22459   3.436   1.059  16.368 -0.2342  0.0226  0.3939
 3608SOL    HW122460   3.348   1.097  16.365  1.3428  3.3904 -2.7571
 3608SOL    HW222461   3.470   1.132  16.420  1.9654 -2.6040  2.6063
 3609SOL     OW22462   1.213   3.725  16.121  0.0675 -0.4968 -0.2058
 3609SOL    HW122463   1.281   3.716  16.188  0.7371  1.9441 -0.5645
 3609SOL    HW222464   1.175   3.811  16.140 -0.0513 -0.6132  0.0873
 3610SOL     OW22465   2.977   4.051  15.532  0.0342 -0.4837 -0.3090
 3610SOL    HW122466   2.932   4.120  15.484  0.0820  1.0389  1.8106
 3610SOL    HW222467   3.060   4.055  15.484 -0.4848  2.4972 -0.9889
 3611SOL     OW22468   1.749   0.500   8.536 -0.0299  0.2834  0.3428
 3611SOL    HW122469   1.780   0.570   8.594  0.0381 -0.7664  1.5722
 3611SOL    HW222470   1.765   0.425   8.594  0.8984  1.2224  1.3010
 3612SOL     OW22471   1.531   0.306   7.934 -0.0299 -0.4532 -0.9138
 3612SOL    HW122472   1.438   0.326   7.937  0.2847  0.7421  0.5442
 3612SOL    HW222473   1.572   0.367   7.995 -0.9028 -2.5680  1.7811
 3613SOL     OW22474   0.820   2.666  14.975 -0.0323  0.1040 -0.4499
 3613SOL    HW122475   0.737   2.625  15.001  0.9024 -3.1721 -2.6690
 3613SOL    HW222476   0.872   2.597  14.934  0.1846 -0.5519  0.9526
 3614SOL     OW22477   0.825   1.858  16.123 -0.0766 -0.2468 -0.2318
 3614SOL    HW122478   0.880   1.839  16.199 -0.1487 -3.3215 -0.9396
 3614SOL    HW222479   0.753   1.807  16.159 -0.2292  0.6099  0.6581
 3615SOL     OW22480   1.309   3.417   0.730 -0.3499 -0.0787 -0.0603
 3615SOL    HW122481   1.266   3.377   0.806 -0.2828  0.5907  0.3369
 3615SOL    HW222482   1.271   3.384   0.649  0.9217  0.1115 -0.7256
 3616SOL     OW22483   0.567   4.556   8.838 -0.3541  0.2869 -0.7252
 3616SOL    HW122484   0.594   4.624   8.777 -0.2976 -0.8856 -2.0056
 3616SOL    HW222485   0.472   4.562   8.848 -0.0162 -1.3126  3.6051
 3617SOL     OW22486   3.833   4.445  16.556 -0.3587  0.2590 -0.5197
 3617SOL    HW122487   3.909   4.388  16.569  1.4078  3.0522  1.4167
 3617SOL    HW222488   3.783   4.415  16.632  2.4896 -2.5676  0.2670
 3618SOL     OW22489   2.391   3.899   3.477  0.3423 -0.2233 -0.6882
 3618SOL    HW122490   2.443   3.869   3.402  0.2068 -0.4839 -0.6779
 3618SOL    HW222491   2.355   3.974   3.430 -0.7871 -1.6345 -2.0848
 3619SOL     OW22492   1.753   4.605  15.847 -0.1703 -0.3088  0.3050
 3619SOL    HW122493   1.807   4.587  15.924  3.0974  0.4081 -1.8275
 3619SOL    HW222494   1.672   4.636  15.888  0.0437  1.8666 -0.9182
 3620SOL     OW22495   3.052   3.302   0.486 -0.6378  0.2375 -0.3818
 3620SOL    HW122496   3.012   3.372   0.537  2.7844 -0.1667  2.8708
 3620SOL    HW222497   3.143   3.332   0.484 -1.0752  1.6180  0.9206
 3621SOL     OW22498   3.891   4.042   3.758  0.4779 -0.4979 -0.3127
 3621SOL    HW122499   3.834   4.052   3.835 -1.1272  1.6645 -1.7697
 3621SOL    HW222500   3.840   4.084   3.689 -0.1343 -0.9945 -0.1609
 3622SOL     OW22501   3.790   1.404   3.880 -0.4751  0.3501  0.4046
 3622SOL    HW122502   3.744   1.378   3.800  0.1276 -1.0028  0.5076
 3622SOL    HW222503   3.857   1.465   3.848  0.2856 -0.7187 -0.0503
 3623SOL     OW22504   2.127   3.367   9.600  0.1644  0.0980  0.0025
 3623SOL    HW122505   2.206   3.330   9.561 -0.3885 -1.8969  0.7860
 3623SOL    HW222506   2.088   3.410   9.524  1.0929 -0.4488 -0.7779
 3624SOL     OW22507   0.610   0.613   3.536  0.6044 -0.2773 -0.2921
 3624SOL    HW122508   0.596   0.525   3.501 -2.3614  1.9602 -4.7782
 3624SOL    HW222509   0.703   0.620   3.514  0.4753 -1.1945 -1.1052
 3625SOL     OW22510   0.413   1.629   8.834  0.3384 -0.2219  0.0987
 3625SOL    HW122511   0.340   1.583   8.791  0.8704  1.5040 -2.6258
 3625SOL    HW222512   0.431   1.583   8.916  2.5210 -0.2032 -0.3686
 3626SOL     OW22513   2.862   3.932   1.780 -1.0871  0.9030 -0.7513
 3626SOL    HW122514   2.938   3.970   1.825 -1.5658  1.6171 -0.5537
 3626SOL    HW222515   2.848   3.996   1.709  1.6213  2.1050 -0.2346
 3627SOL     OW22516   4.369   0.496  15.354  0.3216 -0.6985 -0.1141
 3627SOL    HW122517   4.297   0.469  15.410 -0.4094  1.5503  0.0436
 3627SOL    HW222518   4.352   0.431  15.286  3.6308 -1.5722 -0.1034
 3628SOL     OW22519   4.051   4.125  11.032 -0.4238  0.0377 -0.7948
 3628SOL    HW122520   4.025   4.137  10.941 -0.8980 -0.6068 -0.7421
 3628SOL    HW222521   4.016   4.036  11.032 -0.2616 -0.0246 -0.8773
 3629SOL     OW22522   1.650   2.343   4.786  0.1281 -0.5163 -0.3838
 3629SOL    HW122523   1.634   2.294   4.705 -0.4321 -0.1421 -0.4989
 3629SOL    HW222524   1.671   2.284   4.858  3.1673  0.7203 -0.2602
 3630SOL     OW22525   2.948   0.969   8.321  0.6880  0.1400 -0.3687
 3630SOL    HW122526   2.950   1.044   8.262  1.5224 -0.2544 -0.8386
 3630SOL    HW222527   3.042   0.955   8.320  1.0067  2.3715 -2.3489
 3631SOL     OW22528   1.438   2.378   7.059  0.1354 -0.1658  0.0792
 3631SOL    HW122529   1.453   2.292   7.099 -0.9809 -0.4878 -0.1761
 3631SOL    HW222530   1.346   2.392   7.084 -0.2553  2.2381 -2.7204
 3632SOL     OW22531   3.746   1.245  13.455  0.0285 -0.6434  0.1084
 3632SOL    HW122532   3.769   1.188  13.529 -0.2837 -3.0485 -1.6297
 3632SOL    HW222533   3.802   1.212  13.384  0.0503 -2.3197  0.8883
 3633SOL     OW22534   1.703   0.501   2.274 -0.0387  0.4635  0.2665
 3633SOL    HW122535   1.635   0.460   2.328 -0.3459  0.0921 -0.4069
 3633SOL    HW222536   1.666   0.520   2.188  1.0919 -3.1336 -1.0021
 3634SOL     OW22537   0.658   4.170   1.363 -1.2632  0.2349  0.5671
 3634SOL    HW122538   0.590   4.202   1.304  1.2001 -0.2069 -2.5068
 3634SOL    HW222539   0.704   4.252   1.378 -1.6412  0.9473 -2.3582
 3635SOL     OW22540   1.470   2.396   9.583  0.6655 -0.4613 -0.0875
 3635SOL    HW122541   1.479   2.302   9.595 -1.3789 -0.5502  0.6819
 3635SOL    HW222542   1.509   2.428   9.665  0.1073  1.0114 -0.4003
 3636SOL     OW22543   3.057   1.282  14.622  0.0623 -0.4328  0.4143
 3636SOL    HW122544   3.124   1.262  14.688  0.6875  0.0678 -0.0742
 3636SOL    HW222545   3.059   1.202  14.569  2.7850  0.8859 -1.4829
 3637SOL     OW22546   1.830   2.993   5.230 -0.4355 -0.6082 -0.1899
 3637SOL    HW122547   1.863   3.055   5.295 -0.6968  0.2203 -0.8388
 3637SOL    HW222548   1.829   2.916   5.285 -1.8811 -0.8883 -0.6144
 3638SOL     OW22549   0.438   0.204   2.039  0.5731 -0.9463  0.0435
 3638SOL    HW122550   0.424   0.175   1.949  2.3401 -0.0941 -0.5062
 3638SOL    HW222551   0.437   0.300   2.042 -1.3909 -0.9749  0.4545
 3639SOL     OW22552   2.967   4.354   5.081  0.3365  0.1238 -0.6194
 3639SOL    HW122553   2.978   4.289   5.150 -1.8012 -0.9712 -1.3358
 3639SOL    HW222554   2.882   4.390   5.105  0.8565  0.1041  1.2778
 3640SOL     OW22555   1.134   4.374   9.356 -0.4659 -0.7211  0.2532
 3640SOL    HW122556   1.229   4.361   9.352 -0.2992  0.9293 -1.0184
 3640SOL    HW222557   1.111   4.304   9.418 -0.7997 -0.1562  0.7617
 3641SOL     OW22558   3.703   1.306   0.922 -0.4102 -0.0216 -1.3042
 3641SOL    HW122559   3.685   1.395   0.952 -2.2027 -0.6914 -0.4049
 3641SOL    HW222560   3.721   1.313   0.828  0.3722  3.0485 -0.9300
 3642SOL     OW22561   3.419   0.888  16.672 -0.0997 -0.2275 -0.0366
 3642SOL    HW122562   3.372   0.809  16.646 -1.0970 -0.2558  1.7892
 3642SOL    HW222563   3.359   0.963  16.666  3.0640  2.2252 -1.3384
 3643SOL     OW22564   4.093   2.684  17.322  0.1003  0.0038 -0.2155
 3643SOL    HW122565   4.159   2.615  17.322  0.3527  0.2455  1.0026
 3643SOL    HW222566   4.036   2.663  17.396 -0.4226 -0.7585 -0.8336
 3644SOL     OW22567   1.614   0.335   7.657 -0.1684 -0.3132 -1.0019
 3644SOL    HW122568   1.699   0.314   7.696  0.6214  1.7274 -1.6371
 3644SOL    HW222569   1.562   0.333   7.738  1.3956 -0.5618  0.0024
 3645SOL     OW22570   4.408   1.495   3.992 -0.2679  0.6617  0.9424
 3645SOL    HW122571   4.497   1.464   3.974 -0.6299  0.7969 -1.0784
 3645SOL    HW222572   4.390   1.451   4.074  0.0874  0.8313  1.1108
 3646SOL     OW22573   2.690   0.158   5.670  0.5081 -0.6644 -0.3005
 3646SOL    HW122574   2.610   0.111   5.692 -0.3707  0.4904 -1.0378
 3646SOL    HW222575   2.757   0.092   5.650 -0.2492 -1.6167  0.3433
 3647SOL     OW22576   2.693   0.176   3.680 -0.3501  0.5897 -0.0962
 3647SOL    HW122577   2.758   0.238   3.714  0.2995  0.2876 -0.7809
 3647SOL    HW222578   2.651   0.231   3.613  1.8745  2.6239  0.1826
 3648SOL     OW22579   2.944   2.797   8.874  0.4682  0.0316  0.0881
 3648SOL    HW122580   2.971   2.744   8.949 -0.8948 -0.4869  0.2093
 3648SOL    HW222581   2.867   2.843   8.907  0.1045 -0.1424 -0.5214
 3649SOL     OW22582   3.579   4.374   8.208  0.0586  0.2034 -0.2334
 3649SOL    HW122583   3.552   4.462   8.235 -1.2539 -0.3400  0.2055
 3649SOL    HW222584   3.674   4.384   8.206  0.2604 -1.4998  0.5259
 3650SOL     OW22585   4.244   1.770   3.288  0.2120 -0.1190  0.4175
 3650SOL    HW122586   4.330   1.797   3.255  0.6517  2.1366  3.3549
 3650SOL    HW222587   4.199   1.849   3.317 -1.1420 -0.2901 -1.2284
 3651SOL     OW22588   4.612   4.228   8.883 -0.3919 -0.2860 -0.2693
 3651SOL    HW122589   4.626   4.133   8.886  2.5404  0.1437 -0.4511
 3651SOL    HW222590   4.681   4.252   8.822 -2.2095  1.3207 -1.7034
 3652SOL     OW22591   3.710   2.311   6.601 -0.0326  0.2059  0.0305
 3652SOL    HW122592   3.795   2.278   6.572 -0.0175 -0.2608  0.5975
 3652SOL    HW222593   3.704   2.384   6.540  0.7457  1.6383  1.6671
 3653SOL     OW22594   4.032   3.536   3.569  0.1471  0.0671 -0.0638
 3653SOL    HW122595   3.993   3.579   3.645 -1.4666 -0.7510 -0.4223
 3653SOL    HW222596   4.096   3.602   3.542  0.0563 -0.0601 -0.5872
 3654SOL     OW22597   3.322   2.589  14.752 -0.2632 -0.4314  0.3523
 3654SOL    HW122598   3.346   2.504  14.789  0.4536  0.5229  2.0771
 3654SOL    HW222599   3.388   2.639  14.800 -1.4639 -0.1949  1.7725
 3655SOL     OW22600   0.648   3.175   8.856 -0.1226 -0.6246 -0.4915
 3655SOL    HW122601   0.720   3.154   8.797  1.4319 -0.3410  1.2955
 3655SOL    HW222602   0.688   3.255   8.889 -0.0272 -0.2548 -1.5299
 3656SOL     OW22603   3.788   1.738   7.428  0.5592 -0.2936 -0.3221
 3656SOL    HW122604   3.839   1.661   7.405 -1.1822 -1.7075  0.5737
 3656SOL    HW222605   3.808   1.804   7.361 -0.3663  0.1921 -0.1211
 3657SOL     OW22606   2.639   3.582  12.198 -0.7244 -0.0246 -0.2611
 3657SOL    HW122607   2.558   3.630  12.212 -1.8855 -2.1617  0.2292
 3657SOL    HW222608   2.668   3.636  12.124  2.0952 -2.0183 -0.6121
 3658SOL     OW22609   1.611   1.533   1.644  0.0840 -0.1986 -0.1213
 3658SOL    HW122610   1.575   1.601   1.701 -1.5897 -0.4804 -0.8272
 3658SOL    HW222611   1.699   1.546   1.678  0.7888 -0.1534 -1.9506
 3659SOL     OW22612   2.719   4.489   6.485  0.4974  0.1255  0.3394
 3659SOL    HW122613   2.703   4.576   6.523 -2.2170  0.2332 -1.0808
 3659SOL    HW222614   2.696   4.511   6.395 -2.0037  0.4314  1.0550
 3660SOL     OW22615   1.670   0.019   7.617  0.5124  0.5692 -0.1681
 3660SOL    HW122616   1.683   0.113   7.625 -0.7087  0.7850 -0.6455
 3660SOL    HW222617   1.593   0.000   7.671  1.3444  0.9504  1.1342
 3661SOL     OW22618   0.854   2.916  10.780 -0.6300 -0.4027 -0.1338
 3661SOL    HW122619   0.808   2.960  10.709  0.7684  1.2004 -0.0451
 3661SOL    HW222620   0.948   2.924  10.765 -0.5642 -0.2545  0.3504
 3662SOL     OW22621   0.326   2.748   5.092  0.2219 -0.1151  0.2933
 3662SOL    HW122622   0.294   2.800   5.166  2.0661  1.0827  0.2364
 3662SOL    HW222623   0.365   2.680   5.146 -2.6843 -1.2174  1.0084
 3663SOL     OW22624   1.637   2.943   8.336  0.3496  0.2084 -0.3350
 3663SOL    HW122625   1.593   3.027   8.343 -0.9128 -0.5451  0.6945
 3663SOL    HW222626   1.581   2.899   8.272  2.0112 -2.4084  0.0131
 3664SOL     OW22627   2.022   2.385   7.690 -0.7803  0.0757 -0.6074
 3664SOL    HW122628   2.041   2.320   7.758  1.6835  0.9345 -0.4840
 3664SOL    HW222629   1.929   2.402   7.704 -1.0197 -1.7565 -0.0244
 3665SOL     OW22630   2.103   3.727   8.519 -0.0096 -0.3369 -0.4726
 3665SOL    HW122631   2.083   3.706   8.428 -0.4730 -1.1073 -0.1949
 3665SOL    HW222632   2.172   3.793   8.515 -0.5381  0.0917 -2.3209
 3666SOL     OW22633   4.298   4.225  17.592 -0.0901 -0.5803 -0.2506
 3666SOL    HW122634   4.260   4.290  17.651 -0.3641 -0.5457 -0.4658
 3666SOL    HW222635   4.359   4.280  17.543  1.4572 -0.7387  1.4929
 3667SOL     OW22636   1.259   4.618  13.342 -0.4476 -0.4279  0.0963
 3667SOL    HW122637   1.344   4.604  13.300 -0.5637  1.5780 -0.7977
 3667SOL    HW222638   1.253   4.713  13.339  0.2385 -0.4295 -1.0999
 3668SOL     OW22639   1.248   1.996   7.586  0.2437 -0.5002 -0.2852
 3668SOL    HW122640   1.335   2.027   7.611  0.4732 -0.7541 -0.7724
 3668SOL    HW222641   1.201   2.075   7.559 -0.5611 -0.7731  0.3204
 3669SOL     OW22642   0.769   4.011   3.250  0.0181 -0.4002  0.7128
 3669SOL    HW122643   0.863   4.001   3.262 -0.2116 -0.4979  2.3740
 3669SOL    HW222644   0.764   4.102   3.220 -3.3832 -0.5192  0.9214
 3670SOL     OW22645   2.166   0.871   5.971 -0.0087 -0.1623  0.8237
 3670SOL    HW122646   2.101   0.905   6.031 -0.1260 -1.5732  1.4977
 3670SOL    HW222647   2.247   0.860   6.022  0.1176 -1.0769  0.4317
 3671SOL     OW22648   1.814   0.534  10.402 -0.5692 -0.6132  0.0001
 3671SOL    HW122649   1.727   0.572  10.409 -0.1250  0.6155 -1.1900
 3671SOL    HW222650   1.862   0.607  10.441 -0.6907 -1.2204  1.2772
 3672SOL     OW22651   2.120   3.775   9.453 -0.0850 -0.2001 -0.6771
 3672SOL    HW122652   2.073   3.692   9.444 -0.3666 -0.1203  0.0683
 3672SOL    HW222653   2.163   3.773   9.538 -0.1287  1.2467 -0.6222
 3673SOL     OW22654   3.098   1.639   2.562 -0.0049 -0.3504 -0.2183
 3673SOL    HW122655   3.116   1.638   2.656  0.0026  2.0643 -0.2100
 3673SOL    HW222656   3.039   1.564   2.553 -1.5398  1.1051 -2.2306
 3674SOL     OW22657   2.348   2.356  17.351 -0.1232  0.5093 -0.4404
 3674SOL    HW122658   2.442   2.374  17.353 -0.4560  1.9461  2.7863
 3674SOL    HW222659   2.336   2.298  17.276  1.6666 -1.9919  1.2000
 3675SOL     OW22660   4.380   1.197   2.395 -0.7883 -0.0012  0.3617
 3675SOL    HW122661   4.396   1.286   2.366  0.1225  0.2088  1.5168
 3675SOL    HW222662   4.297   1.177   2.353 -0.8158  0.0585  0.3889
 3676SOL     OW22663   0.470   0.890   7.130  0.1608  0.3848 -0.7650
 3676SOL    HW122664   0.453   0.979   7.098 -2.0049  0.4231  0.5348
 3676SOL    HW222665   0.565   0.886   7.115 -0.0073 -1.2474 -1.3827
 3677SOL     OW22666   4.612   4.047  12.292 -0.2450  0.3805  0.6092
 3677SOL    HW122667   4.618   4.016  12.383  1.2993 -0.5454  0.1890
 3677SOL    HW222668   4.655   4.131  12.309 -0.4796  0.8962 -1.3877
 3678SOL     OW22669   1.575   3.473   2.263 -0.2033  0.1685 -0.4173
 3678SOL    HW122670   1.517   3.444   2.334  2.0614  1.6264  2.0215
 3678SOL    HW222671   1.590   3.564   2.288  0.8338  0.3470 -1.6639
 3679SOL     OW22672   3.398   3.130   7.612  0.0880 -0.6257 -0.7030
 3679SOL    HW122673   3.405   3.217   7.651 -0.0688 -0.6469 -0.6295
 3679SOL    HW222674   3.388   3.071   7.687  1.3137 -0.8061 -0.6685
 3680SOL     OW22675   3.736   0.438  11.619 -0.1586  0.0783 -0.1937
 3680SOL    HW122676   3.807   0.393  11.665  0.3713  2.5217  1.3663
 3680SOL    HW222677   3.676   0.366  11.602  0.2034 -0.1856 -0.3371
 3681SOL     OW22678   4.119   1.468  15.437  0.0485  0.8142  0.2157
 3681SOL    HW122679   4.151   1.454  15.348  1.1939 -0.9687  0.9024
 3681SOL    HW222680   4.141   1.385  15.480  1.4581  1.5052  0.8452
 3682SOL     OW22681   1.627   3.846   4.943  0.1460 -0.1960 -0.1178
 3682SOL    HW122682   1.706   3.846   4.889 -1.2983  2.7233 -2.2537
 3682SOL    HW222683   1.659   3.849   5.033 -0.8109  0.3413  0.2061
 3683SOL     OW22684   1.420   0.795   3.012 -0.1481 -0.5090 -0.3450
 3683SOL    HW122685   1.342   0.753   2.977 -2.3016  0.8767  2.7405
 3683SOL    HW222686   1.380   0.879   3.035  2.5312  1.3963 -2.6912
 3684SOL     OW22687   3.187   1.953   8.742 -0.2848  0.0119 -0.1135
 3684SOL    HW122688   3.110   1.903   8.767  0.4966 -0.8694  0.5236
 3684SOL    HW222689   3.249   1.901   8.793  0.1357  0.5778 -0.0416
 3685SOL     OW22690   2.392   2.578   2.650  0.5295 -0.3775 -0.3819
 3685SOL    HW122691   2.442   2.497   2.665  1.3557  0.4028  1.1350
 3685SOL    HW222692   2.417   2.629   2.727 -1.1404  0.5324 -0.4435
 3686SOL     OW22693   0.218   4.430   3.872  0.1388 -0.3370  0.2352
 3686SOL    HW122694   0.146   4.468   3.822  1.5472  1.5369 -0.3507
 3686SOL    HW222695   0.183   4.346   3.903  1.4374 -1.1879 -0.6009
 3687SOL     OW22696   3.862   4.374   2.955 -0.0828  0.2828 -0.0589
 3687SOL    HW122697   3.823   4.301   2.907 -0.2797  1.6853 -2.0380
 3687SOL    HW222698   3.814   4.445   2.913 -0.1908  0.5070  0.4489
 3688SOL     OW22699   0.249   3.305  10.529  0.4244 -0.3097  0.0415
 3688SOL    HW122700   0.211   3.220  10.552 -0.2585 -0.2623 -0.9382
 3688SOL    HW222701   0.183   3.327  10.464 -1.5098 -0.7142  1.8942
 3689SOL     OW22702   3.144   1.134  15.373  0.1927 -0.3437  0.5118
 3689SOL    HW122703   3.135   1.201  15.441  2.7712  0.8464 -0.3213
 3689SOL    HW222704   3.082   1.073  15.414 -0.0555  0.4419  1.3197
 3690SOL     OW22705   3.204   2.988  16.146 -0.1050 -0.1747  0.2741
 3690SOL    HW122706   3.217   3.002  16.052  1.3932 -4.3595 -0.1496
 3690SOL    HW222707   3.263   3.056  16.178  0.3958 -0.3694 -0.2199
 3691SOL     OW22708   2.787   4.006   4.117 -0.3358 -0.0266  0.1330
 3691SOL    HW122709   2.833   3.922   4.117 -1.2608 -0.5393  0.7368
 3691SOL    HW222710   2.833   4.053   4.048 -0.9290  0.5520  0.1335
 3692SOL     OW22711   1.236   4.312   3.971  0.3080  0.3868 -0.4809
 3692SOL    HW122712   1.146   4.340   3.989 -0.0021 -0.5455 -0.6215
 3692SOL    HW222713   1.229   4.251   3.898 -2.1579 -0.5613  0.5471
 3693SOL     OW22714   2.278   2.980   8.008  0.1926 -0.9928  0.2989
 3693SOL    HW122715   2.199   2.967   7.955  0.6542 -1.9024 -0.1599
 3693SOL    HW222716   2.257   2.940   8.092  1.4748  0.6749  1.4197
 3694SOL     OW22717   4.184   1.106   3.364 -0.8216 -0.5889 -0.0778
 3694SOL    HW122718   4.172   1.034   3.302  0.4233 -1.6840  0.9483
 3694SOL    HW222719   4.154   1.183   3.317 -2.1473 -0.6108  0.7244
 3695SOL     OW22720   0.305   0.537   2.597 -0.2935  0.2100 -0.6388
 3695SOL    HW122721   0.279   0.601   2.664  0.3448  1.1623 -1.3110
 3695SOL    HW222722   0.377   0.582   2.552  1.2556 -2.0417 -0.4197
 3696SOL     OW22723   4.542   1.788  13.894  0.7861  0.1977 -0.2733
 3696SOL    HW122724   4.515   1.842  13.968  1.1354 -0.7379  0.5272
 3696SOL    HW222725   4.523   1.843  13.817 -0.2170  0.7346  0.3583
 3697SOL     OW22726   0.941   1.613  13.664 -0.0255 -0.0208 -0.0462
 3697SOL    HW122727   0.877   1.544  13.647  0.8512 -0.8638  0.0905
 3697SOL    HW222728   0.965   1.629  13.573  1.7391  1.2425  0.6350
 3698SOL     OW22729   1.692   2.279   6.718  0.5096  0.4920 -0.3129
 3698SOL    HW122730   1.771   2.255   6.767  0.2656  0.2438 -0.0384
 3698SOL    HW222731   1.657   2.351   6.772  0.1366 -0.8772  1.2756
 3699SOL     OW22732   2.148   2.352   3.677 -0.4773 -0.1614 -0.6282
 3699SOL    HW122733   2.180   2.271   3.639  0.2301 -0.4000  0.4938
 3699SOL    HW222734   2.224   2.386   3.724  0.3169 -0.1255 -1.9625
 3700SOL     OW22735   4.357   2.987   2.109  0.2746 -0.8386 -0.4042
 3700SOL    HW122736   4.385   2.895   2.109  3.5558  0.1344  0.5876
 3700SOL    HW222737   4.265   2.963   2.115 -0.4599  2.1620  0.4193
 3701SOL     OW22738   1.303   1.163   8.273 -0.0460 -0.3103 -0.3982
 3701SOL    HW122739   1.241   1.231   8.300 -0.1056 -0.4349 -0.2232
 3701SOL    HW222740   1.277   1.147   8.182 -0.2999  0.1209 -0.3986
 3702SOL     OW22741   1.018   0.853  15.694  0.0370  0.4998 -0.3596
 3702SOL    HW122742   1.052   0.764  15.702  0.2866  0.3099 -3.6054
 3702SOL    HW222743   1.089   0.885  15.749  1.9561 -2.1697 -1.2840
 3703SOL     OW22744   2.886   1.996   5.221 -0.1096  0.4753  0.5168
 3703SOL    HW122745   2.919   1.908   5.205 -1.0544  0.3214 -0.5959
 3703SOL    HW222746   2.948   2.025   5.289 -1.1891 -0.5120  1.9252
 3704SOL     OW22747   0.914   1.922   3.847  0.2186 -0.2103 -0.3021
 3704SOL    HW122748   0.968   1.964   3.780  0.5496  1.2991  0.9130
 3704SOL    HW222749   0.840   1.983   3.850  0.5999  0.2081  0.6681
 3705SOL     OW22750   0.005   2.125   1.067  0.2038 -0.0960 -0.1409
 3705SOL    HW122751   4.691   2.206   1.066  1.0204  0.4307  3.4140
 3705SOL    HW222752   0.080   2.152   1.120 -0.7702  0.4539  0.9692
 3706SOL     OW22753   2.359   0.107   2.237  0.8916  0.1696 -0.0276
 3706SOL    HW122754   2.277   0.141   2.273  0.6545 -1.4809  1.0301
 3706SOL    HW222755   2.427   0.144   2.293 -0.4687 -0.2438  1.9115
 3707SOL     OW22756   2.890   1.452   9.582 -0.0726  0.2855  0.1491
 3707SOL    HW122757   2.883   1.378   9.523  0.8376 -0.0488  0.4657
 3707SOL    HW222758   2.968   1.424   9.630  0.7213  1.9475 -0.1668
 3708SOL     OW22759   0.531   2.649   0.660 -0.0125 -0.3144 -0.2636
 3708SOL    HW122760   0.445   2.683   0.686  0.3186  0.3139 -0.0149
 3708SOL    HW222761   0.500   2.584   0.596  0.8435  0.5983 -1.6004
 3709SOL     OW22762   2.704   3.263  16.245  0.7990 -0.1354  0.1338
 3709SOL    HW122763   2.672   3.176  16.223  0.2459  0.4852 -1.4982
 3709SOL    HW222764   2.634   3.289  16.305  2.1830 -0.4044  1.8820
 3710SOL     OW22765   1.053   0.549   6.058 -0.3877  0.2783 -0.0420
 3710SOL    HW122766   1.139   0.588   6.044 -0.1277  0.9743  3.5099
 3710SOL    HW222767   1.008   0.570   5.976 -0.3605  0.3177 -0.0468
 3711SOL     OW22768   1.975   0.829   4.345 -0.8724  0.1737  0.4827
 3711SOL    HW122769   1.948   0.753   4.396 -0.0038 -1.2228 -1.1645
 3711SOL    HW222770   1.891   0.876   4.349 -1.1568 -0.3152  0.2875
 3712SOL     OW22771   3.811   4.229   3.497  0.2411 -0.0397  0.0865
 3712SOL    HW122772   3.794   4.321   3.477  3.0949  0.8065  1.5314
 3712SOL    HW222773   3.768   4.186   3.423  0.4034  0.0926 -0.0868
 3713SOL     OW22774   2.900   4.178   3.607  0.0034 -0.0409 -0.1506
 3713SOL    HW122775   2.863   4.223   3.531 -0.9611  1.3123  1.1246
 3713SOL    HW222776   2.888   4.253   3.665  1.2892 -1.4172  1.8938
 3714SOL     OW22777   3.813   0.200   3.148 -0.1131  0.0808  0.0512
 3714SOL    HW122778   3.850   0.279   3.109  1.0713  0.1100  1.2335
 3714SOL    HW222779   3.870   0.186   3.224  1.5049  2.8729 -0.6522
 3715SOL     OW22780   0.431   1.738   8.533 -0.3541  0.1186  0.1956
 3715SOL    HW122781   0.419   1.708   8.623  0.7684 -1.4405 -0.1884
 3715SOL    HW222782   0.341   1.742   8.500 -1.1916 -2.8404  2.1848
 3716SOL     OW22783   3.071   0.156   1.047 -0.1200 -0.7879  0.0031
 3716SOL    HW122784   3.060   0.140   0.953 -1.8083  0.4763 -0.0100
 3716SOL    HW222785   3.091   0.075   1.093  0.2299 -0.3786  0.5748
 3717SOL     OW22786   2.756   2.561   6.407  0.0644 -0.0600  0.2563
 3717SOL    HW122787   2.837   2.578   6.358 -0.0276 -1.7396 -0.4790
 3717SOL    HW222788   2.782   2.574   6.498  0.8250  1.0721 -0.1147
 3718SOL     OW22789   3.128   2.166   6.297  0.3019  0.2094 -0.2749
 3718SOL    HW122790   3.086   2.214   6.369  0.2529 -1.3263  0.7161
 3718SOL    HW222791   3.158   2.087   6.342 -3.5401 -1.0089  0.0959
 3719SOL     OW22792   1.750   0.215   5.220 -0.1625 -0.1054 -0.9720
 3719SOL    HW122793   1.694   0.202   5.296  0.7293  1.0102 -0.1014
 3719SOL    HW222794   1.686   0.251   5.159 -0.2918 -0.3557 -0.9802
 3720SOL     OW22795   0.820   4.135   8.454  0.2372  0.3568  0.3263
 3720SOL    HW122796   0.895   4.100   8.407  0.0850  2.4330 -1.4844
 3720SOL    HW222797   0.808   4.070   8.523 -2.2486  0.2991 -0.1401
 3721SOL     OW22798   4.514   4.295  11.913 -0.0194 -0.4453  0.8414
 3721SOL    HW122799   4.439   4.243  11.883  0.6154 -0.6585 -0.3446
 3721SOL    HW222800   4.509   4.367  11.851  1.2402 -0.1562  1.0851
 3722SOL     OW22801   4.424   1.484  16.202  0.3043  0.4014  0.5622
 3722SOL    HW122802   4.482   1.519  16.269  0.3473  2.2590 -0.4473
 3722SOL    HW222803   4.486   1.419  16.170  0.0885  1.4045 -1.8839
 3723SOL     OW22804   0.573   2.333   6.251 -0.0608  0.0093  0.2595
 3723SOL    HW122805   0.489   2.347   6.207  1.9009  2.9178 -2.5809
 3723SOL    HW222806   0.567   2.246   6.292 -1.7593 -0.6650 -1.3889
 3724SOL     OW22807   2.723   0.746   8.118 -0.0503  0.9989  0.0181
 3724SOL    HW122808   2.669   0.673   8.088  0.3123  1.1868 -1.0967
 3724SOL    HW222809   2.802   0.748   8.064  0.6248  1.9904  1.0582
 3725SOL     OW22810   3.766   4.266  10.894  0.4707  0.7874  0.5350
 3725SOL    HW122811   3.739   4.347  10.851  1.2015  1.7145  1.8182
 3725SOL    HW222812   3.851   4.254  10.852  0.7943  3.7957  0.3345
 3726SOL     OW22813   3.776   4.373   8.869 -0.3910  0.2119 -0.5731
 3726SOL    HW122814   3.692   4.361   8.824  0.0787 -1.9728 -0.8575
 3726SOL    HW222815   3.805   4.458   8.837  0.2612 -0.8177 -2.6988
 3727SOL     OW22816   4.192   0.367   7.867 -0.6903  0.4489 -0.2388
 3727SOL    HW122817   4.193   0.458   7.896 -1.8253 -0.6673  3.2964
 3727SOL    HW222818   4.278   0.363   7.826 -0.2299 -0.9789  0.8395
 3728SOL     OW22819   3.895   2.384   6.397 -0.2558  0.3398 -0.2924
 3728SOL    HW122820   3.936   2.400   6.483  2.1530 -0.6232 -1.2429
 3728SOL    HW222821   3.914   2.290   6.387  1.0584  0.8398 -2.5104
 3729SOL     OW22822   3.584   0.508   8.110  0.3090 -0.2165 -0.0298
 3729SOL    HW122823   3.614   0.594   8.081  3.5131 -1.0238  0.9516
 3729SOL    HW222824   3.629   0.497   8.193  0.2704 -0.1016  0.0062
 3730SOL     OW22825   0.722   1.315   6.746  0.7153  0.1490 -0.2897
 3730SOL    HW122826   0.745   1.291   6.656  2.6172 -1.2865  0.5844
 3730SOL    HW222827   0.658   1.386   6.732  0.2114 -0.2754 -0.1311
 3731SOL     OW22828   1.262   0.456   9.978 -0.7335  0.2787  0.3995
 3731SOL    HW122829   1.356   0.452   9.996 -0.0160  3.3614 -2.6672
 3731SOL    HW222830   1.266   0.500   9.893  1.0549 -1.3497 -0.3589
 3732SOL     OW22831   0.143   0.353   7.480  0.0853 -0.4965  0.2096
 3732SOL    HW122832   0.168   0.444   7.495 -0.4953 -0.2946 -0.0552
 3732SOL    HW222833   0.049   0.361   7.463  0.8524  1.3171 -3.2312
 3733SOL     OW22834   2.191   3.213   3.489 -0.2934  0.0781  0.1842
 3733SOL    HW122835   2.216   3.300   3.459  1.0616 -0.5776 -0.5646
 3733SOL    HW222836   2.266   3.184   3.539 -0.6593  0.0354  0.7122
 3734SOL     OW22837   2.904   3.365   7.727 -1.0354 -0.1923  0.3545
 3734SOL    HW122838   2.900   3.274   7.757  0.1413 -1.1257 -2.2209
 3734SOL    HW222839   2.813   3.391   7.720 -0.9163 -0.3151 -1.7193
 3735SOL     OW22840   2.172   2.016  12.979  0.2456  0.3720 -0.4910
 3735SOL    HW122841   2.201   1.926  12.970 -0.5917  0.2374 -1.8770
 3735SOL    HW222842   2.238   2.076  13.015  0.4601  1.1987 -2.2487
 3736SOL     OW22843   2.627   4.571   6.208 -0.4524 -0.1945  0.1206
 3736SOL    HW122844   2.625   4.666   6.193 -0.3732 -0.2909 -0.4783
 3736SOL    HW222845   2.547   4.555   6.159 -0.8043  1.6254  0.1110
 3737SOL     OW22846   2.929   3.429   2.905 -0.1553 -0.2487 -0.6786
 3737SOL    HW122847   2.871   3.380   2.963 -1.0831  0.5928 -0.9032
 3737SOL    HW222848   3.011   3.455   2.947 -2.1010  2.2846  1.4338
 3738SOL     OW22849   4.582   2.295   4.134  0.0181  0.1112 -0.0061
 3738SOL    HW122850   4.667   2.339   4.138 -1.6678  3.0617  3.0339
 3738SOL    HW222851   4.566   2.305   4.040  0.8900 -1.3106 -0.3116
 3739SOL     OW22852   4.255   2.057   4.777 -0.3026 -0.0595 -0.2110
 3739SOL    HW122853   4.290   2.023   4.694 -0.7254  2.1759 -1.2965
 3739SOL    HW222854   4.304   2.138   4.789 -0.0283  0.0158 -1.7606
 3740SOL     OW22855   2.746   2.022   0.203  0.3903 -0.3248  0.0324
 3740SOL    HW122856   2.781   1.974   0.128  2.3495  0.0656  0.6827
 3740SOL    HW222857   2.799   1.998   0.280 -0.0889  1.4804  0.9426
 3741SOL     OW22858   2.185   1.188   1.968 -0.7620  0.0205 -0.0804
 3741SOL    HW122859   2.118   1.207   1.903 -1.4625  2.8568  1.4619
 3741SOL    HW222860   2.144   1.197   2.054 -3.6927 -0.8438 -1.3825
 3742SOL     OW22861   1.386   1.940   2.923  0.1749  0.1221  0.5256
 3742SOL    HW122862   1.426   1.966   2.840 -0.7056 -1.2613 -0.3344
 3742SOL    HW222863   1.301   1.982   2.911  0.7841  0.5657 -2.3596
 3743SOL     OW22864   4.555   2.994   3.713  0.0122 -0.6541 -0.0675
 3743SOL    HW122865   4.564   3.068   3.773 -1.4343  0.2427 -0.9286
 3743SOL    HW222866   4.522   3.046   3.639  2.5090  0.1268 -0.6327
 3744SOL     OW22867   2.068   1.300   7.856  0.3730 -0.1063 -0.1392
 3744SOL    HW122868   2.020   1.245   7.795  0.1690  1.9178 -1.8278
 3744SOL    HW222869   2.020   1.288   7.938  0.8746  0.4824  0.2464
 3745SOL     OW22870   0.878   2.696   1.796 -0.4383  0.2384 -0.5065
 3745SOL    HW122871   0.785   2.717   1.789 -0.7144 -1.6571 -2.6293
 3745SOL    HW222872   0.924   2.767   1.841  0.5193 -0.7919  0.1439
 3746SOL     OW22873   1.664   1.878   5.710  0.0116 -0.4249 -0.0651
 3746SOL    HW122874   1.667   1.792   5.668  1.0989 -0.1503 -0.5566
 3746SOL    HW222875   1.644   1.861   5.802  1.0244 -0.7705  0.0974
 3747SOL     OW22876   0.577   0.099   3.388  0.3795 -0.0536  0.4548
 3747SOL    HW122877   0.620   0.089   3.303 -1.2342 -0.8297 -0.2548
 3747SOL    HW222878   0.543   0.010   3.386 -1.7312  0.7594  0.1096
 3748SOL     OW22879   0.718   0.102   4.080  0.3976  0.3797 -0.2383
 3748SOL    HW122880   0.774   0.061   4.014  1.9316  0.3880  1.0546
 3748SOL    HW222881   0.718   0.031   4.144 -0.1122  1.2287  0.6930
 3749SOL     OW22882   3.386   1.581   3.418  0.3470 -0.1823 -0.2900
 3749SOL    HW122883   3.442   1.525   3.364 -0.5220 -0.1981 -1.1804
 3749SOL    HW222884   3.297   1.559   3.389 -0.0775  1.3162 -0.1015
 3750SOL     OW22885   3.393   1.573   6.728 -0.8848 -0.3886 -0.4015
 3750SOL    HW122886   3.407   1.668   6.734  0.8248 -0.7067  0.6735
 3750SOL    HW222887   3.439   1.558   6.646  0.0093  2.5406 -0.4230
 3751SOL     OW22888   1.701   0.500   8.036 -0.4312 -0.5561  0.2372
 3751SOL    HW122889   1.759   0.462   8.103  0.2330 -0.9664 -0.5750
 3751SOL    HW222890   1.641   0.551   8.091 -0.0696  1.8098 -1.5912
 3752SOL     OW22891   0.624   0.382   3.836 -0.0264  0.6871 -0.1166
 3752SOL    HW122892   0.630   0.295   3.797 -2.1594 -0.1488  1.4275
 3752SOL    HW222893   0.713   0.379   3.870  0.5651 -1.1806 -1.8138
 3753SOL     OW22894   1.359   0.587   5.949 -0.3331  0.1223  0.3000
 3753SOL    HW122895   1.330   0.666   5.905 -3.0545 -0.3543  1.2268
 3753SOL    HW222896   1.400   0.535   5.880  0.0632  0.9730 -0.1053
 3754SOL     OW22897   4.537   2.442  17.427  0.4833 -0.2045 -0.3055
 3754SOL    HW122898   4.606   2.415  17.367  1.0447 -2.1369  1.2178
 3754SOL    HW222899   4.509   2.357  17.461  0.4388  0.5796  1.6077
 3755SOL     OW22900   2.315   1.471  12.694  0.6865 -0.1778  0.1186
 3755SOL    HW122901   2.312   1.418  12.615  0.2781  0.0873 -0.0441
 3755SOL    HW222902   2.342   1.404  12.757 -0.5951  1.4270  2.3690
 3756SOL     OW22903   3.315   0.972   4.552  0.5287  0.2908 -0.1223
 3756SOL    HW122904   3.236   0.986   4.499  0.0990 -0.7040  0.2475
 3756SOL    HW222905   3.366   1.048   4.526  1.4034 -0.8996 -1.8513
 3757SOL     OW22906   4.236   0.525   3.278  0.3680 -0.0892  0.2134
 3757SOL    HW122907   4.267   0.438   3.253 -2.1256 -1.0473  0.4559
 3757SOL    HW222908   4.159   0.502   3.329  0.5754  3.6261  2.1862
 3758SOL     OW22909   2.784   2.199  12.258  0.1102 -0.4305  0.7447
 3758SOL    HW122910   2.772   2.104  12.254 -0.5523 -0.4237  2.4240
 3758SOL    HW222911   2.694   2.222  12.282  0.0095  1.9423 -1.9134
 3759SOL     OW22912   3.584   2.178  13.440 -0.1564 -0.2705 -0.0286
 3759SOL    HW122913   3.671   2.217  13.433 -0.4064  0.3062  0.0416
 3759SOL    HW222914   3.531   2.258  13.441  1.1353  0.5761  1.6627
 3760SOL     OW22915   3.361   4.133   6.146  0.7842  0.0047 -0.6409
 3760SOL    HW122916   3.394   4.127   6.235  0.5401  0.5823 -0.5116
 3760SOL    HW222917   3.274   4.170   6.163  0.6848 -0.4124 -0.2627
 3761SOL     OW22918   4.672   0.829   8.697  0.0677 -0.1253 -0.1719
 3761SOL    HW122919   4.697   0.919   8.676 -1.4882 -0.9838 -5.6327
 3761SOL    HW222920   4.696   0.816   8.789 -1.7271 -0.2369  0.2663
 3762SOL     OW22921   2.550   3.747   2.301  0.0952  0.1974 -0.0025
 3762SOL    HW122922   2.595   3.790   2.373 -1.4712  0.9866  0.4964
 3762SOL    HW222923   2.503   3.812   2.249 -1.6148 -1.0700 -0.0288
 3763SOL     OW22924   1.742   4.573   4.629  0.2086  0.0720  0.7877
 3763SOL    HW122925   1.787   4.598   4.548 -1.1463  1.9584  0.6072
 3763SOL    HW222926   1.809   4.590   4.695  2.9615  0.6681 -2.1452
 3764SOL     OW22927   4.053   3.423  13.531 -0.0637  0.3029  0.4881
 3764SOL    HW122928   3.961   3.440  13.511 -0.1563 -1.4833 -0.5786
 3764SOL    HW222929   4.078   3.489  13.595 -0.6388 -0.9333  1.9922
 3765SOL     OW22930   4.080   2.551   5.739 -0.2762  0.1703 -0.2191
 3765SOL    HW122931   4.077   2.470   5.791 -0.4335  0.0647 -0.3940
 3765SOL    HW222932   4.110   2.611   5.807 -1.9134  0.0404  0.6158
 3766SOL     OW22933   1.090   0.300   2.168 -0.2588 -0.0297 -0.2105
 3766SOL    HW122934   1.129   0.313   2.081 -1.8768 -2.3023 -1.2818
 3766SOL    HW222935   1.038   0.227   2.136 -1.4407  0.5555  0.4041
 3767SOL     OW22936   3.969   3.155  17.087  0.3474 -0.2300  0.0103
 3767SOL    HW122937   3.953   3.155  16.993 -1.6159 -0.1317  0.3407
 3767SOL    HW222938   3.976   3.249  17.103 -3.2426  0.2583 -1.2294
 3768SOL     OW22939   4.115   1.746  11.935 -0.6691  0.0954  0.2932
 3768SOL    HW122940   4.071   1.666  11.907  1.8353 -1.5483  1.0979
 3768SOL    HW222941   4.068   1.763  12.017  1.7768  0.9440  1.5173
 3769SOL     OW22942   4.688   2.041   5.741 -0.0197  0.0728 -0.4277
 3769SOL    HW122943   0.042   2.048   5.710 -0.2740  0.4691 -1.0922
 3769SOL    HW222944   4.647   1.968   5.695 -0.7426  0.4173 -0.3339
 3770SOL     OW22945   3.490   2.150   4.047  0.0971 -0.1863  0.0213
 3770SOL    HW122946   3.570   2.200   4.064 -1.7897  2.3389  1.4725
 3770SOL    HW222947   3.532   2.066   4.066  2.0938  0.8966  0.4260
 3771SOL     OW22948   3.670   0.841   6.879  0.2925  0.3019 -0.2874
 3771SOL    HW122949   3.581   0.843   6.845  0.2046 -0.7182 -0.1190
 3771SOL    HW222950   3.707   0.762   6.841  0.8395 -0.1847  1.2565
 3772SOL     OW22951   2.641   1.163  15.404 -0.1732  0.0220  0.3807
 3772SOL    HW122952   2.596   1.081  15.425  1.1828 -0.5473  1.0629
 3772SOL    HW222953   2.590   1.228  15.452 -0.5543 -1.4513  1.9716
 3773SOL     OW22954   0.784   0.976   7.112 -0.1255  0.8783  0.2377
 3773SOL    HW122955   0.835   1.014   7.183  2.9741 -2.5258 -0.1868
 3773SOL    HW222956   0.844   0.965   7.038  1.7548  0.0341  1.8926
 3774SOL     OW22957   3.492   2.385   2.787 -0.8523 -0.1642 -0.0369
 3774SOL    HW122958   3.460   2.335   2.862  0.0389  0.0206  0.4665
 3774SOL    HW222959   3.455   2.469   2.815 -1.6186 -0.6410  0.3918
 3775SOL     OW22960   1.570   0.702   8.987 -0.3383 -0.3675 -0.3380
 3775SOL    HW122961   1.482   0.722   8.955 -0.4337 -0.2537  0.0010
 3775SOL    HW222962   1.624   0.699   8.908  1.1942  0.4713  0.6871
 3776SOL     OW22963   2.434   2.600   0.018  0.3538 -0.6217 -0.5431
 3776SOL    HW122964   2.404   2.511  17.745  0.5820 -0.8906  0.4329
 3776SOL    HW222965   2.457   2.622  17.672 -1.9869 -2.5862 -1.6431
 3777SOL     OW22966   2.767   1.542   8.222  0.2760 -0.5710  0.0436
 3777SOL    HW122967   2.731   1.609   8.279 -3.2276 -1.3537 -1.3017
 3777SOL    HW222968   2.704   1.471   8.212 -1.2314  0.7518  0.3270
 3778SOL     OW22969   0.139   1.403   3.723  0.2999 -0.2795  0.2669
 3778SOL    HW122970   0.126   1.498   3.730 -0.5725 -0.5687  2.5305
 3778SOL    HW222971   0.209   1.391   3.787 -0.5783  1.6935  1.5929
 3779SOL     OW22972   1.033   1.253  16.242 -0.5284  0.1230 -0.7261
 3779SOL    HW122973   1.082   1.301  16.308 -2.0694 -0.2650  0.7098
 3779SOL    HW222974   1.033   1.309  16.164  1.8916  0.7139 -0.2788
 3780SOL     OW22975   3.050   1.364   1.393 -0.6920 -0.2805 -0.0855
 3780SOL    HW122976   3.080   1.289   1.445  1.8395  1.2582  0.7024
 3780SOL    HW222977   2.987   1.324   1.333  0.8307 -0.4051 -1.6109
 3781SOL     OW22978   1.518   2.452   3.027  0.5555  0.1491  0.5825
 3781SOL    HW122979   1.517   2.541   2.990 -0.4382  0.3448  1.0652
 3781SOL    HW222980   1.554   2.394   2.960 -0.0575  0.0484  0.3416
 3782SOL     OW22981   1.805   0.752  13.286 -0.0126  0.0771 -0.4224
 3782SOL    HW122982   1.779   0.661  13.272 -2.0012  0.7855 -1.4663
 3782SOL    HW222983   1.876   0.740  13.349 -0.3162  0.2499 -0.0457
 3783SOL     OW22984   2.609   4.601   8.894  0.3905 -0.2555  0.0392
 3783SOL    HW122985   2.695   4.615   8.853  0.5261  1.6551  0.9715
 3783SOL    HW222986   2.559   4.635   8.820 -1.4472  0.1713  1.4869
 3784SOL     OW22987   4.235   1.176   6.832  0.4284  0.1029 -0.2203
 3784SOL    HW122988   4.150   1.137   6.811  0.3899  0.2368 -0.3123
 3784SOL    HW222989   4.242   1.160   6.926 -1.0192 -0.7386 -0.2545
 3785SOL     OW22990   4.560   3.362   1.971  0.0249  0.3889  0.3283
 3785SOL    HW122991   4.550   3.284   1.917 -0.0264 -0.6917  1.8799
 3785SOL    HW222992   4.576   3.429   1.905 -0.1261 -0.5206 -0.6143
 3786SOL     OW22993   2.111   3.809   1.107 -0.5795 -0.0129 -0.3820
 3786SOL    HW122994   2.060   3.812   1.026  0.3646  3.6281 -0.8314
 3786SOL    HW222995   2.072   3.730   1.144  1.1086 -0.4005  0.5932
 3787SOL     OW22996   1.280   2.405   3.303 -0.0406 -0.4916 -0.3254
 3787SOL    HW122997   1.330   2.475   3.262 -0.4053 -0.1688 -0.2189
 3787SOL    HW222998   1.195   2.422   3.261 -0.4334 -1.8398 -0.0805
 3788SOL     OW22999   1.913   3.146   2.985  0.2759  0.0391 -0.0745
 3788SOL    HW123000   1.946   3.134   2.896 -2.3984 -1.0594 -0.9437
 3788SOL    HW223001   1.827   3.179   2.957  0.2859  2.5174  2.8088
 3789SOL     OW23002   3.669   1.486   7.597  0.7127  0.5150  0.5202
 3789SOL    HW123003   3.709   1.476   7.684  1.3484 -2.0433 -0.0638
 3789SOL    HW223004   3.737   1.456   7.538 -1.3916 -0.6492 -1.3327
 3790SOL     OW23005   2.698   2.159   5.489  0.8423  0.4460 -0.3461
 3790SOL    HW123006   2.604   2.176   5.489  0.4838 -1.5457 -1.0657
 3790SOL    HW223007   2.700   2.064   5.479 -2.7396  0.2732  0.4538
 3791SOL     OW23008   0.647   3.115  13.800 -0.2045 -0.4028  0.1125
 3791SOL    HW123009   0.574   3.103  13.740 -0.4250  2.2003 -0.1404
 3791SOL    HW223010   0.726   3.108  13.745 -0.8614  0.9259 -1.0040
 3792SOL     OW23011   4.173   1.128   8.030  0.4679  0.4605 -0.3394
 3792SOL    HW123012   4.242   1.186   8.000  1.9736 -0.6948  0.9218
 3792SOL    HW223013   4.099   1.160   7.978  0.9035  1.9633 -0.0100
 3793SOL     OW23014   1.703   1.304   8.005  0.3139 -0.0194 -0.6876
 3793SOL    HW123015   1.759   1.305   8.082 -1.3656  1.3257  0.5373
 3793SOL    HW223016   1.648   1.381   8.022 -0.1919 -0.5201 -0.0300
 3794SOL     OW23017   0.049   1.102   5.592  0.2028  0.0722  0.2512
 3794SOL    HW123018   4.702   1.118   5.549  1.2535  0.6371 -1.5712
 3794SOL    HW223019   0.044   1.007   5.605 -1.3782  0.2065  0.5994
 3795SOL     OW23020   1.064   4.502   1.705 -0.2009 -0.2112  0.3399
 3795SOL    HW123021   1.011   4.581   1.698 -1.6411 -1.1363  0.8396
 3795SOL    HW223022   1.037   4.458   1.785 -0.2557  0.7704  0.8522
 3796SOL     OW23023   1.626   1.994   4.141  0.5036 -0.5818 -0.6474
 3796SOL    HW123024   1.689   1.986   4.213 -1.1920  1.5575  1.0266
 3796SOL    HW223025   1.550   1.952   4.181  1.4043 -1.0650  0.5516
 3797SOL     OW23026   1.850   4.110   5.053  0.1032 -0.5442 -0.3332
 3797SOL    HW123027   1.912   4.151   4.993 -0.2765  0.7683  0.1710
 3797SOL    HW223028   1.773   4.120   4.997  1.2676  3.1079 -1.2620
 3798SOL     OW23029   4.123   0.271   4.354 -0.1766 -0.3518  0.2349
 3798SOL    HW123030   4.100   0.204   4.419  0.0855 -0.4020  0.2771
 3798SOL    HW223031   4.123   0.217   4.276  0.5285 -0.1468  0.0939
 3799SOL     OW23032   2.887   2.502   2.354 -0.4410  0.6583 -0.2282
 3799SOL    HW123033   2.804   2.496   2.308 -1.0488 -1.0109  1.1095
 3799SOL    HW223034   2.859   2.528   2.441 -1.4775 -0.9743 -0.0909
 3800SOL     OW23035   4.355   0.446   4.349  0.1860  0.4889 -0.0540
 3800SOL    HW123036   4.282   0.388   4.372  0.6118 -0.5675 -1.3537
 3800SOL    HW223037   4.314   0.527   4.380  2.0014  1.1284  0.6745
 3801SOL     OW23038   1.415   0.683   3.647  0.4076  0.2309  0.1258
 3801SOL    HW123039   1.488   0.729   3.689  1.0873  1.3104 -2.2664
 3801SOL    HW223040   1.360   0.664   3.723 -1.2447 -2.2807 -1.6863
 3802SOL     OW23041   3.461   4.515   6.938 -0.0793  0.5083  0.0085
 3802SOL    HW123042   3.467   4.540   7.030  2.1072  1.1796 -0.3010
 3802SOL    HW223043   3.418   4.430   6.947  1.2948 -0.2973 -0.9594
 3803SOL     OW23044   3.941   1.208   7.864  0.0993  0.0440  0.0027
 3803SOL    HW123045   3.898   1.128   7.894 -0.3953  0.0697 -0.6157
 3803SOL    HW223046   3.893   1.273   7.916  0.7044 -0.3631  1.0597
 3804SOL     OW23047   2.169   0.559   8.928  0.1738 -0.7150  0.0899
 3804SOL    HW123048   2.140   0.601   8.847  1.7573 -0.0518 -0.1228
 3804SOL    HW223049   2.082   0.538   8.963  1.7017 -0.3300  4.0780
 3805SOL     OW23050   2.081   4.239   5.889 -0.7063 -0.1719 -0.0711
 3805SOL    HW123051   2.166   4.277   5.909 -0.4500 -1.5051  1.4322
 3805SOL    HW223052   2.108   4.156   5.850 -0.8101  0.6315 -1.8210
 3806SOL     OW23053   1.416   0.108  17.176  0.2071 -0.3870  0.0918
 3806SOL    HW123054   1.406   0.189  17.126  1.3067 -0.1693  0.2261
 3806SOL    HW223055   1.364   0.128  17.254  0.7931 -2.1858  0.9602
 3807SOL     OW23056   2.198   2.403   1.241  0.1107  0.6042  0.2984
 3807SOL    HW123057   2.270   2.341   1.230 -0.5314  0.3909 -2.6321
 3807SOL    HW223058   2.251   2.480   1.259  0.8706  0.2509 -0.4241
 3808SOL     OW23059   4.710   1.531   4.973 -0.6512  0.0415 -0.3916
 3808SOL    HW123060   0.030   1.472   5.022  1.1654  0.9587 -1.3966
 3808SOL    HW223061   4.635   1.473   4.976 -0.5368 -0.0716  0.3591
 3809SOL     OW23062   3.584   4.337   0.642  0.5424 -0.3304  0.1105
 3809SOL    HW123063   3.678   4.323   0.643  0.3585 -1.5485  1.2639
 3809SOL    HW223064   3.557   4.246   0.657 -0.3842 -0.1911 -0.6913
 3810SOL     OW23065   1.858   2.257   6.431  0.2746 -0.0625  0.1100
 3810SOL    HW123066   1.885   2.248   6.339 -2.0385  0.4897 -0.6303
 3810SOL    HW223067   1.768   2.223   6.428  0.3559 -0.1660 -1.1040
 3811SOL     OW23068   4.023   4.669   7.986  0.0602  0.6592 -0.5259
 3811SOL    HW123069   3.990   4.719   7.911 -0.0675  1.4382  0.0590
 3811SOL    HW223070   4.072   0.001   8.031  1.1988  0.6277 -1.6953
 3812SOL     OW23071   2.312   2.445   1.608 -0.1326  0.3486 -0.3876
 3812SOL    HW123072   2.403   2.433   1.633 -0.5726  0.0572  1.0773
 3812SOL    HW223073   2.322   2.505   1.534  1.1633 -0.8104 -1.1576
 3813SOL     OW23074   3.949   1.732   6.075  0.2784  0.0892  0.0700
 3813SOL    HW123075   4.035   1.691   6.070  0.8177  1.2569 -0.1691
 3813SOL    HW223076   3.904   1.666   6.127  1.0204 -0.3888  0.1054
 3814SOL     OW23077   4.419   1.037   3.959 -1.0824  0.9523  0.0770
 3814SOL    HW123078   4.413   0.977   4.033 -0.2108  0.1229 -0.5282
 3814SOL    HW223079   4.388   0.986   3.884  0.9618  0.1544 -0.2182
 3815SOL     OW23080   3.376   4.069   4.273 -0.2317  0.2098  0.2569
 3815SOL    HW123081   3.313   4.004   4.242  0.1618  0.1664 -0.4565
 3815SOL    HW223082   3.426   4.021   4.339  1.9234  2.1989  0.0653
 3816SOL     OW23083   3.809   1.087   1.017  0.0911 -0.8841  0.0511
 3816SOL    HW123084   3.736   1.055   1.070  0.3330  0.1541  1.0131
 3816SOL    HW223085   3.768   1.165   0.980  0.8468 -0.7393 -0.4912
 3817SOL     OW23086   3.525   3.289   3.785 -0.0915  0.4728 -0.1991
 3817SOL    HW123087   3.488   3.309   3.699 -0.5971 -3.0827 -0.7920
 3817SOL    HW223088   3.504   3.196   3.794  0.5335  0.4205  0.7148
 3818SOL     OW23089   1.055   1.859   2.955 -0.4583  0.3672 -0.5560
 3818SOL    HW123090   0.972   1.875   2.999 -0.0100  0.9088  0.0902
 3818SOL    HW223091   1.034   1.768   2.933  0.5994  0.1639 -0.7081
 3819SOL     OW23092   4.031   1.468   2.010 -0.0915 -0.3570 -0.4355
 3819SOL    HW123093   4.010   1.557   1.983 -0.0053 -0.6199 -1.3773
 3819SOL    HW223094   3.986   1.453   2.094 -0.5223 -2.5074 -1.0417
 3820SOL     OW23095   4.712   2.245   7.846  0.4826  0.7234  0.3508
 3820SOL    HW123096   0.052   2.272   7.795  0.6445 -1.2490 -0.4239
 3820SOL    HW223097   4.689   2.167   7.795 -1.0140  0.1702  1.8638
 3821SOL     OW23098   2.296   0.117  13.656 -0.1926 -0.3946 -0.4117
 3821SOL    HW123099   2.313   0.110  13.750  1.1704 -2.2121 -0.8023
 3821SOL    HW223100   2.384   0.109  13.622  0.2343 -3.8316  1.4297
 3822SOL     OW23101   2.847   3.478   6.739 -0.2485 -0.0536 -0.2295
 3822SOL    HW123102   2.886   3.565   6.752  1.5506 -0.7664 -0.8333
 3822SOL    HW223103   2.807   3.458   6.824  0.3177 -0.5035 -0.0666
 3823SOL     OW23104   3.622   3.386   8.571 -0.1493  0.8429  0.0596
 3823SOL    HW123105   3.702   3.386   8.624  1.1079 -0.6640 -1.8448
 3823SOL    HW223106   3.577   3.310   8.609  0.7975 -0.5458 -1.6377
 3824SOL     OW23107   1.325   1.303   9.799  0.1790  0.1799 -0.2040
 3824SOL    HW123108   1.353   1.235   9.738 -0.5084 -0.7231  0.4745
 3824SOL    HW223109   1.371   1.287   9.881  0.0852 -1.1586 -0.4161
 3825SOL     OW23110   1.119   0.362   7.032 -0.3384 -0.3640  0.4195
 3825SOL    HW123111   1.092   0.419   6.961 -0.9664 -2.7125 -1.2442
 3825SOL    HW223112   1.069   0.284   7.006  0.2504  0.0586 -1.9005
 3826SOL     OW23113   2.626   3.813   3.854  0.5928  0.0058 -0.0590
 3826SOL    HW123114   2.583   3.881   3.802  1.0129  0.6824  0.4742
 3826SOL    HW223115   2.575   3.823   3.935 -0.3037 -0.9187 -0.5029
 3827SOL     OW23116   4.518   1.917  17.062  0.2796 -0.1158  0.4596
 3827SOL    HW123117   4.552   1.862  17.133  0.9950  0.0870  0.2756
 3827SOL    HW223118   4.491   1.857  16.993 -0.4237 -0.0827  0.7060
 3828SOL     OW23119   0.848   2.417   5.141  0.1579  0.7867 -0.1640
 3828SOL    HW123120   0.917   2.389   5.081 -0.0472  0.4580 -0.2464
 3828SOL    HW223121   0.862   2.511   5.149  0.9647  0.6242  0.3581
 3829SOL     OW23122   3.333   3.269   7.291  0.3316 -0.6076 -0.5858
 3829SOL    HW123123   3.270   3.203   7.263  2.3758 -2.1020 -1.7513
 3829SOL    HW223124   3.303   3.279   7.381 -1.0218 -0.9034 -1.0142
 3830SOL     OW23125   0.749   2.617   8.972 -0.0672 -0.1183 -0.4244
 3830SOL    HW123126   0.789   2.542   9.016 -0.1181  0.0279 -0.1271
 3830SOL    HW223127   0.796   2.609   8.889  2.4276 -2.3122  1.1791
 3831SOL     OW23128   4.224   1.520   3.210 -0.1988 -0.4447  0.0994
 3831SOL    HW123129   4.234   1.614   3.226 -1.6924  0.1191 -2.2036
 3831SOL    HW223130   4.294   1.480   3.262  0.4660  0.0966 -0.3818
 3832SOL     OW23131   2.004   1.792   6.708 -0.9187  0.1574  0.3547
 3832SOL    HW123132   2.012   1.720   6.770  1.6645  0.1552 -0.0103
 3832SOL    HW223133   2.093   1.820   6.687 -1.8410  1.4833 -1.8032
 3833SOL     OW23134   0.414   4.325   7.857 -0.1638 -0.5623  0.0052
 3833SOL    HW123135   0.420   4.291   7.946  0.3161 -1.3522 -0.3248
 3833SOL    HW223136   0.451   4.253   7.805  1.6689  0.5558 -0.2195
 3834SOL     OW23137   4.601   1.166   5.966 -0.3666  0.2068 -0.0542
 3834SOL    HW123138   4.583   1.107   6.040 -1.0573  2.4948  1.5964
 3834SOL    HW223139   4.673   1.128   5.916 -0.4383 -1.1617  0.8488
 3835SOL     OW23140   1.057   1.568   1.821 -0.1638 -0.1801  0.5811
 3835SOL    HW123141   1.125   1.522   1.771  1.6773  2.1339  1.0083
 3835SOL    HW223142   1.075   1.531   1.907  0.2232  1.6202  1.2612
 3836SOL     OW23143   3.185   0.042   0.424  0.4777 -0.0331  0.3421
 3836SOL    HW123144   3.092   0.052   0.443  0.0715  2.1300 -2.7826
 3836SOL    HW223145   3.200   0.077   0.336 -2.5840  2.0461  0.6675
 3837SOL     OW23146   2.936   2.173   2.103 -0.0395  0.0424 -0.4133
 3837SOL    HW123147   2.872   2.244   2.093 -0.1955  0.1377  1.1689
 3837SOL    HW223148   2.882   2.112   2.153 -1.2060  1.5201  0.1244
 3838SOL     OW23149   1.571   0.511  15.725 -0.7178 -0.3700  0.2055
 3838SOL    HW123150   1.533   0.470  15.802  0.1657 -2.2694 -0.3766
 3838SOL    HW223151   1.489   0.506  15.676 -1.3047  2.7616  0.8582
 3839SOL     OW23152   1.892   0.648  11.873 -0.1686 -0.3423 -0.5811
 3839SOL    HW123153   1.846   0.732  11.880 -0.0608 -0.2571 -0.9323
 3839SOL    HW223154   1.955   0.657  11.946 -1.5800  0.8053  0.5057
 3840SOL     OW23155   4.325   3.152   9.630 -0.1569 -0.1559  0.4613
 3840SOL    HW123156   4.335   3.082   9.694  1.0570 -0.6039 -0.2102
 3840SOL    HW223157   4.256   3.113   9.577  0.7723 -0.6687 -0.3711
 3841SOL     OW23158   0.101   3.092   7.370  0.0139 -0.4546  0.4479
 3841SOL    HW123159   0.011   3.119   7.354  1.4765  3.2105 -1.7654
 3841SOL    HW223160   0.092   3.078   7.464 -0.6680 -0.7443  0.3367
 3842SOL     OW23161   0.705   1.611   4.784 -0.3389 -0.0243  0.1879
 3842SOL    HW123162   0.679   1.702   4.769 -0.3471 -0.3157 -1.5538
 3842SOL    HW223163   0.624   1.560   4.782 -2.1442  2.8573 -1.1095
 3843SOL     OW23164   0.182   0.125   8.104 -0.6528  0.1874  0.0860
 3843SOL    HW123165   0.135   0.162   8.179  1.1712  0.2687  1.2002
 3843SOL    HW223166   0.231   0.202   8.076 -0.2524  0.3845  1.3157
 3844SOL     OW23167   4.660   4.374   8.169  0.0087 -0.3203 -0.1429
 3844SOL    HW123168   4.612   4.366   8.086 -0.2952 -3.3574  0.3180
 3844SOL    HW223169   4.628   4.462   8.190  2.0680 -0.1329  2.2230
 3845SOL     OW23170   2.186   1.475   5.941  0.1438  0.5211  0.0885
 3845SOL    HW123171   2.160   1.386   5.963  1.6100  0.7939  2.9692
 3845SOL    HW223172   2.184   1.523   6.024 -4.6505 -1.0298  0.8611
 3846SOL     OW23173   1.985   2.094   1.048 -0.1793 -0.3464 -0.0091
 3846SOL    HW123174   1.953   2.014   1.090  1.8936 -0.6706  0.9075
 3846SOL    HW223175   1.908   2.119   0.996 -0.5740  1.0282  1.2459
 3847SOL     OW23176   1.122   1.051   3.971 -0.9798  0.4177  0.2765
 3847SOL    HW123177   1.100   0.965   4.008  0.9762 -0.8703 -1.5495
 3847SOL    HW223178   1.111   1.023   3.881 -0.4176  2.7893 -0.5153
 3848SOL     OW23179   1.667   4.525   2.375  0.4441  0.3273 -0.5057
 3848SOL    HW123180   1.735   4.592   2.381  1.9028 -1.1611 -0.0959
 3848SOL    HW223181   1.728   4.452   2.361 -0.2537 -0.4108  0.3331
 3849SOL     OW23182   4.345   4.607   6.729  0.1949 -0.5184 -0.2173
 3849SOL    HW123183   4.428   4.561   6.738 -0.1192 -0.9160  0.6489
 3849SOL    HW223184   4.279   4.537   6.738 -0.4462  0.3442  1.7589
 3850SOL     OW23185   3.163   1.225  17.414 -0.4741 -0.0090  0.1295
 3850SOL    HW123186   3.150   1.137  17.449 -0.0498  0.5803  1.7779
 3850SOL    HW223187   3.249   1.258  17.441  0.7855 -2.3496 -1.0769
 3851SOL     OW23188   3.209   3.084   6.751 -0.5476  0.0246 -0.1276
 3851SOL    HW123189   3.129   3.041   6.781  0.0480  0.0110  1.4580
 3851SOL    HW223190   3.249   3.119   6.830  0.1640 -1.3231  0.1036
 3852SOL     OW23191   3.945   1.797   0.613  0.0001 -0.0186  0.0025
 3852SOL    HW123192   3.983   1.798   0.701  0.7948  3.8298 -0.3794
 3852SOL    HW223193   4.027   1.774   0.569 -0.7766  0.9055 -1.9444
 3853SOL     OW23194   4.690   0.619   3.833  0.0384 -0.1124 -0.0811
 3853SOL    HW123195   0.003   0.553   3.785  2.8195  1.2116  0.9899
 3853SOL    HW223196   4.710   0.703   3.790  0.9584 -0.4497 -0.3068
 3854SOL     OW23197   4.003   3.328  11.272 -0.1760 -0.1562  0.2518
 3854SOL    HW123198   3.973   3.241  11.246 -0.7390 -0.5055  2.0595
 3854SOL    HW223199   4.091   3.325  11.235 -0.4421 -1.0707 -0.3032
 3855SOL     OW23200   1.294   3.024   7.719 -0.8287  0.4665 -0.2542
 3855SOL    HW123201   1.355   2.957   7.689  1.8245  2.5975  0.3531
 3855SOL    HW223202   1.254   2.991   7.800  0.2088 -0.8470 -0.2848
 3856SOL     OW23203   0.817   0.465   8.474 -0.1136 -0.3772  1.1225
 3856SOL    HW123204   0.765   0.495   8.400  1.8254 -0.8110 -0.4308
 3856SOL    HW223205   0.849   0.386   8.430  1.2671  0.8825 -0.1323
 3857SOL     OW23206   3.367   0.070  14.891  1.0013 -0.3532 -0.5063
 3857SOL    HW123207   3.282   0.083  14.848  0.9840  0.1647 -0.3212
 3857SOL    HW223208   3.402   4.735  14.838  1.0344 -1.2452  0.7276
 3858SOL     OW23209   0.357   0.534   2.094 -0.2158  0.3744 -0.2610
 3858SOL    HW123210   0.444   0.560   2.125 -0.6559 -0.2017  1.4729
 3858SOL    HW223211   0.306   0.512   2.172 -1.3661 -0.5800 -1.2976
 3859SOL     OW23212   1.947   3.531   3.639 -0.1536  0.5288 -0.1113
 3859SOL    HW123213   1.948   3.437   3.659  1.0229  0.0787 -2.2191
 3859SOL    HW223214   2.000   3.536   3.560  4.1564  0.2998  2.7553
 3860SOL     OW23215   0.737   3.923   8.610 -0.4705 -0.2904  0.2390
 3860SOL    HW123216   0.661   3.917   8.552  0.6375 -1.2649 -1.0976
 3860SOL    HW223217   0.697   3.937   8.696  1.5476  0.1949  1.0876
 3861SOL     OW23218   2.296   1.380   2.269  0.0062  0.2111 -0.0793
 3861SOL    HW123219   2.373   1.326   2.283  0.0631  0.6392  1.2442
 3861SOL    HW223220   2.300   1.441   2.343 -0.3952 -0.9973  0.9381
 3862SOL     OW23221   4.028   0.140   7.798 -0.1677  0.1607  0.0166
 3862SOL    HW123222   4.090   0.117   7.728 -1.3975  0.0112 -1.0283
 3862SOL    HW223223   4.073   0.210   7.845  1.1552  0.6559 -1.9819
 3863SOL     OW23224   0.258   0.834   2.072 -0.1556 -0.5228 -0.1092
 3863SOL    HW123225   0.317   0.827   1.997  1.7390  0.9307  1.2422
 3863SOL    HW223226   0.308   0.901   2.119  0.7878 -1.0622 -0.3365
 3864SOL     OW23227   0.559   2.233   0.841  0.2194  0.3646  0.5287
 3864SOL    HW123228   0.629   2.239   0.776 -0.5411 -2.1594 -0.5196
 3864SOL    HW223229   0.479   2.213   0.792  0.6034 -0.7313  0.3461
 3865SOL     OW23230   3.600   2.306   1.767  0.2591 -0.1997  0.4640
 3865SOL    HW123231   3.646   2.361   1.831  0.6135 -0.4246  0.3976
 3865SOL    HW223232   3.661   2.296   1.694  1.4188  1.3047  1.2135
 3866SOL     OW23233   3.978   0.647   1.163 -0.3183 -0.2037  0.1423
 3866SOL    HW123234   3.990   0.641   1.258  2.7510  2.1399 -0.0855
 3866SOL    HW223235   3.951   0.564   1.126 -0.0503  0.2656 -1.1150
 3867SOL     OW23236   1.735   3.618   9.077  0.3844  0.3075 -0.1182
 3867SOL    HW123237   1.680   3.683   9.121  2.5491  2.4571 -0.5944
 3867SOL    HW223238   1.816   3.631   9.127  0.8212  0.0921 -0.7762
 3868SOL     OW23239   0.005   1.279   4.295 -0.0159 -0.7452 -0.2370
 3868SOL    HW123240   0.043   1.320   4.372 -1.6697 -2.9306  1.7400
 3868SOL    HW223241   0.065   1.211   4.264  0.1846 -0.4718 -0.4447
 3869SOL     OW23242   2.193   3.989  11.193  0.2038 -0.4367 -0.0459
 3869SOL    HW123243   2.151   3.909  11.225  0.0974  0.3108  1.6699
 3869SOL    HW223244   2.234   4.021  11.273  3.3795 -0.4900 -1.6344
 3870SOL     OW23245   0.502   2.848   7.056  0.1067  0.2799  0.1543
 3870SOL    HW123246   0.553   2.842   6.975 -0.2967 -0.5559 -0.0275
 3870SOL    HW223247   0.571   2.853   7.123  0.0928 -0.4344  0.2189
 3871SOL     OW23248   0.263   0.337   4.323  0.1867  0.0741  0.5792
 3871SOL    HW123249   0.305   0.257   4.354  1.1121 -0.5246 -2.1893
 3871SOL    HW223250   0.307   0.361   4.242 -2.0299 -0.3819 -0.7587
 3872SOL     OW23251   0.761   4.477   5.182  0.6269 -0.0586  0.2648
 3872SOL    HW123252   0.773   4.560   5.229 -0.3935  0.8276 -1.0268
 3872SOL    HW223253   0.830   4.486   5.117  0.1528  1.2333 -0.0736
 3873SOL     OW23254   0.819   2.515  11.779  0.1801  0.0594 -0.3185
 3873SOL    HW123255   0.855   2.597  11.815  1.9067 -0.5971 -0.5228
 3873SOL    HW223256   0.885   2.456  11.817 -1.0354 -1.0053  0.1310
 3874SOL     OW23257   0.356   3.079   5.959  0.2527 -0.2809  0.3461
 3874SOL    HW123258   0.410   3.050   6.033 -1.4412  1.4036  2.2409
 3874SOL    HW223259   0.292   3.008   5.964 -0.9494  0.7011 -0.9847
 3875SOL     OW23260   4.670   2.238  10.227 -0.4080 -0.0947  0.3441
 3875SOL    HW123261   4.690   2.259  10.318 -0.0202 -0.2884  0.3056
 3875SOL    HW223262   4.655   2.325  10.190  0.8800  1.2708  3.0221
 3876SOL     OW23263   1.722   0.362  11.253  0.0029  0.2385  0.2221
 3876SOL    HW123264   1.682   0.337  11.337 -0.0185 -3.4801 -0.8971
 3876SOL    HW223265   1.771   0.280  11.240 -1.3729 -0.4697 -0.4707
 3877SOL     OW23266   2.874   2.342   5.373  0.0978  0.0233  0.2525
 3877SOL    HW123267   2.809   2.295   5.425 -0.4663  1.5592  0.9535
 3877SOL    HW223268   2.821   2.376   5.301  0.0948  0.4066  0.4358
 3878SOL     OW23269   2.628   3.470   7.690  0.0922 -0.0776 -0.4543
 3878SOL    HW123270   2.577   3.548   7.712  2.4102  1.0239  1.0484
 3878SOL    HW223271   2.562   3.402   7.688  0.9038 -0.8751 -0.1227
 3879SOL     OW23272   0.982   2.859   7.284 -0.0860 -0.5787  0.4143
 3879SOL    HW123273   1.074   2.840   7.267 -0.2317 -0.0617 -0.9685
 3879SOL    HW223274   0.990   2.866   7.379  0.9020  0.0167  0.2818
 3880SOL     OW23275   1.601   3.774   4.264 -0.2212  1.0253  0.1897
 3880SOL    HW123276   1.683   3.758   4.310 -1.3036  0.6389  2.0230
 3880SOL    HW223277   1.623   3.828   4.189 -0.5450 -1.0233 -1.3808
 3881SOL     OW23278   4.619   2.440   4.904  0.1078  0.2994  0.2270
 3881SOL    HW123279   4.598   2.533   4.898 -4.5563 -0.8068 -0.7062
 3881SOL    HW223280   4.712   2.446   4.924  0.1839  2.4416 -0.7415
 3882SOL     OW23281   2.205   0.656  12.897 -0.5099 -0.2492 -0.0877
 3882SOL    HW123282   2.176   0.574  12.858 -0.1928 -0.7740  0.7791
 3882SOL    HW223283   2.143   0.667  12.969  0.3201 -0.0352  0.6019
 3883SOL     OW23284   0.437   0.768  13.312  0.2364  0.2053  0.4975
 3883SOL    HW123285   0.426   0.676  13.289  1.5772 -0.3759  2.1658
 3883SOL    HW223286   0.510   0.773  13.373 -0.3624  1.1790  1.1508
 3884SOL     OW23287   2.903   3.377   8.719  0.0354 -0.2338  0.0440
 3884SOL    HW123288   2.826   3.421   8.755  1.0310  0.8654  0.8256
 3884SOL    HW223289   2.955   3.356   8.796  1.4177 -0.5077 -0.9752
 3885SOL     OW23290   3.944   1.521  10.584 -0.3220  0.0063 -0.1006
 3885SOL    HW123291   3.951   1.584  10.657  0.1474 -0.3537  0.1661
 3885SOL    HW223292   3.897   1.449  10.625 -0.5366 -0.4360 -1.1307
 3886SOL     OW23293   2.074   3.776   4.515  0.1606 -0.6781 -0.2797
 3886SOL    HW123294   2.088   3.683   4.498 -2.8419 -1.6028  2.2672
 3886SOL    HW223295   2.095   3.786   4.608  2.0531 -1.2195 -0.6594
 3887SOL     OW23296   3.644   0.908   3.554  0.0829 -0.2009 -0.5352
 3887SOL    HW123297   3.643   0.867   3.468 -2.6856  0.4653 -0.8233
 3887SOL    HW223298   3.625   1.000   3.539  0.5353 -0.0181  0.0422
 3888SOL     OW23299   4.333   2.597   7.380  0.1299  0.0658  0.2232
 3888SOL    HW123300   4.257   2.649   7.355  2.3019  1.4715 -3.4353
 3888SOL    HW223301   4.340   2.602   7.475 -2.2580  0.5900  0.3664
 3889SOL     OW23302   1.984   2.558  16.146 -0.4246 -0.0129  0.5922
 3889SOL    HW123303   2.063   2.504  16.148 -0.3331  0.0653 -1.1295
 3889SOL    HW223304   1.965   2.556  16.240  1.2246 -1.6929  0.8728
 3890SOL     OW23305   3.748   2.892   1.634 -0.4894  0.6529  0.0207
 3890SOL    HW123306   3.824   2.902   1.577 -1.6951  2.4627 -1.2445
 3890SOL    HW223307   3.700   2.828   1.582 -0.6203 -0.7852  1.9019
 3891SOL     OW23308   4.298   0.921   8.574 -0.3001  0.3634 -0.3850
 3891SOL    HW123309   4.287   0.970   8.656  1.8462 -1.1416  0.8250
 3891SOL    HW223310   4.299   0.996   8.514 -2.7015 -0.6880 -1.7157
 3892SOL     OW23311   1.347   3.472   6.895  0.0328 -0.6116 -0.5033
 3892SOL    HW123312   1.418   3.532   6.874 -0.9045  0.7710  0.2310
 3892SOL    HW223313   1.366   3.394   6.843  0.6138 -1.4339  0.9305
 3893SOL     OW23314   0.858   4.010   7.158 -0.2056 -0.8092 -0.7954
 3893SOL    HW123315   0.825   3.941   7.216 -1.4722 -0.1448 -0.7071
 3893SOL    HW223316   0.936   4.030   7.210 -0.2570 -1.2943 -0.5296
 3894SOL     OW23317   0.004   0.849   4.296  0.2997  0.3794 -0.9358
 3894SOL    HW123318   4.704   0.936   4.276  0.1592  0.3918 -0.6242
 3894SOL    HW223319   4.679   0.789   4.254 -1.8078  1.5561  0.4574
 3895SOL     OW23320   0.936   2.863   8.044  0.9343  0.2002  0.0328
 3895SOL    HW123321   0.845   2.885   8.063  0.9781 -2.7767  3.7931
 3895SOL    HW223322   0.972   2.951   8.036  2.4563 -0.5188 -1.0355
 3896SOL     OW23323   3.537   2.766  13.956  0.4510  0.0144  0.0978
 3896SOL    HW123324   3.451   2.742  13.989  1.3811 -2.8275  0.4681
 3896SOL    HW223325   3.545   2.714  13.875  4.1017  0.3532  0.2439
 3897SOL     OW23326   3.131   2.955   5.764 -0.8221  0.1135 -0.5705
 3897SOL    HW123327   3.119   3.013   5.689  0.8279 -0.6084 -1.3982
 3897SOL    HW223328   3.142   2.877   5.710 -0.3503  0.5985 -1.1737
 3898SOL     OW23329   1.538   2.997   1.045  0.0093  0.2251  0.1481
 3898SOL    HW123330   1.539   3.049   0.965 -1.2118  0.6903  0.4368
 3898SOL    HW223331   1.543   3.069   1.108 -2.8185  1.8125 -1.4573
 3899SOL     OW23332   1.681   0.921   4.182 -0.6493  0.1491  0.0476
 3899SOL    HW123333   1.671   1.016   4.168  1.1093  0.0852 -1.7012
 3899SOL    HW223334   1.751   0.905   4.119 -2.4412  0.1525 -1.9453
 3900SOL     OW23335   3.460   4.140   6.419  0.5184  0.1911  0.1246
 3900SOL    HW123336   3.436   4.226   6.383 -0.5083 -0.3101 -0.3914
 3900SOL    HW223337   3.516   4.171   6.491  0.7416 -0.3151  0.1672
 3901SOL     OW23338   3.597   4.262   1.847  0.1382  0.4186 -0.5208
 3901SOL    HW123339   3.641   4.241   1.764  0.9825 -3.4738  0.9422
 3901SOL    HW223340   3.640   4.206   1.911 -2.5739  0.4004  1.2801
 3902SOL     OW23341   1.082   4.461   7.171 -0.3660  0.0644 -0.3289
 3902SOL    HW123342   1.099   4.366   7.169  0.4565  0.2177 -1.2129
 3902SOL    HW223343   1.125   4.493   7.091  2.5430 -0.2630  1.1066
 3903SOL     OW23344   4.388   1.314   2.093  0.2195 -0.0986  0.0952
 3903SOL    HW123345   4.317   1.273   2.043  2.0916 -3.5246  0.2450
 3903SOL    HW223346   4.360   1.318   2.184 -1.5673 -2.0458 -0.3722
 3904SOL     OW23347   1.946   1.847   1.188 -0.1396 -0.2749 -0.0080
 3904SOL    HW123348   1.905   1.761   1.178  0.8906 -0.7836  0.0904
 3904SOL    HW223349   1.899   1.881   1.265 -0.7157  0.0371 -0.5024
 3905SOL     OW23350   0.506   1.235   7.935 -0.4540 -0.0431  0.2321
 3905SOL    HW123351   0.523   1.297   7.865 -1.7631  0.5939  0.4650
 3905SOL    HW223352   0.423   1.279   7.953 -0.8401  0.0347 -1.7016
 3906SOL     OW23353   0.243   1.223  16.992  0.6981 -0.5718 -0.4105
 3906SOL    HW123354   0.206   1.156  17.049  1.2534 -1.7645 -1.4408
 3906SOL    HW223355   0.201   1.300  17.031 -0.0996 -1.7790  1.0943
 3907SOL     OW23356   3.568   0.741   5.743 -0.4399  0.0704  0.0020
 3907SOL    HW123357   3.561   0.816   5.684 -2.4723 -0.5742 -0.5604
 3907SOL    HW223358   3.628   0.678   5.703 -0.7124  0.9472 -1.7897
 3908SOL     OW23359   0.784   1.258   3.411 -0.7510 -0.0127  0.1840
 3908SOL    HW123360   0.766   1.345   3.377  2.2638 -0.0772 -1.5984
 3908SOL    HW223361   0.875   1.281   3.431 -1.7128  3.0761  0.9705
 3909SOL     OW23362   1.265   3.091   0.750  0.7507 -0.0690  0.3201
 3909SOL    HW123363   1.269   3.124   0.660 -1.3815 -1.1373 -0.1724
 3909SOL    HW223364   1.359   3.097   0.764  0.5719 -0.1734  1.5695
 3910SOL     OW23365   4.324   0.121  10.441  0.4679  0.0085 -0.3617
 3910SOL    HW123366   4.403   0.172  10.460  2.0489 -2.1266 -1.1327
 3910SOL    HW223367   4.363   0.050  10.390 -1.8130 -1.0850 -0.5523
 3911SOL     OW23368   2.781   3.183  11.829 -0.2769 -0.0476  0.0651
 3911SOL    HW123369   2.727   3.154  11.903  0.5290  0.8225  0.9917
 3911SOL    HW223370   2.777   3.278  11.837  3.5054  0.1318 -0.1963
 3912SOL     OW23371   1.302   0.788   9.874  0.0658  0.1056 -0.1587
 3912SOL    HW123372   1.296   0.720   9.806  0.4095 -1.0912  1.0247
 3912SOL    HW223373   1.223   0.839   9.853 -0.2475 -0.3489 -0.0751
 3913SOL     OW23374   0.232   4.267   1.741 -0.4814 -0.3503  0.2809
 3913SOL    HW123375   0.302   4.307   1.792 -0.5716  1.4598 -1.0052
 3913SOL    HW223376   0.190   4.223   1.814 -0.5613  0.0407  0.4725
 3914SOL     OW23377   2.120   4.295   7.934  0.1271 -0.3628 -0.6112
 3914SOL    HW123378   2.113   4.270   7.842  1.9272  0.8821 -1.0875
 3914SOL    HW223379   2.085   4.383   7.923 -1.2207 -0.9297 -0.8476
 3915SOL     OW23380   3.457   1.555  13.084  0.2424  0.2783 -0.0351
 3915SOL    HW123381   3.458   1.610  13.163  0.5487 -0.1226  0.2407
 3915SOL    HW223382   3.511   1.477  13.094  0.5016  0.4403 -0.1826
 3916SOL     OW23383   4.651   1.514  14.016  0.4731 -0.6166 -0.4796
 3916SOL    HW123384   4.729   1.480  14.059  1.0418  0.6639 -0.4934
 3916SOL    HW223385   4.675   1.605  14.030  1.4062 -0.9373  0.0099
 3917SOL     OW23386   0.491   2.534  17.325 -0.0427  0.0766 -0.0804
 3917SOL    HW123387   0.462   2.503  17.411  0.2867 -1.9588 -0.7005
 3917SOL    HW223388   0.515   2.622  17.353 -0.7150  0.4916 -0.7897
 3918SOL     OW23389   3.907   3.388   3.102  0.2454  0.4014  0.2267
 3918SOL    HW123390   3.964   3.363   3.175  0.4165 -0.1160 -0.0892
 3918SOL    HW223391   3.836   3.429   3.153  0.2800  1.3246 -0.4685
 3919SOL     OW23392   0.680   3.402   6.931  0.4457 -0.4698 -0.0997
 3919SOL    HW123393   0.764   3.375   6.895 -0.5539 -1.8865 -1.4006
 3919SOL    HW223394   0.637   3.321   6.958 -1.0588 -0.1615 -1.5333
 3920SOL     OW23395   3.659   0.990  16.879 -0.1981 -0.2010  0.0481
 3920SOL    HW123396   3.587   0.961  16.822 -0.9467 -2.5998  2.1830
 3920SOL    HW223397   3.618   0.951  16.957 -1.3745 -1.2346 -1.0717
 3921SOL     OW23398   4.279   3.908   8.088 -0.4838  0.0783 -0.3655
 3921SOL    HW123399   4.328   3.827   8.100  0.5662  0.8112  0.3472
 3921SOL    HW223400   4.196   3.871   8.117  0.6845 -1.9033  0.4631
 3922SOL     OW23401   0.667   0.624   5.898  0.1833 -0.5649 -0.2546
 3922SOL    HW123402   0.616   0.624   5.817  0.0807  0.2841 -0.1940
 3922SOL    HW223403   0.750   0.639   5.853 -0.7977  1.1617 -1.4943
 3923SOL     OW23404   2.402   1.654   1.004  0.1435 -0.2911  0.7087
 3923SOL    HW123405   2.426   1.746   0.991  2.2692 -1.2424 -2.1614
 3923SOL    HW223406   2.310   1.673   1.023  0.0495  0.8321 -0.8150
 3924SOL     OW23407   0.094   2.586   8.855  0.0901  0.1223 -0.3922
 3924SOL    HW123408   0.017   2.600   8.910  0.8126  1.9697  0.1520
 3924SOL    HW223409   0.161   2.613   8.918  2.5360 -3.3701 -1.5139
 3925SOL     OW23410   2.630   2.960   6.793  0.7762  0.3983  0.3376
 3925SOL    HW123411   2.704   3.011   6.824  0.9586  0.8124 -0.7822
 3925SOL    HW223412   2.673   2.906   6.727  0.0637 -0.2488  0.3936
 3926SOL     OW23413   3.099   3.155   7.184 -0.1681  0.1305  0.1284
 3926SOL    HW123414   3.115   3.243   7.149  0.1477 -0.5767 -1.5068
 3926SOL    HW223415   3.004   3.146   7.191 -0.3381  0.1000 -2.1094
 3927SOL     OW23416   2.461   3.188   3.700  0.1390 -0.2122  1.1396
 3927SOL    HW123417   2.452   3.281   3.721 -4.2147 -0.0914 -1.2028
 3927SOL    HW223418   2.486   3.149   3.783 -0.6257  0.4682  1.6924
 3928SOL     OW23419   0.980   4.470   4.571  0.1857  0.0352  0.1703
 3928SOL    HW123420   1.050   4.495   4.511  2.0493 -2.6879  1.1881
 3928SOL    HW223421   1.016   4.393   4.617  0.4554 -1.4831 -2.5786
 3929SOL     OW23422   4.451   1.811   4.893  0.0367 -0.0362 -0.2343
 3929SOL    HW123423   4.546   1.823   4.903  0.4760 -3.6117 -0.1884
 3929SOL    HW223424   4.431   1.903   4.910 -1.4014 -0.7034  1.6471
 3930SOL     OW23425   1.831   0.634   4.770 -0.3170  0.0328 -0.1016
 3930SOL    HW123426   1.883   0.696   4.719 -0.2641  1.2101  1.3781
 3930SOL    HW223427   1.822   0.576   4.695  1.1785  1.0788 -1.1021
 3931SOL     OW23428   2.380   1.889   3.865 -0.1628 -0.1519  0.3296
 3931SOL    HW123429   2.406   1.911   3.776  1.5125  1.0930  1.1279
 3931SOL    HW223430   2.451   1.924   3.919  0.1343 -0.7740  0.3469
 3932SOL     OW23431   2.932   3.680   5.670  0.1531  0.1625 -0.3014
 3932SOL    HW123432   2.890   3.678   5.755  3.0743 -1.1677  1.1205
 3932SOL    HW223433   3.018   3.712   5.697 -0.0559  0.4945 -0.0419
 3933SOL     OW23434   1.463   4.586  10.855 -0.2498 -0.4396  0.1782
 3933SOL    HW123435   1.546   4.634  10.851 -1.4609  1.6717 -0.0845
 3933SOL    HW223436   1.480   4.515  10.916 -0.4707 -1.2933 -0.7660
 3934SOL     OW23437   0.753   4.278   7.205 -0.4103 -0.1296 -0.5553
 3934SOL    HW123438   0.726   4.274   7.296 -3.3295  0.6987 -1.3561
 3934SOL    HW223439   0.778   4.187   7.188 -1.0301 -0.0208 -2.1319
 3935SOL     OW23440   0.976   1.478   4.161 -0.3139  0.7502  0.1074
 3935SOL    HW123441   1.034   1.402   4.160  0.9610  1.7439 -1.6052
 3935SOL    HW223442   0.920   1.459   4.086  0.9548 -1.0943 -0.3731
 3936SOL     OW23443   2.483   4.544  10.233  0.1120  0.0132  0.0846
 3936SOL    HW123444   2.427   4.568  10.307 -0.8592 -0.1585 -0.6048
 3936SOL    HW223445   2.541   4.475  10.267  0.2426 -0.7876 -1.8075
 3937SOL     OW23446   2.124   0.430   6.727  0.5345  0.1409  0.3213
 3937SOL    HW123447   2.123   0.344   6.770  0.0222  0.0937  0.2238
 3937SOL    HW223448   2.146   0.408   6.637  1.3119 -2.1360  1.0657
 3938SOL     OW23449   2.915   2.680   4.392  0.0356 -0.4231 -0.5040
 3938SOL    HW123450   2.824   2.658   4.370  0.0339  1.6993 -2.6040
 3938SOL    HW223451   2.937   2.708   4.303  2.3708  1.5929  0.7240
 3939SOL     OW23452   4.204   3.717  11.966 -0.2711  0.3710 -0.2480
 3939SOL    HW123453   4.229   3.806  11.941  0.0963  1.1625  2.9274
 3939SOL    HW223454   4.283   3.684  12.007  0.3504  2.1764  0.0277
 3940SOL     OW23455   3.357   1.511   5.463 -0.2965  0.1351 -0.3002
 3940SOL    HW123456   3.313   1.532   5.380  1.0779 -0.1429 -1.1106
 3940SOL    HW223457   3.303   1.571   5.514  1.2304  0.5951  0.7462
 3941SOL     OW23458   4.053   2.142  17.434  0.0984 -0.3962 -0.9956
 3941SOL    HW123459   3.972   2.185  17.408 -1.6086 -3.8662 -1.3593
 3941SOL    HW223460   4.049   2.140  17.530  1.0572 -0.3852 -0.9514
 3942SOL     OW23461   0.138   3.129  17.586  0.2837  0.6548  0.2872
 3942SOL    HW123462   0.061   3.142  17.531 -0.1832  1.1975  1.0699
 3942SOL    HW223463   0.143   3.210  17.637 -0.7644  0.7404  0.2385
 3943SOL     OW23464   3.164   2.193   7.211 -0.0016 -0.2472 -0.2798
 3943SOL    HW123465   3.248   2.152   7.189 -0.7698 -2.2179  0.4473
 3943SOL    HW223466   3.117   2.150   7.140 -0.1556  2.2396 -1.6704
 3944SOL     OW23467   0.698   3.404  16.167 -0.4666  0.1573  0.4311
 3944SOL    HW123468   0.756   3.451  16.108  0.7217 -2.5084 -0.5293
 3944SOL    HW223469   0.610   3.404  16.128 -0.1948  1.3998 -0.1644
 3945SOL     OW23470   2.602   3.670   9.781  0.0975 -0.5264 -0.5803
 3945SOL    HW123471   2.665   3.672   9.709  0.1832  2.7483 -0.3941
 3945SOL    HW223472   2.526   3.703   9.734 -0.2228  0.0353  0.3578
 3946SOL     OW23473   2.474   0.085   6.679  0.1988  0.1853  0.1005
 3946SOL    HW123474   2.381   0.068   6.693 -0.2025  0.4663 -2.2932
 3946SOL    HW223475   2.499   0.142   6.752 -1.0197  1.1613 -0.2526
 3947SOL     OW23476   1.622   3.505   5.422  0.2644 -0.8735  0.3390
 3947SOL    HW123477   1.604   3.598   5.432  1.3141 -0.4290 -1.9838
 3947SOL    HW223478   1.593   3.485   5.333  0.7702 -1.2998  0.2660
 3948SOL     OW23479   0.081   2.023   2.141 -0.1322  0.4481 -0.2890
 3948SOL    HW123480   4.730   1.996   2.167  0.6978  0.0765  2.1314
 3948SOL    HW223481   0.078   2.029   2.046  0.0860 -0.1391 -0.3353
 3949SOL     OW23482   4.050   3.698   1.558 -0.1863  0.1230 -0.1225
 3949SOL    HW123483   4.069   3.652   1.639  0.6564 -1.0563 -0.9935
 3949SOL    HW223484   4.053   3.632   1.489 -1.3237  0.5745 -0.6163
 3950SOL     OW23485   3.421   2.393   8.511  0.2792 -0.1794  0.1071
 3950SOL    HW123486   3.514   2.391   8.532  0.7157  0.2757 -1.7184
 3950SOL    HW223487   3.377   2.470   8.546 -0.1354  0.2060 -1.2507
 3951SOL     OW23488   2.607   2.733   0.526 -0.6976  0.6243 -0.3131
 3951SOL    HW123489   2.548   2.739   0.451  1.3204 -0.9946 -2.0360
 3951SOL    HW223490   2.673   2.684   0.477 -2.0662 -2.0663  0.5523
 3952SOL     OW23491   0.701   1.393   6.302  0.2592  0.3603  0.1215
 3952SOL    HW123492   0.706   1.342   6.383 -1.2931  0.9387  0.5791
 3952SOL    HW223493   0.789   1.432   6.303  0.1298  0.6367  0.7055
 3953SOL     OW23494   4.564   0.640  14.872  0.3180  0.0266 -0.3172
 3953SOL    HW123495   4.561   0.610  14.781  1.2420  1.6553 -0.8729
 3953SOL    HW223496   4.542   0.732  14.858  1.6507  0.5318  0.9539
 3954SOL     OW23497   1.314   3.103   6.491  0.3693  0.2662  0.4268
 3954SOL    HW123498   1.316   3.008   6.484  2.0144  0.3252  0.1321
 3954SOL    HW223499   1.346   3.110   6.401  0.4146  0.0945  0.4300
 3955SOL     OW23500   2.955   4.483   8.746 -0.1997 -0.2867  0.3903
 3955SOL    HW123501   2.938   4.389   8.737 -0.0838 -0.2741  0.0543
 3955SOL    HW223502   2.946   4.504   8.653  2.3547  1.4162  0.5401
 3956SOL     OW23503   4.651   1.851   9.309 -0.5487 -0.3353 -0.2221
 3956SOL    HW123504   4.661   1.904   9.229  0.2149 -0.4282 -0.1843
 3956SOL    HW223505   4.574   1.897   9.342  0.2927  0.1881  0.9918
 3957SOL     OW23506   4.466   0.116  11.867  0.0073 -0.1923 -0.2730
 3957SOL    HW123507   4.433   0.184  11.809  0.8977 -0.1250 -0.7017
 3957SOL    HW223508   4.559   0.111  11.845 -0.0984 -0.6188 -0.6152
 3958SOL     OW23509   0.910   3.288   5.889  0.4515  0.1461 -0.3746
 3958SOL    HW123510   0.838   3.273   5.827  1.0721  0.7334 -1.2403
 3958SOL    HW223511   0.892   3.213   5.946  0.5076  0.1968 -0.2907
 3959SOL     OW23512   3.324   4.397   1.640  0.0100 -0.2733 -0.8019
 3959SOL    HW123513   3.310   4.306   1.667 -0.7442 -0.3951 -1.6092
 3959SOL    HW223514   3.262   4.441   1.699 -0.0749 -2.9055  1.0932
 3960SOL     OW23515   3.972   2.773   9.419  0.3082  0.6723  0.0494
 3960SOL    HW123516   3.892   2.826   9.413  0.7733  1.2469 -1.3072
 3960SOL    HW223517   4.029   2.818   9.482  0.6099  1.8048 -1.0187
 3961SOL     OW23518   3.651   3.241   4.731  0.5658 -0.1228 -0.2083
 3961SOL    HW123519   3.617   3.327   4.757  0.1174 -0.2197 -0.4759
 3961SOL    HW223520   3.620   3.184   4.802 -0.1350 -0.5698 -0.8779
 3962SOL     OW23521   2.527   2.679  16.627  0.4774 -0.1922 -0.0469
 3962SOL    HW123522   2.470   2.641  16.559 -1.2894 -2.8350  2.9101
 3962SOL    HW223523   2.501   2.767  16.651  2.3136  0.1786  0.6014
 3963SOL     OW23524   3.195   1.916   5.843  0.2078  0.4932 -0.0905
 3963SOL    HW123525   3.103   1.887   5.845  0.8362 -1.5946 -1.3470
 3963SOL    HW223526   3.241   1.879   5.918  0.3079  1.2072  0.2023
 3964SOL     OW23527   2.088   0.594  12.091  0.0876  1.2014 -0.3707
 3964SOL    HW123528   2.115   0.648  12.165 -2.6563 -0.4901  1.8643
 3964SOL    HW223529   2.131   0.628  12.013  2.6664  0.4111  0.6834
 3965SOL     OW23530   0.876   3.786   6.616 -0.0838 -0.5578  0.4480
 3965SOL    HW123531   0.919   3.817   6.695 -1.9521 -0.7274  1.5186
 3965SOL    HW223532   0.828   3.714   6.656  1.5818 -0.2740  2.9759
 3966SOL     OW23533   0.252   3.399   7.101  0.3542 -0.0549  0.1067
 3966SOL    HW123534   0.299   3.424   7.022  1.6715 -3.7105 -0.2070
 3966SOL    HW223535   0.222   3.314   7.070  0.3236 -0.4048  1.1086
 3967SOL     OW23536   3.656   2.149   7.618 -0.1994 -0.1057  0.7614
 3967SOL    HW123537   3.697   2.220   7.569  1.2729 -1.7406 -0.3635
 3967SOL    HW223538   3.696   2.161   7.704 -0.2793  0.6183  0.6993
 3968SOL     OW23539   2.677   1.074   4.661 -0.4808  0.4405  0.5276
 3968SOL    HW123540   2.635   0.989   4.679 -1.3434  1.1492  1.8754
 3968SOL    HW223541   2.682   1.108   4.750 -0.7046  1.4015  0.1690
 3969SOL     OW23542   2.071   3.809   7.367 -0.3487 -0.2403  0.0582
 3969SOL    HW123543   2.138   3.839   7.306 -0.9464  2.3445  0.6732
 3969SOL    HW223544   2.095   3.718   7.352 -1.5743 -0.6896  0.7905
 3970SOL     OW23545   2.438   3.670   7.704 -0.3489  0.3799  0.7988
 3970SOL    HW123546   2.357   3.661   7.654 -0.2076 -1.5464  0.9292
 3970SOL    HW223547   2.467   3.759   7.682 -0.0596 -0.6705 -2.9492
 3971SOL     OW23548   0.270   1.240   9.327 -0.5471 -0.0192 -0.3244
 3971SOL    HW123549   0.291   1.327   9.360  2.0221 -0.4645 -0.8250
 3971SOL    HW223550   0.294   1.236   9.235 -2.0259 -0.4375 -0.6899
 3972SOL     OW23551   1.190   3.847  10.464  0.0680  0.2978 -0.2676
 3972SOL    HW123552   1.211   3.797  10.542 -0.2903 -0.5666 -0.7255
 3972SOL    HW223553   1.128   3.786  10.425  0.5377  0.4923 -1.3323
 3973SOL     OW23554   2.588   3.058   3.164 -0.0456  0.5563 -0.5511
 3973SOL    HW123555   2.670   3.108   3.168  0.6327 -0.6790  0.7066
 3973SOL    HW223556   2.530   3.120   3.120  1.1013  2.5786  0.7789
 3974SOL     OW23557   1.262   1.060   6.983 -0.7244  0.7080  0.3050
 3974SOL    HW123558   1.311   1.029   7.059  1.5358  0.5489 -1.2246
 3974SOL    HW223559   1.334   1.054   6.920 -0.1799  3.1334  0.6996
 3975SOL     OW23560   0.235   2.639   9.094 -0.7022 -0.5546  0.3197
 3975SOL    HW123561   0.285   2.720   9.085 -1.9547  0.0751 -1.0634
 3975SOL    HW223562   0.244   2.615   9.186  0.0659 -1.0407  0.1211
 3976SOL     OW23563   1.777   2.602   0.763 -0.2155 -0.0602  0.5967
 3976SOL    HW123564   1.691   2.597   0.805 -1.5325 -3.1522 -2.4592
 3976SOL    HW223565   1.812   2.517   0.790 -2.2074 -1.0372  0.0995
 3977SOL     OW23566   2.154   3.498  10.228 -0.4252  0.3557  0.0439
 3977SOL    HW123567   2.098   3.575  10.224  0.0604  0.7146  0.1601
 3977SOL    HW223568   2.137   3.474  10.319  1.8666 -1.1555  0.0660
 3978SOL     OW23569   0.324   3.702   2.480  0.0420  0.0224  0.0190
 3978SOL    HW123570   0.240   3.717   2.435 -1.8722 -0.4774  3.3821
 3978SOL    HW223571   0.289   3.684   2.568  0.6823 -1.3689 -0.0097
 3979SOL     OW23572   4.520   2.757  11.527  0.0676  0.2267  0.3587
 3979SOL    HW123573   4.572   2.707  11.590  1.1083  1.4563  0.4690
 3979SOL    HW223574   4.573   2.829  11.495  0.1807  0.3688  0.8663
 3980SOL     OW23575   4.657   1.573  13.600 -0.4879 -0.3247  0.7309
 3980SOL    HW123576   0.005   1.535  13.622 -0.2271  1.1765  2.2857
 3980SOL    HW223577   4.685   1.650  13.552 -0.2568 -1.0504 -0.2956
 3981SOL     OW23578   1.476   2.617   1.427  0.5559 -0.0165  0.0749
 3981SOL    HW123579   1.520   2.586   1.507 -1.8253 -0.9293  1.0489
 3981SOL    HW223580   1.531   2.684   1.387 -1.6117  0.9483 -1.2684
 3982SOL     OW23581   4.605   3.283   1.427  0.6199 -0.6055  0.2897
 3982SOL    HW123582   4.599   3.331   1.509 -3.3138 -3.4332  1.6784
 3982SOL    HW223583   4.629   3.359   1.374  0.7240 -2.3176 -2.1240
 3983SOL     OW23584   3.159   1.982   3.316  0.2674  0.1859  0.1678
 3983SOL    HW123585   3.087   2.044   3.320 -0.5724 -0.7882  0.2547
 3983SOL    HW223586   3.176   1.963   3.408 -0.9849 -2.5911 -0.1952
 3984SOL     OW23587   3.785   1.975   8.852 -0.1771 -0.3255  0.1248
 3984SOL    HW123588   3.838   1.938   8.922 -0.5574  3.3061  2.2925
 3984SOL    HW223589   3.847   2.024   8.798 -0.4827 -1.0425 -0.8892
 3985SOL     OW23590   2.349   1.909   8.601  0.3069 -0.0749 -0.3439
 3985SOL    HW123591   2.389   1.967   8.536  0.9264  1.3119  1.2708
 3985SOL    HW223592   2.326   1.833   8.549  1.1809 -0.6360  0.0952
 3986SOL     OW23593   3.207   0.457   7.476  0.0789 -0.7718 -0.5344
 3986SOL    HW123594   3.251   0.373   7.492  1.3857 -0.3030 -1.7157
 3986SOL    HW223595   3.193   0.457   7.382 -0.5354  0.1896 -0.4403
 3987SOL     OW23596   3.687   4.226   5.142 -0.3143  0.2841 -0.1369
 3987SOL    HW123597   3.683   4.287   5.216 -0.8202 -2.7051  2.3043
 3987SOL    HW223598   3.655   4.147   5.185 -3.0126  0.1655 -2.3716
 3988SOL     OW23599   2.798   0.704   6.941  0.3941  0.1097  0.2336
 3988SOL    HW123600   2.812   0.775   7.004 -1.0859  1.5562 -1.0469
 3988SOL    HW223601   2.711   0.672   6.964 -0.3112 -0.1972 -2.8055
 3989SOL     OW23602   2.578   0.672   6.064 -0.0524  0.0738  0.1052
 3989SOL    HW123603   2.649   0.671   6.000  1.1868 -1.7685  1.5381
 3989SOL    HW223604   2.529   0.593   6.042  0.8977 -1.3238  2.9842
 3990SOL     OW23605   3.055   0.897  14.526  0.0244 -0.2460  0.2844
 3990SOL    HW123606   3.140   0.899  14.570  0.0488  2.7584  0.0953
 3990SOL    HW223607   3.053   0.983  14.485 -0.4009 -0.5734 -0.3827
 3991SOL     OW23608   2.517   1.438   4.381 -0.8178 -0.0549  0.1092
 3991SOL    HW123609   2.429   1.472   4.392 -0.5767  0.2427  1.0954
 3991SOL    HW223610   2.567   1.519   4.376  0.2326 -0.5555  2.4040
 3992SOL     OW23611   2.379   3.362   7.698  0.0201  0.2943  0.2227
 3992SOL    HW123612   2.377   3.275   7.737  2.8871 -0.0388 -0.3725
 3992SOL    HW223613   2.326   3.415   7.757 -0.8188  0.6128 -0.8176
 3993SOL     OW23614   3.013   2.476   8.063  0.3539 -0.2473  0.8443
 3993SOL    HW123615   3.022   2.516   7.977 -2.2233  0.2196  0.7846
 3993SOL    HW223616   3.086   2.514   8.112 -1.2899  1.5420  1.9548
 3994SOL     OW23617   0.165   0.403   6.501 -0.7164 -0.1543 -0.4082
 3994SOL    HW123618   0.250   0.376   6.536 -1.1028  0.6120  1.1045
 3994SOL    HW223619   0.199   0.479   6.454  2.6638 -1.5027 -0.1902
 3995SOL     OW23620   3.275   3.776   5.978  0.2293 -0.1476  0.3499
 3995SOL    HW123621   3.247   3.853   5.929 -0.6486  0.5207  1.8872
 3995SOL    HW223622   3.240   3.802   6.064  0.0131 -1.6635  0.7287
 3996SOL     OW23623   3.888   0.893   0.850  0.2773  0.2315 -0.2769
 3996SOL    HW123624   3.880   0.959   0.918  1.0712  0.5748 -0.5203
 3996SOL    HW223625   3.793   0.881   0.838  0.6321 -0.2573 -2.6872
 3997SOL     OW23626   0.539   0.804  17.439 -0.7239  0.5313  0.5706
 3997SOL    HW123627   0.511   0.752  17.515  1.5516  0.4080  1.3026
 3997SOL    HW223628   0.551   0.883  17.492  0.7006  1.3011 -0.8946
 3998SOL     OW23629   2.947   1.990   9.013 -0.2561 -0.3503 -0.7150
 3998SOL    HW123630   2.882   1.934   9.055 -0.7875  0.0353 -1.0151
 3998SOL    HW223631   2.983   1.926   8.952 -0.2274 -2.3239  1.3796
 3999SOL     OW23632   0.920   0.217   4.726 -0.2980  0.3584  0.3691
 3999SOL    HW123633   0.965   0.276   4.665  0.7890  0.1450  0.9732
 3999SOL    HW223634   0.987   0.163   4.767  2.4539  1.9327 -2.0652
 4000SOL     OW23635   0.230   4.346   2.231 -0.3537 -0.4836 -0.2469
 4000SOL    HW123636   0.148   4.357   2.280  0.8266  0.3683  1.5662
 4000SOL    HW223637   0.205   4.322   2.142  0.9509 -2.5211 -0.0575
 4001SOL     OW23638   2.123   0.499  11.374  0.0497  0.0422 -0.3113
 4001SOL    HW123639   2.138   0.559  11.447 -0.3934 -0.6212  0.3262
 4001SOL    HW223640   2.031   0.517  11.356 -0.1639 -0.3711  0.3308
 4002SOL     OW23641   4.564   3.368   4.366 -0.3390 -0.5132 -0.4229
 4002SOL    HW123642   4.659   3.359   4.372  0.0741  2.5518 -2.5266
 4002SOL    HW223643   4.555   3.436   4.299 -1.0658  0.7378  0.9398
 4003SOL     OW23644   0.087   4.589   1.859 -0.1964  0.3193 -0.3545
 4003SOL    HW123645   0.174   4.596   1.899  0.0589  0.5859 -0.9500
 4003SOL    HW223646   0.086   4.498   1.829  2.9302 -0.4649  1.8937
 4004SOL     OW23647   3.017   4.689   8.084  0.8291 -0.3323 -0.1281
 4004SOL    HW123648   3.011   0.003   8.003 -0.7502  1.8793  1.3841
 4004SOL    HW223649   3.029   4.600   8.051 -1.6033 -1.0279  0.8737
 4005SOL     OW23650   3.864   0.131   9.217  0.0066  0.0887  0.2248
 4005SOL    HW123651   3.780   0.176   9.213  0.6488  1.0084 -2.5800
 4005SOL    HW223652   3.917   0.169   9.288  1.1289  1.1357 -1.1731
 4006SOL     OW23653   1.890   0.399   3.633  0.1189  0.1900  0.5306
 4006SOL    HW123654   1.906   0.304   3.636  2.5725  0.5512 -1.3605
 4006SOL    HW223655   1.804   0.397   3.591  0.4814 -0.1454 -0.2046
 4007SOL     OW23656   3.824   0.619   4.198  0.0766 -0.4661 -0.0180
 4007SOL    HW123657   3.909   0.576   4.209  0.5436  0.8298  1.5474
 4007SOL    HW223658   3.803   0.628   4.291  0.4154  1.0180 -0.0802
 4008SOL     OW23659   2.223   3.326   7.198 -0.7600 -0.0392 -0.3917
 4008SOL    HW123660   2.221   3.421   7.211 -0.6693  0.0521 -1.0452
 4008SOL    HW223661   2.131   3.322   7.172 -1.0550 -0.3750  0.7163
 4009SOL     OW23662   0.290   1.558   4.679  0.5689 -0.1961 -0.0889
 4009SOL    HW123663   0.215   1.611   4.703  0.2748 -0.3777 -0.6099
 4009SOL    HW223664   0.240   1.477   4.686 -0.6681  0.5964  0.1348
 4010SOL     OW23665   1.792   1.651  13.271  0.3634  0.2283  0.1081
 4010SOL    HW123666   1.802   1.561  13.240 -2.2149  0.3216 -0.9909
 4010SOL    HW223667   1.861   1.689  13.216  0.7391  0.9585  1.0841
 4011SOL     OW23668   4.410   2.888  15.552  0.8737 -0.4806 -0.3783
 4011SOL    HW123669   4.410   2.809  15.605 -1.3323  0.3804  0.8979
 4011SOL    HW223670   4.460   2.949  15.606 -1.0423 -0.9350  1.9128
 4012SOL     OW23671   4.258   1.949   6.967  0.5297  0.3358  0.6710
 4012SOL    HW123672   4.300   1.971   6.884 -1.2189 -1.6704 -0.7661
 4012SOL    HW223673   4.205   1.876   6.935  0.5903  0.7486 -0.3555
 4013SOL     OW23674   0.020   1.609   2.867  0.1798 -0.3523 -0.2226
 4013SOL    HW123675   0.084   1.617   2.796 -0.2432 -2.2947 -0.8103
 4013SOL    HW223676   4.679   1.590   2.813 -1.2072  0.8230  1.3367
 4014SOL     OW23677   3.855   0.179   6.192  0.5243  0.4953  0.0692
 4014SOL    HW123678   3.871   0.164   6.099  1.5437 -0.9944  0.4790
 4014SOL    HW223679   3.871   0.272   6.203  1.1787  0.3003  0.7463
 4015SOL     OW23680   3.380   1.605   2.944 -0.1224  0.5923 -0.1745
 4015SOL    HW123681   3.382   1.545   3.018 -0.8525 -0.0789 -0.6911
 4015SOL    HW223682   3.285   1.614   2.931 -0.1066 -0.0400 -0.7346
 4016SOL     OW23683   1.611   2.853   8.645 -0.0368  0.4108  0.3138
 4016SOL    HW123684   1.529   2.885   8.681 -0.3527 -1.4100  1.1999
 4016SOL    HW223685   1.603   2.869   8.551  2.1797 -1.2454 -0.1485
 4017SOL     OW23686   3.492   1.851   1.004 -0.5046 -1.0688 -0.3721
 4017SOL    HW123687   3.461   1.808   0.924 -1.4820 -0.4196 -0.3486
 4017SOL    HW223688   3.453   1.938   0.995 -3.0667 -2.2752 -1.0074
 4018SOL     OW23689   3.800   0.507   5.986  0.5852  0.2786 -0.0789
 4018SOL    HW123690   3.807   0.503   6.081 -0.2149  2.7616  0.0889
 4018SOL    HW223691   3.884   0.482   5.947 -0.3652  1.4335 -2.8533
 4019SOL     OW23692   2.803   2.011  12.564 -0.1498 -0.0988 -0.1159
 4019SOL    HW123693   2.747   1.939  12.534 -1.5169  0.6787  0.5961
 4019SOL    HW223694   2.751   2.049  12.635  0.2437  3.1963 -1.5702
 4020SOL     OW23695   0.794   1.759   5.170  0.1094  0.3578  0.8144
 4020SOL    HW123696   0.789   1.676   5.121  2.6610  0.2457  0.7364
 4020SOL    HW223697   0.889   1.771   5.173 -0.0942  1.4435  3.1471
 4021SOL     OW23698   3.130   3.431   4.416  0.5625 -0.1982  0.1611
 4021SOL    HW123699   3.141   3.481   4.496 -0.9279  0.7862 -0.2582
 4021SOL    HW223700   3.060   3.370   4.441 -1.0613  1.6466  0.1025
 4022SOL     OW23701   3.354   2.686   4.979 -0.2035 -0.2332 -0.1368
 4022SOL    HW123702   3.386   2.745   4.911  0.6778  0.6647  1.0664
 4022SOL    HW223703   3.405   2.607   4.959 -1.1580 -0.5964 -1.1771
 4023SOL     OW23704   2.342   3.501  14.505  0.6567  0.3024 -0.0736
 4023SOL    HW123705   2.362   3.439  14.435 -1.1099 -0.0956 -0.2237
 4023SOL    HW223706   2.408   3.570  14.505  1.6655 -0.6509 -1.2157
 4024SOL     OW23707   3.971   1.028  12.509  0.3801 -0.1991 -0.6787
 4024SOL    HW123708   3.930   1.113  12.519 -0.0300  0.0015 -3.9072
 4024SOL    HW223709   4.065   1.040  12.526  0.8687 -2.2649 -1.7932
 4025SOL     OW23710   1.675   3.609   8.329 -0.1978 -0.1505 -0.5135
 4025SOL    HW123711   1.727   3.664   8.387 -1.2062 -0.3006  0.5417
 4025SOL    HW223712   1.641   3.548   8.394 -2.1078  0.3234 -1.0521
 4026SOL     OW23713   0.456   3.410   6.686  0.5868 -0.4456 -0.1503
 4026SOL    HW123714   0.423   3.411   6.776 -0.1031  0.4003 -0.4024
 4026SOL    HW223715   0.463   3.316   6.668 -2.7389 -0.5129 -1.1382
 4027SOL     OW23716   2.700   1.265   4.892  0.3500  0.0662 -0.6392
 4027SOL    HW123717   2.679   1.306   4.976  0.6453 -1.8312  0.3428
 4027SOL    HW223718   2.791   1.240   4.903  0.3959  1.2867  1.9219
 4028SOL     OW23719   0.677   0.825   6.081 -0.4115 -0.1993 -0.4578
 4028SOL    HW123720   0.685   0.743   6.031 -0.5981  0.2498 -1.2345
 4028SOL    HW223721   0.607   0.863   6.028 -0.0517  0.7287 -0.2568
 4029SOL     OW23722   3.245   2.712  17.734 -0.7686 -0.6808 -0.1192
 4029SOL    HW123723   3.294   2.710   0.071 -0.5114 -0.7382 -0.2746
 4029SOL    HW223724   3.260   2.629  17.689  1.3659 -0.7779  0.7861
 4030SOL     OW23725   2.599   2.670  15.564 -0.7031 -0.0814  0.2189
 4030SOL    HW123726   2.590   2.633  15.476  2.4453 -1.5412  0.5236
 4030SOL    HW223727   2.619   2.763  15.549 -0.3740 -0.1973 -0.0578
 4031SOL     OW23728   4.108   3.239   5.083 -0.6261  0.0861 -0.1803
 4031SOL    HW123729   4.058   3.253   5.002 -0.5806  0.0547 -0.2144
 4031SOL    HW223730   4.080   3.152   5.110  0.9745 -1.2180 -2.6643
 4032SOL     OW23731   4.066   1.944  11.441  0.1534  0.3720  0.3691
 4032SOL    HW123732   4.095   1.932  11.531  0.2477  0.7226  0.3849
 4032SOL    HW223733   4.151   1.939  11.396 -0.1710  2.0904 -0.4192
 4033SOL     OW23734   1.937   1.352   3.630  0.3919  0.1707  0.1637
 4033SOL    HW123735   1.988   1.412   3.576 -0.5926  0.8318 -0.0265
 4033SOL    HW223736   1.889   1.307   3.561 -0.6625 -0.1669  1.1264
 4034SOL     OW23737   1.354   4.627   5.011  0.4840  0.2971  0.0812
 4034SOL    HW123738   1.429   4.673   4.973  0.0402  0.1789 -0.9413
 4034SOL    HW223739   1.365   4.535   4.988 -0.2360  0.9396 -2.7925
 4035SOL     OW23740   3.821   1.831   8.587  0.0665 -0.3026  0.0909
 4035SOL    HW123741   3.903   1.813   8.633 -0.6572  0.5739  1.7468
 4035SOL    HW223742   3.820   1.925   8.605  0.3534  0.2900 -3.0266
 4036SOL     OW23743   0.921   3.998   1.073 -0.2245  0.3197 -0.9404
 4036SOL    HW123744   0.855   3.962   1.133  1.1698  0.9918  0.9712
 4036SOL    HW223745   0.965   4.066   1.123 -1.5703 -0.4987  1.3778
 4037SOL     OW23746   0.162   2.929   8.647  0.2958 -0.0978 -0.2970
 4037SOL    HW123747   0.128   2.840   8.638  1.2577 -0.6271  1.3997
 4037SOL    HW223748   0.254   2.919   8.621 -0.1588 -3.3025 -0.5954
 4038SOL     OW23749   2.492   1.269   2.975  0.4898 -0.8871  0.3039
 4038SOL    HW123750   2.416   1.222   3.008 -0.2716 -0.5531 -0.9730
 4038SOL    HW223751   2.470   1.362   2.982  2.4772 -0.4798  1.2081
 4039SOL     OW23752   2.625   1.189  14.926  0.0032  0.2733 -0.8125
 4039SOL    HW123753   2.713   1.155  14.909  1.5553  3.1298  1.4907
 4039SOL    HW223754   2.641   1.224  15.013 -0.4360  0.0605 -0.6439
 4040SOL     OW23755   2.309   3.768   6.904 -0.5130 -0.6062 -0.6944
 4040SOL    HW123756   2.385   3.715   6.927  0.9543 -0.1302 -4.3799
 4040SOL    HW223757   2.244   3.698   6.903 -2.5068  1.1914  2.1708
 4041SOL     OW23758   0.008   3.264  16.330 -0.1984 -0.0512 -0.0686
 4041SOL    HW123759   4.651   3.282  16.340 -0.4344 -1.4162  0.1750
 4041SOL    HW223760   0.040   3.346  16.367  0.6011  0.0467 -0.9710
 4042SOL     OW23761   2.516   3.949   7.688  0.2454 -0.7393  0.4277
 4042SOL    HW123762   2.547   4.033   7.653 -1.1839  0.1883  1.4030
 4042SOL    HW223763   2.598   3.901   7.678  0.3369 -0.8939  1.9244
 4043SOL     OW23764   4.017   3.363  10.944 -0.1509  0.1802  0.1335
 4043SOL    HW123765   3.923   3.382  10.934 -0.0338  1.3120  1.1730
 4043SOL    HW223766   4.025   3.270  10.963  0.4697  0.0417 -0.8257
 4044SOL     OW23767   4.476   3.553  15.251 -0.2608 -0.3488 -0.0634
 4044SOL    HW123768   4.429   3.609  15.190 -0.9809  0.8278  1.5591
 4044SOL    HW223769   4.456   3.471  15.205  0.2248  1.0282 -2.6721
 4045SOL     OW23770   3.946   2.746   7.319  0.0975  0.5362  0.1664
 4045SOL    HW123771   3.993   2.817   7.363  3.2883 -0.4364 -1.7702
 4045SOL    HW223772   3.859   2.762   7.356 -0.1781 -2.7257  0.8831
 4046SOL     OW23773   4.633   0.538   6.510 -0.1289  0.0430 -0.7439
 4046SOL    HW123774   4.551   0.564   6.551  1.2871  0.1764  2.0127
 4046SOL    HW223775   4.690   0.529   6.586  0.4512 -0.9584 -1.3015
 4047SOL     OW23776   4.057   0.610  12.265  0.2779 -0.1025  0.1316
 4047SOL    HW123777   4.058   0.699  12.299  2.7683  0.4674 -1.4139
 4047SOL    HW223778   3.978   0.577  12.307  0.4270 -0.5028  0.0984
 4048SOL     OW23779   2.061   0.565   1.888  0.1527 -0.0966  0.3319
 4048SOL    HW123780   2.099   0.622   1.954 -0.0040  0.7163 -0.2802
 4048SOL    HW223781   2.063   0.618   1.808  0.5600 -1.1355 -0.3561
 4049SOL     OW23782   1.943   0.071   5.455  0.0139 -0.1728  0.2705
 4049SOL    HW123783   1.972   0.108   5.372 -2.3166  0.2774 -0.3260
 4049SOL    HW223784   1.922   0.147   5.508 -1.8339  0.1542 -0.9250
 4050SOL     OW23785   2.737   3.801   4.458 -0.4684 -0.2517 -0.0614
 4050SOL    HW123786   2.722   3.893   4.482 -0.7688 -0.2105 -0.4032
 4050SOL    HW223787   2.825   3.811   4.423  0.8614 -1.1588  3.0189
 4051SOL     OW23788   2.394   2.856  12.678  0.1756 -0.3560  0.1060
 4051SOL    HW123789   2.473   2.830  12.630  1.4125  0.0673  1.8768
 4051SOL    HW223790   2.339   2.838  12.603  1.8742 -0.4581 -1.1190
 4052SOL     OW23791   0.591   4.223   5.743 -0.5518 -0.8335  0.2639
 4052SOL    HW123792   0.682   4.233   5.771 -0.7358 -1.4597  1.0649
 4052SOL    HW223793   0.613   4.178   5.662 -1.3364  0.5091 -0.7070
 4053SOL     OW23794   3.755   3.933  12.063  0.0578  0.3419 -0.2753
 4053SOL    HW123795   3.823   3.956  12.125  0.2102  0.4069 -0.4659
 4053SOL    HW223796   3.785   3.845  12.039  0.7494  1.0910 -2.1738
 4054SOL     OW23797   3.786   0.659  12.523  0.1395 -0.0099  0.1413
 4054SOL    HW123798   3.727   0.634  12.594 -1.8005  1.5754 -0.9213
 4054SOL    HW223799   3.773   0.595  12.453  0.5642 -0.5739  0.5789
 4055SOL     OW23800   3.303   1.749  10.839 -0.6922  0.1041  0.4319
 4055SOL    HW123801   3.224   1.696  10.839 -0.4588 -0.2489 -0.2985
 4055SOL    HW223802   3.277   1.830  10.794 -0.8672  0.7782  1.7562
 4056SOL     OW23803   1.896   4.085  14.517 -0.1937 -0.7583 -0.3334
 4056SOL    HW123804   1.936   4.108  14.433 -0.6517  2.5353  0.3531
 4056SOL    HW223805   1.968   4.035  14.557  0.0014  1.1769  1.6921
 4057SOL     OW23806   1.055   1.926   0.946 -0.0104 -0.6297 -0.2219
 4057SOL    HW123807   1.051   1.848   1.002 -0.4075  0.0365  0.6634
 4057SOL    HW223808   1.146   1.952   0.959  0.2487  0.5001 -4.0821
 4058SOL     OW23809   1.746   0.737   8.777 -0.5684 -0.1432 -0.2335
 4058SOL    HW123810   1.716   0.812   8.726 -1.0160 -0.4582 -0.4343
 4058SOL    HW223811   1.840   0.730   8.761 -0.4752  0.2211  0.1659
 4059SOL     OW23812   1.701   0.741   7.378 -0.2444  0.2803 -0.1531
 4059SOL    HW123813   1.640   0.763   7.448  1.1780  0.1830  1.0985
 4059SOL    HW223814   1.751   0.823   7.371  0.7514  0.0512  4.4313
 4060SOL     OW23815   2.800   0.872   7.155  0.0792  0.5160 -0.2822
 4060SOL    HW123816   2.807   0.846   7.247  0.0613 -0.4487 -0.5494
 4060SOL    HW223817   2.756   0.957   7.162  0.4035  0.8500 -2.3007
 4061SOL     OW23818   0.916   1.101   8.199  0.0415  0.2228  0.0228
 4061SOL    HW123819   0.971   1.148   8.261 -1.1358  1.4083  0.1752
 4061SOL    HW223820   0.868   1.172   8.156  0.1766  0.0705 -0.3788
 4062SOL     OW23821   2.254   2.965   8.507  0.0289 -0.0665 -0.3603
 4062SOL    HW123822   2.275   2.947   8.599 -0.9575 -4.7650 -1.0774
 4062SOL    HW223823   2.180   2.905   8.496 -2.0420  1.6443  3.9620
 4063SOL     OW23824   1.102   0.813   2.301  0.2703 -0.3460 -0.0474
 4063SOL    HW123825   1.021   0.842   2.257 -0.6934 -0.5672  1.5954
 4063SOL    HW223826   1.144   0.898   2.315  0.4693 -0.6414  1.1475
 4064SOL     OW23827   4.046   4.283   7.418  0.6530  0.1484 -0.5676
 4064SOL    HW123828   4.049   4.276   7.323 -0.2565 -0.6406 -0.5448
 4064SOL    HW223829   4.106   4.356   7.432  1.9672 -0.5585 -2.4841
 4065SOL     OW23830   4.018   0.022  14.453 -0.2941  1.0345  0.0705
 4065SOL    HW123831   3.934   4.716  14.437 -1.1215  2.5251  0.4542
 4065SOL    HW223832   3.985   0.100  14.498 -1.1889 -0.1687  1.4934
 4066SOL     OW23833   1.364   1.063   9.657 -0.0745  0.3848  0.2338
 4066SOL    HW123834   1.450   1.038   9.691 -2.0558 -1.3890  3.9704
 4066SOL    HW223835   1.334   0.975   9.633 -0.4502  0.4147  0.5942
 4067SOL     OW23836   2.072   2.200   2.332 -0.1807 -0.7215  0.2087
 4067SOL    HW123837   1.978   2.186   2.342 -0.2585 -0.5593 -0.2776
 4067SOL    HW223838   2.093   2.292   2.315 -0.3650 -1.0949 -2.0764
 4068SOL     OW23839   2.470   1.104   6.973 -0.2477  0.0919 -0.6851
 4068SOL    HW123840   2.392   1.154   6.952 -0.6221  0.1827  0.9123
 4068SOL    HW223841   2.436   1.016   6.956 -1.7705  0.6003 -0.2666
 4069SOL     OW23842   1.970   2.997   9.388  0.3410 -0.2080 -0.4341
 4069SOL    HW123843   2.018   3.037   9.461 -1.6830 -1.5939  1.6916
 4069SOL    HW223844   2.036   2.990   9.319 -0.5751  0.3870 -1.3707
 4070SOL     OW23845   4.301   3.492  13.416 -0.2121  0.9981 -0.2043
 4070SOL    HW123846   4.218   3.446  13.430  0.9561 -1.5044 -1.5011
 4070SOL    HW223847   4.344   3.498  13.501  0.5403  1.1437 -0.5997
 4071SOL     OW23848   0.500   0.931   8.114 -0.5467 -0.2880 -0.0837
 4071SOL    HW123849   0.515   0.971   8.199 -1.2547  1.5661 -0.8391
 4071SOL    HW223850   0.408   0.956   8.108 -0.6127 -0.8617 -1.5483
 4072SOL     OW23851   2.713   2.363  16.465 -0.0975 -0.0850 -0.3996
 4072SOL    HW123852   2.686   2.273  16.446 -0.1031  0.0738 -1.1307
 4072SOL    HW223853   2.698   2.372  16.559  2.8343 -0.6926  0.1221
 4073SOL     OW23854   4.657   2.874   6.640 -0.1726 -0.0386  0.4201
 4073SOL    HW123855   4.636   2.829   6.721 -2.2462  1.1408  0.5400
 4073SOL    HW223856   4.572   2.915   6.621  0.2848  1.3227  1.3438
 4074SOL     OW23857   2.564   2.119   2.888  0.1889  0.8209 -0.5964
 4074SOL    HW123858   2.565   2.082   2.976  0.8000  0.5230 -0.7298
 4074SOL    HW223859   2.641   2.073   2.854  0.6377 -0.6995  2.4720
 4075SOL     OW23860   4.431   0.665  16.033  0.3738  0.5804  0.1461
 4075SOL    HW123861   4.491   0.737  16.015  0.0192  0.7690 -0.3027
 4075SOL    HW223862   4.356   0.720  16.056 -0.5631 -0.8291  0.5130
 4076SOL     OW23863   3.325   2.824   8.203 -0.4504 -0.0114  0.5497
 4076SOL    HW123864   3.244   2.835   8.253 -0.2672  0.4883  0.7320
 4076SOL    HW223865   3.289   2.795   8.119  0.8016  0.5074 -0.1561
 4077SOL     OW23866   4.647   2.447   8.022  0.6724  0.1374  0.4900
 4077SOL    HW123867   4.582   2.411   8.083 -1.5702  1.4592 -1.1298
 4077SOL    HW223868   4.668   2.372   7.966  0.0270  1.4157 -1.4824
 4078SOL     OW23869   1.007   3.317   2.880 -0.2365  0.1053 -0.5958
 4078SOL    HW123870   0.958   3.250   2.833  0.2977 -0.5424 -0.2232
 4078SOL    HW223871   1.078   3.275   2.928  0.0765  1.7512  0.4225
 4079SOL     OW23872   3.312   2.372  10.873  0.2434  0.0171 -0.0831
 4079SOL    HW123873   3.217   2.369  10.883 -0.0459 -0.9041 -3.0836
 4079SOL    HW223874   3.340   2.450  10.920 -2.2952 -0.6269  2.4517
 4080SOL     OW23875   2.946   4.598   9.530  0.1574 -0.2786 -0.0814
 4080SOL    HW123876   2.887   4.527   9.552  1.2090 -0.6590  1.4857
 4080SOL    HW223877   2.933   4.604   9.435  2.2315  0.7794 -0.3071
 4081SOL     OW23878   3.654   0.361   7.384 -0.0298  0.3181 -0.1402
 4081SOL    HW123879   3.658   0.343   7.290 -2.4300  0.5863 -0.3016
 4081SOL    HW223880   3.734   0.315   7.409  0.7369  2.1664  0.8227
 4082SOL     OW23881   0.791   0.961   5.667  0.2755  0.2209 -0.0939
 4082SOL    HW123882   0.725   0.933   5.604 -1.7719  1.5389  1.4584
 4082SOL    HW223883   0.854   0.979   5.598  2.6361  1.5452  2.4007
 4083SOL     OW23884   2.631   1.420   6.001  0.0243 -0.3466 -0.1223
 4083SOL    HW123885   2.689   1.449   6.072 -0.0552  1.1566 -0.6675
 4083SOL    HW223886   2.700   1.405   5.936 -0.2464  0.1477 -0.5221
 4084SOL     OW23887   3.500   1.671   8.107  0.1357 -0.5987  0.4407
 4084SOL    HW123888   3.536   1.720   8.182 -1.0629 -2.2499  2.1052
 4084SOL    HW223889   3.531   1.581   8.105  1.1919 -0.2058 -1.1687
 4085SOL     OW23890   3.402   2.795   2.986  0.0266 -0.3334 -0.0784
 4085SOL    HW123891   3.342   2.867   2.966 -0.0180 -0.3272  0.0750
 4085SOL    HW223892   3.363   2.731   2.927  0.1622  0.0087 -0.5418
 4086SOL     OW23893   2.434   0.745  17.330 -0.0874 -0.2262  0.2327
 4086SOL    HW123894   2.453   0.826  17.379  4.2325 -1.8291  1.2030
 4086SOL    HW223895   2.399   0.784  17.250  0.0858  0.3515  0.4369
 4087SOL     OW23896   3.707   0.959   5.010 -0.0102 -0.0432  0.2724
 4087SOL    HW123897   3.697   0.885   4.951  0.4589 -0.6193  0.9215
 4087SOL    HW223898   3.724   1.029   4.946  0.3290 -1.3183 -1.0219
 4088SOL     OW23899   2.553   4.653  14.800  0.2719  0.1988 -0.0668
 4088SOL    HW123900   2.469   4.626  14.762  1.2157  0.3640 -2.2643
 4088SOL    HW223901   2.523   4.704  14.875 -3.7180  0.0485 -1.5655
 4089SOL     OW23902   1.002   0.879   9.272 -0.3961 -0.4333  0.2550
 4089SOL    HW123903   1.007   0.827   9.191  0.7098 -0.0334  0.0666
 4089SOL    HW223904   0.929   0.936   9.249  0.7336  1.7544  2.1143
 4090SOL     OW23905   1.689   2.701   1.863 -0.5762  0.9244  0.0378
 4090SOL    HW123906   1.616   2.761   1.879 -0.5807  0.9602 -0.1166
 4090SOL    HW223907   1.763   2.761   1.854  0.6959 -0.5000  1.0421
 4091SOL     OW23908   3.212   0.502  13.874 -0.0640 -0.0062  0.1157
 4091SOL    HW123909   3.295   0.466  13.905 -0.4915  0.4062  1.7171
 4091SOL    HW223910   3.240   0.593  13.883  1.3549 -0.2669 -1.6238
 4092SOL     OW23911   1.192   2.839  15.673  0.2638 -0.1724 -0.0495
 4092SOL    HW123912   1.242   2.844  15.755 -1.1234  1.3449  0.6958
 4092SOL    HW223913   1.117   2.891  15.703 -1.2596 -1.9326 -0.8286
 4093SOL     OW23914   0.113   1.366   5.746 -0.1802 -0.5852  0.2454
 4093SOL    HW123915   0.111   1.294   5.683 -1.2821 -0.2579 -0.0984
 4093SOL    HW223916   0.152   1.446   5.710 -1.4290 -0.6595 -1.2540
 4094SOL     OW23917   1.237   2.642  15.468 -0.3923  0.0414  0.3428
 4094SOL    HW123918   1.198   2.708  15.525 -1.7125 -0.4186 -0.0248
 4094SOL    HW223919   1.161   2.634  15.410 -0.3541  0.1582  0.2762
 4095SOL     OW23920   3.642   4.153   5.511  0.0431 -0.0673  0.2811
 4095SOL    HW123921   3.593   4.073   5.494 -0.2783 -0.0046  0.9190
 4095SOL    HW223922   3.584   4.207   5.565 -2.1172 -2.0768 -0.0754
 4096SOL     OW23923   0.922   2.096  11.560  0.7106  0.0643 -0.1341
 4096SOL    HW123924   0.917   2.189  11.542  1.5456  0.4328  1.5142
 4096SOL    HW223925   0.872   2.096  11.642 -0.5306 -0.7999 -0.8808
 4097SOL     OW23926   1.904   1.031   2.105  0.0428 -0.4480 -0.3840
 4097SOL    HW123927   1.853   0.984   2.171 -0.0502 -1.5046 -1.2106
 4097SOL    HW223928   1.965   1.084   2.156  0.8701 -1.9812  0.2183
 4098SOL     OW23929   3.746   3.300   8.012 -0.1454  0.2334 -0.5676
 4098SOL    HW123930   3.750   3.270   8.103  0.3034 -2.8869 -1.6053
 4098SOL    HW223931   3.692   3.378   8.019 -2.3030 -1.1090 -2.2802
 4099SOL     OW23932   0.899   3.779   5.096  0.1720 -0.2949 -0.3736
 4099SOL    HW123933   0.861   3.745   5.177  0.8622 -0.3079 -0.0520
 4099SOL    HW223934   0.823   3.776   5.038  0.2430  1.9812 -0.6070
 4100SOL     OW23935   3.330   0.379   1.652 -0.2244  0.5872  0.2076
 4100SOL    HW123936   3.416   0.420   1.662  0.5729 -1.0563  0.0542
 4100SOL    HW223937   3.341   0.312   1.584 -0.5881  0.5006  0.2355
 4101SOL     OW23938   3.613   2.831  10.920 -0.1863  0.4244 -0.0062
 4101SOL    HW123939   3.608   2.893  10.847  1.8616  1.0142  0.3368
 4101SOL    HW223940   3.709   2.838  10.926 -0.0465 -0.0719 -1.6912
 4102SOL     OW23941   0.311   2.783  11.842 -0.1062 -0.2663  0.8573
 4102SOL    HW123942   0.381   2.774  11.777 -0.9121  0.8353 -0.1579
 4102SOL    HW223943   0.253   2.847  11.801  0.5647 -1.4115 -1.8259
 4103SOL     OW23944   3.086   4.121  17.290 -0.0189  0.4100  0.1159
 4103SOL    HW123945   3.027   4.070  17.346 -2.8605  1.9881 -1.4327
 4103SOL    HW223946   3.172   4.094  17.321  0.5501 -0.5807 -2.3003
 4104SOL     OW23947   4.584   3.404   9.582 -0.0544  0.0932 -0.4534
 4104SOL    HW123948   4.638   3.472   9.623 -0.0889 -0.2626  0.1813
 4104SOL    HW223949   4.649   3.377   9.518  2.6860  0.1147  2.2905
 4105SOL     OW23950   4.000   3.239   3.711  0.3879  0.4256  0.8967
 4105SOL    HW123951   4.003   3.271   3.621  1.2538 -1.6149  0.2207
 4105SOL    HW223952   3.914   3.278   3.726 -0.7475 -1.7304 -0.0218
 4106SOL     OW23953   4.644   2.772   7.326 -0.6251 -0.0759 -0.0605
 4106SOL    HW123954   4.691   2.824   7.391 -3.0619 -1.0385  2.4728
 4106SOL    HW223955   4.554   2.802   7.334  0.0882  1.6488  1.2243
 4107SOL     OW23956   0.092   1.390   3.335  0.3638 -0.2708 -0.5849
 4107SOL    HW123957   0.005   1.387   3.295  0.9710 -0.8022 -1.8606
 4107SOL    HW223958   0.125   1.479   3.323 -1.7052  0.8502  1.9508
 4108SOL     OW23959   2.378   1.590   3.882  0.1781 -0.2708  0.0841
 4108SOL    HW123960   2.472   1.569   3.883  0.2189 -0.0460  1.6976
 4108SOL    HW223961   2.380   1.684   3.895  1.6298 -0.3335  0.3311
 4109SOL     OW23962   4.533   1.063  12.258  0.7940 -0.2839  0.2778
 4109SOL    HW123963   4.438   1.057  12.267  0.8810  1.1612  2.1312
 4109SOL    HW223964   4.565   0.973  12.251 -1.0318 -1.1115  2.3348
 4110SOL     OW23965   2.272   1.142   3.024 -0.1698 -0.0203  0.3001
 4110SOL    HW123966   2.220   1.191   2.960  2.2407  0.4477 -1.2810
 4110SOL    HW223967   2.215   1.066   3.040  0.0754 -0.2893 -0.0868
 4111SOL     OW23968   2.901   3.225   4.439  0.5114  0.1416  0.4124
 4111SOL    HW123969   2.924   3.210   4.531  0.4963  0.9770  0.5475
 4111SOL    HW223970   2.916   3.137   4.405  1.2204 -0.1356  1.4564
 4112SOL     OW23971   0.237   0.457  15.337  0.1100 -0.3687 -0.6591
 4112SOL    HW123972   0.256   0.426  15.248  1.4990 -2.1704  0.2716
 4112SOL    HW223973   0.180   0.531  15.317 -1.4233 -1.4394 -0.1712
 4113SOL     OW23974   2.154   0.993   7.960  0.2716  0.3069  0.2237
 4113SOL    HW123975   2.217   0.997   7.888  0.8225  0.4492  0.7176
 4113SOL    HW223976   2.112   0.909   7.943 -1.0417  1.1576 -0.8274
 4114SOL     OW23977   4.158   1.933   8.467 -0.5879 -0.3162 -0.2291
 4114SOL    HW123978   4.161   1.908   8.559  1.0264  0.0993 -0.1739
 4114SOL    HW223979   4.251   1.937   8.447 -0.6957  2.9268 -0.0552
 4115SOL     OW23980   2.109   2.830   1.214 -0.2788  0.5812  0.0738
 4115SOL    HW123981   2.025   2.836   1.169 -0.4515 -1.7240  0.0866
 4115SOL    HW223982   2.170   2.841   1.141  1.1964 -0.3448  1.1552
 4116SOL     OW23983   4.495   4.073   9.270  0.0194 -0.0488  0.6002
 4116SOL    HW123984   4.414   4.034   9.305 -0.4824  1.2511  0.9011
 4116SOL    HW223985   4.449   4.140   9.220 -1.3556 -1.9381 -0.6750
 4117SOL     OW23986   1.880   4.109   6.010 -0.0743  0.0163 -0.0168
 4117SOL    HW123987   1.931   4.186   5.986  0.2858 -0.0879  0.4206
 4117SOL    HW223988   1.816   4.159   6.061 -0.9986  0.5920 -1.7104
 4118SOL     OW23989   2.642   1.294   4.173  0.1649  0.5417 -0.4471
 4118SOL    HW123990   2.558   1.269   4.133  0.3577 -2.5751  1.0845
 4118SOL    HW223991   2.615   1.311   4.263  2.4843  1.4992  0.0539
 4119SOL     OW23992   2.328   0.168  14.724 -0.1023 -0.2481  0.1436
 4119SOL    HW123993   2.322   0.222  14.803 -0.8944  2.7432 -1.9376
 4119SOL    HW223994   2.280   0.221  14.660  0.5496 -0.4298 -0.4909
 4120SOL     OW23995   4.176   2.023  10.229 -0.0988  0.3055  0.5960
 4120SOL    HW123996   4.146   1.932  10.229 -0.0629  0.2983 -0.7431
 4120SOL    HW223997   4.109   2.064  10.173  1.9534  1.1291 -1.2427
 4121SOL     OW23998   3.768   0.885   8.332  0.9171  0.4265  0.1213
 4121SOL    HW123999   3.857   0.903   8.301  2.1702 -0.5365  3.2053
 4121SOL    HW224000   3.792   0.860   8.421 -0.9455 -1.6489  0.0246
 4122SOL     OW24001   4.279   2.922   6.319 -0.3229  0.4869 -0.1471
 4122SOL    HW124002   4.236   3.007   6.306  1.2959  1.0548 -1.7942
 4122SOL    HW224003   4.363   2.945   6.357  0.0550 -1.3860  0.1281
 4123SOL     OW24004   3.269   3.077   6.479  0.1007  0.2502 -0.2175
 4123SOL    HW124005   3.244   3.066   6.571  0.5570  2.3641  0.1656
 4123SOL    HW224006   3.208   3.017   6.436 -1.7705  0.8263  1.6100
 4124SOL     OW24007   3.962   4.017   4.183  0.1322 -0.0856  0.5557
 4124SOL    HW124008   3.962   4.089   4.119  0.3073 -0.3039  0.3124
 4124SOL    HW224009   3.966   3.939   4.128 -0.0371  0.8358 -0.7794
 4125SOL     OW24010   1.831   1.401   5.751 -0.6604  0.5424  0.1032
 4125SOL    HW124011   1.895   1.381   5.683 -0.8868  0.1737  0.0003
 4125SOL    HW224012   1.797   1.313   5.769 -0.5256  0.6980  1.1609
 4126SOL     OW24013   1.899   1.224   0.373 -0.3379 -0.6008 -0.2259
 4126SOL    HW124014   1.808   1.255   0.369 -0.5180 -1.2220 -1.0796
 4126SOL    HW224015   1.942   1.292   0.424 -2.0421  1.0041 -0.9328
 4127SOL     OW24016   2.480   1.102   1.212 -0.0489  0.1831  0.0703
 4127SOL    HW124017   2.528   1.090   1.130 -1.7284  0.9331 -1.0138
 4127SOL    HW224018   2.539   1.152   1.268  1.3615  0.4958 -1.6930
 4128SOL     OW24019   2.661   1.830   7.205 -0.1446  0.7388  0.2788
 4128SOL    HW124020   2.651   1.787   7.289 -1.2084 -0.8650 -0.6745
 4128SOL    HW224021   2.755   1.845   7.194  0.2448 -1.6494  0.4004
 4129SOL     OW24022   0.119   3.433   4.412 -0.4999 -0.0361  0.2574
 4129SOL    HW124023   0.162   3.502   4.463 -1.6226 -1.1568  2.7170
 4129SOL    HW224024   0.098   3.485   4.334 -1.4446 -1.5028 -0.4518
 4130SOL     OW24025   3.247   4.011   5.284  0.2494 -0.5977 -0.8485
 4130SOL    HW124026   3.261   3.920   5.311  1.7785 -0.8943 -2.6003
 4130SOL    HW224027   3.338   4.040   5.283  0.1613 -0.2940  0.5530
 4131SOL     OW24028   0.286   4.698  10.543  0.0797  0.1245 -0.2755
 4131SOL    HW124029   0.246   4.627  10.594 -1.1591  0.8071 -0.3040
 4131SOL    HW224030   0.378   4.670  10.543  0.2213  0.5981 -0.0702
 4132SOL     OW24031   1.261   4.591   2.596  0.4977  0.4429 -0.0056
 4132SOL    HW124032   1.189   4.596   2.659  0.5635 -2.5891  0.3304
 4132SOL    HW224033   1.286   4.498   2.591 -1.8121 -0.1783  0.0516
 4133SOL     OW24034   3.517   1.466   3.199 -0.3488 -0.1936 -0.1455
 4133SOL    HW124035   3.525   1.395   3.136  0.7486 -1.4131  1.3881
 4133SOL    HW224036   3.592   1.522   3.177  0.1046 -1.3091 -1.4237
 4134SOL     OW24037   2.322   0.189   3.940 -0.8487  0.2901 -0.4113
 4134SOL    HW124038   2.227   0.182   3.946 -0.7018 -0.1320  1.6748
 4134SOL    HW224039   2.338   0.182   3.846 -0.1140  0.0319 -0.2711
 4135SOL     OW24040   0.868   2.212  12.118 -0.2163  0.1278  0.0035
 4135SOL    HW124041   0.858   2.223  12.213 -0.0877  3.1001 -0.3112
 4135SOL    HW224042   0.860   2.302  12.086  1.0863 -0.1435 -1.0987
 4136SOL     OW24043   2.693   0.913   8.401  0.3479  1.1764 -0.6491
 4136SOL    HW124044   2.769   0.912   8.343  0.8014  1.0504 -0.0549
 4136SOL    HW224045   2.644   0.987   8.366  0.6988  0.8503 -1.8054
 4137SOL     OW24046   1.065   3.250   7.043  0.1645 -0.1026  0.3535
 4137SOL    HW124047   0.990   3.192   7.050  0.8331 -0.8633  1.1661
 4137SOL    HW224048   1.071   3.268   6.950 -2.3076 -1.9815 -0.1677
 4138SOL     OW24049   0.023   1.704  12.479 -0.6171 -0.9779 -0.3481
 4138SOL    HW124050   4.697   1.776  12.474  0.5090  0.2117  2.4773
 4138SOL    HW224051   0.014   1.643  12.405  1.7492  1.1662 -2.3960
 4139SOL     OW24052   0.537   0.873   3.914  0.1594 -0.0259 -0.1933
 4139SOL    HW124053   0.539   0.779   3.900 -1.6743  0.0176 -0.8660
 4139SOL    HW224054   0.565   0.905   3.828 -0.3860 -1.1569 -0.7952
 4140SOL     OW24055   3.184   0.643   0.541 -0.5694  0.1463  0.5730
 4140SOL    HW124056   3.105   0.684   0.578  1.3354  0.5301  4.1859
 4140SOL    HW224057   3.238   0.657   0.619 -0.3370 -0.3977  0.5055
 4141SOL     OW24058   1.990   3.666   1.660  0.3962  0.7406 -0.1794
 4141SOL    HW124059   1.992   3.595   1.596  0.2708  0.0853  0.5505
 4141SOL    HW224060   2.027   3.740   1.612 -0.1596  0.0894 -1.6188
 4142SOL     OW24061   4.554   2.081   5.163 -0.4421 -0.6887  0.0287
 4142SOL    HW124062   4.588   2.046   5.245  1.2563  1.4185  0.2298
 4142SOL    HW224063   4.632   2.087   5.108 -0.3827 -1.5501  0.0226
 4143SOL     OW24064   3.391   4.679   3.249 -0.0191 -0.2932  0.0742
 4143SOL    HW124065   3.350   4.610   3.301 -0.6809 -1.2274 -1.6757
 4143SOL    HW224066   3.448   4.621   3.199  1.7020 -0.9299  2.7815
 4144SOL     OW24067   2.794   2.207   3.602  0.2085  0.0652  0.0596
 4144SOL    HW124068   2.734   2.133   3.608 -0.4340  0.7060  1.4063
 4144SOL    HW224069   2.828   2.202   3.691 -0.5560  1.9864  0.4591
 4145SOL     OW24070   4.274   2.944   9.828 -0.7044  0.4887  0.2989
 4145SOL    HW124071   4.270   2.859   9.871  0.5262  0.1307 -0.3091
 4145SOL    HW224072   4.333   2.999   9.880  1.8096 -0.8553 -1.1454
 4146SOL     OW24073   4.351   0.880   9.762 -0.0993  0.3376  0.6133
 4146SOL    HW124074   4.294   0.946   9.721 -1.2605  0.0800  1.8163
 4146SOL    HW224075   4.292   0.844   9.828 -1.1049  1.3802  0.2978
 4147SOL     OW24076   2.412   1.921   0.993 -0.0957 -0.6908 -0.1589
 4147SOL    HW124077   2.384   2.008   1.021  0.4848 -1.4412  2.7878
 4147SOL    HW224078   2.491   1.908   1.047 -0.7004 -0.5834  0.7479
 4148SOL     OW24079   1.243   0.311   5.182 -0.1774  0.3527 -0.2914
 4148SOL    HW124080   1.205   0.345   5.101  1.1284 -0.4703 -1.2433
 4148SOL    HW224081   1.224   0.218   5.173  3.7301 -0.2365 -2.5418
 4149SOL     OW24082   3.653   2.991   4.577 -0.0741 -0.2014  0.7063
 4149SOL    HW124083   3.727   3.019   4.632  1.6281  0.9737 -2.2086
 4149SOL    HW224084   3.589   3.061   4.579 -1.1912 -1.2182  0.4951
 4150SOL     OW24085   0.573   0.475   8.584 -0.2150  0.0317  0.2235
 4150SOL    HW124086   0.665   0.459   8.565 -0.1297  1.0355 -0.1890
 4150SOL    HW224087   0.536   0.450   8.499 -2.4524 -1.4953  1.6454
 4151SOL     OW24088   0.857   2.114   0.421 -0.6446  1.1952 -0.2872
 4151SOL    HW124089   0.814   2.118   0.335 -0.8815  0.4715 -0.2050
 4151SOL    HW224090   0.946   2.135   0.394  0.4164 -1.1186  1.4017
 4152SOL     OW24091   3.457   3.474  11.631  0.5041  0.0347 -0.7952
 4152SOL    HW124092   3.389   3.413  11.603  1.4508 -1.1405 -0.5635
 4152SOL    HW224093   3.400   3.500  11.703  1.3685 -0.4823  0.0872
 4153SOL     OW24094   4.195   1.109   5.010 -0.4428  0.6523 -0.2532
 4153SOL    HW124095   4.185   1.162   5.089 -0.0425 -1.3341  1.1164
 4153SOL    HW224096   4.191   1.175   4.941 -0.0313  0.5822 -0.3408
 4154SOL     OW24097   3.730   3.117  12.088 -0.3232 -0.1040  0.4184
 4154SOL    HW124098   3.719   3.192  12.146  0.0920  0.7041 -0.5656
 4154SOL    HW224099   3.806   3.148  12.039 -0.0719 -1.2608  0.0830
 4155SOL     OW24100   0.030   4.399  13.713 -0.1973 -0.1341  0.3813
 4155SOL    HW124101   0.040   4.411  13.618  2.4557  0.0133  0.6932
 4155SOL    HW224102   0.077   4.473  13.750  1.2408 -0.4862 -0.7181
 4156SOL     OW24103   0.553   3.190   4.431 -0.2533 -0.0091 -0.3352
 4156SOL    HW124104   0.624   3.253   4.417 -0.4307  0.4764  0.9906
 4156SOL    HW224105   0.503   3.246   4.490 -3.4024 -2.4385 -0.7179
 4157SOL     OW24106   4.712   3.436  14.981  0.0762 -0.8136 -0.3313
 4157SOL    HW124107   4.696   3.518  15.027  0.5661  0.4461 -2.4159
 4157SOL    HW224108   4.646   3.446  14.913  0.1693  1.4368 -0.1007
 4158SOL     OW24109   1.540   4.268  15.048 -0.0912 -0.1315  0.0078
 4158SOL    HW124110   1.462   4.241  15.098 -0.6534  0.5660 -0.4979
 4158SOL    HW224111   1.548   4.202  14.979 -0.1483 -1.4397  1.2297
 4159SOL     OW24112   0.663   3.174  12.021 -0.4615 -0.2639  0.4967
 4159SOL    HW124113   0.670   3.113  12.095  0.6840 -1.0096 -0.2229
 4159SOL    HW224114   0.587   3.139  11.974 -0.0306 -0.1229 -0.3054
 4160SOL     OW24115   3.150   1.620   8.039  0.2377 -0.2030 -0.3619
 4160SOL    HW124116   3.184   1.689   7.982  0.8177  0.5016  0.8185
 4160SOL    HW224117   3.203   1.638   8.117  0.1282  2.0076 -0.8004
 4161SOL     OW24118   2.770   1.778   1.785 -0.1070 -0.7903 -0.5271
 4161SOL    HW124119   2.845   1.733   1.747  0.6418  0.6893 -0.7939
 4161SOL    HW224120   2.825   1.810   1.855  0.1408 -0.9055 -0.6701
 4162SOL     OW24121   1.808   4.408   8.633  0.0766  0.0582 -0.3021
 4162SOL    HW124122   1.801   4.476   8.566 -0.4870 -0.4040 -0.7130
 4162SOL    HW224123   1.899   4.408   8.661  0.5941 -1.2973 -1.9599
 4163SOL     OW24124   4.472   1.114   3.198  0.0685 -0.9986 -0.2067
 4163SOL    HW124125   4.380   1.098   3.219 -0.0039  0.1297  0.3345
 4163SOL    HW224126   4.518   1.041   3.240  2.3658  0.6612  0.1680
 4164SOL     OW24127   2.861   0.718   8.514  0.6570  0.1217 -0.3070
 4164SOL    HW124128   2.955   0.703   8.522  0.5429 -0.7807 -0.6816
 4164SOL    HW224129   2.855   0.807   8.481  1.6106  0.5675  0.7401
 4165SOL     OW24130   0.085   3.498   9.694 -0.0434  0.3716 -0.7055
 4165SOL    HW124131   0.141   3.480   9.618 -0.2304 -0.0944 -0.7378
 4165SOL    HW224132   0.148   3.548   9.746 -0.3972  1.0391 -0.9220
 4166SOL     OW24133   4.198   4.179  14.856  0.2365  0.0841 -0.0989
 4166SOL    HW124134   4.262   4.237  14.815 -0.4089 -0.0625 -1.3157
 4166SOL    HW224135   4.117   4.229  14.867  0.3046  0.5023 -1.4887
 4167SOL     OW24136   0.049   2.826   3.653  0.6016  0.5239  0.3725
 4167SOL    HW124137   4.713   2.883   3.680  0.4766  0.0989  0.9546
 4167SOL    HW224138   0.084   2.805   3.739  4.8818 -0.9266 -1.7643
 4168SOL     OW24139   2.862   1.793  14.713  0.2049  0.5245 -0.0077
 4168SOL    HW124140   2.772   1.761  14.720 -0.0226  1.1749  0.1085
 4168SOL    HW224141   2.848   1.860  14.646 -0.7154 -0.5513 -0.8663
 4169SOL     OW24142   0.486   4.484   2.407  0.1777 -0.0531  0.2615
 4169SOL    HW124143   0.568   4.528   2.430 -0.0912  1.0262 -0.8582
 4169SOL    HW224144   0.518   4.395   2.415 -2.1410 -0.8319  1.0549
 4170SOL     OW24145   2.297   4.196   0.009  0.2017  0.0104  0.1115
 4170SOL    HW124146   2.334   4.264   0.065  1.1260  1.2215 -1.9800
 4170SOL    HW224147   2.260   4.250  17.685 -1.0030 -1.0324 -0.0650
 4171SOL     OW24148   3.852   1.481  14.810 -0.0821 -0.0227  0.0875
 4171SOL    HW124149   3.844   1.486  14.905 -3.7083 -2.1421 -0.1050
 4171SOL    HW224150   3.857   1.576  14.798  0.3895  0.2290  2.2561
 4172SOL     OW24151   0.570   1.473   3.139 -0.1725  0.0794 -0.4525
 4172SOL    HW124152   0.557   1.392   3.090  1.1058 -0.0620 -0.5369
 4172SOL    HW224153   0.655   1.466   3.182 -0.9120  2.5940  1.3859
 4173SOL     OW24154   2.497   1.788   1.372 -0.0652  0.9323 -0.1900
 4173SOL    HW124155   2.415   1.824   1.338 -0.0095  0.7876 -0.4775
 4173SOL    HW224156   2.558   1.817   1.304 -0.3891 -0.2005 -0.9571
 4174SOL     OW24157   3.756   3.947  12.732  0.0041 -0.0723 -0.1657
 4174SOL    HW124158   3.737   4.015  12.667  0.2246 -0.5560 -0.7368
 4174SOL    HW224159   3.769   3.995  12.814  2.4624 -1.0629  0.0060
 4175SOL     OW24160   2.339   3.107   5.591 -0.2042  0.2075  0.1426
 4175SOL    HW124161   2.344   3.012   5.578 -0.7732  0.4707 -2.0325
 4175SOL    HW224162   2.423   3.115   5.636 -1.4612 -1.6664  2.8224
 4176SOL     OW24163   3.038   0.214   3.318  0.2489 -0.2737  0.3520
 4176SOL    HW124164   3.111   0.157   3.340  0.9093 -0.1009 -1.4737
 4176SOL    HW224165   3.057   0.235   3.227  0.6541 -0.1831  0.4613
 4177SOL     OW24166   3.059   3.440   3.871  0.4946 -0.1017  0.8623
 4177SOL    HW124167   3.029   3.517   3.823  2.0527  0.9772  1.6449
 4177SOL    HW224168   2.985   3.378   3.871 -0.8371  1.4953 -1.8910
 4178SOL     OW24169   3.741   4.045  11.248 -0.6107 -0.0763 -0.2838
 4178SOL    HW124170   3.757   3.980  11.179 -1.9331 -1.2904  0.5686
 4178SOL    HW224171   3.648   4.027  11.260 -1.0131  1.7522 -0.6280
 4179SOL     OW24172   2.928   3.159   2.487  0.1841  0.5952  0.0541
 4179SOL    HW124173   3.002   3.145   2.428  0.5106 -2.1857  1.1457
 4179SOL    HW224174   2.858   3.193   2.430  0.4014  0.8853 -0.0430
 4180SOL     OW24175   1.065   1.649   6.929 -0.4361  0.2154  0.2269
 4180SOL    HW124176   1.043   1.580   6.992 -0.7179  0.8841  0.8673
 4180SOL    HW224177   0.988   1.671   6.877  2.1812  3.2481 -2.3352
 4181SOL     OW24178   0.884   2.775   6.142  0.2565  0.1478  0.2815
 4181SOL    HW124179   0.913   2.711   6.207 -0.9728  0.1941  0.8650
 4181SOL    HW224180   0.939   2.848   6.169 -0.7120  0.8126  0.4254
 4182SOL     OW24181   1.432   1.539   3.414  0.4031  0.0067  0.2423
 4182SOL    HW124182   1.485   1.603   3.367  1.0845  1.1475  2.5647
 4182SOL    HW224183   1.489   1.510   3.486  1.6890 -0.9066 -1.1547
 4183SOL     OW24184   1.123   1.653   6.241  0.2217 -0.0474  0.9408
 4183SOL    HW124185   1.184   1.579   6.236 -0.4695 -0.6440  1.4203
 4183SOL    HW224186   1.168   1.707   6.306  1.2812  1.7071 -1.2355
 4184SOL     OW24187   3.234   1.822   7.150 -0.1455 -0.0326 -0.1911
 4184SOL    HW124188   3.213   1.813   7.057 -0.3657 -0.2799 -0.1193
 4184SOL    HW224189   3.292   1.898   7.146 -1.2575  0.8721  0.6958
 4185SOL     OW24190   4.324   0.760  15.343 -0.2496 -0.6277 -0.1612
 4185SOL    HW124191   4.281   0.757  15.428  2.5115 -1.6007  1.1858
 4185SOL    HW224192   4.364   0.673  15.346 -2.5059 -1.6850 -0.9990
 4186SOL     OW24193   0.009   0.501   6.774 -0.0468  0.1418  0.1850
 4186SOL    HW124194   0.103   0.486   6.781  0.4518  3.1572  0.1324
 4186SOL    HW224195   0.005   0.591   6.808  1.3171 -0.0228  0.7759
 4187SOL     OW24196   2.865   3.914  16.926  0.0557  0.2730 -0.3665
 4187SOL    HW124197   2.903   3.827  16.915 -0.6110 -0.1702  0.7705
 4187SOL    HW224198   2.858   3.924  17.021  0.4214 -1.2095 -0.1914
 4188SOL     OW24199   0.421   2.157  14.037 -0.7570 -0.5527  0.1927
 4188SOL    HW124200   0.394   2.074  14.076 -0.7517 -0.7604 -0.2500
 4188SOL    HW224201   0.366   2.166  13.960 -0.2631  1.5098  0.0733
 4189SOL     OW24202   2.455   2.330   8.892  0.7686  0.2743  0.1254
 4189SOL    HW124203   2.545   2.353   8.914  0.5738  0.3953  0.8075
 4189SOL    HW224204   2.462   2.236   8.876 -0.6476  0.2852 -0.5909
 4190SOL     OW24205   0.056   0.949  15.193 -0.5617  0.6537 -0.0979
 4190SOL    HW124206   0.142   0.964  15.232 -0.4800 -0.3304  0.1082
 4190SOL    HW224207   0.027   0.873  15.242 -0.8085  0.6305 -0.2808
 4191SOL     OW24208   3.113   4.442   1.832  0.0423 -0.5756  0.2032
 4191SOL    HW124209   3.023   4.448   1.863  0.7303 -1.8583  2.3685
 4191SOL    HW224210   3.138   4.393   1.910 -0.1139  1.7785  1.7439
 4192SOL     OW24211   2.979   2.591   6.247  0.5430  0.2280 -0.0573
 4192SOL    HW124212   3.031   2.565   6.172 -0.7223  5.2765 -2.6599
 4192SOL    HW224213   3.052   2.605   6.307 -1.1590  1.0583  1.8592
 4193SOL     OW24214   1.469   2.491   7.648  0.3965 -0.2991  0.3099
 4193SOL    HW124215   1.418   2.553   7.596  0.5189 -0.0755  0.4542
 4193SOL    HW224216   1.558   2.502   7.615 -0.0135  1.6115 -0.1372
 4194SOL     OW24217   3.969   3.684  10.458  0.7592 -0.3588  0.0651
 4194SOL    HW124218   3.917   3.763  10.444  2.3793  0.2392 -2.6937
 4194SOL    HW224219   3.983   3.684  10.552  2.6988  1.1587 -0.2185
 4195SOL     OW24220   3.823   4.031   7.344  0.0972  0.1252  0.2000
 4195SOL    HW124221   3.901   3.982   7.367  0.2792  1.2289  1.9449
 4195SOL    HW224222   3.856   4.096   7.281 -2.0216  0.8310 -0.2154
 4196SOL     OW24223   0.488   2.661  12.368  0.6973 -0.3802 -0.5871
 4196SOL    HW124224   0.462   2.698  12.453 -0.7479  1.6961 -1.9525
 4196SOL    HW224225   0.486   2.567  12.387 -0.6338 -0.4768 -1.2124
 4197SOL     OW24226   1.207   0.254   4.188 -0.1403 -1.0420  0.0289
 4197SOL    HW124227   1.164   0.181   4.233  1.0509 -1.6692  0.1510
 4197SOL    HW224228   1.291   0.259   4.232 -1.2814  0.7262  2.0085
 4198SOL     OW24229   0.055   4.243   2.630 -0.0382 -0.6346 -0.4342
 4198SOL    HW124230   0.062   4.275   2.720 -0.5174  2.9734 -1.6531
 4198SOL    HW224231   4.703   4.275   2.614  0.5428  1.6223  0.8850
 4199SOL     OW24232   3.811   0.335   3.782  0.1910 -0.2589 -0.1442
 4199SOL    HW124233   3.817   0.430   3.791 -0.9192 -0.1769 -0.3030
 4199SOL    HW224234   3.763   0.322   3.701  0.9154  2.1088 -0.9473
 4200SOL     OW24235   0.024   3.422   5.485  0.4279  0.0182 -0.0338
 4200SOL    HW124236   4.724   3.509   5.470 -2.2980 -1.0655  0.3898
 4200SOL    HW224237   4.680   3.375   5.506 -0.2740  0.2859 -2.1549
 4201SOL     OW24238   3.720   2.445   1.988  0.0695 -0.6251  0.0012
 4201SOL    HW124239   3.697   2.522   1.937  4.0344 -0.1344 -1.0517
 4201SOL    HW224240   3.808   2.468   2.016 -0.3898 -1.1371  1.8876
 4202SOL     OW24241   3.482   2.394  13.042  0.3866  0.1132 -0.2620
 4202SOL    HW124242   3.476   2.440  12.958 -1.5031 -2.2660 -1.3962
 4202SOL    HW224243   3.409   2.333  13.046 -0.0573  0.6967  0.4700
 4203SOL     OW24244   3.315   0.864   7.793 -0.3439  0.0685  1.0585
 4203SOL    HW124245   3.248   0.930   7.813 -1.4577  0.0953 -2.7779
 4203SOL    HW224246   3.386   0.893   7.851 -1.9396 -0.6563  3.3722
 4204SOL     OW24247   2.205   4.048   8.796 -0.5821 -0.2507 -0.0449
 4204SOL    HW124248   2.153   4.110   8.847 -0.8567 -0.5746  0.0711
 4204SOL    HW224249   2.281   4.103   8.778  1.3279 -2.7382  0.5023
 4205SOL     OW24250   1.881   3.553   6.051  0.8550  0.3566  0.1340
 4205SOL    HW124251   1.917   3.619   5.992  1.5640  1.2685  1.5816
 4205SOL    HW224252   1.951   3.488   6.060  2.2380  1.2998 -3.7122
 4206SOL     OW24253   1.968   3.698   9.204 -0.3721 -0.0099 -0.3439
 4206SOL    HW124254   1.981   3.667   9.114  3.3101 -1.9835  0.8873
 4206SOL    HW224255   2.013   3.782   9.195  2.2134 -1.2363  1.2791
 4207SOL     OW24256   4.287   3.834  17.326 -0.0010 -0.1006 -0.6421
 4207SOL    HW124257   4.295   3.922  17.363  0.7713 -1.3810  2.2465
 4207SOL    HW224258   4.198   3.818  17.357  0.2105  0.4627  0.2419
 4208SOL     OW24259   2.046   1.399  12.223  0.2284 -0.2189 -0.0184
 4208SOL    HW124260   1.993   1.461  12.274  0.1627  0.4076 -0.8338
 4208SOL    HW224261   2.033   1.434  12.135  0.7479 -0.3639 -0.1509
 4209SOL     OW24262   3.514   1.998   6.064  0.4825 -0.4106 -0.2633
 4209SOL    HW124263   3.462   2.078   6.061  0.2204 -0.5358  1.0102
 4209SOL    HW224264   3.582   2.022   6.002  1.5445  0.8152  1.3669
 4210SOL     OW24265   4.338   3.625   7.346  0.3049 -0.0389 -0.3786
 4210SOL    HW124266   4.330   3.716   7.316  2.1337 -0.2722 -1.5673
 4210SOL    HW224267   4.422   3.630   7.392  0.3967  0.9535 -0.6544
 4211SOL     OW24268   1.075   3.169   6.284  0.3775  0.2873  0.3207
 4211SOL    HW124269   1.081   3.221   6.204  1.4989 -0.5448 -0.1437
 4211SOL    HW224270   1.096   3.081   6.253 -0.7813  0.4779 -0.9880
 4212SOL     OW24271   2.513   0.462   6.744 -0.0325  0.2263  0.0162
 4212SOL    HW124272   2.505   0.445   6.650  0.4054 -1.1194  0.2187
 4212SOL    HW224273   2.606   0.437   6.744  0.2571  1.3188  0.8715
 4213SOL     OW24274   2.000   3.133   9.670  0.4603 -0.1131  0.4419
 4213SOL    HW124275   2.024   3.225   9.670 -1.2793  0.3619 -2.4222
 4213SOL    HW224276   1.907   3.152   9.685  0.2740  0.8438 -1.9412
 4214SOL     OW24277   1.216   1.772   3.790  0.4427  0.3768  0.0310
 4214SOL    HW124278   1.142   1.730   3.833 -0.8752  1.0276 -1.5906
 4214SOL    HW224279   1.183   1.861   3.776 -0.6954  0.0435  0.5911
 4215SOL     OW24280   3.332   0.464   7.904 -0.1573 -0.3398  0.3697
 4215SOL    HW124281   3.369   0.376   7.911 -1.1834 -0.8210 -0.2747
 4215SOL    HW224282   3.397   0.516   7.856  0.7600 -0.4775  1.4661
 4216SOL     OW24283   0.408   1.951   7.247  0.1105  0.0609  0.4282
 4216SOL    HW124284   0.312   1.948   7.240  0.1266 -0.3036  0.3227
 4216SOL    HW224285   0.425   1.978   7.156 -0.1546 -0.8858  0.0913
 4217SOL     OW24286   2.069   0.875   6.487 -0.1498  0.2813 -0.4799
 4217SOL    HW124287   2.145   0.859   6.543  0.4614  0.6419 -1.2034
 4217SOL    HW224288   2.013   0.814   6.534 -0.3162  1.2154  0.5234
 4218SOL     OW24289   2.460   2.582  10.119  0.4238  0.1660 -0.3458
 4218SOL    HW124290   2.402   2.579  10.043 -2.0741  2.3202  1.4981
 4218SOL    HW224291   2.398   2.582  10.191 -0.4392 -0.6990 -1.0813
 4219SOL     OW24292   0.169   2.267   1.222 -0.1741  0.0483 -0.1594
 4219SOL    HW124293   0.232   2.316   1.170 -1.2654  0.3408 -1.2229
 4219SOL    HW224294   0.221   2.250   1.301 -0.5462 -0.1632  0.0435
 4220SOL     OW24295   4.446   2.452  12.465 -0.4393  0.2858  0.5909
 4220SOL    HW124296   4.511   2.437  12.396 -0.4160  1.7004  0.3063
 4220SOL    HW224297   4.484   2.530  12.505 -0.9004  2.6975 -3.6731
 4221SOL     OW24298   3.817   4.460   4.350  0.3231 -0.1427  0.8067
 4221SOL    HW124299   3.796   4.510   4.271  1.6506  0.3007  0.7358
 4221SOL    HW224300   3.859   4.525   4.407  1.5305  0.3288 -0.6199
 4222SOL     OW24301   0.370   1.920   4.240  0.0700 -0.0141 -0.1692
 4222SOL    HW124302   0.350   2.006   4.278  1.2078  0.6663 -1.1283
 4222SOL    HW224303   0.459   1.907   4.272 -0.6743  1.4421  2.4968
 4223SOL     OW24304   0.690   4.449   7.433 -0.1198 -0.2506 -0.2245
 4223SOL    HW124305   0.606   4.408   7.410  0.1382  0.0994 -1.8149
 4223SOL    HW224306   0.675   4.480   7.522 -1.4531 -0.0994 -0.4886
 4224SOL     OW24307   0.088   1.809  13.493  0.1653  0.5656  0.4274
 4224SOL    HW124308   0.088   1.895  13.451  0.4965 -0.1654 -1.0783
 4224SOL    HW224309   0.085   1.831  13.586  1.1251  2.8567 -0.0707
 4225SOL     OW24310   3.595   1.719   6.146 -0.8149  0.2311  0.1412
 4225SOL    HW124311   3.597   1.634   6.103 -0.2537  0.2910  0.0493
 4225SOL    HW224312   3.590   1.778   6.070 -1.5151 -1.0846 -0.8276
 4226SOL     OW24313   0.492   0.215  15.677 -0.3842  0.1526 -0.2731
 4226SOL    HW124314   0.429   0.285  15.657 -0.1057  0.5832  0.3580
 4226SOL    HW224315   0.443   0.138  15.704  0.0079 -0.2168 -0.6295
 4227SOL     OW24316   4.159   1.741   5.807  0.3052  0.6858  0.1065
 4227SOL    HW124317   4.195   1.686   5.876 -1.8444 -0.4455  0.3438
 4227SOL    HW224318   4.111   1.810   5.854  0.3195  0.3180  0.6573
 4228SOL     OW24319   3.069   3.837  13.137  0.2425  0.2957  0.7533
 4228SOL    HW124320   3.093   3.749  13.164  0.3831  0.8121  2.3038
 4228SOL    HW224321   3.052   3.867  13.226 -1.3882 -0.1847  0.6077
 4229SOL     OW24322   0.443   0.730   2.981  0.0210 -0.5523  0.2318
 4229SOL    HW124323   0.404   0.749   3.066 -1.1531  2.3535 -0.9664
 4229SOL    HW224324   0.374   0.736   2.914 -0.5587  0.7686  0.9642
 4230SOL     OW24325   3.940   0.446   6.224 -0.3081 -0.3748  0.5753
 4230SOL    HW124326   4.013   0.395   6.260  1.7586  1.7030 -0.7013
 4230SOL    HW224327   3.991   0.523   6.201 -0.5611 -0.0297  1.1663
 4231SOL     OW24328   2.995   0.907   4.189  0.5654 -0.1950  0.2439
 4231SOL    HW124329   3.032   0.938   4.106  1.1820  1.2287  1.0556
 4231SOL    HW224330   2.918   0.857   4.161 -0.2067  0.1391  1.8145
 4232SOL     OW24331   2.423   3.285   6.906 -0.1965 -0.2981  0.3918
 4232SOL    HW124332   2.422   3.299   7.001  0.9643 -0.3589  0.4141
 4232SOL    HW224333   2.449   3.372   6.876 -1.3300  0.2242  0.9219
 4233SOL     OW24334   0.260   3.256   3.223  0.1839  0.5695 -0.9848
 4233SOL    HW124335   0.275   3.343   3.187 -0.4244  0.5445 -1.3036
 4233SOL    HW224336   0.333   3.206   3.188 -0.6185 -0.2177 -1.5422
 4234SOL     OW24337   1.039   3.282  14.005 -0.1189 -0.2026 -0.3236
 4234SOL    HW124338   1.070   3.368  14.034 -2.0624  0.5317 -0.4561
 4234SOL    HW224339   0.995   3.254  14.085 -1.5354 -0.0868 -1.0694
 4235SOL     OW24340   2.702   3.756  12.000  0.1299  0.7030  0.1621
 4235SOL    HW124341   2.782   3.711  11.974  1.0106  3.2938 -1.6064
 4235SOL    HW224342   2.654   3.762  11.917 -1.6117  0.7610  1.1687
 4236SOL     OW24343   1.129   3.969   1.681 -0.4089 -0.6741 -0.3719
 4236SOL    HW124344   1.194   3.917   1.634 -0.0260 -1.3560  0.9127
 4236SOL    HW224345   1.128   4.060   1.650 -2.0018 -0.4318  0.3726
 4237SOL     OW24346   2.005   4.177   1.361  0.1706 -0.4461  0.2019
 4237SOL    HW124347   2.016   4.135   1.276  0.7140 -1.6538  0.8762
 4237SOL    HW224348   2.043   4.262   1.337 -0.4271 -0.4903 -0.8971
 4238SOL     OW24349   2.865   2.930  11.811  0.1721  0.5629 -0.0859
 4238SOL    HW124350   2.913   2.944  11.892 -0.1963 -0.0072  0.2330
 4238SOL    HW224351   2.820   3.014  11.801 -1.9402 -0.6306 -0.6998
 4239SOL     OW24352   2.933   4.643   3.260  0.4066 -0.1053 -0.3141
 4239SOL    HW124353   2.914   4.684   3.175 -1.4452  2.0109  1.1447
 4239SOL    HW224354   2.846   4.654   3.298  0.1272 -1.0617 -0.6830
 4240SOL     OW24355   3.182   1.508  12.914  0.3075  0.0494 -0.1873
 4240SOL    HW124356   3.159   1.598  12.892 -3.0039 -0.4832  1.1406
 4240SOL    HW224357   3.242   1.524  12.986 -1.5090 -1.3720  1.6504
 4241SOL     OW24358   1.760   2.149   8.906  0.2524  0.5655  0.1413
 4241SOL    HW124359   1.802   2.090   8.968  0.3789  0.6984  0.1849
 4241SOL    HW224360   1.754   2.221   8.968 -0.7601  2.9667 -2.7022
 4242SOL     OW24361   3.273   0.174   4.272 -0.5381 -0.0740  1.0420
 4242SOL    HW124362   3.260   0.199   4.364 -0.9416  2.3145  0.3330
 4242SOL    HW224363   3.326   0.244   4.233 -1.3906  1.1230  2.0204
 4243SOL     OW24364   0.028   2.564   3.253  0.1077 -0.2378  0.5436
 4243SOL    HW124365   4.695   2.584   3.190  0.0830 -0.7820  0.4012
 4243SOL    HW224366   0.008   2.629   3.320  0.5433 -2.1778  2.5610
 4244SOL     OW24367   0.035   0.673  15.342 -0.2940  0.0464  0.5138
 4244SOL    HW124368   4.715   0.672  15.419  0.8931  0.7274  1.3779
 4244SOL    HW224369   4.721   0.618  15.281  1.5900 -0.9624 -0.1430
 4245SOL     OW24370   2.595   2.364   1.710  0.0880 -0.1684 -0.8443
 4245SOL    HW124371   2.574   2.404   1.795 -0.0235 -2.3077  0.1454
 4245SOL    HW224372   2.667   2.426   1.696 -0.7266  0.8844 -0.4165
 4246SOL     OW24373   4.187   4.565   8.598  0.3369 -0.1694 -0.4335
 4246SOL    HW124374   4.162   4.502   8.530 -1.3290  1.5656 -1.4355
 4246SOL    HW224375   4.250   4.509   8.644  1.0083  1.6080  0.7744
 4247SOL     OW24376   0.249   0.663   6.711  0.1268  0.6213  0.8657
 4247SOL    HW124377   0.341   0.670   6.689 -0.2510  0.3294 -0.8174
 4247SOL    HW224378   0.254   0.655   6.806  2.2304 -0.5110  0.6351
 4248SOL     OW24379   1.466   0.427   9.076 -0.1599  0.5466 -0.2016
 4248SOL    HW124380   1.471   0.502   9.134 -0.3030  0.4000 -0.0032
 4248SOL    HW224381   1.554   0.417   9.038 -0.7805 -0.8247 -1.2861
 4249SOL     OW24382   4.274   1.631   5.547 -0.0367  0.1752  0.3448
 4249SOL    HW124383   4.244   1.540   5.551  1.1800 -0.2453 -0.3639
 4249SOL    HW224384   4.261   1.652   5.640 -1.9608  1.0323 -0.1004
 4250SOL     OW24385   0.373   3.663   1.588 -0.0187 -0.2067  0.0650
 4250SOL    HW124386   0.281   3.637   1.584  0.4757 -1.5800 -2.4768
 4250SOL    HW224387   0.384   3.743   1.639  0.6563 -0.5745  0.4994
 4251SOL     OW24388   4.665   4.279   4.009 -0.0183  0.8851 -0.3949
 4251SOL    HW124389   4.710   4.308   4.089 -2.1061 -0.9353  1.4393
 4251SOL    HW224390   4.582   4.249   4.046  1.4760 -0.5191  1.8296
 4252SOL     OW24391   2.646   1.600   9.567 -0.0545  0.4964  0.0482
 4252SOL    HW124392   2.657   1.669   9.502  1.2806  0.4763  0.2431
 4252SOL    HW224393   2.735   1.569   9.584 -0.5425 -1.2532 -0.5974
 4253SOL     OW24394   4.611   4.649   0.815 -0.6328 -0.1730  0.3074
 4253SOL    HW124395   4.634   0.006   0.821  0.2480 -0.4188  0.7834
 4253SOL    HW224396   4.638   4.628   0.726 -0.5694 -0.1779  0.3272
 4254SOL     OW24397   3.238   0.565  17.395  0.0978  0.3513  0.8661
 4254SOL    HW124398   3.329   0.555  17.367 -0.1494 -1.8073  0.8966
 4254SOL    HW224399   3.214   0.474  17.410  2.8030 -0.0171  2.8596
 4255SOL     OW24400   3.859   1.210   6.138 -0.1478 -0.2372  0.2184
 4255SOL    HW124401   3.839   1.133   6.191 -0.4334  0.7821  1.5877
 4255SOL    HW224402   3.860   1.278   6.206  1.6364 -1.6547  1.6032
 4256SOL     OW24403   3.800   2.785   7.775  0.3947 -0.6900  0.6245
 4256SOL    HW124404   3.841   2.870   7.756  0.6292 -0.8739  0.3078
 4256SOL    HW224405   3.879   2.732   7.768  0.7138 -0.3671  1.7153
 4257SOL     OW24406   2.304   3.559   4.335  0.2883 -0.0522  0.0080
 4257SOL    HW124407   2.338   3.639   4.375 -0.1016 -0.2488  0.7415
 4257SOL    HW224408   2.226   3.558   4.392 -0.1990 -1.2348 -0.6610
 4258SOL     OW24409   1.633   1.385  13.879  0.0666  0.6007  0.4598
 4258SOL    HW124410   1.694   1.433  13.823  0.6710 -3.4886 -2.3487
 4258SOL    HW224411   1.574   1.450  13.916 -0.4558 -1.0101  2.4238
 4259SOL     OW24412   2.542   4.706   8.650  0.0925  0.2410  0.3607
 4259SOL    HW124413   2.483   4.663   8.588 -2.2178  2.2640  1.1653
 4259SOL    HW224414   2.553   0.049   8.598 -3.8840  1.0043  0.6993
 4260SOL     OW24415   3.696   0.588   0.823  0.1403 -0.4685 -0.0932
 4260SOL    HW124416   3.791   0.587   0.809  0.3006 -0.6321  0.9465
 4260SOL    HW224417   3.701   0.534   0.902  0.6046 -0.6639 -0.2590
 4261SOL     OW24418   2.530   4.733  12.469 -0.7298  0.9131 -0.0441
 4261SOL    HW124419   2.580   4.684  12.534  0.8958  2.5147 -0.0816
 4261SOL    HW224420   2.440   4.716  12.495 -1.1025 -1.2927 -2.7145
 4262SOL     OW24421   3.333   0.334  14.949 -0.3256 -0.0954  0.1873
 4262SOL    HW124422   3.406   0.363  14.895 -0.2340  1.2468  1.0233
 4262SOL    HW224423   3.338   0.241  14.928 -0.5939 -0.2306  0.7070
 4263SOL     OW24424   0.628   3.818   5.672  0.4168 -0.3542 -0.2075
 4263SOL    HW124425   0.578   3.815   5.591 -1.6810  1.4033  1.0128
 4263SOL    HW224426   0.564   3.867   5.724  1.2690  1.0123 -0.4680
 4264SOL     OW24427   2.466   0.338   6.502 -0.1212 -0.0676  0.0423
 4264SOL    HW124428   2.477   0.398   6.428 -0.6387 -0.4184 -0.3205
 4264SOL    HW224429   2.472   0.256   6.453  0.4571  0.2457 -0.4086
 4265SOL     OW24430   4.563   3.859  13.362 -0.1108 -0.1621 -1.0710
 4265SOL    HW124431   4.636   3.817  13.408 -0.4465  0.2224 -0.1796
 4265SOL    HW224432   4.491   3.807  13.397  1.2506 -0.7145  0.8997
 4266SOL     OW24433   3.319   1.631   9.410 -0.4264  0.5237 -0.5383
 4266SOL    HW124434   3.258   1.706   9.413 -2.0297 -0.8170  0.5595
 4266SOL    HW224435   3.280   1.578   9.480 -0.0826  1.1454  0.1268
 4267SOL     OW24436   1.612   2.947   4.844 -0.1979  0.3467 -0.1651
 4267SOL    HW124437   1.706   2.932   4.852 -0.4254 -0.7212  0.5267
 4267SOL    HW224438   1.594   2.973   4.934 -1.7096  2.7320 -1.1797
 4268SOL     OW24439   1.334   3.189   9.781  1.0783 -0.6794 -0.2865
 4268SOL    HW124440   1.294   3.178   9.695  0.0483 -0.5634  0.1840
 4268SOL    HW224441   1.257   3.195   9.837  0.6863  1.4794 -1.0856
 4269SOL     OW24442   2.404   3.802   2.971 -0.5395  0.3917 -0.1945
 4269SOL    HW124443   2.397   3.789   2.876 -1.9394  0.9681 -0.1670
 4269SOL    HW224444   2.355   3.723   2.991 -1.2701  1.0096  0.4777
 4270SOL     OW24445   3.147   1.816   4.336  0.2460  0.2980  0.0395
 4270SOL    HW124446   3.228   1.828   4.287  0.5108  2.6838  1.0452
 4270SOL    HW224447   3.185   1.842   4.420 -0.6568  0.0907  0.5100
 4271SOL     OW24448   1.172   3.464  14.115 -0.0409  0.5916 -0.0613
 4271SOL    HW124449   1.122   3.496  14.190 -0.0367 -2.1770  1.1136
 4271SOL    HW224450   1.250   3.519  14.113 -1.1879  2.1772 -0.5339
 4272SOL     OW24451   0.261   3.742   4.822  0.2648 -0.2824  0.1368
 4272SOL    HW124452   0.291   3.653   4.808  0.3551 -0.3519  0.7757
 4272SOL    HW224453   0.318   3.747   4.899 -0.4162  1.4143  0.5465
 4273SOL     OW24454   2.759   0.101   6.270  0.4456  0.2260  0.0877
 4273SOL    HW124455   2.774   0.081   6.363  0.3679  1.5071  0.3825
 4273SOL    HW224456   2.688   0.164   6.283  0.2491  0.3615 -1.6713
 4274SOL     OW24457   3.914   2.133   6.554 -0.2136 -0.1169  0.5138
 4274SOL    HW124458   3.911   2.052   6.504 -0.7137 -0.6029  1.3229
 4274SOL    HW224459   3.894   2.095   6.640 -1.9189 -1.5765 -0.5495
 4275SOL     OW24460   1.217   2.703   1.441  0.2717  0.2936  0.0865
 4275SOL    HW124461   1.311   2.697   1.427  0.4163  2.3892  0.2091
 4275SOL    HW224462   1.185   2.713   1.352 -0.0353  0.2291  0.1869
 4276SOL     OW24463   2.276   4.716   6.880 -0.0244 -0.2034  0.2589
 4276SOL    HW124464   2.255   0.034   6.955 -1.7426 -0.0219 -0.3501
 4276SOL    HW224465   2.370   4.727   6.875 -0.1878  0.6448 -0.8993
 4277SOL     OW24466   3.544   1.079   2.251  0.1027  0.4318  0.5365
 4277SOL    HW124467   3.454   1.059   2.276 -0.7766  2.5244 -0.9859
 4277SOL    HW224468   3.582   0.992   2.239 -2.0383 -0.2572 -1.1826
 4278SOL     OW24469   2.064   1.340   1.436 -0.1920 -0.3448  0.5777
 4278SOL    HW124470   2.123   1.407   1.400 -0.0175 -1.9435 -2.0477
 4278SOL    HW224471   2.054   1.274   1.368 -0.8404 -0.8272  1.1457
 4279SOL     OW24472   4.118   2.626   1.016  0.6533  0.2349 -0.5539
 4279SOL    HW124473   4.194   2.569   1.010  0.7322  0.4367 -1.4241
 4279SOL    HW224474   4.134   2.677   0.937  0.0600 -0.5220 -1.1615
 4280SOL     OW24475   0.353   4.723  15.736 -0.1767 -0.0707 -0.2360
 4280SOL    HW124476   0.275   4.719  15.681  0.5734 -1.2982 -1.1971
 4280SOL    HW224477   0.334   4.644  15.787 -0.6703 -0.4709 -1.0385
 4281SOL     OW24478   0.378   3.281  17.527 -0.5571 -0.4013  0.2733
 4281SOL    HW124479   0.303   3.281  17.587 -1.4644  0.8831 -0.8603
 4281SOL    HW224480   0.346   3.227  17.454  0.4570  0.9057 -1.1434
 4282SOL     OW24481   0.990   3.230   1.368  0.1694  0.1351 -0.2752
 4282SOL    HW124482   0.949   3.312   1.394  1.0152  0.5451 -0.2217
 4282SOL    HW224483   0.961   3.173   1.439 -1.4325 -1.2020 -2.0225
 4283SOL     OW24484   4.085   0.869   0.019  0.3203 -0.3136 -0.3350
 4283SOL    HW124485   4.160   0.862  17.705  1.4608 -0.9263  1.1912
 4283SOL    HW224486   4.084   0.789   0.071 -0.0404 -1.0574 -1.4914
 4284SOL     OW24487   0.181   1.493  14.106  0.0599 -1.0115 -0.1368
 4284SOL    HW124488   0.212   1.405  14.083 -0.6851 -1.4237  0.4375
 4284SOL    HW224489   0.255   1.534  14.151 -0.7537  1.9610 -1.4978
 4285SOL     OW24490   3.446   0.217   5.852 -0.3453 -0.0017  0.3923
 4285SOL    HW124491   3.474   0.283   5.916 -0.4452  0.4912 -0.0670
 4285SOL    HW224492   3.398   0.279   5.796  1.0445 -1.4067 -2.3756
 4286SOL     OW24493   3.051   3.546  16.459  0.3231  0.4125  0.5184
 4286SOL    HW124494   3.090   3.534  16.545 -0.1712  1.0145  0.8222
 4286SOL    HW224495   2.963   3.581  16.473 -0.4292 -0.9365 -0.7743
 4287SOL     OW24496   0.659   0.213   8.150  0.0112  0.3710 -0.2136
 4287SOL    HW124497   0.674   0.158   8.227  0.5245  1.0969  0.2021
 4287SOL    HW224498   0.731   0.172   8.103  1.5259  1.3036  1.3217
 4288SOL     OW24499   0.505   0.542   4.855  0.1362 -0.4949  0.1128
 4288SOL    HW124500   0.503   0.601   4.780 -2.7877 -0.9817 -0.1651
 4288SOL    HW224501   0.422   0.549   4.901 -0.0389  1.1938 -0.4956
 4289SOL     OW24502   4.512   4.320  13.713  0.3495 -0.0042  0.0660
 4289SOL    HW124503   4.602   4.351  13.717  1.0391 -2.0414  0.0587
 4289SOL    HW224504   4.492   4.296  13.803  0.7332 -1.5561 -0.2617
 4290SOL     OW24505   0.196   3.650  16.155  0.1567  0.0994 -0.2675
 4290SOL    HW124506   0.270   3.594  16.131  1.9491  1.1578  2.9089
 4290SOL    HW224507   0.151   3.670  16.072 -0.2250  0.0013 -0.0837
 4291SOL     OW24508   0.082   2.609  10.711  0.1966 -0.0512 -0.0424
 4291SOL    HW124509   0.171   2.621  10.679  0.1570  0.1624 -0.0763
 4291SOL    HW224510   0.101   2.555  10.787  0.6498  0.1828  0.0090
 4292SOL     OW24511   3.794   2.132   8.452  0.3697 -0.4823  0.4464
 4292SOL    HW124512   3.849   2.144   8.375  3.6842 -0.4074  2.8392
 4292SOL    HW224513   3.801   2.224   8.480 -2.2161  0.5657 -2.2997
 4293SOL     OW24514   0.674   3.505   7.262 -0.1268 -0.0617  0.0051
 4293SOL    HW124515   0.736   3.463   7.323 -1.4593 -3.8356 -1.2640
 4293SOL    HW224516   0.652   3.429   7.208  1.0889 -0.3204 -0.1449
 4294SOL     OW24517   3.907   3.419  11.672  0.2025 -0.7537  0.0156
 4294SOL    HW124518   3.940   3.501  11.635 -0.8462 -1.3754 -2.3147
 4294SOL    HW224519   3.984   3.387  11.719  0.3331  0.4712  0.6308
 4295SOL     OW24520   0.530   2.721  11.685 -0.0260  0.4309 -0.5346
 4295SOL    HW124521   0.581   2.659  11.633  0.1568  0.1918 -0.0667
 4295SOL    HW224522   0.593   2.773  11.736  1.5230 -1.2994 -0.7121
 4296SOL     OW24523   4.120   3.819   5.938  0.0603 -0.0429 -0.6912
 4296SOL    HW124524   4.106   3.737   5.890  0.9825 -0.4962 -0.1786
 4296SOL    HW224525   4.171   3.869   5.874  0.6988  3.0663  2.2812
 4297SOL     OW24526   1.767   0.989   5.619  0.2520  0.1528  0.0886
 4297SOL    HW124527   1.697   1.031   5.570 -0.4287 -1.6036 -0.4462
 4297SOL    HW224528   1.716   0.913   5.647  0.9683  0.0047  1.0089
 4298SOL     OW24529   4.061   2.716   7.738 -0.3382  0.6630 -0.5983
 4298SOL    HW124530   4.058   2.674   7.824  0.2801  0.3915 -0.7076
 4298SOL    HW224531   4.137   2.773   7.751  0.2569 -0.8572  2.6369
 4299SOL     OW24532   1.754   1.905   1.389  0.7985  0.6616 -0.4110
 4299SOL    HW124533   1.690   1.967   1.424  0.2753  0.2693 -0.6795
 4299SOL    HW224534   1.798   1.881   1.471 -1.1321 -2.6978 -0.3410
 4300SOL     OW24535   4.060   2.402   5.978  0.4071 -0.0583  0.0420
 4300SOL    HW124536   4.048   2.472   6.042  0.7231 -0.2333  0.2961
 4300SOL    HW224537   3.976   2.361   5.998 -0.1545  0.7674 -0.6111
 4301SOL     OW24538   3.721   1.713  16.025  0.0861 -0.4132  0.3829
 4301SOL    HW124539   3.703   1.721  16.118  0.5281  0.4798  0.3911
 4301SOL    HW224540   3.760   1.798  16.004 -0.6464  0.1888  1.4822
 4302SOL     OW24541   0.765   0.908   2.926 -0.0666 -0.5780 -0.2239
 4302SOL    HW124542   0.711   0.984   2.946  0.4617 -0.4130  0.5996
 4302SOL    HW224543   0.854   0.944   2.936 -0.7638  0.9126  0.5457
 4303SOL     OW24544   0.431   1.033   2.202  0.5060  0.2711 -0.6441
 4303SOL    HW124545   0.405   1.119   2.234  0.4581 -0.0955  0.3321
 4303SOL    HW224546   0.483   1.063   2.127  1.9608 -2.2102 -0.6434
 4304SOL     OW24547   0.354   4.023   2.514 -0.0530 -0.8602  0.4455
 4304SOL    HW124548   0.352   4.074   2.595 -0.2304 -0.4834  0.2048
 4304SOL    HW224549   0.349   3.933   2.547 -0.9673 -0.0149  2.6509
 4305SOL     OW24550   0.376   2.162   3.586 -0.0028  0.8871  0.0668
 4305SOL    HW124551   0.386   2.130   3.497 -1.1946 -2.1899  1.0588
 4305SOL    HW224552   0.453   2.121   3.626 -0.0451  1.4658  0.7585
 4306SOL     OW24553   1.542   3.274   1.968  0.4802 -0.2140  0.1905
 4306SOL    HW124554   1.525   3.367   1.956  0.4163 -0.2849 -0.3031
 4306SOL    HW224555   1.525   3.242   1.879 -1.9252  0.2695  0.4716
 4307SOL     OW24556   4.181   0.605   5.092  0.2294 -0.0830 -0.1918
 4307SOL    HW124557   4.254   0.653   5.053 -0.0839  0.3933 -0.1845
 4307SOL    HW224558   4.210   0.629   5.179 -2.1560  1.3938  0.2010
 4308SOL     OW24559   3.040   4.067  15.209 -0.6049 -0.4296 -0.4930
 4308SOL    HW124560   3.072   4.085  15.121 -1.2801 -0.0695 -0.6711
 4308SOL    HW224561   3.089   3.985  15.221 -0.0053 -0.0454 -0.3270
 4309SOL     OW24562   3.812   2.542  12.252  0.5405  0.4976  0.7971
 4309SOL    HW124563   3.798   2.566  12.344 -0.6310  1.6407  0.3142
 4309SOL    HW224564   3.741   2.584  12.203  1.5047 -0.9389 -1.8539
 4310SOL     OW24565   0.580   1.098   1.969  0.5398  0.0989 -0.1176
 4310SOL    HW124566   0.511   1.095   1.903 -0.5161  0.5087  0.9698
 4310SOL    HW224567   0.610   1.188   1.982  0.0144  0.3759 -0.8426
 4311SOL     OW24568   0.594   0.943   2.377  0.2847  0.2286  0.0428
 4311SOL    HW124569   0.559   1.005   2.313 -1.9671  0.0075  1.0851
 4311SOL    HW224570   0.543   0.979   2.450 -1.5463 -1.9290 -0.1799
 4312SOL     OW24571   0.959   4.499   7.419  0.1016  0.0376  0.4680
 4312SOL    HW124572   0.983   4.492   7.326 -2.1650  3.0907 -0.3427
 4312SOL    HW224573   0.871   4.464   7.410  0.5296 -1.2362  1.1013
 4313SOL     OW24574   2.518   2.326   7.795  0.2082  0.1964 -0.6077
 4313SOL    HW124575   2.521   2.236   7.763  0.5696 -0.4970  1.4372
 4313SOL    HW224576   2.442   2.366   7.753 -0.2022  0.3416  0.2935
 4314SOL     OW24577   3.112   3.594   1.895  0.1237  0.1852  0.0141
 4314SOL    HW124578   3.083   3.566   1.982  2.5723 -3.5247 -0.3603
 4314SOL    HW224579   3.199   3.554   1.889  0.5647  1.1562 -0.0982
 4315SOL     OW24580   2.675   3.489   1.785 -0.1287  0.0612 -0.0524
 4315SOL    HW124581   2.629   3.524   1.861  0.2923  2.0166 -0.6985
 4315SOL    HW224582   2.713   3.408   1.819 -1.8482 -0.1168  1.4254
 4316SOL     OW24583   1.876   4.569   9.410 -0.3468  0.1011 -0.0278
 4316SOL    HW124584   1.785   4.597   9.412 -0.8062 -1.3507 -0.7557
 4316SOL    HW224585   1.871   4.474   9.410  0.8554  0.0597  2.8889
 4317SOL     OW24586   4.103   3.810  14.998 -0.1271 -0.2327 -0.2152
 4317SOL    HW124587   4.144   3.835  14.915  1.1815  0.0483  0.5111
 4317SOL    HW224588   4.025   3.779  14.952 -1.5082  2.1290  0.5288
 4318SOL     OW24589   4.715   4.365   7.742  0.6448 -0.2673  0.2745
 4318SOL    HW124590   4.707   4.393   7.651  3.2687 -2.8351 -0.7695
 4318SOL    HW224591   0.048   4.422   7.775 -0.6845  0.1853  2.3442
 4319SOL     OW24592   3.946   0.634   1.452 -0.6991 -0.1195 -0.3754
 4319SOL    HW124593   3.857   0.631   1.488 -1.0239 -0.6077 -1.2213
 4319SOL    HW224594   3.971   0.713   1.500  1.5137 -1.4510  0.6302
 4320SOL     OW24595   2.623   1.749   4.378 -0.3596  0.6125 -0.4597
 4320SOL    HW124596   2.688   1.809   4.342  0.2212  1.5096  2.1250
 4320SOL    HW224597   2.546   1.768   4.323 -1.0875  0.8321  0.6347
 4321SOL     OW24598   0.123   1.109   7.701 -0.4420  0.1200  0.4427
 4321SOL    HW124599   0.034   1.118   7.668 -0.6460 -1.0891  0.6581
 4321SOL    HW224600   0.179   1.155   7.639 -1.2366 -1.2640 -1.3215
 4322SOL     OW24601   1.168   1.874   7.104  0.0051 -0.6591  0.2678
 4322SOL    HW124602   1.134   1.799   7.055  0.0529 -0.4928 -0.0189
 4322SOL    HW224603   1.249   1.900   7.060 -0.3515 -1.7394 -1.0140
 4323SOL     OW24604   3.417   0.295  17.509  0.4299  0.1746 -0.4628
 4323SOL    HW124605   3.372   0.211  17.511 -1.7680  1.2944 -2.6797
 4323SOL    HW224606   3.439   0.310  17.417  1.3479  0.1659 -0.2395
 4324SOL     OW24607   1.809   2.656   1.283  0.1535 -0.0543  0.0756
 4324SOL    HW124608   1.727   2.662   1.234 -0.7023  0.8841  1.6281
 4324SOL    HW224609   1.843   2.745   1.279  1.1493 -0.3849  1.4266
 4325SOL     OW24610   0.715   0.089   4.882  0.0992 -0.7659 -0.3499
 4325SOL    HW124611   0.749   0.108   4.795  0.6522 -0.0854  0.0164
 4325SOL    HW224612   0.802   0.082   4.923 -0.8862 -0.3315  1.8211
 4326SOL     OW24613   4.483   3.741   9.065  0.3271 -0.0472  0.2302
 4326SOL    HW124614   4.450   3.654   9.090  0.8481 -0.0548  0.8911
 4326SOL    HW224615   4.570   3.734   9.105  1.6239  1.0926 -2.3960
 4327SOL     OW24616   2.137   4.721  13.175 -0.4891 -0.0942 -0.2113
 4327SOL    HW124617   2.044   4.724  13.150 -0.8954 -0.6850  1.2177
 4327SOL    HW224618   2.133   4.718  13.271 -3.0863  0.3570 -0.2844
 4328SOL     OW24619   3.235   0.552   5.306 -0.5718 -0.0342  0.3905
 4328SOL    HW124620   3.260   0.631   5.353  4.1009 -1.8847  0.9573
 4328SOL    HW224621   3.321   0.537   5.268 -0.8473  0.8129 -0.5609
 4329SOL     OW24622   4.182   3.965  16.561 -0.4208  0.3588  0.6818
 4329SOL    HW124623   4.140   3.900  16.505 -0.2217  1.3510 -0.6139
 4329SOL    HW224624   4.222   4.014  16.489 -1.0483 -2.0585 -1.3382
 4330SOL     OW24625   2.396   4.476  13.495 -0.1701  0.3205 -0.3974
 4330SOL    HW124626   2.439   4.550  13.452  1.0470  0.6010  1.3397
 4330SOL    HW224627   2.317   4.469  13.441 -0.5164 -0.1498  0.1747
 4331SOL     OW24628   2.279   3.906  12.954  0.1599  0.1721  0.2792
 4331SOL    HW124629   2.360   3.914  12.903  1.5469 -1.7480  2.2019
 4331SOL    HW224630   2.239   3.829  12.913  1.0644 -0.3954  0.4718
 4332SOL     OW24631   2.243   0.082  14.078 -0.6176 -0.2219  0.1610
 4332SOL    HW124632   2.160   0.128  14.093 -0.5360  0.3231 -1.0007
 4332SOL    HW224633   2.215   4.736  14.040  0.0277  0.0883 -1.0056
 4333SOL     OW24634   2.156   0.237   5.281 -0.1531 -0.5164 -0.0774
 4333SOL    HW124635   2.234   0.182   5.284 -0.0813 -0.4542 -0.7023
 4333SOL    HW224636   2.152   0.265   5.372 -0.0070  0.0068 -0.2336
 4334SOL     OW24637   3.811   3.190   8.963 -0.2787 -0.0551 -0.0363
 4334SOL    HW124638   3.771   3.252   8.901 -0.4002  0.0188  0.1143
 4334SOL    HW224639   3.818   3.244   9.042  0.1326  1.1202 -0.8692
 4335SOL     OW24640   1.003   3.987  16.675 -0.6177  0.4686 -0.3439
 4335SOL    HW124641   0.943   4.017  16.606 -1.3322 -1.3005 -0.4890
 4335SOL    HW224642   0.957   3.985  16.758  0.3644  1.5169  0.2244
 4336SOL     OW24643   3.626   3.962   9.400 -0.1500  0.5547 -0.5048
 4336SOL    HW124644   3.629   3.871   9.372 -1.4303 -0.2632  1.9931
 4336SOL    HW224645   3.624   3.966   9.496 -0.1339 -1.4052 -0.4340
 4337SOL     OW24646   3.160   4.381   5.498 -0.1772  0.5774 -0.3881
 4337SOL    HW124647   3.094   4.423   5.553  1.5006 -0.7509  2.6210
 4337SOL    HW224648   3.097   4.323   5.454  1.2754 -0.2567 -1.3861
 4338SOL     OW24649   0.332   4.253   5.963 -0.1558  0.5832 -0.8526
 4338SOL    HW124650   0.278   4.193   6.013 -1.0705  1.1373 -1.1744
 4338SOL    HW224651   0.259   4.288   5.912 -0.7135  1.9960  0.9149
 4339SOL     OW24652   2.094   3.912   7.831  0.7374  0.5825  0.4432
 4339SOL    HW124653   2.013   3.945   7.870 -0.0647  0.1902 -0.8863
 4339SOL    HW224654   2.067   3.827   7.795  0.2527  0.1137  1.9447
 4340SOL     OW24655   0.173   3.167   4.299 -0.1564  0.7431 -0.1329
 4340SOL    HW124656   0.171   3.260   4.322  0.0541  0.8028 -0.3499
 4340SOL    HW224657   0.232   3.173   4.223 -2.6071  2.5555 -1.9006
 4341SOL     OW24658   3.508   1.995  13.657  0.2542  0.7454  0.0551
 4341SOL    HW124659   3.535   2.057  13.589  1.6183  0.2025  0.1098
 4341SOL    HW224660   3.548   1.910  13.638 -0.5045  0.5994 -0.8703
 4342SOL     OW24661   4.704   2.148   8.678  0.1315  0.4396 -0.3094
 4342SOL    HW124662   0.037   2.163   8.743  0.0871 -0.8842  0.0367
 4342SOL    HW224663   0.023   2.127   8.603 -0.5715 -0.3883 -0.5878
 4343SOL     OW24664   2.600   1.201   7.906  0.4698  0.7646  0.2321
 4343SOL    HW124665   2.612   1.233   7.817 -0.2397  0.2282 -0.0561
 4343SOL    HW224666   2.505   1.188   7.913  0.7823 -1.2732  0.7024
 4344SOL     OW24667   4.453   3.842   8.709  0.2804  0.3266  0.0144
 4344SOL    HW124668   4.418   3.883   8.788  1.2424 -1.1395  1.1901
 4344SOL    HW224669   4.538   3.812   8.742  0.7686 -1.1408 -2.6038
 4345SOL     OW24670   1.980   0.283  10.963 -0.4131 -0.3436  0.3179
 4345SOL    HW124671   2.027   0.364  10.946 -0.6325 -0.0546  1.0944
 4345SOL    HW224672   1.962   0.295  11.056  0.6397 -2.9821  0.8527
 4346SOL     OW24673   0.751   4.734   8.316  0.1329  0.3803  0.0190
 4346SOL    HW124674   0.773   4.701   8.403 -2.3829  1.5960  1.1203
 4346SOL    HW224675   0.764   4.656   8.261 -1.1362  0.4375 -0.3514
 4347SOL     OW24676   2.084   4.528   3.139 -0.5945 -0.7072  0.2841
 4347SOL    HW124677   2.087   4.553   3.231  0.5618 -0.4036  0.1693
 4347SOL    HW224678   2.128   4.443   3.142 -0.4677 -0.6626 -0.2924
 4348SOL     OW24679   4.238   1.191  15.407 -0.3565 -0.4573  0.0058
 4348SOL    HW124680   4.242   1.145  15.491  0.9507 -0.2169  0.0768
 4348SOL    HW224681   4.299   1.147  15.348 -0.4856  0.2726 -0.6718
 4349SOL     OW24682   3.730   0.692   1.627 -0.1088 -0.4336 -0.5686
 4349SOL    HW124683   3.761   0.752   1.694  1.2964 -2.6720  0.7656
 4349SOL    HW224684   3.688   0.753   1.566 -0.9158  1.4932  1.9417
 4350SOL     OW24685   1.002   3.177   0.850 -0.3704 -0.1490 -0.0904
 4350SOL    HW124686   1.089   3.144   0.827 -0.1032  0.2474  0.3470
 4350SOL    HW224687   1.001   3.159   0.943 -0.1877  3.4951  0.6242
 4351SOL     OW24688   0.407   3.986  14.144 -0.1031  0.0284  0.0915
 4351SOL    HW124689   0.336   3.926  14.166 -2.0998  2.5234  0.4312
 4351SOL    HW224690   0.418   3.970  14.050  1.4523  0.5711  0.1819
 4352SOL     OW24691   0.112   2.644   2.709  0.2010  0.1439 -0.0086
 4352SOL    HW124692   0.138   2.728   2.747 -2.3879  0.6005  0.7677
 4352SOL    HW224693   0.089   2.671   2.620 -2.0644 -0.5961  0.3295
 4353SOL     OW24694   3.167   0.072   5.299  0.2896  0.1172 -0.2036
 4353SOL    HW124695   3.100   0.139   5.287  1.3096  1.3084  0.7306
 4353SOL    HW224696   3.169   0.052   5.393  2.1551  0.5721 -0.1324
 4354SOL     OW24697   2.235   0.829   5.714  0.4009  0.1778 -0.0287
 4354SOL    HW124698   2.160   0.850   5.659  0.0107  0.6095  0.6851
 4354SOL    HW224699   2.207   0.846   5.803  0.3626  0.8463 -0.1692
 4355SOL     OW24700   2.279   3.533   9.084 -0.2591  0.0212  0.5982
 4355SOL    HW124701   2.206   3.593   9.100 -0.9714 -0.7459  0.2108
 4355SOL    HW224702   2.334   3.541   9.162 -0.7013 -1.6685  1.0867
 4356SOL     OW24703   0.133   1.951   7.234 -0.0091 -0.2005 -0.1830
 4356SOL    HW124704   0.096   1.891   7.168  0.0036  2.6073 -2.7672
 4356SOL    HW224705   0.075   2.027   7.231  0.0109 -0.0787  2.5756
 4357SOL     OW24706   1.814   0.500   7.492 -0.4344 -0.2596 -0.2592
 4357SOL    HW124707   1.783   0.572   7.436 -0.9911 -0.3179 -0.0256
 4357SOL    HW224708   1.734   0.480   7.540  0.3655 -1.1568  0.6821
 4358SOL     OW24709   4.153   2.077   8.986 -0.1756 -0.1755  0.1910
 4358SOL    HW124710   4.125   1.997   8.942 -1.4600  0.8251 -0.7873
 4358SOL    HW224711   4.192   2.050   9.070 -1.4151  0.4953  0.9881
 4359SOL     OW24712   4.309   3.214   6.900  0.4870  0.5340  0.0963
 4359SOL    HW124713   4.231   3.175   6.940 -0.3464  4.0891  1.9630
 4359SOL    HW224714   4.272   3.291   6.857 -0.0834  1.2520  1.8916
 4360SOL     OW24715   2.594   4.188   0.035 -0.0206  0.3306 -0.0565
 4360SOL    HW124716   2.584   4.282   0.024 -1.2062  0.3222  0.9667
 4360SOL    HW224717   2.515   4.153  17.738 -0.0375 -0.4639  0.6379
 4361SOL     OW24718   2.807   3.419   9.078 -0.5687  0.8890 -0.1876
 4361SOL    HW124719   2.897   3.435   9.049 -0.5216 -0.4431 -0.7532
 4361SOL    HW224720   2.759   3.423   8.995 -0.9198  3.6448  0.1292
 4362SOL     OW24721   3.755   2.922  11.117 -0.5201 -0.1834  0.3946
 4362SOL    HW124722   3.664   2.895  11.134 -0.7938 -0.2091 -1.0354
 4362SOL    HW224723   3.805   2.849  11.154 -0.7296  0.0966  1.2211
 4363SOL     OW24724   0.359   2.698   2.871 -0.0937 -0.0384  0.0954
 4363SOL    HW124725   0.305   2.777   2.880  1.7427  0.9174  2.6778
 4363SOL    HW224726   0.322   2.664   2.789 -0.6936  0.7009  0.0543
 4364SOL     OW24727   0.633   3.651   7.847 -0.0431  0.4331  0.4949
 4364SOL    HW124728   0.663   3.560   7.844  1.7434  0.9811  1.7200
 4364SOL    HW224729   0.711   3.693   7.881 -0.2310  0.1474  1.2935
 4365SOL     OW24730   1.460   2.853   1.910  0.2175  0.2663  0.5107
 4365SOL    HW124731   1.416   2.770   1.930 -0.6357  0.4625 -0.5367
 4365SOL    HW224732   1.396   2.916   1.943  0.5910  0.8259  0.1680
 4366SOL     OW24733   0.191   3.067   1.595 -1.1101  0.5061  0.0369
 4366SOL    HW124734   0.248   3.003   1.639 -2.6769 -1.0013 -0.1112
 4366SOL    HW224735   0.246   3.098   1.523  0.3125 -1.1447  0.4180
 4367SOL     OW24736   0.810   0.671   2.539  0.8229 -0.1321  0.5577
 4367SOL    HW124737   0.748   0.600   2.523  2.0872 -1.2377  0.5595
 4367SOL    HW224738   0.826   0.708   2.453  2.0149 -1.4726  0.1998
 4368SOL     OW24739   1.622   4.668   7.320 -0.0433  0.0181  0.0278
 4368SOL    HW124740   1.544   4.706   7.360  0.2940  0.8852 -0.1367
 4368SOL    HW224741   1.693   4.697   7.378 -0.0381  0.9155 -0.4465
 4369SOL     OW24742   3.933   2.551   3.249  0.1886  0.1883 -0.1267
 4369SOL    HW124743   3.922   2.463   3.212 -2.5255  1.1623 -1.6748
 4369SOL    HW224744   4.017   2.574   3.209 -0.1818 -0.9091 -1.5402
 4370SOL     OW24745   1.549   3.203   7.651  0.0823 -0.5030  0.0409
 4370SOL    HW124746   1.474   3.215   7.709 -0.0077  1.0306 -0.4119
 4370SOL    HW224747   1.491   3.164   7.586  1.2204  1.9876 -2.4856
 4371SOL     OW24748   1.419   1.580   7.842 -0.3585  0.6151  0.2539
 4371SOL    HW124749   1.468   1.556   7.921  1.3638  0.3741 -0.8860
 4371SOL    HW224750   1.388   1.666   7.871 -0.1162  1.2857 -1.4660
 4372SOL     OW24751   3.170   3.384   7.881  0.1988  0.4763  0.4164
 4372SOL    HW124752   3.093   3.393   7.824 -0.4639  1.5313  1.4772
 4372SOL    HW224753   3.134   3.337   7.957 -0.3466  1.5593  0.8327
 4373SOL     OW24754   3.096   0.714   1.844  0.1735 -0.2083  0.0316
 4373SOL    HW124755   3.129   0.691   1.757 -1.3340 -0.1252 -0.5548
 4373SOL    HW224756   3.146   0.794   1.862  0.9361 -0.5655 -0.5220
 4374SOL     OW24757   3.270   2.175  15.598 -1.0376 -0.0703 -0.3465
 4374SOL    HW124758   3.347   2.223  15.631 -2.8440  2.4497  0.1655
 4374SOL    HW224759   3.199   2.238  15.594 -0.3548  0.7660  0.6556
 4375SOL     OW24760   2.715   3.549   2.206 -0.1157  0.5960 -0.1887
 4375SOL    HW124761   2.667   3.514   2.131  0.6088  0.4509 -0.5839
 4375SOL    HW224762   2.645   3.597   2.250 -0.6002 -1.1352  0.9232
 4376SOL     OW24763   3.243   0.620   2.193 -0.1501  0.3484 -0.9907
 4376SOL    HW124764   3.330   0.617   2.231 -0.6949  0.4362  0.2547
 4376SOL    HW224765   3.225   0.711   2.218 -4.2626 -0.8191  0.2634
 4377SOL     OW24766   2.094   3.371   2.327  0.3930 -0.3002 -0.2024
 4377SOL    HW124767   2.119   3.454   2.285  0.1177 -0.5518 -0.8724
 4377SOL    HW224768   1.999   3.365   2.314  0.2708  0.9792  0.1169
 4378SOL     OW24769   2.535   4.585   7.591 -0.4626  0.3582  0.4639
 4378SOL    HW124770   2.468   4.598   7.659  0.1466  2.0392  0.7534
 4378SOL    HW224771   2.556   4.494   7.610 -2.5789 -0.1681  0.2884
 4379SOL     OW24772   2.782   2.707   8.589  0.0670  0.2116 -0.3052
 4379SOL    HW124773   2.819   2.624   8.620  2.5437  1.9549  1.3095
 4379SOL    HW224774   2.793   2.756   8.670  1.0455  0.5685 -0.6627
 4380SOL     OW24775   2.215   1.350   1.714 -0.1638  0.3595 -0.0463
 4380SOL    HW124776   2.296   1.397   1.731  0.8721 -1.1094 -0.9717
 4380SOL    HW224777   2.235   1.284   1.648 -0.0095  0.7882 -0.4338
 4381SOL     OW24778   0.894   0.703   5.767 -0.1190 -0.3863 -0.3411
 4381SOL    HW124779   0.983   0.690   5.735 -1.2902 -1.0558 -3.4092
 4381SOL    HW224780   0.891   0.799   5.762  0.2284 -0.3348  0.5902
 4382SOL     OW24781   1.153   3.710   2.436 -0.2610 -0.4276  1.1493
 4382SOL    HW124782   1.066   3.690   2.468 -1.0557  1.4877  0.1936
 4382SOL    HW224783   1.164   3.646   2.366  0.3033  0.6316  0.2564
 4383SOL     OW24784   1.105   1.010   9.477  0.0739  0.3730 -0.9741
 4383SOL    HW124785   1.184   0.964   9.451 -0.0150  0.2625 -1.0485
 4383SOL    HW224786   1.041   0.970   9.419 -0.6045  2.1569 -1.4615
 4384SOL     OW24787   3.424   4.429   8.866  0.8148 -0.4764  0.0284
 4384SOL    HW124788   3.410   4.499   8.802  0.4462 -0.7184 -0.1519
 4384SOL    HW224789   3.336   4.421   8.903  1.5126  3.3025  2.4773
 4385SOL     OW24790   3.126   1.508   3.333  0.1383  0.2519  0.1906
 4385SOL    HW124791   3.098   1.499   3.424 -0.0302 -2.3291 -0.1065
 4385SOL    HW224792   3.065   1.449   3.289  1.7510 -0.5144 -1.0086
 4386SOL     OW24793   4.649   0.918  10.004  0.7846  0.0754 -0.1745
 4386SOL    HW124794   4.577   0.872  10.047  1.9918 -0.4929  1.2324
 4386SOL    HW224795   4.717   0.918  10.072  0.1631  2.0157  0.4660
 4387SOL     OW24796   0.486   2.411  12.401  0.5587  0.3340 -0.1718
 4387SOL    HW124797   0.426   2.391  12.329  0.0113  0.2593  0.3145
 4387SOL    HW224798   0.524   2.326  12.425 -0.5669 -0.5280 -1.4796
 4388SOL     OW24799   2.128   3.808   2.554  0.7384 -0.1820 -0.2971
 4388SOL    HW124800   2.079   3.773   2.629 -1.3650  1.0872 -1.0758
 4388SOL    HW224801   2.061   3.858   2.507  0.4798  0.2649  0.5311
 4389SOL     OW24802   0.594   1.955   8.501  0.4897 -0.1198  0.0720
 4389SOL    HW124803   0.632   1.922   8.420 -1.9681  0.3684 -1.3068
 4389SOL    HW224804   0.516   1.900   8.511 -0.5686  1.4937  0.7329
 4390SOL     OW24805   1.183   1.870   6.684 -0.2251 -0.7845  0.3748
 4390SOL    HW124806   1.088   1.871   6.691 -0.2954  0.6833 -0.7691
 4390SOL    HW224807   1.205   1.850   6.775  0.5563 -1.8484 -0.0550
 4391SOL     OW24808   4.219   1.778   8.167 -0.3959 -1.0008 -0.3085
 4391SOL    HW124809   4.286   1.827   8.213 -0.7214 -0.1239 -0.7647
 4391SOL    HW224810   4.192   1.711   8.230 -2.6493  1.1566  1.0174
 4392SOL     OW24811   2.323   1.354   8.400 -0.1731 -0.1388 -0.2189
 4392SOL    HW124812   2.253   1.382   8.342  0.5246 -0.1110 -1.0412
 4392SOL    HW224813   2.308   1.260   8.414  0.3180  0.0389  1.5396
 4393SOL     OW24814   0.359   0.940  16.750 -0.4167  0.2040 -0.2069
 4393SOL    HW124815   0.446   0.944  16.710 -0.3696 -1.5120 -0.2612
 4393SOL    HW224816   0.359   0.855  16.793  2.8036  0.5558  0.5007
 4394SOL     OW24817   4.667   1.850   7.693  0.5638  0.3235  0.1331
 4394SOL    HW124818   4.600   1.839   7.625  0.6416 -1.0061  0.2744
 4394SOL    HW224819   0.007   1.843   7.636  1.5668  0.6385  1.4564
 4395SOL     OW24820   3.254   4.122  15.432 -0.6213 -0.0345  0.6095
 4395SOL    HW124821   3.330   4.168  15.468 -0.4518  0.9713 -1.0563
 4395SOL    HW224822   3.288   4.085  15.351 -0.6183 -2.3963  1.6682
 4396SOL     OW24823   0.863   4.400   7.755 -0.2819  0.0944  0.2793
 4396SOL    HW124824   0.835   4.357   7.836  2.0789 -1.6201  0.1865
 4396SOL    HW224825   0.894   4.329   7.699 -1.7875  0.4194 -0.9871
 4397SOL     OW24826   1.843   0.969   2.971 -0.0780  0.3350  0.2204
 4397SOL    HW124827   1.809   1.054   2.942  1.1556  0.1991 -1.6129
 4397SOL    HW224828   1.776   0.935   3.031 -0.3175  1.0143  0.3389
 4398SOL     OW24829   3.878   4.532   0.777  0.1843 -0.7255 -0.1198
 4398SOL    HW124830   3.859   4.448   0.735 -0.3167 -0.3871 -0.5734
 4398SOL    HW224831   3.806   4.579   0.736  0.6539  1.2816  1.3791
 4399SOL     OW24832   2.282   4.652  14.686 -0.2099  0.3114 -0.7128
 4399SOL    HW124833   2.202   4.634  14.638 -1.8090 -2.6259  3.0923
 4399SOL    HW224834   2.290   0.009  14.702  1.2705  0.2738 -1.2159
 4400SOL     OW24835   3.005   0.378   0.149 -0.1941 -0.2843  0.3143
 4400SOL    HW124836   3.058   0.384   0.069  0.7596 -0.3318  0.9507
 4400SOL    HW224837   3.073   0.392   0.215  0.6067  3.1512 -1.2361
 4401SOL     OW24838   2.788   2.860   2.975  0.1129 -0.1970  0.4730
 4401SOL    HW124839   2.736   2.781   2.960 -0.6018  0.3912 -0.1929
 4401SOL    HW224840   2.755   2.895   3.057 -0.8449  0.4743 -0.1922
 4402SOL     OW24841   3.132   3.472  11.490  0.4491  0.3445  0.4741
 4402SOL    HW124842   3.180   3.446  11.411  0.9240  3.6951 -0.3099
 4402SOL    HW224843   3.103   3.391  11.533 -2.2300  0.3520 -1.3431
 4403SOL     OW24844   0.629   4.718   6.014 -0.8068  0.3604  0.7800
 4403SOL    HW124845   0.658   4.721   5.923 -0.8037 -1.0598  0.7415
 4403SOL    HW224846   0.694   4.658   6.049 -1.4827 -1.1944 -0.6649
 4404SOL     OW24847   0.277   2.720   5.376  0.4747  0.0276 -1.0929
 4404SOL    HW124848   0.182   2.718   5.388  0.4987  1.1631 -0.7377
 4404SOL    HW224849   0.317   2.665   5.444 -1.2721 -1.5070 -1.2959
 4405SOL     OW24850   3.000   2.450   3.992  0.9599 -0.6609 -0.0954
 4405SOL    HW124851   3.082   2.492   3.968  0.2776  0.9651  0.3925
 4405SOL    HW224852   3.015   2.411   4.079 -0.4354  0.1604  0.5174
 4406SOL     OW24853   2.452   1.737   0.691 -0.2900  0.5335  0.4553
 4406SOL    HW124854   2.360   1.755   0.675 -0.0083  0.0928 -1.6016
 4406SOL    HW224855   2.455   1.692   0.776  0.7586  2.2388  1.3108
 4407SOL     OW24856   1.594   3.486   7.226  0.0599  0.6128  0.3059
 4407SOL    HW124857   1.571   3.443   7.144  0.0523  0.1123  0.5671
 4407SOL    HW224858   1.662   3.541   7.189 -0.0508  0.6853  0.2110
 4408SOL     OW24859   2.653   4.076   7.981 -0.1354 -0.0289 -0.1862
 4408SOL    HW124860   2.590   4.143   7.953  1.1418  0.7707 -1.1751
 4408SOL    HW224861   2.719   4.087   7.912 -0.7838  1.8280 -0.5198
 4409SOL     OW24862   1.596   1.279   4.816 -0.4403  0.2396  0.0045
 4409SOL    HW124863   1.598   1.229   4.897 -1.1292  1.2747  0.6705
 4409SOL    HW224864   1.534   1.227   4.766 -0.7910 -0.5638  1.2648
 4410SOL     OW24865   3.762   4.033  15.151  0.2643  0.2279 -0.3487
 4410SOL    HW124866   3.799   3.965  15.208 -1.0024  1.0528  1.4676
 4410SOL    HW224867   3.702   3.978  15.101  1.7919 -2.4330  0.6961
 4411SOL     OW24868   2.815   1.784   5.762  0.7228  0.1366  0.0746
 4411SOL    HW124869   2.821   1.866   5.811  2.2292 -0.9641  1.7217
 4411SOL    HW224870   2.859   1.795   5.678  1.9382 -1.5128  0.4822
 4412SOL     OW24871   1.944   4.250   3.970  0.2361  0.1486  0.3336
 4412SOL    HW124872   1.939   4.232   4.064  1.9085 -0.3231  0.3330
 4412SOL    HW224873   1.872   4.313   3.967 -0.0017 -0.1750 -0.6387
 4413SOL     OW24874   0.276   0.743   3.837  0.3346 -0.4453 -0.0706
 4413SOL    HW124875   0.367   0.715   3.826  0.3748 -0.1554 -0.4661
 4413SOL    HW224876   0.272   0.818   3.777 -0.2844 -0.9637 -0.6699
 4414SOL     OW24877   3.306   2.531  17.493  0.0959  0.2061  0.4319
 4414SOL    HW124878   3.216   2.498  17.501 -0.2237  0.9839  0.0535
 4414SOL    HW224879   3.287   2.611  17.444  0.4380  0.8273  1.3145
 4415SOL     OW24880   3.468   1.489   1.757 -0.1809  0.1561  0.3603
 4415SOL    HW124881   3.388   1.440   1.772 -0.5972  1.1655  1.4431
 4415SOL    HW224882   3.516   1.465   1.836 -0.1764 -0.7316  0.0916
 4416SOL     OW24883   3.667   1.094   5.377 -0.1153  0.1085 -0.2671
 4416SOL    HW124884   3.602   1.155   5.342 -0.1820  0.2955  0.1887
 4416SOL    HW224885   3.750   1.123   5.338  0.7065 -1.5478  0.2451
 4417SOL     OW24886   4.343   2.380  12.718  0.8347 -0.3356 -0.3420
 4417SOL    HW124887   4.363   2.372  12.625 -0.3514  0.6965 -0.6828
 4417SOL    HW224888   4.255   2.343  12.712  0.8262 -0.3228 -0.2990
 4418SOL     OW24889   0.947   2.701   5.193 -0.6882  0.0315  0.2409
 4418SOL    HW124890   1.006   2.772   5.169  0.3122 -0.4665  1.2158
 4418SOL    HW224891   0.924   2.723   5.283  1.9045  0.0174  0.9061
 4419SOL     OW24892   1.249   0.510   2.560  0.2993 -0.1165 -0.0679
 4419SOL    HW124893   1.174   0.546   2.514  0.5955 -0.6545 -0.9635
 4419SOL    HW224894   1.244   0.418   2.534 -1.3200  0.2635 -1.0640
 4420SOL     OW24895   2.233   1.517   3.634  0.0167  0.0931  0.4148
 4420SOL    HW124896   2.263   1.426   3.627  0.6963  0.3417  0.0486
 4420SOL    HW224897   2.281   1.533   3.715  2.1957  1.4669 -1.1334
 4421SOL     OW24898   4.061   2.524   9.457 -0.0801 -0.2136 -0.0899
 4421SOL    HW124899   4.028   2.614   9.451 -1.0276 -0.5006  0.6989
 4421SOL    HW224900   4.113   2.536   9.536 -1.7647  1.0815  0.8276
 4422SOL     OW24901   2.317   1.147  15.592  0.6370 -0.5856  0.3080
 4422SOL    HW124902   2.252   1.216  15.604  0.7616 -0.2417 -1.0288
 4422SOL    HW224903   2.284   1.095  15.519 -0.8118  0.4240  0.2523
 4423SOL     OW24904   3.089   3.907   5.696 -0.1515  0.5914 -0.0582
 4423SOL    HW124905   3.183   3.895   5.702  0.0126  2.5063  1.2006
 4423SOL    HW224906   3.078   3.964   5.772 -0.9431  1.1829 -0.6124
 4424SOL     OW24907   0.200   4.308   5.342 -0.5058  0.2422  0.2976
 4424SOL    HW124908   0.114   4.274   5.318 -1.5819  2.6912  0.6677
 4424SOL    HW224909   0.252   4.227   5.347  2.7540  2.5408  3.1766
 4425SOL     OW24910   2.467   1.100   6.265 -0.4437 -0.7890 -0.6806
 4425SOL    HW124911   2.524   1.027   6.240 -0.2744 -0.9936  0.3018
 4425SOL    HW224912   2.446   1.125   6.175 -0.7876 -1.8145 -0.8907
 4426SOL     OW24913   3.318   2.111  16.513 -0.8651  0.3852 -0.2869
 4426SOL    HW124914   3.297   2.203  16.531  0.4530  0.3249  1.6490
 4426SOL    HW224915   3.410   2.116  16.539 -1.0082  0.1374  0.2686
 4427SOL     OW24916   1.332   2.608   1.933  0.2439 -0.0040  0.2931
 4427SOL    HW124917   1.284   2.568   2.006  0.1965  0.6990  0.6463
 4427SOL    HW224918   1.256   2.624   1.877 -0.2886  2.4989  1.7017
 4428SOL     OW24919   3.039   0.917   3.069 -0.1049 -0.0729  0.6360
 4428SOL    HW124920   3.084   0.997   3.097  0.9089 -0.1682 -0.7904
 4428SOL    HW224921   3.099   0.846   3.093  0.0630 -0.0768  0.1956
 4429SOL     OW24922   1.337   2.328   6.276 -0.1226  0.3050 -0.0145
 4429SOL    HW124923   1.314   2.236   6.290  1.2628 -0.1193 -0.5498
 4429SOL    HW224924   1.386   2.347   6.356 -0.3729 -1.8098  0.6556
 4430SOL     OW24925   1.387   1.832  11.331  0.5954 -0.1907 -0.4750
 4430SOL    HW124926   1.425   1.919  11.341  3.8116 -1.6722  0.0238
 4430SOL    HW224927   1.386   1.826  11.235  0.7695  1.0836 -0.5466
 4431SOL     OW24928   0.357   0.057   3.627  0.7371 -0.3136 -0.7773
 4431SOL    HW124929   0.403   0.140   3.638  0.6188 -0.5992  1.8785
 4431SOL    HW224930   0.267   0.078   3.652  0.4607 -2.5757  0.0929
 4432SOL     OW24931   2.301   2.857   0.173 -0.3666  0.1273 -0.1075
 4432SOL    HW124932   2.383   2.897   0.144 -0.9326  1.0135 -0.4727
 4432SOL    HW224933   2.342   2.776   0.205  0.1934 -0.1096 -1.3979
 4433SOL     OW24934   2.011   4.425   8.978 -0.1951 -0.4636 -0.2222
 4433SOL    HW124935   2.103   4.431   9.006 -1.3686 -2.8276  4.1731
 4433SOL    HW224936   1.983   4.333   8.980  0.7659 -0.7886 -1.4472
 4434SOL     OW24937   2.235   1.592  11.139  0.0505  0.2391 -0.1007
 4434SOL    HW124938   2.213   1.655  11.207 -0.8269 -0.5293  0.3398
 4434SOL    HW224939   2.251   1.654  11.068 -2.6366  0.9363 -0.0799
 4435SOL     OW24940   2.619   1.985   7.481 -0.1061 -0.1402 -0.6838
 4435SOL    HW124941   2.649   2.037   7.406 -2.2938  0.5167 -1.1175
 4435SOL    HW224942   2.686   1.917   7.488  1.1473  0.9111 -2.3127
 4436SOL     OW24943   4.252   2.153   8.256  1.1698 -0.0851 -0.3040
 4436SOL    HW124944   4.181   2.216   8.248  1.5756  0.0564 -2.8403
 4436SOL    HW224945   4.222   2.084   8.197 -0.5145 -1.3007  1.9797
 4437SOL     OW24946   1.224   4.052   9.752 -0.5126 -0.0749 -0.3561
 4437SOL    HW124947   1.225   4.139   9.711 -1.2623  0.4326  0.6885
 4437SOL    HW224948   1.144   4.053   9.804 -1.0734 -1.9304 -1.1767
 4438SOL     OW24949   1.073   3.185   0.254  0.4160 -0.6044  0.1884
 4438SOL    HW124950   1.155   3.153   0.216 -0.0416 -0.7154 -0.6950
 4438SOL    HW224951   1.099   3.276   0.265 -0.3325 -0.5692  1.5680
 4439SOL     OW24952   4.219   1.314   8.568 -0.2684  0.6042  0.1864
 4439SOL    HW124953   4.126   1.308   8.545 -0.1483  0.4145 -0.2436
 4439SOL    HW224954   4.214   1.377   8.640  0.4126  1.4773 -0.5340
 4440SOL     OW24955   0.200   0.562   7.791  0.1851  0.1309  0.5295
 4440SOL    HW124956   0.224   0.607   7.711  2.5949 -0.8176  0.7284
 4440SOL    HW224957   0.266   0.594   7.852  1.0228  2.6898 -1.7556
 4441SOL     OW24958   0.839   1.226   5.489 -0.0952 -0.1155  0.3418
 4441SOL    HW124959   0.813   1.252   5.401  3.1281  1.8748 -0.0335
 4441SOL    HW224960   0.796   1.289   5.547  0.4680 -1.3008  2.0275
 4442SOL     OW24961   0.853   3.702   5.761  0.7579  0.5450  0.1446
 4442SOL    HW124962   0.786   3.768   5.742 -0.8437 -1.8568 -2.5607
 4442SOL    HW224963   0.866   3.726   5.853  1.3197  2.1638 -0.3556
 4443SOL     OW24964   2.385   2.091  17.676  0.2309  0.1749 -0.4111
 4443SOL    HW124965   2.384   1.998  17.655  0.6353  0.0972 -0.0729
 4443SOL    HW224966   2.401   2.087   0.026  2.3197 -0.7827 -0.7960
 4444SOL     OW24967   2.437   3.429   8.912  0.1196  0.1566 -0.0311
 4444SOL    HW124968   2.381   3.468   8.979 -1.0290  0.7160 -1.3205
 4444SOL    HW224969   2.413   3.484   8.838  1.0032  0.5826  0.0052
 4445SOL     OW24970   2.034   3.405   7.014 -0.5898 -0.2561 -0.6741
 4445SOL    HW124971   2.025   3.484   6.961 -0.9604  0.8297  1.0162
 4445SOL    HW224972   2.083   3.352   6.951 -0.6094  0.2704 -1.1282
 4446SOL     OW24973   3.450   0.952   8.925  0.5145  0.3473 -0.0255
 4446SOL    HW124974   3.354   0.959   8.921  0.5667  0.3684 -1.3302
 4446SOL    HW224975   3.471   0.876   8.871 -2.9106 -0.6379  0.0166
 4447SOL     OW24976   0.724   1.203  12.943 -0.2509 -0.2687  0.4010
 4447SOL    HW124977   0.706   1.188  13.036 -2.3850  1.0715  0.1927
 4447SOL    HW224978   0.690   1.128  12.894  1.3728 -0.7117 -0.0494
 4448SOL     OW24979   4.584   2.116   4.761 -0.2018 -0.2251  0.4125
 4448SOL    HW124980   4.667   2.162   4.748  0.7000 -1.4333  1.8138
 4448SOL    HW224981   4.522   2.186   4.778  2.9964  2.6463  0.3759
 4449SOL     OW24982   1.309   1.122  12.777  0.0472 -0.8263  0.0561
 4449SOL    HW124983   1.355   1.080  12.850 -0.7587 -1.4291  0.2103
 4449SOL    HW224984   1.374   1.109  12.708  1.2180 -1.6203  1.3145
 4450SOL     OW24985   4.086   3.929   7.156 -0.2330 -0.3424 -0.2342
 4450SOL    HW124986   4.179   3.946   7.142 -0.1460  1.4497  2.3838
 4450SOL    HW224987   4.088   3.900   7.248  0.7898  1.3078  0.2639
 4451SOL     OW24988   0.527   2.501   8.181  0.0936  0.3770  0.1632
 4451SOL    HW124989   0.434   2.510   8.162 -0.0266 -0.8125  0.2289
 4451SOL    HW224990   0.528   2.565   8.253 -1.1979 -0.1156  0.6126
 4452SOL     OW24991   4.151   0.247   2.789  0.2005  0.3047  0.1481
 4452SOL    HW124992   4.136   0.341   2.793  1.1739  0.4672 -0.0095
 4452SOL    HW224993   4.217   0.246   2.720  0.6206  0.5049  0.5464
 4453SOL     OW24994   1.643   2.584   6.048 -0.3188  0.5271 -0.0787
 4453SOL    HW124995   1.635   2.586   6.143 -0.9319 -0.4972 -0.1100
 4453SOL    HW224996   1.573   2.523   6.024  1.1203 -0.3299 -2.1107
 4454SOL     OW24997   4.202   3.183   6.335 -0.0202 -0.0442  0.5981
 4454SOL    HW124998   4.218   3.276   6.317 -1.3673  0.6766  3.1875
 4454SOL    HW224999   4.146   3.190   6.412  0.7215 -1.4827  1.2712
 4455SOL     OW25000   2.487   2.063   8.786  0.1795  0.5262  0.6012
 4455SOL    HW125001   2.420   2.011   8.743  0.2131  3.0030 -2.4818
 4455SOL    HW225002   2.520   1.993   8.841 -0.1389  1.8920  2.5555
 4456SOL     OW25003   3.506   2.336   5.440  0.2346  0.2555  0.2214
 4456SOL    HW125004   3.591   2.378   5.450 -0.1982  1.3523 -0.6282
 4456SOL    HW225005   3.447   2.392   5.491  0.1426  0.9056 -0.6028
 4457SOL     OW25006   3.187   3.653   4.615 -0.4737  0.5536 -0.1910
 4457SOL    HW125007   3.277   3.621   4.614 -0.2667  1.1541 -2.2442
 4457SOL    HW225008   3.159   3.657   4.706  1.3892 -1.1874  0.4548
 4458SOL     OW25009   0.834   1.777   0.224 -0.4057  0.4447  0.2227
 4458SOL    HW125010   0.759   1.743   0.177 -1.0840  0.2258  1.4730
 4458SOL    HW225011   0.805   1.867   0.240  0.3839  0.7500 -0.0534
 4459SOL     OW25012   0.027   4.077   9.199  1.1378  0.0170 -0.5366
 4459SOL    HW125013   0.008   4.128   9.120 -1.6705 -0.2179  0.0187
 4459SOL    HW225014   4.680   4.085   9.244  0.6287 -1.2073 -1.2589
 4460SOL     OW25015   2.486   3.654   1.556  0.5087  0.3294  0.3309
 4460SOL    HW125016   2.478   3.559   1.554  3.7444  0.0843 -0.0520
 4460SOL    HW225017   2.464   3.661   1.649  1.4557  0.4460  0.5429
 4461SOL     OW25018   4.370   3.574   4.583  0.2550  0.3389 -0.7490
 4461SOL    HW125019   4.325   3.647   4.625 -0.0604 -1.2777  1.7215
 4461SOL    HW225020   4.319   3.564   4.502 -1.2475 -1.4536  0.4383
 4462SOL     OW25021   2.094   0.960  17.490  0.0738  0.1579  0.5555
 4462SOL    HW125022   2.146   0.977  17.412 -0.3715  1.3187  0.5188
 4462SOL    HW225023   2.028   0.909  17.443 -0.1498  0.0695  0.9612
 4463SOL     OW25024   2.657   1.666  17.326  0.2975  0.6393  0.0776
 4463SOL    HW125025   2.735   1.610  17.322 -0.0939  0.3425 -3.2487
 4463SOL    HW225026   2.629   1.649  17.236  1.3141 -2.8052  0.4088
 4464SOL     OW25027   0.163   0.358   3.057 -0.1300 -0.0121 -0.5992
 4464SOL    HW125028   0.139   0.439   3.101  1.8471  0.7386 -0.8821
 4464SOL    HW225029   0.074   0.324   3.053  0.5104 -1.9282  0.9932
 4465SOL     OW25030   4.575   0.720   7.607  0.3841  0.3575 -0.3779
 4465SOL    HW125031   4.620   0.773   7.542 -0.9386  3.0638  0.9195
 4465SOL    HW225032   4.511   0.676   7.552 -1.3391  3.8589 -1.1546
 4466SOL     OW25033   1.044   3.636   6.437 -0.3747  1.1008 -0.2084
 4466SOL    HW125034   1.119   3.611   6.492 -1.2839 -0.9127  0.1248
 4466SOL    HW225035   0.994   3.686   6.502 -2.3697 -0.7854 -0.2587
 4467SOL     OW25036   0.296   3.287   4.576 -0.4792  0.0871  0.3117
 4467SOL    HW125037   0.324   3.378   4.568 -0.9910  0.3615  1.5987
 4467SOL    HW225038   0.222   3.284   4.516 -1.7941 -2.0662  1.9859
 4468SOL     OW25039   1.211   0.462   6.412  0.3184  0.8020  0.0342
 4468SOL    HW125040   1.195   0.382   6.362  1.0839  1.0756 -0.6451
 4468SOL    HW225041   1.289   0.438   6.463  1.6794  0.7807 -2.0675
 4469SOL     OW25042   3.234   4.158   4.998 -0.0685 -0.3153  0.4238
 4469SOL    HW125043   3.283   4.238   5.020 -0.0445  0.1770 -1.3830
 4469SOL    HW225044   3.212   4.122   5.083  0.5698  0.3964  0.8955
 4470SOL     OW25045   1.425   2.635   3.730  0.8380 -0.7449 -0.1204
 4470SOL    HW125046   1.492   2.569   3.747  1.0591 -0.8269 -1.2905
 4470SOL    HW225047   1.460   2.705   3.785  1.5437  0.3642 -1.9485
 4471SOL     OW25048   2.265   3.571   3.036 -0.4185 -0.2080 -0.5215
 4471SOL    HW125049   2.224   3.530   2.961 -0.1597  1.5705 -1.6289
 4471SOL    HW225050   2.354   3.534   3.032 -1.2318 -2.1895 -0.3663
 4472SOL     OW25051   0.147   2.266   3.298  0.2871  0.8420  0.0825
 4472SOL    HW125052   0.136   2.359   3.278 -1.1001  0.7337  0.3333
 4472SOL    HW225053   0.202   2.236   3.226 -0.3331 -0.0044 -0.0407
 4473SOL     OW25054   3.044   0.883   9.642  0.4656 -0.3568  0.8246
 4473SOL    HW125055   3.039   0.976   9.663 -0.7995 -0.2306 -0.0316
 4473SOL    HW225056   2.949   0.879   9.626  0.5264  3.4221 -0.4502
 4474SOL     OW25057   3.450   4.545   5.506 -0.2006  0.3843  0.0225
 4474SOL    HW125058   3.359   4.558   5.481  0.5043  2.4805 -1.4221
 4474SOL    HW225059   3.453   4.572   5.598 -1.3984 -1.4769  0.6149
 4475SOL     OW25060   0.772   3.342   6.559 -0.2193  0.1874  1.1027
 4475SOL    HW125061   0.834   3.345   6.487 -0.5339  1.0383  0.8708
 4475SOL    HW225062   0.702   3.287   6.524 -0.0857 -0.8217  2.3924
 4476SOL     OW25063   2.667   1.133   7.178  0.5237  0.5454  0.4031
 4476SOL    HW125064   2.589   1.156   7.129  1.3910  1.0129 -0.7727
 4476SOL    HW225065   2.731   1.160   7.111  0.5560 -3.2968 -1.1374
 4477SOL     OW25066   2.247   2.001   7.745 -0.7561 -0.2951  0.0121
 4477SOL    HW125067   2.203   2.051   7.814  0.5319  0.6089  0.1839
 4477SOL    HW225068   2.329   2.051   7.742 -0.8770  0.0097  1.8309
 4478SOL     OW25069   2.661   4.370  16.148 -0.3030  0.3306 -0.5137
 4478SOL    HW125070   2.600   4.296  16.144 -1.9523  1.6981 -0.8884
 4478SOL    HW225071   2.744   4.324  16.152 -0.8892 -0.7583 -0.7339
 4479SOL     OW25072   1.926   4.384   7.280  0.1635 -0.1222 -0.0742
 4479SOL    HW125073   1.970   4.456   7.234 -0.5578  1.2131  1.3272
 4479SOL    HW225074   1.872   4.434   7.342 -1.7538 -0.1591 -1.6987
 4480SOL     OW25075   0.180   0.186   4.611 -0.0831 -0.0759  0.0951
 4480SOL    HW125076   0.197   0.111   4.668 -0.1314  0.5525  0.9324
 4480SOL    HW225077   0.089   0.205   4.631 -0.0446  0.9031 -0.6587
 4481SOL     OW25078   2.815   2.095  14.831 -0.2187  0.0623  0.3793
 4481SOL    HW125079   2.777   2.048  14.757  0.3981  1.4786 -0.8507
 4481SOL    HW225080   2.907   2.078  14.810 -0.5174 -0.1451 -0.7688
 4482SOL     OW25081   3.093   2.598   9.409 -0.5122  0.1807 -0.1126
 4482SOL    HW125082   3.166   2.639   9.361  2.2080  0.3506  4.1289
 4482SOL    HW225083   3.106   2.508   9.380 -0.2105  0.0714  0.3560
 4483SOL     OW25084   1.874   1.472   0.478  0.1901 -0.3848  0.3234
 4483SOL    HW125085   1.836   1.557   0.455 -0.6568 -0.6167  0.8867
 4483SOL    HW225086   1.966   1.500   0.477 -0.4368  1.6290 -1.4583
 4484SOL     OW25087   3.546   1.773  14.853 -0.6217 -0.1100  0.1182
 4484SOL    HW125088   3.473   1.719  14.824 -0.2170 -1.2713  1.2370
 4484SOL    HW225089   3.597   1.708  14.901  2.4282  1.2877 -1.2134
 4485SOL     OW25090   4.177   1.030  13.930 -0.0802  0.0381 -0.2094
 4485SOL    HW125091   4.225   1.101  13.973 -0.3382  0.6676 -0.9615
 4485SOL    HW225092   4.134   1.084  13.864 -0.7706  1.6838  1.5622
 4486SOL     OW25093   3.972   2.781  17.088  0.1733 -0.1926  0.1842
 4486SOL    HW125094   3.928   2.844  17.145 -1.5826 -2.6019  1.5020
 4486SOL    HW225095   4.019   2.721  17.146  1.5469  0.6120 -0.0881
 4487SOL     OW25096   4.434   3.487   9.109  0.4638  0.0099  0.2573
 4487SOL    HW125097   4.394   3.407   9.075 -2.5799  1.6562  0.0084
 4487SOL    HW225098   4.506   3.490   9.046  0.2713  0.3016  0.0499
 4488SOL     OW25099   3.373   3.192   8.078  0.5012  0.0068  0.1138
 4488SOL    HW125100   3.329   3.118   8.037 -0.3915  0.1079  0.8942
 4488SOL    HW225101   3.370   3.170   8.171  0.2313 -2.5628 -0.5009
 4489SOL     OW25102   2.023   4.001  16.108  0.7934  0.1272  0.2742
 4489SOL    HW125103   2.098   3.957  16.149  0.5610  1.3326  1.9868
 4489SOL    HW225104   2.058   4.090  16.107  1.7026 -0.2508 -1.7015
 4490SOL     OW25105   1.368   3.309   5.440 -0.4497  0.1764 -0.2090
 4490SOL    HW125106   1.357   3.219   5.470 -2.8656  0.5909  0.1626
 4490SOL    HW225107   1.419   3.337   5.516  0.8466 -1.5368 -0.4500
 4491SOL     OW25108   0.637   3.134  10.876  0.2984 -0.1102 -0.0126
 4491SOL    HW125109   0.590   3.051  10.880 -0.1522  0.1668  0.3648
 4491SOL    HW225110   0.629   3.156  10.783  2.1420 -1.2842 -0.4545
 4492SOL     OW25111   0.010   1.428   8.617  0.3848  0.3935 -0.4027
 4492SOL    HW125112   0.059   1.432   8.535  1.5196  2.5229  0.3613
 4492SOL    HW225113   4.659   1.399   8.592  0.0525  0.3363  0.8377
 4493SOL     OW25114   4.321   1.797   1.007 -0.3007 -0.0357 -0.0164
 4493SOL    HW125115   4.416   1.785   1.012 -0.3552 -0.0947  0.9123
 4493SOL    HW225116   4.283   1.752   1.083 -0.1987 -0.3775 -0.1655
 4494SOL     OW25117   4.202   1.006   9.338 -0.3335  1.0782  0.3858
 4494SOL    HW125118   4.128   0.949   9.318  0.6931 -0.9846  2.4655
 4494SOL    HW225119   4.256   0.997   9.260  1.0117 -1.2509  1.5976
 4495SOL     OW25120   1.847   3.721   6.682  0.1554  0.1010  0.6596
 4495SOL    HW125121   1.794   3.796   6.655  1.1533  1.3434  2.1202
 4495SOL    HW225122   1.817   3.667   6.610 -3.4363  1.6625  1.0010
 4496SOL     OW25123   0.652   3.034   7.590  0.1399 -0.3623 -0.5630
 4496SOL    HW125124   0.596   3.086   7.532 -0.4306 -2.0917 -1.5871
 4496SOL    HW225125   0.598   3.046   7.668  2.3780  1.4900  0.6835
 4497SOL     OW25126   1.011   4.093   7.372 -0.0197  0.2565  0.0741
 4497SOL    HW125127   1.093   4.139   7.387 -0.3966  0.9396  0.0253
 4497SOL    HW225128   1.036   4.002   7.390  2.8720  0.8573 -0.9538
 4498SOL     OW25129   4.006   1.154   4.455  0.1084  0.1388 -0.2389
 4498SOL    HW125130   3.920   1.158   4.497  0.6759  0.8962  0.8417
 4498SOL    HW225131   4.051   1.108   4.525 -2.4286 -3.2264 -0.8193
 4499SOL     OW25132   4.600   1.173   6.931  0.9019 -0.7024  0.0974
 4499SOL    HW125133   4.623   1.142   7.019  1.7699 -0.8255 -0.1743
 4499SOL    HW225134   4.587   1.087   6.890  1.8801 -0.2775 -1.0893
 4500SOL     OW25135   1.022   2.858   4.264 -0.4237 -0.3020 -0.3312
 4500SOL    HW125136   1.050   2.813   4.343 -1.9059 -1.1505 -0.3071
 4500SOL    HW225137   0.963   2.930   4.285 -0.0206  0.3722 -1.5194
 4501SOL     OW25138   3.495   4.091  14.897 -0.3614  0.3672 -0.0233
 4501SOL    HW125139   3.510   4.023  14.832  0.0624  0.2508  0.1987
 4501SOL    HW225140   3.484   4.030  14.970 -2.0484  0.3186 -0.3188
 4502SOL     OW25141   3.709   2.898   3.030 -0.2286 -0.0009  0.4596
 4502SOL    HW125142   3.690   2.985   3.064 -0.7359 -0.8026  2.2169
 4502SOL    HW225143   3.621   2.859   3.026 -0.6350  0.9483  0.1265
 4503SOL     OW25144   2.128   1.152   8.211  0.0603  0.0998 -0.4260
 4503SOL    HW125145   2.124   1.073   8.157  0.4065  1.3163 -2.2474
 4503SOL    HW225146   2.189   1.127   8.279  1.0362  0.8467 -1.0295
 4504SOL     OW25147   2.796   1.164   4.445  0.1466  0.7594 -0.0685
 4504SOL    HW125148   2.770   1.141   4.534 -1.1279  0.9380 -0.4062
 4504SOL    HW225149   2.829   1.254   4.451 -3.7700  2.2068 -0.9779
 4505SOL     OW25150   0.984   0.079   1.982  0.0989 -0.1489 -0.5702
 4505SOL    HW125151   0.892   0.107   1.989  0.6331  2.2567 -3.2198
 4505SOL    HW225152   0.979   4.720   1.993 -1.4713  0.1092  0.9936
 4506SOL     OW25153   1.001   0.792   8.329 -0.3029  0.2205 -0.1554
 4506SOL    HW125154   1.033   0.836   8.251 -0.3232 -2.3365 -1.6086
 4506SOL    HW225155   1.084   0.765   8.369 -0.0305 -0.8160 -1.4295
 4507SOL     OW25156   3.586   0.002   2.841 -0.8462  0.2627 -0.3884
 4507SOL    HW125157   3.564   0.041   2.757  2.9326 -0.6363 -1.7733
 4507SOL    HW225158   3.578   0.082   2.893 -1.4359  0.0382 -0.1307
 4508SOL     OW25159   2.204   2.587  17.222 -0.0470 -0.4382 -0.0130
 4508SOL    HW125160   2.234   2.678  17.233 -0.6754 -0.3932  1.2688
 4508SOL    HW225161   2.254   2.532  17.283 -0.0803  0.6636  1.0229
 4509SOL     OW25162   0.264   3.343   5.930  0.4555 -0.0709 -0.0308
 4509SOL    HW125163   0.183   3.303   5.898  0.5603 -0.9102  0.7443
 4509SOL    HW225164   0.333   3.286   5.896  0.0718 -1.2435  1.1402
 4510SOL     OW25165   4.608   1.845  11.055  0.2835  1.1446  0.2722
 4510SOL    HW125166   4.661   1.786  11.002  0.8534  0.3579  1.7036
 4510SOL    HW225167   4.545   1.779  11.083 -0.5797  0.9942 -2.0253
 4511SOL     OW25168   3.026   1.690  17.042  0.3039  0.0624 -0.3527
 4511SOL    HW125169   2.995   1.761  17.099 -1.1968  0.3623 -1.5521
 4511SOL    HW225170   3.101   1.734  17.004  1.1267 -2.4683 -1.6550
 4512SOL     OW25171   3.904   4.426   2.508  0.4662 -0.1172  0.2636
 4512SOL    HW125172   3.921   4.440   2.415 -2.9499  3.2851  0.1327
 4512SOL    HW225173   3.920   4.515   2.539 -1.2407  0.5637 -0.8308
 4513SOL     OW25174   1.641   3.998  14.600 -0.2823 -0.1548  0.6998
 4513SOL    HW125175   1.627   3.906  14.578 -1.0696 -0.2617  1.6042
 4513SOL    HW225176   1.707   4.024  14.536 -2.3044  2.3216 -0.3781
 4514SOL     OW25177   3.653   0.987   1.557 -0.2674 -1.3708 -0.4067
 4514SOL    HW125178   3.717   1.005   1.489  1.2478 -0.8600  1.1796
 4514SOL    HW225179   3.680   1.053   1.621 -1.1027  1.2885 -2.7892
 4515SOL     OW25180   1.041   2.344  11.830 -0.4940  0.5262  0.1187
 4515SOL    HW125181   1.112   2.379  11.884 -0.3469 -0.8641  0.8414
 4515SOL    HW225182   1.077   2.262  11.797  2.2045  2.3540 -1.4015
 4516SOL     OW25183   4.337   4.208  15.086 -0.3685  0.4239  0.1282
 4516SOL    HW125184   4.425   4.193  15.050 -0.5295  0.2088 -0.1792
 4516SOL    HW225185   4.276   4.178  15.018  1.0213 -0.4589 -0.7274
 4517SOL     OW25186   3.562   3.274  10.343  0.0804 -0.1431 -0.7055
 4517SOL    HW125187   3.476   3.263  10.304 -0.6300  0.6782  0.6077
 4517SOL    HW225188   3.557   3.361  10.383 -0.5757  0.1234 -1.3684
 4518SOL     OW25189   4.206   4.367  15.289  0.0413  0.2209  0.1165
 4518SOL    HW125190   4.205   4.305  15.216  0.5228  0.5823 -0.1947
 4518SOL    HW225191   4.277   4.429  15.270 -0.7275  1.3035  0.7957
 4519SOL     OW25192   1.558   3.904   1.927 -0.0039 -0.0156 -0.4141
 4519SOL    HW125193   1.551   3.863   1.841  0.3973  3.7924 -2.2154
 4519SOL    HW225194   1.523   3.993   1.918 -1.3067 -0.6138 -1.3100
 4520SOL     OW25195   1.493   3.644   9.690  0.3998  0.0986  0.2891
 4520SOL    HW125196   1.504   3.571   9.751  0.0771 -0.0536  0.1669
 4520SOL    HW225197   1.501   3.717   9.751 -0.2741  0.6236 -0.2522
 4521SOL     OW25198   1.837   1.095   4.526  0.7114 -0.3977 -0.6636
 4521SOL    HW125199   1.822   1.152   4.601  1.7214 -2.2383  0.9570
 4521SOL    HW225200   1.867   1.010   4.559  1.8254  0.3682  0.3475
 4522SOL     OW25201   2.662   1.828   8.865 -0.0542  0.0964  0.4808
 4522SOL    HW125202   2.583   1.777   8.877 -0.3682  0.6377  0.7089
 4522SOL    HW225203   2.700   1.810   8.951  0.9255  2.4713  0.5605
 4523SOL     OW25204   3.227   0.640  10.936 -0.1268  0.9500  0.2796
 4523SOL    HW125205   3.226   0.664  10.843  2.5569 -1.8848 -0.4980
 4523SOL    HW225206   3.151   0.582  10.944  0.7265 -0.1762  0.1588
 4524SOL     OW25207   3.330   2.195   6.033  0.6799  0.0707 -0.6619
 4524SOL    HW125208   3.245   2.215   5.994  0.7083  0.1234 -0.6962
 4524SOL    HW225209   3.386   2.267   6.007  1.9865 -0.5384  0.4595
 4525SOL     OW25210   2.907   0.839  11.698 -0.4917 -0.0716 -0.8024
 4525SOL    HW125211   2.886   0.807  11.610 -0.5660 -1.3695 -0.3159
 4525SOL    HW225212   2.846   0.789  11.752 -0.3499  2.5677  1.7914
 4526SOL     OW25213   3.410   2.598  11.023 -0.3493 -0.3657  0.0554
 4526SOL    HW125214   3.496   2.635  11.006  1.0835 -3.5206  0.3734
 4526SOL    HW225215   3.377   2.639  11.103 -0.7987  1.1057 -0.8955
 4527SOL     OW25216   3.163   4.121   8.797  0.1695  0.1288  0.1522
 4527SOL    HW125217   3.189   4.205   8.834  0.1238  0.2487 -0.0914
 4527SOL    HW225218   3.221   4.119   8.721  1.0594 -1.4467  0.8703
 4528SOL     OW25219   0.741   0.074   7.053  0.0839 -0.4410 -0.2692
 4528SOL    HW125220   0.663   0.029   7.021 -0.0210  0.4297 -1.2330
 4528SOL    HW225221   0.763   0.026   7.133 -0.8099  1.1364  0.9342
 4529SOL     OW25222   1.825   0.310   0.013  0.1329 -0.0222  0.9185
 4529SOL    HW125223   1.889   0.258  17.709 -2.1205 -1.8289 -0.1255
 4529SOL    HW225224   1.857   0.397  17.735 -1.1479  0.3676  0.6017
 4530SOL     OW25225   2.823   1.097   5.136 -0.1382  0.5110 -0.6639
 4530SOL    HW125226   2.890   1.128   5.197 -2.2000  1.1199  1.2755
 4530SOL    HW225227   2.874   1.066   5.061 -1.0321  0.5590 -1.2890
 4531SOL     OW25228   0.539   0.156   5.301  0.1179  0.4164 -0.1277
 4531SOL    HW125229   0.578   0.240   5.278  2.0421 -1.1278 -2.4695
 4531SOL    HW225230   0.476   0.185   5.367 -0.4392  0.7880 -0.8349
 4532SOL     OW25231   1.996   0.274   9.064 -0.0097 -0.0180  0.4647
 4532SOL    HW125232   2.043   0.272   9.148 -1.0814  1.3535  1.0935
 4532SOL    HW225233   1.936   0.200   9.072 -1.5561  0.9799 -1.9218
 4533SOL     OW25234   2.202   3.753   6.448  0.3319 -0.1247 -0.6297
 4533SOL    HW125235   2.266   3.824   6.450 -0.5959  0.7591 -2.7756
 4533SOL    HW225236   2.152   3.778   6.371 -0.6695 -0.9809 -0.2641
 4534SOL     OW25237   2.158   3.481  10.503  0.2968  0.0890  0.4512
 4534SOL    HW125238   2.191   3.414  10.562  0.8921 -0.3409 -0.3603
 4534SOL    HW225239   2.168   3.553  10.565 -0.5639  1.5129 -1.0757
 4535SOL     OW25240   0.300   0.126   6.668  0.4275 -0.3619  0.4341
 4535SOL    HW125241   0.389   0.092   6.677  0.0041 -0.8964  2.4290
 4535SOL    HW225242   0.259   0.118   6.754 -0.4502  1.7526  0.2107
 4536SOL     OW25243   1.686   4.646   6.289 -0.7750  0.7426 -0.1315
 4536SOL    HW125244   1.658   4.735   6.272  0.3076  1.0839 -0.1712
 4536SOL    HW225245   1.610   4.605   6.329  0.9192 -3.1465 -0.8287
 4537SOL     OW25246   1.146   1.472   5.921 -0.1349  0.7506 -0.1725
 4537SOL    HW125247   1.241   1.471   5.910 -0.1715 -1.6425 -0.3169
 4537SOL    HW225248   1.128   1.407   5.989  1.6672 -0.0502 -0.4402
 4538SOL     OW25249   1.136   2.994  10.789  0.1229 -0.2033  0.3216
 4538SOL    HW125250   1.212   2.994  10.732  1.4974 -0.0553  2.1429
 4538SOL    HW225251   1.145   2.908  10.829  0.6082 -0.5619 -0.5790
 4539SOL     OW25252   4.681   2.779  13.668 -0.7142  0.0299  0.0002
 4539SOL    HW125253   0.040   2.780  13.670 -0.7068 -1.4030  0.3534
 4539SOL    HW225254   4.664   2.717  13.597  0.1753 -1.9239  1.4969
 4540SOL     OW25255   3.098   0.540   3.747 -0.4972  0.0745  0.5033
 4540SOL    HW125256   3.173   0.595   3.768  2.3771 -3.7514  0.2195
 4540SOL    HW225257   3.101   0.539   3.651  1.2896  1.1583  0.5526
 4541SOL     OW25258   0.458   2.277   5.559  0.4522  0.0134  0.0682
 4541SOL    HW125259   0.471   2.202   5.616 -0.5269  0.3947  0.7851
 4541SOL    HW225260   0.549   2.299   5.540  0.2053 -1.2917 -2.7056
 4542SOL     OW25261   0.539   1.044  11.384  0.7477  0.0074  0.2087
 4542SOL    HW125262   0.549   1.031  11.290 -1.5732  1.5628 -0.2656
 4542SOL    HW225263   0.494   1.129  11.385  0.7891  0.0285  0.3091
 4543SOL     OW25264   2.484   0.504   8.626  0.1000  0.3258  0.0564
 4543SOL    HW125265   2.546   0.486   8.696 -0.3920 -0.5697  0.2530
 4543SOL    HW225266   2.447   0.421   8.598 -1.5733  1.3880 -0.9082
 4544SOL     OW25267   1.927   1.490   4.173  0.4390  0.0742  0.8589
 4544SOL    HW125268   1.935   1.432   4.249 -0.4314 -0.0327  0.8644
 4544SOL    HW225269   1.834   1.510   4.162  0.2553 -1.3533 -0.2414
 4545SOL     OW25270   1.138   1.018   4.877  0.2835 -0.2595 -0.5288
 4545SOL    HW125271   1.189   1.091   4.911  0.5660 -0.6059 -0.2008
 4545SOL    HW225272   1.049   1.052   4.876  0.1074 -0.6399  2.6151
 4546SOL     OW25273   0.538   0.399   9.077 -0.0981 -0.3019 -0.3705
 4546SOL    HW125274   0.465   0.387   9.138 -0.5515  2.0079 -0.4317
 4546SOL    HW225275   0.612   0.356   9.121  1.6280  0.9905 -2.0114
 4547SOL     OW25276   2.294   2.635   6.186  0.0928  0.3416  0.0612
 4547SOL    HW125277   2.371   2.661   6.236  0.5994  0.7455 -0.9286
 4547SOL    HW225278   2.228   2.700   6.212  0.1140  1.6105 -3.0520
 4548SOL     OW25279   0.563   3.655   2.632  0.5843  0.0651 -0.3089
 4548SOL    HW125280   0.595   3.606   2.557 -0.5388  0.1205 -0.8257
 4548SOL    HW225281   0.494   3.708   2.592  1.5093  2.8146  1.7731
 4549SOL     OW25282   4.340   2.781   6.579  0.6584  0.2491 -0.0659
 4549SOL    HW125283   4.297   2.819   6.656 -2.6215  1.8212 -2.6690
 4549SOL    HW225284   4.282   2.807   6.507  2.2159  1.7679 -0.7680
 4550SOL     OW25285   2.968   4.178   6.894 -0.0545 -0.4620  0.0634
 4550SOL    HW125286   2.941   4.241   6.829 -0.2942  0.4102  1.0101
 4550SOL    HW225287   2.912   4.103   6.871  1.2357 -0.2407 -3.7912
 4551SOL     OW25288   3.909   2.084   2.155  0.2413  0.1978 -0.2467
 4551SOL    HW125289   3.891   2.066   2.063 -2.7464  1.1139  0.1464
 4551SOL    HW225290   3.822   2.119   2.173 -0.5560 -2.3102  0.7197
 4552SOL     OW25291   1.620   4.511  14.091  0.3382  0.4772  0.4929
 4552SOL    HW125292   1.663   4.589  14.054 -1.2182  2.0402  1.9816
 4552SOL    HW225293   1.669   4.446  14.041  0.5045 -0.2271  1.5628
 4553SOL     OW25294   3.866   2.816  16.823 -0.2048 -0.1289 -0.5978
 4553SOL    HW125295   3.772   2.799  16.828 -0.4599  1.3152 -0.4162
 4553SOL    HW225296   3.891   2.803  16.914 -1.4851 -1.0521 -0.3791
 4554SOL     OW25297   2.854   1.177   1.650 -0.3140  0.1622 -0.1010
 4554SOL    HW125298   2.821   1.260   1.615 -1.4293 -0.9777 -1.7694
 4554SOL    HW225299   2.853   1.201   1.742  0.3771  0.4374 -0.1640
 4555SOL     OW25300   3.795   2.306  14.872  0.3532 -0.3751  0.1764
 4555SOL    HW125301   3.742   2.311  14.792 -0.7383  0.8398  0.9683
 4555SOL    HW225302   3.727   2.276  14.933 -0.1251  0.6759  0.1554
 4556SOL     OW25303   1.012   2.349  11.481  0.2402  0.4092  0.1606
 4556SOL    HW125304   0.999   2.418  11.546  0.0922  0.9247 -0.4126
 4556SOL    HW225305   1.098   2.310  11.497  0.4151  0.1581 -1.3468
 4557SOL     OW25306   3.992   3.410   8.510  0.0519  0.8467  0.5941
 4557SOL    HW125307   4.067   3.447   8.463 -1.3971  0.6799 -1.8876
 4557SOL    HW225308   3.979   3.478   8.575  0.0837  0.5637  0.8934
 4558SOL     OW25309   1.996   1.013  14.588  0.3701  0.6175  0.4437
 4558SOL    HW125310   1.911   0.994  14.629 -0.1478  0.1363 -0.8542
 4558SOL    HW225311   2.046   1.060  14.654 -1.0969  1.8406  0.6857
 4559SOL     OW25312   4.076   0.476   6.769 -0.7740 -0.1037 -0.0776
 4559SOL    HW125313   4.127   0.548   6.732 -1.5042 -0.6938 -2.2271
 4559SOL    HW225314   4.101   0.491   6.860  0.8796 -2.7815 -0.1016
 4560SOL     OW25315   2.857   4.107   9.168 -0.0173 -0.1726  0.3077
 4560SOL    HW125316   2.797   4.144   9.233  0.6939  1.9331 -0.2629
 4560SOL    HW225317   2.929   4.169   9.181  0.1325 -0.5388  1.2683
 4561SOL     OW25318   4.653   1.489   2.257  0.0934  0.8664  0.4193
 4561SOL    HW125319   4.673   1.433   2.332  0.5160  1.0156  0.4179
 4561SOL    HW225320   4.563   1.472   2.283  0.1255  0.4355  0.2429
 4562SOL     OW25321   0.781   2.160   5.179 -0.6755  0.1168 -0.4789
 4562SOL    HW125322   0.875   2.145   5.182 -0.5644  0.6492 -1.4120
 4562SOL    HW225323   0.774   2.255   5.175  0.5296  0.2267  0.3065
 4563SOL     OW25324   1.483   3.877  15.939 -0.7674  0.0587  0.2999
 4563SOL    HW125325   1.483   3.914  16.027  2.8242  2.5150 -0.7611
 4563SOL    HW225326   1.494   3.955  15.885 -0.2251 -0.6460 -0.6096
 4564SOL     OW25327   1.923   0.311   1.609  0.3828  0.4327  0.0372
 4564SOL    HW125328   1.890   0.343   1.693 -2.2555 -3.4243  0.4325
 4564SOL    HW225329   1.890   0.221   1.609  1.1325  0.1543 -0.3396
 4565SOL     OW25330   4.108   4.704   5.499 -0.6302 -0.4093  0.5372
 4565SOL    HW125331   4.149   0.053   5.506 -1.3196 -0.0953  0.7415
 4565SOL    HW225332   4.164   4.663   5.565 -0.8548 -0.9116  0.4219
 4566SOL     OW25333   1.451   0.442   6.565 -0.4626 -0.0171 -0.2195
 4566SOL    HW125334   1.431   0.431   6.658 -1.8909  0.9294 -0.4081
 4566SOL    HW225335   1.480   0.354   6.541 -2.4294  0.1734 -3.3203
 4567SOL     OW25336   2.388   2.296   7.142  0.4035 -0.3980 -0.4950
 4567SOL    HW125337   2.430   2.210   7.135 -0.0242 -0.4941 -1.9592
 4567SOL    HW225338   2.461   2.353   7.117 -1.5541  2.1798 -0.3801
 4568SOL     OW25339   2.701   2.448   5.187  0.0704  0.3198 -0.3816
 4568SOL    HW125340   2.700   2.494   5.103  1.2641  2.6497  0.8881
 4568SOL    HW225341   2.748   2.370   5.158 -0.8113 -0.3438 -0.0282
 4569SOL     OW25342   2.693   0.558  17.486  0.7639  0.4918  0.1069
 4569SOL    HW125343   2.740   0.507  17.552 -0.2704 -2.5544 -1.5229
 4569SOL    HW225344   2.762   0.576  17.422 -0.3614  1.1850 -0.8872
 4570SOL     OW25345   1.702   0.188  12.642  0.3450  0.0548  0.3221
 4570SOL    HW125346   1.732   0.247  12.572  2.4896 -1.7045 -0.2621
 4570SOL    HW225347   1.613   0.170  12.614 -0.4763  3.7169  0.6105
 4571SOL     OW25348   0.045   4.720   1.607 -0.0450  0.2781 -0.2942
 4571SOL    HW125349   0.094   0.064   1.624 -1.2710  1.0239 -0.3029
 4571SOL    HW225350   0.022   4.688   1.695 -0.4108  1.8551  0.1805
 4572SOL     OW25351   1.026   4.015   7.693  0.1715 -0.8858  0.0579
 4572SOL    HW125352   0.982   3.933   7.714 -1.4573 -0.7168 -2.6679
 4572SOL    HW225353   0.964   4.073   7.648  0.5203  0.3938  1.2472
 4573SOL     OW25354   1.659   2.419   4.196 -0.1623  0.1434  0.3678
 4573SOL    HW125355   1.742   2.379   4.220 -0.2542 -0.2245  0.0724
 4573SOL    HW225356   1.627   2.348   4.141 -1.4152 -0.4412  1.8420
 4574SOL     OW25357   2.971   2.592   7.814 -0.1989  0.4065  0.0115
 4574SOL    HW125358   2.979   2.655   7.742  2.3517  0.6148  0.4835
 4574SOL    HW225359   2.992   2.513   7.764 -0.1353  1.2644 -1.3288
 4575SOL     OW25360   3.246   0.949  14.735  0.1455  0.8410 -0.0440
 4575SOL    HW125361   3.198   0.898  14.801 -1.8129  0.2259 -1.9414
 4575SOL    HW225362   3.259   1.028  14.788 -0.5701  0.5589  0.5474
 4576SOL     OW25363   2.919   3.348   0.027  0.2881 -0.1419  0.5225
 4576SOL    HW125364   2.988   3.365  17.707  0.0020 -1.5729 -0.1568
 4576SOL    HW225365   2.959   3.283   0.085 -0.2778  0.0838  1.1619
 4577SOL     OW25366   3.594   0.796  13.774 -0.4338  0.4790  0.2380
 4577SOL    HW125367   3.643   0.796  13.692 -2.6635  1.0967 -1.1021
 4577SOL    HW225368   3.628   0.870  13.825 -0.7941  0.9202 -0.1605
 4578SOL     OW25369   4.238   3.478   2.306  0.4357 -0.0945 -1.0832
 4578SOL    HW125370   4.234   3.384   2.286  0.4579  0.0665 -1.8654
 4578SOL    HW225371   4.302   3.492   2.376 -2.5295 -0.0170  1.5880
 4579SOL     OW25372   2.330   3.050   9.248 -0.1020 -0.2614  0.4569
 4579SOL    HW125373   2.393   3.120   9.263 -0.3915  0.6333 -2.6805
 4579SOL    HW225374   2.346   2.988   9.319  1.2898  1.1057  1.3330
 4580SOL     OW25375   0.954   3.160  10.923  0.2885  0.5317 -0.0529
 4580SOL    HW125376   1.026   3.123  10.872  1.4273  0.1977  1.7932
 4580SOL    HW225377   0.877   3.104  10.919  0.6832 -0.1736  2.1583
 4581SOL     OW25378   0.358   1.901   9.245  0.0393 -0.3326  0.2192
 4581SOL    HW125379   0.300   1.941   9.310 -1.2655 -0.0305 -1.1472
 4581SOL    HW225380   0.301   1.842   9.197  0.3648 -1.5733  1.3440
 4582SOL     OW25381   2.081   2.114   7.924 -0.1750 -0.1621  0.0984
 4582SOL    HW125382   2.079   2.097   8.019  1.1902 -0.4075  0.0820
 4582SOL    HW225383   1.988   2.095   7.916  0.1187 -1.6290  0.0923
 4583SOL     OW25384   3.838   1.979   7.010 -0.1034 -0.8978 -1.1609
 4583SOL    HW125385   3.849   2.053   7.070  3.9424 -0.5641 -2.3203
 4583SOL    HW225386   3.894   1.916   7.055 -0.3621  0.9230  1.6685
 4584SOL     OW25387   0.534   1.930   2.112  0.1633 -0.8729 -0.1056
 4584SOL    HW125388   0.529   2.021   2.142 -0.0998 -0.5835 -1.0221
 4584SOL    HW225389   0.566   1.948   2.023 -1.4721 -1.6293 -0.8440
 4585SOL     OW25390   1.535   3.923   5.965  0.2627  0.0923 -0.4114
 4585SOL    HW125391   1.484   3.858   6.013  1.3963  0.2731  1.0355
 4585SOL    HW225392   1.503   4.001   6.009 -2.4859 -1.6454  0.6477
 4586SOL     OW25393   0.617   2.673   2.625  0.5612 -0.0638  0.3365
 4586SOL    HW125394   0.558   2.599   2.607 -0.5059  0.8623 -0.0170
 4586SOL    HW225395   0.554   2.744   2.611  0.2235 -0.0067  2.0437
 4587SOL     OW25396   0.018   1.732   6.559  0.0587  0.0222  0.1690
 4587SOL    HW125397   0.104   1.707   6.525 -0.4900 -0.3500 -0.9510
 4587SOL    HW225398   0.038   1.788   6.634  2.4144 -1.2541  0.4693
 4588SOL     OW25399   4.343   4.423   5.278 -0.0814  0.1414  0.3281
 4588SOL    HW125400   4.407   4.353   5.277  0.7709  0.8883  2.1844
 4588SOL    HW225401   4.394   4.486   5.226  2.2443 -3.1008 -1.3399
 4589SOL     OW25402   4.721   0.173   9.183 -0.2828 -1.0575 -0.3545
 4589SOL    HW125403   4.678   0.096   9.220  0.9908  0.7889  5.0257
 4589SOL    HW225404   0.009   0.147   9.094  0.4004 -2.3164  0.2002
 4590SOL     OW25405   2.369   2.421  16.632  0.2995 -0.1950  0.0936
 4590SOL    HW125406   2.352   2.479  16.706 -3.4659 -1.1973  0.0190
 4590SOL    HW225407   2.432   2.357  16.665  2.0669  0.4291 -2.0702
 4591SOL     OW25408   1.374   4.667   8.608 -0.4062 -0.0560 -0.0950
 4591SOL    HW125409   1.459   4.659   8.650 -0.7209 -0.2270  0.5065
 4591SOL    HW225410   1.328   4.593   8.648 -1.9627  1.9160  1.7822
 4592SOL     OW25411   1.280   3.895   7.196  0.4103  0.2556 -0.1955
 4592SOL    HW125412   1.373   3.876   7.207  0.4582  0.3834 -0.3812
 4592SOL    HW225413   1.255   3.930   7.282  0.1249 -1.1284  0.2733
 4593SOL     OW25414   1.887   0.139   8.440  0.0511  0.0461 -0.2491
 4593SOL    HW125415   1.915   0.132   8.532  1.8896 -0.8613 -0.8910
 4593SOL    HW225416   1.973   0.131   8.399 -0.0310 -0.8358 -0.2509
 4594SOL     OW25417   3.674   2.895   9.676  0.0897 -0.4932  0.5780
 4594SOL    HW125418   3.730   2.817   9.678 -1.3208 -1.5831 -2.4375
 4594SOL    HW225419   3.735   2.963   9.648  0.8759 -1.4878 -0.1496
 4595SOL     OW25420   2.323   4.112   2.099 -0.4249  0.2795  0.2701
 4595SOL    HW125421   2.303   4.088   2.009 -1.1315  2.6976 -0.2276
 4595SOL    HW225422   2.418   4.127   2.092 -0.0960 -1.4201  1.2301
 4596SOL     OW25423   3.258   0.314   4.528 -0.0882  0.4760 -0.0448
 4596SOL    HW125424   3.226   0.404   4.531  0.9641  0.8078  1.3109
 4596SOL    HW225425   3.256   0.281   4.618  0.6462 -0.7617 -0.4819
 4597SOL     OW25426   0.184   3.749   5.255  0.2474 -0.3021 -0.1068
 4597SOL    HW125427   0.217   3.762   5.343  0.9945 -0.1610 -0.4110
 4597SOL    HW225428   0.169   3.655   5.247 -0.1533 -0.2456 -0.0073
 4598SOL     OW25429   4.686   2.252   6.209  0.0940 -0.2587  0.3147
 4598SOL    HW125430   4.618   2.320   6.209 -0.1344 -0.5026 -1.6885
 4598SOL    HW225431   0.004   2.284   6.138 -2.5848  1.0254 -1.1784
 4599SOL     OW25432   3.187   2.891   4.470  0.3030 -0.2837 -0.2297
 4599SOL    HW125433   3.137   2.870   4.548 -0.0144 -1.8378 -0.8453
 4599SOL    HW225434   3.209   2.981   4.493 -0.5373 -0.6774  2.1292
 4600SOL     OW25435   4.134   0.552   2.867  0.7886 -0.2456  0.0643
 4600SOL    HW125436   4.129   0.618   2.936 -1.5915 -0.1683 -0.1520
 4600SOL    HW225437   4.213   0.573   2.818 -0.1420  0.4288 -1.1765
 4601SOL     OW25438   4.687   0.425  11.277  0.0133  0.4189  0.5320
 4601SOL    HW125439   4.676   0.358  11.343  0.5884 -1.1687 -0.9774
 4601SOL    HW225440   4.595   0.426  11.249 -0.2300  0.4661  1.3533
 4602SOL     OW25441   2.652   1.953   1.582 -0.1379  0.0296  0.2264
 4602SOL    HW125442   2.618   1.884   1.524  0.8098  0.6224 -1.0190
 4602SOL    HW225443   2.691   1.897   1.649  0.7137 -0.1889 -0.4673
 4603SOL     OW25444   0.351   1.425   8.517  0.1626  0.4448 -0.3474
 4603SOL    HW125445   0.345   1.352   8.455 -0.5701 -0.6108  0.9668
 4603SOL    HW225446   0.286   1.481   8.473  0.3401 -0.8759 -2.3387
 4604SOL     OW25447   3.647   4.506   3.443 -0.1324 -0.3641  0.3032
 4604SOL    HW125448   3.685   4.456   3.370  2.8283 -0.6040  2.0087
 4604SOL    HW225449   3.566   4.460   3.460 -0.3648 -0.5076 -1.1402
 4605SOL     OW25450   0.597   0.129   2.518  0.2742  0.0491 -0.0557
 4605SOL    HW125451   0.675   0.115   2.463 -1.3653 -0.9480 -2.1270
 4605SOL    HW225452   0.546   0.167   2.446  2.4161 -0.3132 -1.7786
 4606SOL     OW25453   0.725   3.589   6.722 -1.1466  0.9555 -0.2986
 4606SOL    HW125454   0.701   3.540   6.800  2.2571  0.4054  0.3703
 4606SOL    HW225455   0.725   3.514   6.662 -1.4995 -0.1617  1.1085
 4607SOL     OW25456   2.804   4.496   2.884  0.2073  0.4447 -0.0426
 4607SOL    HW125457   2.815   4.417   2.937  2.3918  1.0576  0.4307
 4607SOL    HW225458   2.797   4.456   2.798 -0.1263  3.0771 -1.2336
 4608SOL     OW25459   1.436   1.639   2.882  0.4234  0.3870  0.1682
 4608SOL    HW125460   1.489   1.580   2.936  0.0224 -0.1356 -0.0085
 4608SOL    HW225461   1.444   1.719   2.932  0.4974 -0.1287  0.9800
 4609SOL     OW25462   1.454   3.470   4.758  0.5310  0.3130 -0.0344
 4609SOL    HW125463   1.496   3.387   4.737 -1.5604 -0.9923  0.8818
 4609SOL    HW225464   1.529   3.529   4.758  0.0437  0.9365 -0.4836
 4610SOL     OW25465   2.985   0.601  17.291  0.3331  0.1417 -0.0286
 4610SOL    HW125466   2.963   0.517  17.250 -0.2629  1.8507 -3.1621
 4610SOL    HW225467   3.080   0.596  17.297  0.4284  0.6233 -1.1449
 4611SOL     OW25468   3.493   4.734  14.453 -0.1815 -0.1568 -0.0477
 4611SOL    HW125469   3.557   0.002  14.524 -1.4105  0.1393  1.0445
 4611SOL    HW225470   3.535   0.047  14.383 -0.5232 -0.3276 -0.3753
 4612SOL     OW25471   2.992   1.733   3.509 -0.2614 -0.0667  0.6882
 4612SOL    HW125472   2.950   1.757   3.427  0.6835  0.8556  0.4913
 4612SOL    HW225473   2.916   1.698   3.557 -0.3612 -1.4305 -0.4516
 4613SOL     OW25474   3.216   1.451   7.826 -0.6190 -0.5084 -0.5269
 4613SOL    HW125475   3.129   1.466   7.789 -0.0168  0.8573 -1.3803
 4613SOL    HW225476   3.207   1.497   7.909 -0.5016 -0.9403 -0.2744
 4614SOL     OW25477   0.470   2.833   4.015  0.2409 -0.1788 -0.0063
 4614SOL    HW125478   0.524   2.896   3.967 -0.6015  0.2741 -0.3578
 4614SOL    HW225479   0.430   2.879   4.088  2.4116  1.9510 -0.1626
 4615SOL     OW25480   0.799   2.200   3.600 -0.4774  0.0487  0.3546
 4615SOL    HW125481   0.736   2.250   3.548  2.3466  1.2588 -1.8941
 4615SOL    HW225482   0.746   2.131   3.639 -0.9741 -0.3430 -1.0247
 4616SOL     OW25483   3.782   3.675  11.412 -0.1538  0.2964  0.2170
 4616SOL    HW125484   3.873   3.647  11.406  0.3414  1.7317  0.9418
 4616SOL    HW225485   3.746   3.654  11.325  1.0105  0.0204 -0.1948
 4617SOL     OW25486   3.565   1.456  13.449  0.5544  0.0862 -0.0498
 4617SOL    HW125487   3.631   1.389  13.429  1.7750  1.5023 -0.7953
 4617SOL    HW225488   3.607   1.534  13.412  1.8312  0.0481  1.3164
 4618SOL     OW25489   0.782   3.401  11.943  0.1983  0.0994  0.1245
 4618SOL    HW125490   0.717   3.344  11.984  0.7560  1.3904  2.7891
 4618SOL    HW225491   0.756   3.405  11.851 -1.9296  0.8943  0.7480
 4619SOL     OW25492   2.226   4.069  10.885  0.7662 -0.3655 -0.4752
 4619SOL    HW125493   2.188   4.114  10.810 -1.4319  0.3310  1.0786
 4619SOL    HW225494   2.293   4.016  10.840  0.6495 -1.1292  0.2574
 4620SOL     OW25495   4.535   1.489   8.075  0.7185 -0.6906 -0.0006
 4620SOL    HW125496   4.612   1.434   8.088  0.7924 -0.3895  0.8144
 4620SOL    HW225497   4.570   1.578   8.067  2.1284 -1.4193 -2.0437
 4621SOL     OW25498   2.377   4.567  13.752  0.0151 -0.2878 -0.0594
 4621SOL    HW125499   2.424   4.650  13.745 -1.6567  0.5559 -1.2135
 4621SOL    HW225500   2.385   4.541  13.661 -2.0599 -2.0264  0.2607
 4622SOL     OW25501   2.459   2.005   2.091 -0.3775  0.6483  0.0759
 4622SOL    HW125502   2.388   2.067   2.107  0.5699  1.7018  0.2130
 4622SOL    HW225503   2.447   2.001   1.996 -0.4616 -0.9454  0.1469
 4623SOL     OW25504   2.987   2.967   6.917 -0.0002 -0.3783  0.4077
 4623SOL    HW125505   2.989   3.038   6.981  2.0621  0.2149 -0.3163
 4623SOL    HW225506   2.956   2.893   6.970  0.7986 -0.7050  0.4184
 4624SOL     OW25507   0.106   1.154   1.331 -0.4740 -0.2454 -0.0051
 4624SOL    HW125508   0.012   1.138   1.344 -0.8410  1.9042  0.0226
 4624SOL    HW225509   0.141   1.071   1.362  0.5646  0.2350  0.1048
 4625SOL     OW25510   3.441   0.477  11.617  0.0349 -0.1726 -0.0610
 4625SOL    HW125511   3.400   0.562  11.602  1.0574  0.1978 -0.7078
 4625SOL    HW225512   3.466   0.490  11.709  0.3802  0.2486 -0.2190
 4626SOL     OW25513   0.615   3.671   0.583  0.0155 -0.0837  0.2888
 4626SOL    HW125514   0.603   3.576   0.582 -2.1376  0.1913  0.9466
 4626SOL    HW225515   0.608   3.691   0.490  0.2274  0.7235  0.4483
 4627SOL     OW25516   0.644   1.016   7.869  0.1398 -0.1878 -0.0186
 4627SOL    HW125517   0.615   0.973   7.949 -0.8565  1.6598  0.5977
 4627SOL    HW225518   0.581   1.088   7.869 -0.8419 -1.0737  4.7719
 4628SOL     OW25519   1.912   2.720   8.003 -0.2050  0.0188 -0.0011
 4628SOL    HW125520   1.909   2.807   8.044 -0.9974 -0.2840  0.5838
 4628SOL    HW225521   1.985   2.732   7.941  0.1460 -0.3675  0.3387
 4629SOL     OW25522   3.231   3.392   6.145 -0.4223 -0.3150 -0.1518
 4629SOL    HW125523   3.265   3.475   6.178 -1.3944  0.9500 -2.3769
 4629SOL    HW225524   3.140   3.408   6.122 -0.6837  1.3150  2.0387
 4630SOL     OW25525   1.891   4.373  11.336 -0.0995 -0.4773  0.2585
 4630SOL    HW125526   1.848   4.360  11.252 -0.0495  2.1094 -0.1405
 4630SOL    HW225527   1.850   4.312  11.398 -1.3259 -0.9530 -1.0366
 4631SOL     OW25528   2.692   2.303   2.070 -0.2205  0.3412 -0.0412
 4631SOL    HW125529   2.689   2.217   2.027 -2.2317  0.5519 -0.3210
 4631SOL    HW225530   2.617   2.354   2.039 -2.5900 -2.2125  1.4629
 4632SOL     OW25531   4.010   4.544   6.317 -0.0909 -0.6619 -0.2081
 4632SOL    HW125532   3.928   4.580   6.349  0.6120 -2.0410  3.1832
 4632SOL    HW225533   3.999   4.562   6.224 -1.3704 -0.5208 -0.0227
 4633SOL     OW25534   2.264   2.957  12.445 -0.4928 -0.4445 -0.0359
 4633SOL    HW125535   2.252   2.873  12.401  0.1668  0.1384 -1.3132
 4633SOL    HW225536   2.229   3.020  12.381  2.8240  0.1356 -1.2616
 4634SOL     OW25537   0.463   1.289   2.918  0.1543  0.1774 -0.1413
 4634SOL    HW125538   0.374   1.295   2.954 -1.4227  0.7385 -4.0584
 4634SOL    HW225539   0.481   1.196   2.922  1.8392  0.4640 -0.7967
 4635SOL     OW25540   0.446   2.138   1.114  0.1997  0.0119  0.2442
 4635SOL    HW125541   0.491   2.176   1.038 -3.0856  0.7926 -1.3489
 4635SOL    HW225542   0.504   2.174   1.180  0.5567 -0.8374  0.3881
 4636SOL     OW25543   3.468   2.232   3.022  0.2885  0.1858  0.5443
 4636SOL    HW125544   3.455   2.175   3.098 -1.3200 -1.6903 -1.1261
 4636SOL    HW225545   3.555   2.202   2.996 -0.8773 -1.4137 -1.5369
 4637SOL     OW25546   0.588   2.490   1.146 -0.2248 -0.3574 -0.3423
 4637SOL    HW125547   0.679   2.518   1.136  0.2124 -2.1242 -1.4095
 4637SOL    HW225548   0.552   2.482   1.058 -0.2881  1.1717 -0.4507
 4638SOL     OW25549   3.328   1.030   2.718  0.4427 -0.4064  0.4599
 4638SOL    HW125550   3.409   0.985   2.693  1.6498  1.9788  0.0762
 4638SOL    HW225551   3.259   0.964   2.714 -0.9854  1.1553 -0.4380
 4639SOL     OW25552   2.395   0.701   5.200  0.2806  0.0245  0.5038
 4639SOL    HW125553   2.382   0.611   5.231  0.3628 -0.2656 -0.2993
 4639SOL    HW225554   2.346   0.759   5.259 -1.3786 -0.8178 -0.0229
 4640SOL     OW25555   4.654   2.634   9.063  0.2304  0.4673 -0.5211
 4640SOL    HW125556   4.728   2.638   9.123 -0.1784 -0.9807  0.0543
 4640SOL    HW225557   4.601   2.570   9.110  1.0915  1.1086  1.3199
 4641SOL     OW25558   3.458   0.159   9.396 -0.0293 -0.3343  0.0131
 4641SOL    HW125559   3.492   0.149   9.485  0.5880 -2.9803 -0.5168
 4641SOL    HW225560   3.366   0.145   9.419  0.0901 -0.2411  0.5481
 4642SOL     OW25561   2.580   1.456   7.028 -0.2946  0.3277 -0.0830
 4642SOL    HW125562   2.610   1.525   6.969  2.1043 -1.2004 -0.6076
 4642SOL    HW225563   2.589   1.380   6.971  0.1568 -0.0129  0.4416
 4643SOL     OW25564   1.923   1.267   0.033  0.0328 -0.2178  0.2077
 4643SOL    HW125565   1.910   1.330  17.707 -0.5661 -0.8107 -0.2132
 4643SOL    HW225566   2.006   1.302   0.065  1.2650 -1.2884 -1.8122
 4644SOL     OW25567   1.787   1.474   4.552  0.3286 -0.6981  0.5495
 4644SOL    HW125568   1.752   1.409   4.491  1.3799 -1.2165  0.4953
 4644SOL    HW225569   1.816   1.421   4.627  2.4470 -0.2378  0.0486
 4645SOL     OW25570   4.583   0.901  16.080 -0.4804  0.1786  0.6041
 4645SOL    HW125571   4.535   0.973  16.121  0.0434 -0.1282  1.7319
 4645SOL    HW225572   4.661   0.900  16.135 -0.6043 -2.6646  0.7612
 4646SOL     OW25573   1.321   1.721  11.065  0.5896 -0.1392 -0.2465
 4646SOL    HW125574   1.345   1.727  10.972  0.1097 -3.8506 -0.6256
 4646SOL    HW225575   1.225   1.726  11.059  0.6521  0.7785 -0.5307
 4647SOL     OW25576   4.039   0.453   1.696  0.1765 -0.0362 -0.1801
 4647SOL    HW125577   4.109   0.516   1.716 -0.3951  0.1095  1.4085
 4647SOL    HW225578   4.072   0.383   1.752  0.4022  0.0682 -0.1789
 4648SOL     OW25579   3.352   0.138   1.531  0.1118  0.1046  0.0444
 4648SOL    HW125580   3.333   0.083   1.606 -0.8905  2.0487  1.2299
 4648SOL    HW225581   3.388   0.075   1.469 -1.1530 -0.4408 -0.1370
 4649SOL     OW25582   2.198   0.072   2.710 -0.5371  0.1069 -0.2042
 4649SOL    HW125583   2.127   0.020   2.672 -0.9176  0.3660  0.1608
 4649SOL    HW225584   2.203   0.027   2.794 -0.7773  1.8537  0.7499
 4650SOL     OW25585   2.958   3.852  14.902 -0.0128  0.0741  0.0407
 4650SOL    HW125586   2.862   3.849  14.907  0.0320  2.1604  1.8711
 4650SOL    HW225587   2.971   3.923  14.840 -2.1127 -0.6269 -1.1994
 4651SOL     OW25588   0.764   2.387   6.073  0.4207  0.1764  0.0028
 4651SOL    HW125589   0.738   2.333   5.999  0.4707 -0.0243  0.1305
 4651SOL    HW225590   0.712   2.350   6.144  0.8780 -0.0421  0.2256
 4652SOL     OW25591   1.103   3.711   4.591 -0.1949 -0.3776  0.1915
 4652SOL    HW125592   1.015   3.714   4.630 -0.2048  2.8013 -0.0771
 4652SOL    HW225593   1.156   3.679   4.664 -1.2357 -1.6645  0.3956
 4653SOL     OW25594   1.416   0.562   4.515  0.3333 -0.0857  0.6018
 4653SOL    HW125595   1.492   0.611   4.483 -0.7677  1.7868  0.8642
 4653SOL    HW225596   1.345   0.619   4.486  0.0630 -0.6770  0.0980
 4654SOL     OW25597   4.449   1.443   2.990  0.1770 -0.1773  0.0994
 4654SOL    HW125598   4.469   1.531   2.960 -0.9919 -0.8369 -2.5245
 4654SOL    HW225599   4.356   1.424   2.981 -0.2535  0.5579  2.7590
 4655SOL     OW25600   1.992   1.734  12.861  0.5211 -0.5204 -0.3823
 4655SOL    HW125601   2.000   1.642  12.885  0.0509 -0.1853  1.0557
 4655SOL    HW225602   2.082   1.758  12.882 -0.0236  1.2455 -0.0308
 4656SOL     OW25603   4.261   0.587   5.337  0.0063  0.3272  0.7714
 4656SOL    HW125604   4.203   0.510   5.330  0.1280  0.3556 -0.5593
 4656SOL    HW225605   4.346   0.549   5.314 -0.4513 -0.9392  1.1303
 4657SOL     OW25606   0.889   0.587   0.526  0.3029 -0.2583 -1.3205
 4657SOL    HW125607   0.892   0.528   0.451  0.0197  0.7345 -2.1147
 4657SOL    HW225608   0.922   0.530   0.596 -2.1987  2.0328  1.7579
 4658SOL     OW25609   1.545   3.082   6.747 -0.6059 -0.8285  0.5224
 4658SOL    HW125610   1.535   3.000   6.796 -3.3331 -1.5150 -1.1613
 4658SOL    HW225611   1.461   3.101   6.706 -0.7050 -0.0767  1.0647
 4659SOL     OW25612   3.781   1.257  10.407  0.8334  0.4810 -0.4192
 4659SOL    HW125613   3.765   1.349  10.431  3.5635  1.0021 -0.6748
 4659SOL    HW225614   3.803   1.218  10.491 -0.8390 -2.0034 -1.1302
 4660SOL     OW25615   0.348   0.817   5.647 -0.6023  0.0294 -0.2225
 4660SOL    HW125616   0.437   0.787   5.667  0.2958  2.2916 -0.7648
 4660SOL    HW225617   0.296   0.744   5.680  1.1271 -0.8304  0.5914
 4661SOL     OW25618   4.338   3.429   7.870 -0.3309  0.2648  0.4854
 4661SOL    HW125619   4.415   3.399   7.822 -1.5050 -2.7648  0.4515
 4661SOL    HW225620   4.310   3.500   7.813  0.3725  0.9416  0.9938
 4662SOL     OW25621   1.077   0.569   4.692  0.0568 -0.6512  0.2655
 4662SOL    HW125622   1.140   0.558   4.620  0.3771  0.8354  0.3160
 4662SOL    HW225623   1.107   0.650   4.734  0.0303  0.2023 -1.3330
 4663SOL     OW25624   2.362   3.161   4.622 -0.1741 -0.2759  0.2332
 4663SOL    HW125625   2.422   3.229   4.653 -0.2502  0.4982 -1.3082
 4663SOL    HW225626   2.322   3.199   4.544 -2.1956  1.3723  2.0516
 4664SOL     OW25627   1.749   3.661  17.005 -1.0283 -0.9840 -0.5544
 4664SOL    HW125628   1.697   3.647  17.084  0.1621 -0.0656  0.3867
 4664SOL    HW225629   1.681   3.692  16.945 -2.1222 -0.9409  0.7338
 4665SOL     OW25630   2.776   0.492   8.668 -0.8216 -0.6466 -0.1490
 4665SOL    HW125631   2.774   0.557   8.597 -1.1748  1.3172  1.6528
 4665SOL    HW225632   2.854   0.511   8.719  0.9554 -0.0823 -3.0576
 4666SOL     OW25633   0.645   1.859   0.901 -0.2886  0.1479 -0.2795
 4666SOL    HW125634   0.650   1.926   0.970  0.9792  1.6212 -1.8091
 4666SOL    HW225635   0.719   1.889   0.848 -1.0868  0.0931 -1.4248
 4667SOL     OW25636   1.976   3.815  11.043 -0.1124  0.0164 -0.2402
 4667SOL    HW125637   1.975   3.809  10.947 -0.1944  0.6643 -0.2793
 4667SOL    HW225638   1.968   3.910  11.045  0.0091  0.0094  0.4046
 4668SOL     OW25639   0.602   1.530  16.933  0.4056  0.0046  0.5168
 4668SOL    HW125640   0.548   1.497  17.005  0.9592  1.5279  1.6063
 4668SOL    HW225641   0.691   1.510  16.961  0.5366  1.1924  0.9226
 4669SOL     OW25642   0.908   0.684   2.813  0.3529 -0.3397 -0.4442
 4669SOL    HW125643   0.879   0.707   2.725 -3.5849  2.4922  1.5619
 4669SOL    HW225644   0.876   0.756   2.869 -2.3218 -1.4022 -0.6031
 4670SOL     OW25645   1.535   0.667  12.849 -0.2510  0.2452  0.0268
 4670SOL    HW125646   1.498   0.753  12.830 -1.0230 -0.2083 -0.5422
 4670SOL    HW225647   1.471   0.641  12.916  3.0152  0.7443  3.3192
 4671SOL     OW25648   4.423   3.125   9.951  0.1982 -0.5755 -0.0524
 4671SOL    HW125649   4.513   3.102   9.972  0.5012 -0.2900 -1.0550
 4671SOL    HW225650   4.435   3.219   9.934  0.0194 -0.4288  0.6552
 4672SOL     OW25651   1.104   3.614   3.865  0.9475 -0.2955 -0.0762
 4672SOL    HW125652   1.154   3.566   3.932  3.1601 -0.9919 -2.2435
 4672SOL    HW225653   1.107   3.545   3.800  1.4106 -1.2362  0.9455
 4673SOL     OW25654   4.402   0.489   1.636  0.0662 -0.2809  0.3160
 4673SOL    HW125655   4.442   0.576   1.636  0.6268 -0.5444 -0.4300
 4673SOL    HW225656   4.349   0.498   1.557  1.4526 -1.9359 -0.7671
 4674SOL     OW25657   0.159   0.109   9.418  0.3312  0.1244  0.2801
 4674SOL    HW125658   0.117   0.191   9.446 -1.1508 -1.6508  3.2891
 4674SOL    HW225659   0.159   0.121   9.323 -0.9740  0.9197  0.3851
 4675SOL     OW25660   3.108   4.336   7.315 -0.0026  0.9073  0.1070
 4675SOL    HW125661   3.019   4.367   7.333 -1.1627 -2.5380  0.2777
 4675SOL    HW225662   3.148   4.359   7.399 -0.4010  1.0287  0.2666
 4676SOL     OW25663   1.455   0.800   5.400  0.1542 -0.0866 -0.1908
 4676SOL    HW125664   1.543   0.763   5.413  0.0285 -1.0557 -2.1217
 4676SOL    HW225665   1.436   0.787   5.307 -0.4044 -0.4639 -0.0220
 4677SOL     OW25666   0.949   1.368   8.795 -0.7028  0.1014 -0.0478
 4677SOL    HW125667   0.912   1.357   8.883 -0.6136 -1.3756 -0.1838
 4677SOL    HW225668   0.921   1.459   8.787 -1.0622 -0.1076 -1.1323
 4678SOL     OW25669   1.307   3.033   5.494  0.0234  0.3668  0.1156
 4678SOL    HW125670   1.266   2.947   5.502  0.4508  0.1574  0.0614
 4678SOL    HW225671   1.391   3.012   5.535 -0.9568 -1.7023  1.0329
 4679SOL     OW25672   2.786   0.375   6.742 -0.0960  0.3223  0.6764
 4679SOL    HW125673   2.872   0.360   6.780  0.7463 -2.0755 -2.2066
 4679SOL    HW225674   2.739   0.299   6.776  1.0382 -0.6787  0.0206
 4680SOL     OW25675   0.066   2.538   6.185 -0.3142 -0.3537  0.0214
 4680SOL    HW125676   0.087   2.530   6.278  0.4962  0.8904 -0.0533
 4680SOL    HW225677   4.711   2.508   6.184 -0.3323 -0.2478 -2.3550
 4681SOL     OW25678   1.204   2.368   9.544  0.2087  0.1553  0.1768
 4681SOL    HW125679   1.297   2.354   9.562 -0.1435 -0.4515  1.5250
 4681SOL    HW225680   1.193   2.451   9.588  1.3746 -0.0070  0.7749
 4682SOL     OW25681   4.563   2.410   4.572  0.2620 -0.1680 -0.2782
 4682SOL    HW125682   4.497   2.412   4.641 -0.2844 -1.9501 -0.7404
 4682SOL    HW225683   4.644   2.409   4.622  1.1786 -0.0491 -1.7409
 4683SOL     OW25684   0.766   2.250   0.655  0.1394  0.3174 -0.1940
 4683SOL    HW125685   0.761   2.345   0.645  3.2859  0.6365  1.5084
 4683SOL    HW225686   0.789   2.231   0.564  2.1138  0.9081  0.1968
 4684SOL     OW25687   0.845   0.918  13.399  0.0722 -0.4260  0.2284
 4684SOL    HW125688   0.905   0.856  13.357  1.8089  2.8552 -2.1328
 4684SOL    HW225689   0.903   0.952  13.467  2.1131  2.1953 -2.8895
 4685SOL     OW25690   2.856   0.397   0.766  0.0014  0.5914 -0.5160
 4685SOL    HW125691   2.810   0.450   0.831 -0.8848 -0.2363 -0.4587
 4685SOL    HW225692   2.835   0.311   0.804 -0.1639  0.3155 -1.2458
 4686SOL     OW25693   3.279   3.463   8.205 -0.4079 -0.0721  0.2790
 4686SOL    HW125694   3.361   3.465   8.253 -0.2649 -1.0059  0.0599
 4686SOL    HW225695   3.279   3.378   8.162 -0.9707 -0.9858  2.0614
 4687SOL     OW25696   0.434   4.538   6.404  0.1140  0.2619 -0.6841
 4687SOL    HW125697   0.498   4.513   6.338  2.0530  0.2917  1.1865
 4687SOL    HW225698   0.491   4.594   6.458  0.1000 -1.0166  0.6559
 4688SOL     OW25699   3.444   0.545   1.178 -0.8293  0.6400  0.1647
 4688SOL    HW125700   3.390   0.624   1.180 -1.4456  0.2392 -0.8587
 4688SOL    HW225701   3.379   0.477   1.163 -1.1542  1.2563 -1.1879
 4689SOL     OW25702   0.324   3.939  11.560 -0.7226  0.3563 -0.0871
 4689SOL    HW125703   0.355   3.980  11.640 -1.9419  0.3048  0.4147
 4689SOL    HW225704   0.375   3.859  11.568 -1.7766 -0.3862 -0.7682
 4690SOL     OW25705   2.065   0.203  16.209 -0.0077 -0.2110 -0.2019
 4690SOL    HW125706   2.091   0.226  16.119 -0.4387 -1.0966 -0.5534
 4690SOL    HW225707   2.060   0.107  16.204 -1.8950 -0.1388  0.4737
 4691SOL     OW25708   4.535   0.169   0.425  0.7200  0.2780 -0.0694
 4691SOL    HW125709   4.505   0.212   0.505  0.4424  0.1730 -0.1151
 4691SOL    HW225710   4.596   0.105   0.463  1.6612  1.6586  0.7164
 4692SOL     OW25711   2.952   0.225   4.063 -0.2879  0.4519  0.1526
 4692SOL    HW125712   3.030   0.169   4.071 -0.8366 -0.2288  0.7752
 4692SOL    HW225713   2.951   0.244   3.970  3.1299  0.6739  0.1361
 4693SOL     OW25714   1.915   0.876   7.138 -0.7353  0.3069 -1.0669
 4693SOL    HW125715   1.985   0.934   7.109 -1.0757  1.1364 -0.2242
 4693SOL    HW225716   1.955   0.790   7.120  3.3425  2.5162 -2.4141
 4694SOL     OW25717   0.763   4.212   1.805  0.3374 -0.1828  0.4655
 4694SOL    HW125718   0.817   4.134   1.793 -0.3727 -0.9782  2.3487
 4694SOL    HW225719   0.682   4.192   1.758  0.1292 -2.1086  1.6163
 4695SOL     OW25720   3.862   2.029   3.585  0.3669 -0.0665  0.1574
 4695SOL    HW125721   3.794   2.095   3.595  1.8236  1.3419  0.7962
 4695SOL    HW225722   3.886   2.014   3.676 -0.0664 -0.6838  0.1725
 4696SOL     OW25723   3.123   4.279   6.373  0.0655  0.0140 -0.0154
 4696SOL    HW125724   3.066   4.346   6.336 -2.3989  0.0820  3.8830
 4696SOL    HW225725   3.205   4.327   6.386 -0.2362 -0.1350  2.3908
 4697SOL     OW25726   2.424   3.276   2.235  0.0924  0.5361 -0.8045
 4697SOL    HW125727   2.487   3.204   2.234 -0.1764  0.3315 -2.2692
 4697SOL    HW225728   2.350   3.229   2.273 -0.0117  1.3101 -0.0465
 4698SOL     OW25729   3.065   4.508   5.935  0.2503 -0.0613 -0.6875
 4698SOL    HW125730   3.064   4.602   5.954  0.1592 -0.4478  1.2366
 4698SOL    HW225731   3.159   4.495   5.950  0.3666  1.5638  0.0299
 4699SOL     OW25732   0.795   1.519  13.208  0.3975  0.0619 -0.2134
 4699SOL    HW125733   0.870   1.461  13.205 -0.8397 -1.5782  1.0712
 4699SOL    HW225734   0.727   1.453  13.198 -0.2284  0.8642 -1.3418
 4700SOL     OW25735   3.247   3.494   0.443  0.0840  0.0310  0.2788
 4700SOL    HW125736   3.253   3.551   0.519 -3.7483 -0.7904  1.1664
 4700SOL    HW225737   3.234   3.560   0.374  2.3283  0.7302  0.5173
 4701SOL     OW25738   4.066   2.986   5.158  0.0129  0.2181  0.4307
 4701SOL    HW125739   4.128   2.991   5.230 -1.2096 -0.7334  1.5584
 4701SOL    HW225740   4.053   2.891   5.157  2.3772 -0.0736 -0.7050
 4702SOL     OW25741   1.095   2.346  13.547 -0.1611 -0.5764 -0.3332
 4702SOL    HW125742   1.011   2.312  13.515  0.7997 -1.3820 -1.9636
 4702SOL    HW225743   1.136   2.263  13.571  0.1051 -0.9082 -1.9556
 4703SOL     OW25744   0.250   3.824   6.979  1.0493  0.3289  0.0395
 4703SOL    HW125745   0.274   3.760   7.046 -1.9016 -0.3610  0.4184
 4703SOL    HW225746   0.297   3.899   7.017  0.2924  0.9212 -0.1973
 4704SOL     OW25747   0.871   2.065   8.252  0.5705  0.1000 -0.1788
 4704SOL    HW125748   0.869   2.034   8.162  2.9476  0.9095 -0.5218
 4704SOL    HW225749   0.899   2.155   8.236  0.4300  0.2144  0.2318
 4705SOL     OW25750   4.417   0.949   5.273  0.0491  0.5924  0.0097
 4705SOL    HW125751   4.480   0.983   5.209 -0.0193 -1.5417 -1.2116
 4705SOL    HW225752   4.443   0.857   5.280  2.6479  1.3586  0.5976
 4706SOL     OW25753   4.690   2.519   1.676 -0.3217  0.4791  0.4776
 4706SOL    HW125754   0.028   2.505   1.733 -0.0597  2.2291  0.5618
 4706SOL    HW225755   4.705   2.472   1.594  1.3276 -0.0141  1.0706
 4707SOL     OW25756   2.920   1.168   3.525 -0.4058 -0.0507 -0.1031
 4707SOL    HW125757   3.000   1.116   3.524 -1.0970 -1.1583  1.9545
 4707SOL    HW225758   2.931   1.197   3.616 -2.6432  1.6019 -0.3697
 4708SOL     OW25759   0.526   3.148   9.085 -0.3097 -0.1051 -0.1990
 4708SOL    HW125760   0.537   3.140   8.990 -0.6858  0.0724 -0.2578
 4708SOL    HW225761   0.614   3.172   9.114 -0.1763 -2.9404  1.7537
 4709SOL     OW25762   0.158   0.085   6.046 -0.0084  0.2332  0.3400
 4709SOL    HW125763   0.227   0.020   6.032 -0.0087 -0.2317  2.5015
 4709SOL    HW225764   0.098   0.022   6.086 -1.2488  1.9331  1.1297
 4710SOL     OW25765   4.536   0.904   6.830 -0.1928  0.5407 -0.3524
 4710SOL    HW125766   4.624   0.874   6.809 -0.1641  0.8381 -0.6606
 4710SOL    HW225767   4.512   0.938   6.744  0.0564  0.7103 -0.3531
 4711SOL     OW25768   1.943   1.860   1.599 -0.2035  0.3817 -0.0139
 4711SOL    HW125769   1.978   1.773   1.616  1.0613  0.2428 -3.2805
 4711SOL    HW225770   1.867   1.867   1.657  0.2949 -0.4451  0.7228
 4712SOL     OW25771   1.454   2.301   2.791 -0.2759 -0.2655 -1.0029
 4712SOL    HW125772   1.370   2.297   2.837 -0.6477  1.6882 -1.5093
 4712SOL    HW225773   1.420   2.340   2.710 -2.1963 -0.5807 -0.3437
 4713SOL     OW25774   1.825   3.978   8.466 -0.3918  0.4503 -0.3988
 4713SOL    HW125775   1.860   3.950   8.382 -0.4105  1.0876 -0.6210
 4713SOL    HW225776   1.815   4.071   8.444  0.0775  0.7559  0.6631
 4714SOL     OW25777   1.289   2.326   6.652 -0.0317  0.6332 -0.6092
 4714SOL    HW125778   1.204   2.290   6.676  0.5484 -0.3740 -0.0854
 4714SOL    HW225779   1.343   2.248   6.638 -1.0892 -0.0840 -0.6789
 4715SOL     OW25780   2.995   0.877  15.337  0.1039 -0.2093 -0.9508
 4715SOL    HW125781   3.031   0.934  15.269 -0.8820 -0.8727 -2.0277
 4715SOL    HW225782   2.941   0.935  15.390 -0.1964 -0.1766 -1.2927
 4716SOL     OW25783   0.165   0.033   7.793 -0.4831 -0.4367  0.0224
 4716SOL    HW125784   0.215   0.073   7.864 -0.0870  0.7864 -0.9449
 4716SOL    HW225785   0.195   4.679   7.791 -1.9990 -0.9527  0.3566
 4717SOL     OW25786   3.261   0.471   3.253 -0.0733 -0.3558  0.1575
 4717SOL    HW125787   3.259   0.375   3.253 -0.7790 -0.3466  2.2646
 4717SOL    HW225788   3.341   0.494   3.205 -0.3577  0.3710  0.0352
 4718SOL     OW25789   3.459   1.669   2.674  0.1215  0.1628 -0.1460
 4718SOL    HW125790   3.548   1.645   2.697 -0.2182  0.8094  1.8550
 4718SOL    HW225791   3.403   1.621   2.735 -1.7157  1.4906 -0.7679
 4719SOL     OW25792   4.042   0.117   3.286 -0.0342 -0.3523 -0.0860
 4719SOL    HW125793   4.069   0.027   3.268 -0.4093  0.0037 -2.4506
 4719SOL    HW225794   4.095   0.173   3.229  1.3985 -2.3604 -0.7170
 4720SOL     OW25795   3.003   4.259   2.365 -0.0302 -0.4176  0.1248
 4720SOL    HW125796   3.021   4.166   2.376 -1.1808 -0.4949  1.4312
 4720SOL    HW225797   3.066   4.290   2.301  0.8368  0.6489  1.4882
 4721SOL     OW25798   2.739   2.482   7.627  0.2194  0.4131  0.7027
 4721SOL    HW125799   2.668   2.522   7.677  1.5777  1.7361  1.5578
 4721SOL    HW225800   2.709   2.393   7.607  2.2259 -0.3746  1.2753
 4722SOL     OW25801   3.722   3.467  14.561 -0.5303  0.4418 -0.0851
 4722SOL    HW125802   3.686   3.391  14.516 -2.8519  1.3629  0.1850
 4722SOL    HW225803   3.814   3.443  14.552 -0.5840  0.1013  0.2538
 4723SOL     OW25804   4.526   2.938   7.695 -0.3149  0.2499 -0.5078
 4723SOL    HW125805   4.443   2.913   7.736  0.3227  0.8366  1.1572
 4723SOL    HW225806   4.578   2.859   7.692  0.5066  0.7886 -0.3807
 4724SOL     OW25807   0.237   1.483  10.348  0.2330  0.3684  0.4268
 4724SOL    HW125808   0.260   1.543  10.419 -4.1524  2.2798  0.2149
 4724SOL    HW225809   0.299   1.414  10.372 -1.4338 -2.3620 -3.1456
 4725SOL     OW25810   3.361   0.028   6.829 -0.3473  0.7036  0.6074
 4725SOL    HW125811   3.288   0.053   6.886  0.7073  2.0447  1.3759
 4725SOL    HW225812   3.379   4.674   6.856 -1.1196  1.0103  2.1595
 4726SOL     OW25813   0.406   2.239  13.384  0.0258 -0.1340 -0.4384
 4726SOL    HW125814   0.436   2.165  13.331  1.1742 -1.5675  2.2619
 4726SOL    HW225815   0.462   2.249  13.460  0.8595 -1.5979 -0.8567
 4727SOL     OW25816   0.878   0.765  13.797 -1.1737  0.3342 -0.6898
 4727SOL    HW125817   0.822   0.839  13.820  0.5030  1.0935  0.9437
 4727SOL    HW225818   0.949   0.813  13.754  1.5948 -0.4060  2.9736
 4728SOL     OW25819   1.135   4.046   1.361  0.0731 -0.0200 -0.0636
 4728SOL    HW125820   1.098   4.107   1.425 -1.6558 -0.7283 -0.3820
 4728SOL    HW225821   1.161   4.106   1.292  0.4568  0.1435  0.2263
 4729SOL     OW25822   2.845   2.793  16.650 -0.0120  0.1091  0.2317
 4729SOL    HW125823   2.934   2.828  16.642  0.0337 -0.1580 -0.4398
 4729SOL    HW225824   2.838   2.742  16.569 -1.0094  0.9778 -0.2362
 4730SOL     OW25825   2.400   2.000   5.224  0.1383  0.7173  0.5479
 4730SOL    HW125826   2.393   2.072   5.161  0.4724 -0.4903 -0.8527
 4730SOL    HW225827   2.495   1.996   5.218 -0.1054 -1.2977 -2.3140
 4731SOL     OW25828   2.228   0.931   2.223  0.1270 -0.7618  0.1066
 4731SOL    HW125829   2.180   1.014   2.215 -0.1837 -0.7909  1.6096
 4731SOL    HW225830   2.262   0.962   2.307  0.2634 -2.5459  0.6989
 4732SOL     OW25831   2.492   1.526   7.615 -0.4326  0.2996  0.5277
 4732SOL    HW125832   2.415   1.522   7.672 -1.5933 -2.2154 -1.2136
 4732SOL    HW225833   2.503   1.431   7.606  0.6685  0.4186  0.5142
 4733SOL     OW25834   0.869   1.357   3.930  0.1721  0.5154  0.3376
 4733SOL    HW125835   0.786   1.372   3.885  0.9811  1.2245 -0.9081
 4733SOL    HW225836   0.881   1.267   3.900 -0.1842  0.4492  0.3869
 4734SOL     OW25837   0.298   2.930   7.981 -0.1078 -0.9774  0.1771
 4734SOL    HW125838   0.246   2.890   8.051  1.4408 -1.9714  0.7740
 4734SOL    HW225839   0.312   2.858   7.919  1.2432 -0.0618 -0.5849
 4735SOL     OW25840   1.534   1.521   9.555 -0.0359  0.5471  0.3919
 4735SOL    HW125841   1.569   1.496   9.640  0.1531 -2.1338 -0.4726
 4735SOL    HW225842   1.482   1.447   9.524 -0.0369  0.5928  0.2824
 4736SOL     OW25843   2.927   3.784   1.076 -0.5156  0.4127 -0.3762
 4736SOL    HW125844   2.976   3.787   1.159  1.4070  0.4651 -1.5099
 4736SOL    HW225845   2.851   3.730   1.098 -0.3102  0.0740 -0.4896
 4737SOL     OW25846   0.276   0.358   8.002 -0.0373 -0.2803  0.0948
 4737SOL    HW125847   0.365   0.337   7.975  0.4032  1.1193  0.4488
 4737SOL    HW225848   0.244   0.404   7.924  1.0935 -2.4375 -1.6515
 4738SOL     OW25849   3.991   3.207  11.961  0.1586  0.1852 -0.1908
 4738SOL    HW125850   4.024   3.133  11.910  0.5276 -0.5829  1.1616
 4738SOL    HW225851   4.026   3.286  11.921 -0.0462  0.3895  0.0338
 4739SOL     OW25852   4.633   3.466   8.850  0.6752 -0.4147  0.2086
 4739SOL    HW125853   4.684   3.417   8.915  1.4523 -1.2962 -1.0424
 4739SOL    HW225854   4.606   3.401   8.785 -1.5542  1.5056 -0.7695
 4740SOL     OW25855   4.488   2.328   8.216 -0.9711  0.2880  0.0872
 4740SOL    HW125856   4.502   2.320   8.311  0.6209  1.0700 -0.0888
 4740SOL    HW225857   4.442   2.244   8.204 -0.9295  0.2741  0.0239
 4741SOL     OW25858   2.500   3.122   0.417  0.2900  0.4594 -0.2221
 4741SOL    HW125859   2.567   3.190   0.418  2.1890 -1.4385  0.5554
 4741SOL    HW225860   2.520   3.101   0.325 -0.5985  0.2019 -0.3572
 4742SOL     OW25861   3.135   0.013   4.102 -0.2558  0.1440  0.1353
 4742SOL    HW125862   3.208   0.041   4.047 -0.0139  0.8055  0.7891
 4742SOL    HW225863   3.159   0.058   4.183  0.9532 -0.8211  0.3030
 4743SOL     OW25864   0.742   3.010   6.700  0.6346 -0.4045  0.8101
 4743SOL    HW125865   0.806   2.968   6.642 -0.9412 -0.1532 -1.1267
 4743SOL    HW225866   0.707   2.935   6.748 -0.9674 -0.5269 -0.5535
 4744SOL     OW25867   3.471   2.021   8.283 -0.5798  0.2257  0.3507
 4744SOL    HW125868   3.543   1.959   8.283 -1.1135 -0.3932 -0.5290
 4744SOL    HW225869   3.468   2.042   8.377  3.1592  0.2395  0.4648
 4745SOL     OW25870   2.802   4.670   3.956  0.3146  0.2060  0.0548
 4745SOL    HW125871   2.716   4.713   3.957  0.6610  0.9129 -0.6953
 4745SOL    HW225872   2.841   0.009   4.001  2.5884 -0.1351 -1.3872
 4746SOL     OW25873   4.190   1.458   8.809 -0.2344 -0.1893  0.5813
 4746SOL    HW125874   4.245   1.501   8.875 -0.3129  1.1018 -0.2131
 4746SOL    HW225875   4.145   1.384   8.851  1.8228 -1.1304  1.1468
 4747SOL     OW25876   0.124   0.423   3.757 -0.6048 -0.1074  0.2696
 4747SOL    HW125877   0.134   0.354   3.822  1.7490 -0.2731 -0.2598
 4747SOL    HW225878   0.217   0.429   3.735 -0.8159  3.1456  0.1890
 4748SOL     OW25879   2.168   1.698   5.750 -0.0910 -0.1287 -0.2593
 4748SOL    HW125880   2.155   1.615   5.795  0.0179 -0.0275 -0.0415
 4748SOL    HW225881   2.236   1.681   5.685  1.0302 -0.4248  1.0012
 4749SOL     OW25882   1.184   3.141  10.158 -0.5330 -0.4411 -0.1733
 4749SOL    HW125883   1.157   3.166  10.247  1.1289 -1.5406  0.6487
 4749SOL    HW225884   1.270   3.105  10.179  0.5350  0.7558 -2.6206
 4750SOL     OW25885   0.438   2.868   9.062 -0.2006 -0.2232 -0.2361
 4750SOL    HW125886   0.479   2.946   9.099  0.6675 -1.7996  2.1367
 4750SOL    HW225887   0.449   2.884   8.968  1.6829 -2.1354 -0.3484
 4751SOL     OW25888   3.666   0.794   6.438 -0.1807 -0.6268  0.2902
 4751SOL    HW125889   3.617   0.728   6.388 -0.7851 -0.1170  0.2132
 4751SOL    HW225890   3.597   0.857   6.457 -0.8450 -1.1660 -0.2989
 4752SOL     OW25891   0.445   3.391   0.192  0.0315 -0.2993  0.0816
 4752SOL    HW125892   0.390   3.317   0.219 -0.4206 -0.4034 -1.1234
 4752SOL    HW225893   0.506   3.384   0.265 -1.2694  0.4607  1.2410
 4753SOL     OW25894   3.015   1.013   6.962  0.5112 -0.1722 -0.3889
 4753SOL    HW125895   2.972   0.978   6.884  0.0651 -1.8592  0.6193
 4753SOL    HW225896   3.109   1.015   6.943  0.9796  0.5032  1.9526
 4754SOL     OW25897   1.424   2.101  10.842  0.0676 -0.1163 -0.0890
 4754SOL    HW125898   1.368   2.046  10.787 -0.8553  1.1351 -0.3923
 4754SOL    HW225899   1.427   2.182  10.791  1.2321 -0.9405 -1.3270
 4755SOL     OW25900   4.119   3.340   2.927  0.1988 -0.9414  0.4797
 4755SOL    HW125901   4.164   3.405   2.980  2.7126 -1.9666 -0.4358
 4755SOL    HW225902   4.030   3.350   2.963  0.2491  0.8762  0.0628
 4756SOL     OW25903   1.462   4.533   6.385 -0.2340  0.3090 -0.1006
 4756SOL    HW125904   1.435   4.448   6.349  0.9598  0.7813 -2.0547
 4756SOL    HW225905   1.381   4.574   6.414 -0.3290 -0.2664  0.4589
 4757SOL     OW25906   0.463   4.263   8.128  0.1082 -0.2955  0.2508
 4757SOL    HW125907   0.417   4.183   8.155 -3.0775  1.8173  1.1185
 4757SOL    HW225908   0.544   4.266   8.179  0.0914  0.7830  0.2199
 4758SOL     OW25909   3.663   2.647   3.806  0.1502  0.0118  0.0802
 4758SOL    HW125910   3.584   2.690   3.774  1.4023  0.6859 -2.0813
 4758SOL    HW225911   3.666   2.663   3.901  0.6368 -1.9053  0.3896
 4759SOL     OW25912   0.391   4.077   7.042 -0.1783  0.2017 -0.4621
 4759SOL    HW125913   0.317   4.083   7.102 -0.9796  0.9371 -1.5338
 4759SOL    HW225914   0.393   4.165   7.005  2.0608  0.4070  0.1633
 4760SOL     OW25915   4.556   3.287   2.437  0.0854  0.0090 -0.2804
 4760SOL    HW125916   4.499   3.259   2.508  2.0845  2.0723  2.1615
 4760SOL    HW225917   4.507   3.258   2.361  2.9948 -0.4555 -2.0023
 4761SOL     OW25918   2.596   0.103   3.919 -0.1618  0.6855  0.1801
 4761SOL    HW125919   2.503   0.122   3.914 -0.4474 -0.2691  1.9462
 4761SOL    HW225920   2.623   0.123   3.829  1.1884  1.8334  0.8437
 4762SOL     OW25921   1.210   2.934  13.780 -0.2571 -0.1957  0.3968
 4762SOL    HW125922   1.178   2.910  13.693 -1.3368  0.3999  0.6249
 4762SOL    HW225923   1.128   2.945  13.828  0.6045  3.1207  1.1120
 4763SOL     OW25924   2.657   2.712   4.690  0.0556 -0.0248 -0.1013
 4763SOL    HW125925   2.591   2.645   4.704 -1.4534  1.0460 -2.0941
 4763SOL    HW225926   2.732   2.655   4.675  0.2618  0.2155  0.0183
 4764SOL     OW25927   4.204   0.558  14.228 -0.0234 -0.3647 -0.3174
 4764SOL    HW125928   4.129   0.569  14.171  0.4305  0.0251 -0.8334
 4764SOL    HW225929   4.214   0.634  14.285 -1.6267 -0.5497  0.1943
 4765SOL     OW25930   3.155   0.528  15.229 -0.3954  0.0501  0.2216
 4765SOL    HW125931   3.207   0.605  15.208  1.8758 -1.7011 -0.5872
 4765SOL    HW225932   3.175   0.481  15.149  0.7930 -0.9578  1.1020
 4766SOL     OW25933   3.461   2.379  14.879  0.1485  0.0971 -0.2860
 4766SOL    HW125934   3.395   2.311  14.877 -0.2892  0.5224 -0.3764
 4766SOL    HW225935   3.517   2.334  14.943 -0.8234 -1.3874 -0.4927
 4767SOL     OW25936   2.219   2.506  17.571 -0.0918  0.0376  0.1577
 4767SOL    HW125937   2.178   2.438  17.625 -0.1335 -0.2604 -0.2464
 4767SOL    HW225938   2.261   2.451  17.504 -0.1556 -2.0285  1.8030
 4768SOL     OW25939   2.286   0.536   5.724 -0.0554 -0.1619 -0.6778
 4768SOL    HW125940   2.239   0.548   5.806 -0.5604 -0.8667 -0.8718
 4768SOL    HW225941   2.281   0.624   5.686  1.8719  0.7328  1.1531
 4769SOL     OW25942   1.058   4.237   8.626  0.3611  0.1998  0.0784
 4769SOL    HW125943   0.983   4.237   8.686  0.1474  0.0043 -0.1892
 4769SOL    HW225944   1.086   4.147   8.641  2.0623  0.8406  0.7444
 4770SOL     OW25945   3.713   0.249  11.912  0.0559 -0.1815 -0.0202
 4770SOL    HW125946   3.701   0.220  11.821  0.1017  3.0515 -1.0368
 4770SOL    HW225947   3.772   0.181  11.945  0.4952 -0.4217 -1.3153
 4771SOL     OW25948   2.012   2.136   0.430  0.2117 -0.2681  0.7348
 4771SOL    HW125949   1.927   2.112   0.394  0.8306 -0.6103 -0.5155
 4771SOL    HW225950   1.979   2.189   0.503  0.6801 -0.7011  1.2573
 4772SOL     OW25951   1.418   3.154   6.251 -0.1801 -0.6305  0.3132
 4772SOL    HW125952   1.364   3.189   6.180 -1.2004  2.3530  2.4944
 4772SOL    HW225953   1.482   3.225   6.253  0.3337 -1.1257  1.1441
 4773SOL     OW25954   3.041   2.364   7.650 -0.9297 -0.4075 -0.8279
 4773SOL    HW125955   3.026   2.348   7.557  1.4621 -1.1677 -1.0642
 4773SOL    HW225956   2.969   2.309   7.684  0.1930 -1.5126 -0.2377
 4774SOL     OW25957   1.166   0.059   4.827  0.2482  0.1391  0.5544
 4774SOL    HW125958   1.160   0.015   4.912  0.9165 -2.8932 -0.9685
 4774SOL    HW225959   1.242   0.015   4.790 -0.4827 -1.4696  0.9513
 4775SOL     OW25960   1.364   2.938   5.980  0.1691  0.4205  0.1887
 4775SOL    HW125961   1.458   2.922   5.977  0.5360  2.1811  3.6920
 4775SOL    HW225962   1.326   2.893   5.904 -1.7535  0.3701  1.1898
 4776SOL     OW25963   3.024   3.429   5.412 -0.6293 -0.4389 -0.0277
 4776SOL    HW125964   2.994   3.373   5.484 -0.9292 -0.3214 -0.0642
 4776SOL    HW225965   2.993   3.517   5.433  2.8744  0.5230  1.1773
 4777SOL     OW25966   2.203   3.483   7.874 -0.4011 -0.3893 -0.2399
 4777SOL    HW125967   2.154   3.564   7.866 -0.9734 -0.9047 -1.9041
 4777SOL    HW225968   2.173   3.456   7.961  0.6248 -0.6419  0.0402
 4778SOL     OW25969   3.836   3.043   7.696 -0.3396  0.5008  0.1715
 4778SOL    HW125970   3.857   3.089   7.615 -1.0578  0.2023 -0.1847
 4778SOL    HW225971   3.886   3.091   7.762  0.2073  1.5623 -1.0176
 4779SOL     OW25972   1.542   0.047   2.226 -0.5676  1.0283 -0.1353
 4779SOL    HW125973   1.561   0.136   2.256 -1.6669  1.2877 -0.2091
 4779SOL    HW225974   1.469   0.018   2.281  1.2633  0.2778  1.9051
 4780SOL     OW25975   3.315   3.005   7.892  0.0724 -0.2492  0.4248
 4780SOL    HW125976   3.276   2.919   7.905 -1.1891  0.0882 -1.1495
 4780SOL    HW225977   3.408   2.981   7.885  0.2122  0.8511 -1.6235
 4781SOL     OW25978   3.733   2.118   6.272 -0.1105 -0.2426 -0.0578
 4781SOL    HW125979   3.799   2.054   6.298 -0.5187  0.2193  2.0919
 4781SOL    HW225980   3.656   2.092   6.322 -0.5385  0.9462 -0.0822
 4782SOL     OW25981   4.318   1.567   2.587 -0.0596 -0.6340  0.7220
 4782SOL    HW125982   4.279   1.641   2.633  1.8823  0.6619  0.2596
 4782SOL    HW225983   4.257   1.495   2.607 -0.8507  0.2345  1.4176
 4783SOL     OW25984   4.387   4.409   3.993  0.2415 -0.6477 -0.0014
 4783SOL    HW125985   4.318   4.420   3.927  1.3568 -0.1485 -1.0811
 4783SOL    HW225986   4.405   4.316   3.986 -1.3195 -0.8619 -1.1147
 4784SOL     OW25987   3.533   0.447   5.986  0.2646  0.2201 -0.5377
 4784SOL    HW125988   3.627   0.454   5.973  0.5821 -0.8550  1.2032
 4784SOL    HW225989   3.516   0.430   6.079  0.0728 -2.8695 -1.1454
 4785SOL     OW25990   3.388   2.813   6.675  0.4804  0.2243 -0.1135
 4785SOL    HW125991   3.411   2.906   6.674  0.5129  0.2217  0.8672
 4785SOL    HW225992   3.348   2.806   6.761 -0.0517 -2.1889 -0.5522
 4786SOL     OW25993   0.067   4.264   1.521  0.0299  0.9717  0.2727
 4786SOL    HW125994   0.125   4.268   1.597 -0.2188  0.7002  0.4785
 4786SOL    HW225995   0.003   4.325   1.558 -2.0163 -0.1568 -1.3970
 4787SOL     OW25996   2.343   2.951   3.603  0.0041 -0.4537  0.1535
 4787SOL    HW125997   2.418   2.984   3.653  0.7630 -3.2987  0.9238
 4787SOL    HW225998   2.380   2.946   3.515 -1.8727 -0.8013 -0.6192
 4788SOL     OW25999   3.077   1.185  17.025 -0.4003  0.5519 -0.0463
 4788SOL    HW126000   3.136   1.222  17.090 -2.3419  0.8573  1.5355
 4788SOL    HW226001   3.095   1.091  17.021 -1.8825  0.3877 -2.6546
 4789SOL     OW26002   3.970   0.599   7.425  0.5687 -0.2537  0.3770
 4789SOL    HW126003   3.933   0.572   7.340  2.6578 -2.0059  0.0178
 4789SOL    HW226004   3.998   0.517   7.465  0.9558 -0.1254  0.3655
 4790SOL     OW26005   3.230   3.012   2.930 -0.2637 -0.0911 -0.0135
 4790SOL    HW126006   3.239   3.080   2.997  0.4153 -0.1091 -0.0961
 4790SOL    HW226007   3.152   3.039   2.880  0.3976  1.3866 -0.2463
 4791SOL     OW26008   0.925   4.497   9.427 -0.5410  0.1700 -0.4984
 4791SOL    HW126009   0.984   4.446   9.370 -1.3789 -2.1610  0.7033
 4791SOL    HW226010   0.904   4.423   9.484  2.1284  2.3172  3.2550
 4792SOL     OW26011   0.250   2.825   9.746 -0.0182  1.0210 -0.0204
 4792SOL    HW126012   0.290   2.900   9.791  1.1659  0.0638  0.5425
 4792SOL    HW226013   0.165   2.861   9.720 -0.8222  0.7789  2.2595
 4793SOL     OW26014   2.814   0.200   4.299 -0.3140  0.5280  0.6623
 4793SOL    HW126015   2.869   0.210   4.222  0.7430 -1.6317  1.1254
 4793SOL    HW226016   2.802   0.106   4.308 -0.9195  0.3296 -2.4616
 4794SOL     OW26017   2.041   1.758  13.165  0.4953  0.1624 -0.5285
 4794SOL    HW126018   2.079   1.821  13.104  0.2683  1.7493  0.9745
 4794SOL    HW226019   2.077   1.676  13.133 -0.1051  0.2215 -1.3403
 4795SOL     OW26020   2.063   4.421  12.175  0.3595  0.5499  0.0896
 4795SOL    HW126021   2.053   4.510  12.142  1.2359 -0.1317 -2.0605
 4795SOL    HW226022   1.974   4.386  12.168 -0.0290  1.6484 -0.4478
 4796SOL     OW26023   3.521   1.182   6.087  0.3259 -0.1775  0.6763
 4796SOL    HW126024   3.476   1.107   6.126  0.8531 -1.2904 -0.8688
 4796SOL    HW226025   3.488   1.188   5.997 -0.0147  2.4718  0.9634
 4797SOL     OW26026   1.949   1.794   5.869 -0.7197 -0.4828  0.2012
 4797SOL    HW126027   1.935   1.876   5.821  0.4985  0.3712  1.3181
 4797SOL    HW226028   2.023   1.767   5.815  1.3267  0.0011  2.7357
 4798SOL     OW26029   3.953   2.663  17.619 -0.1599 -0.5316  0.0130
 4798SOL    HW126030   3.973   2.586  17.565  1.2488 -0.2249  0.0946
 4798SOL    HW226031   3.900   2.719  17.563 -0.2449  0.2605  0.8779
 4799SOL     OW26032   0.118   1.369  15.088  0.0264  0.0029 -0.1279
 4799SOL    HW126033   0.098   1.348  14.997  1.0596  0.3545 -0.4299
 4799SOL    HW226034   0.204   1.411  15.080 -0.7489  1.1311 -2.4931
 4800SOL     OW26035   2.892   1.356   0.309 -0.3804  0.5757  0.7784
 4800SOL    HW126036   2.927   1.316   0.388  1.9697  0.1510 -0.4673
 4800SOL    HW226037   2.876   1.276   0.258 -2.8506  1.6364 -0.1404
 4801SOL     OW26038   3.343   1.123   3.315  0.5164  0.4897  0.1172
 4801SOL    HW126039   3.285   1.123   3.239 -0.2450  1.6771  0.7005
 4801SOL    HW226040   3.413   1.175   3.275  1.3826 -0.8772 -0.1460
 4802SOL     OW26041   3.144   1.924   3.611  0.0922 -0.4270 -0.0852
 4802SOL    HW126042   3.108   1.954   3.694 -1.3119  2.4643 -1.7482
 4802SOL    HW226043   3.095   1.845   3.588  2.5788 -1.0787 -3.2078
 4803SOL     OW26044   1.864   1.176   6.447 -0.2041  0.6705  0.3062
 4803SOL    HW126045   1.891   1.257   6.406 -0.9818 -0.0096 -1.5486
 4803SOL    HW226046   1.798   1.135   6.392  1.3105  1.3490 -2.0199
 4804SOL     OW26047   0.126   0.290   6.199  0.4843  0.1769  0.3923
 4804SOL    HW126048   0.128   0.214   6.140 -0.5423 -0.0927  0.6988
 4804SOL    HW226049   0.160   0.258   6.283  2.5078  1.4860  0.0610
 4805SOL     OW26050   4.157   0.493   1.991  0.3250  0.4052 -0.1844
 4805SOL    HW126051   4.196   0.517   2.075 -1.9113 -0.7343  1.1833
 4805SOL    HW226052   4.207   0.413   1.970 -0.0344  0.5096 -1.4364
 4806SOL     OW26053   3.920   3.732   5.329  0.3890 -0.3158 -0.3536
 4806SOL    HW126054   3.834   3.697   5.305 -1.5848  2.7898  2.1898
 4806SOL    HW226055   3.955   3.755   5.243  1.0446  0.2105  0.0545
 4807SOL     OW26056   1.144   0.610   5.630 -0.6504 -0.0836  0.3714
 4807SOL    HW126057   1.202   0.683   5.608 -2.3323  1.1756  0.1347
 4807SOL    HW226058   1.105   0.606   5.543  1.1723  2.4587 -0.5851
 4808SOL     OW26059   2.142   4.711  13.459 -0.4040  0.2784 -0.3870
 4808SOL    HW126060   2.090   4.655  13.516  1.4260 -0.9937  0.0365
 4808SOL    HW226061   2.187   0.028  13.524 -0.9427 -1.1364  1.1411
 4809SOL     OW26062   1.021   1.556   7.682  0.4379  0.2079  0.2027
 4809SOL    HW126063   0.944   1.538   7.736 -0.0187 -0.5310 -0.6919
 4809SOL    HW226064   1.097   1.515   7.723 -0.6500 -2.3242 -0.3146
 4810SOL     OW26065   3.401   2.410  13.946 -0.6569  0.1951  1.0860
 4810SOL    HW126066   3.320   2.361  13.933 -1.9823  1.9368  2.7213
 4810SOL    HW226067   3.452   2.362  13.881 -1.2776 -1.5704  1.9102
 4811SOL     OW26068   4.184   2.721   5.935 -0.3278 -0.2416  0.0710
 4811SOL    HW126069   4.221   2.682   6.015 -0.7217  1.3317  1.0207
 4811SOL    HW226070   4.108   2.764   5.975  0.0077  1.1159 -0.7510
 4812SOL     OW26071   1.523   4.541  15.022  0.0108  0.6067  0.3480
 4812SOL    HW126072   1.529   4.446  15.012  0.2151  0.7091 -0.5545
 4812SOL    HW226073   1.604   4.553  15.070 -0.6440  1.1195  1.3118
 4813SOL     OW26074   2.930   0.498   4.674  0.5681 -0.2483  0.3070
 4813SOL    HW126075   2.927   0.411   4.635 -0.2978 -0.3891  0.6945
 4813SOL    HW226076   3.021   0.520   4.651  0.2095 -1.2031 -2.0103
 4814SOL     OW26077   0.790   1.487   7.826  0.0574 -0.0534 -0.4593
 4814SOL    HW126078   0.728   1.556   7.851  1.1511  0.7863 -0.0407
 4814SOL    HW226079   0.819   1.460   7.913 -0.9387  1.8423  0.4656
 4815SOL     OW26080   3.319   4.130   2.459  0.2295  0.9913  0.4792
 4815SOL    HW126081   3.299   4.090   2.374 -1.6942  0.3846  1.2271
 4815SOL    HW226082   3.331   4.222   2.436 -0.9688  1.4619  1.7038
 4816SOL     OW26083   1.971   1.698   4.444 -0.3991  0.0049  0.0240
 4816SOL    HW126084   2.038   1.694   4.512  0.3681 -1.7952 -0.8263
 4816SOL    HW226085   1.924   1.617   4.463  1.0942 -0.3673  2.1302
 4817SOL     OW26086   1.596   2.881   1.446  0.4367 -0.5336  0.0264
 4817SOL    HW126087   1.686   2.893   1.415  0.2358  1.6467  0.2251
 4817SOL    HW226088   1.549   2.873   1.363  1.5831 -0.4513 -0.6266
 4818SOL     OW26089   1.239   4.671   2.921  0.5238  1.0000 -0.4660
 4818SOL    HW126090   1.204   4.709   3.002  1.3619 -0.7960  0.7446
 4818SOL    HW226091   1.238   0.010   2.863  0.4820  1.2693 -0.1150
 4819SOL     OW26092   1.829   0.136  15.958 -0.1517 -0.2414 -0.0333
 4819SOL    HW126093   1.795   0.088  15.883  2.7565 -3.8304  0.9107
 4819SOL    HW226094   1.913   0.167  15.925 -0.2958 -0.6761 -0.8007
 4820SOL     OW26095   0.386   0.107   4.381 -0.1636 -0.5240  0.0213
 4820SOL    HW126096   0.350   0.044   4.445  3.0577 -0.5150  1.8283
 4820SOL    HW226097   0.473   0.071   4.363 -0.2655  0.4408 -2.4094
 4821SOL     OW26098   0.568   3.158   1.236  0.2441  0.4761 -0.2072
 4821SOL    HW126099   0.617   3.146   1.317  0.0575  1.7965  0.1045
 4821SOL    HW226100   0.569   3.068   1.204 -0.1508  0.2300  0.4799
 4822SOL     OW26101   2.322   1.721   2.730  0.2451  0.0659 -0.3588
 4822SOL    HW126102   2.394   1.762   2.683 -0.0800  2.5357  1.3212
 4822SOL    HW226103   2.283   1.803   2.760 -1.6031 -0.3223 -1.6525
 4823SOL     OW26104   4.266   0.218  12.166  0.7341  0.4853  0.1796
 4823SOL    HW126105   4.210   0.144  12.187  1.4073  0.1653  0.8669
 4823SOL    HW226106   4.251   0.274  12.242  0.0167  0.9480 -0.3074
 4824SOL     OW26107   1.402   1.058   6.546  0.7552 -0.2241  0.2700
 4824SOL    HW126108   1.497   1.067   6.553  0.6312  2.8674 -1.7416
 4824SOL    HW226109   1.378   1.114   6.620  0.1592 -1.4605  1.0068
 4825SOL     OW26110   3.534   3.002  10.722 -0.2080 -0.0788  0.0345
 4825SOL    HW126111   3.516   2.988  10.629 -1.2758 -1.9396  0.5100
 4825SOL    HW226112   3.451   2.978  10.765  0.4002 -1.3356  0.5396
 4826SOL     OW26113   1.212   1.287   1.903 -0.1076  0.1587 -0.3764
 4826SOL    HW126114   1.283   1.321   1.958  1.0251  0.1604 -1.8109
 4826SOL    HW226115   1.156   1.237   1.961 -2.4287  2.6144 -0.5015
 4827SOL     OW26116   0.318   1.582   2.474 -0.6273  0.2949  0.1537
 4827SOL    HW126117   0.320   1.594   2.379 -0.1604 -0.2785  0.0959
 4827SOL    HW226118   0.384   1.512   2.474 -1.1782 -0.2164  2.5745
 4828SOL     OW26119   2.164   3.962   0.075 -0.1620 -0.3242  0.2333
 4828SOL    HW126120   2.193   4.051   0.056 -0.7388  0.1704  1.6346
 4828SOL    HW226121   2.247   3.916   0.060 -1.1065 -1.7696 -0.5584
 4829SOL     OW26122   3.634   1.995  10.731 -0.1844  0.0980 -0.2822
 4829SOL    HW126123   3.677   1.937  10.795  0.2691  1.0352  0.2684
 4829SOL    HW226124   3.549   2.024  10.764 -1.1702 -2.6000 -0.4071
 4830SOL     OW26125   1.936   0.323  11.906 -0.6166  0.5272  0.1086
 4830SOL    HW126126   1.982   0.241  11.891 -2.0687 -0.1808 -0.5194
 4830SOL    HW226127   2.009   0.384  11.899  1.3728 -1.8019  0.9211
 4831SOL     OW26128   1.496   0.565   8.468  0.2791 -0.3388 -0.0219
 4831SOL    HW126129   1.436   0.541   8.539  0.0519  0.0272 -0.0918
 4831SOL    HW226130   1.581   0.540   8.504 -0.9721 -1.6431  2.0084
 4832SOL     OW26131   0.793   2.431   6.904 -0.2323 -0.0375 -0.0441
 4832SOL    HW126132   0.771   2.386   6.986 -0.3841 -1.5647 -0.9111
 4832SOL    HW226133   0.887   2.416   6.892 -0.7787 -0.4054 -3.8665
 4833SOL     OW26134   0.099   4.524   5.498 -0.1919  0.0715 -0.3211
 4833SOL    HW126135   0.050   4.555   5.422  3.1025  2.8313 -1.3634
 4833SOL    HW226136   0.140   4.444   5.465 -1.3281  0.1844 -2.0043
 4834SOL     OW26137   1.645   3.768   1.712  1.0896 -0.3345 -0.0499
 4834SOL    HW126138   1.723   3.779   1.766  2.3538 -1.6264 -1.6293
 4834SOL    HW226139   1.687   3.813   1.639  0.4788  0.0631 -0.1629
 4835SOL     OW26140   3.523   4.623   8.313 -0.0849  0.2136 -0.3017
 4835SOL    HW126141   3.567   4.698   8.273  1.7693 -1.7562 -2.0037
 4835SOL    HW226142   3.436   4.651   8.286 -0.1224 -1.3916 -1.8291
 4836SOL     OW26143   3.368   3.883   7.560  0.4468 -0.4334  0.1241
 4836SOL    HW126144   3.440   3.932   7.519  0.3839 -0.7709 -0.3908
 4836SOL    HW226145   3.372   3.918   7.649 -1.0969  0.1402 -0.0205
 4837SOL     OW26146   2.512   0.663   1.555  0.3264 -0.2297  1.0805
 4837SOL    HW126147   2.493   0.750   1.518 -0.8924 -0.5005  1.0620
 4837SOL    HW226148   2.556   0.693   1.635 -1.5409 -0.7129  2.2835
 4838SOL     OW26149   2.428   2.374   6.651  0.3115 -0.0945  0.4502
 4838SOL    HW126150   2.404   2.466   6.652 -0.9259 -0.4082 -0.3193
 4838SOL    HW226151   2.468   2.362   6.737 -0.1953  0.6542  0.7846
 4839SOL     OW26152   2.391   1.228   4.564  0.6943 -0.3758  0.0114
 4839SOL    HW126153   2.459   1.292   4.543 -0.2904  0.0347 -1.8900
 4839SOL    HW226154   2.421   1.152   4.514 -1.7290 -1.8690  0.8576
 4840SOL     OW26155   4.421   4.249  13.961 -0.8434 -0.1490  0.1718
 4840SOL    HW126156   4.459   4.263  14.047 -0.8363 -1.0030  0.3145
 4840SOL    HW226157   4.335   4.286  13.980 -1.0331 -0.7486  0.4856
 4841SOL     OW26158   0.627   0.880   5.474  0.0220  0.0601  0.2799
 4841SOL    HW126159   0.577   0.949   5.431  0.3886 -1.0320 -1.8952
 4841SOL    HW226160   0.659   0.842   5.392 -0.8523 -0.1019  0.0125
 4842SOL     OW26161   4.316   3.737   7.718  0.8019  0.3831  0.6215
 4842SOL    HW126162   4.401   3.694   7.716 -0.6935 -2.6080  0.6195
 4842SOL    HW226163   4.344   3.817   7.763 -0.6472 -0.5224  3.1542
 4843SOL     OW26164   1.908   0.926   3.383 -0.7287  0.1257  0.6798
 4843SOL    HW126165   1.909   0.833   3.405  0.5164 -0.4139 -1.6119
 4843SOL    HW226166   1.957   0.962   3.457  0.1643 -1.7442  1.0019
 4844SOL     OW26167   4.202   0.371  15.739 -0.1492  0.2916  0.0071
 4844SOL    HW126168   4.221   0.279  15.756 -1.5516  0.4939  2.6829
 4844SOL    HW226169   4.226   0.408  15.824 -2.4017  2.9908 -0.5202
 4845SOL     OW26170   4.082   4.249  15.573 -0.2057  0.0470  0.5945
 4845SOL    HW126171   4.145   4.303  15.525 -0.2180 -0.0311  0.4909
 4845SOL    HW226172   4.036   4.208  15.500  0.9371  0.8240 -0.5653
 4846SOL     OW26173   1.072   0.768   2.584 -0.7355  0.2474 -0.0425
 4846SOL    HW126174   1.098   0.755   2.493 -0.1187 -1.1852  0.3331
 4846SOL    HW226175   0.986   0.731   2.565 -0.8138  1.2913 -1.7952
 4847SOL     OW26176   2.909   0.113   8.863 -0.2180  0.3116  0.2593
 4847SOL    HW126177   2.839   0.128   8.800  0.3658 -0.2392 -0.5224
 4847SOL    HW226178   2.858   0.106   8.944  0.4358 -0.9481  0.5690
 4848SOL     OW26179   0.108   4.505   0.909  0.8763  0.5277  0.9103
 4848SOL    HW126180   0.174   4.573   0.892  0.1544  1.1348  0.5581
 4848SOL    HW226181   0.033   4.553   0.876  2.7232  2.3743 -0.5859
 4849SOL     OW26182   2.589   1.021   7.463  0.5878 -0.0023 -0.5006
 4849SOL    HW126183   2.676   1.062   7.464  0.2584  0.6680  0.7837
 4849SOL    HW226184   2.551   1.047   7.379  0.1384 -0.5701 -0.4719
 4850SOL     OW26185   4.066   3.676   8.018 -0.2167 -0.1506  0.4736
 4850SOL    HW126186   4.079   3.604   8.078  2.0857  0.2500  0.4601
 4850SOL    HW226187   4.054   3.636   7.932  2.0488 -1.0993  0.6123
 4851SOL     OW26188   1.070   0.861  10.160 -0.0047 -0.0917 -0.1075
 4851SOL    HW126189   1.000   0.867  10.225  0.5029  1.8416  0.2597
 4851SOL    HW226190   1.021   0.876  10.079  2.2461 -1.8202 -1.8015
 4852SOL     OW26191   1.614   1.660   7.375  0.0212  0.3876 -0.2065
 4852SOL    HW126192   1.667   1.739   7.379 -0.7337  0.8860  0.1311
 4852SOL    HW226193   1.533   1.702   7.346 -0.7538 -1.4316 -0.6695
 4853SOL     OW26194   3.020   1.023   7.271  0.5297 -0.2230 -0.0201
 4853SOL    HW126195   2.994   1.022   7.179  0.7671  0.4630 -0.1006
 4853SOL    HW226196   2.979   0.942   7.301 -2.1685  1.4354  0.7817
 4854SOL     OW26197   4.231   3.410   1.988  0.1963 -0.1512  0.3262
 4854SOL    HW126198   4.222   3.448   2.075 -1.7450 -0.8825  0.4496
 4854SOL    HW226199   4.218   3.319   2.014 -1.9723 -0.4789 -1.8514
 4855SOL     OW26200   3.591   1.281   3.008 -0.4276  0.2836  0.7180
 4855SOL    HW126201   3.630   1.244   2.928 -0.0213 -0.6147  1.3292
 4855SOL    HW226202   3.669   1.270   3.062  0.2963  0.4807 -0.2839
 4856SOL     OW26203   4.175   1.110   6.075  0.8976 -0.7835  0.3701
 4856SOL    HW126204   4.127   1.036   6.112 -0.4740 -0.1438 -0.1242
 4856SOL    HW226205   4.218   1.059   6.007 -1.2001 -0.2919 -1.3116
 4857SOL     OW26206   0.353   3.551   4.534  0.8520 -0.4844  0.0346
 4857SOL    HW126207   0.399   3.601   4.466 -1.4936  1.4602 -0.1574
 4857SOL    HW226208   0.420   3.534   4.600  2.9400  0.7117 -1.7677
 4858SOL     OW26209   4.716   4.147   0.509 -0.3184  0.2768  0.3614
 4858SOL    HW126210   4.666   4.225   0.532  1.8069  0.8225  3.1613
 4858SOL    HW226211   4.725   4.175   0.418  0.0210  1.4307  0.7564
 4859SOL     OW26212   2.627   2.926   6.343  0.2963 -0.4611  0.6927
 4859SOL    HW126213   2.693   2.882   6.288  1.6131  1.2624  0.8696
 4859SOL    HW226214   2.690   2.973   6.398  0.6331  1.2949 -1.1866
 4860SOL     OW26215   0.497   1.994   9.452  0.0037 -0.0575 -0.2653
 4860SOL    HW126216   0.461   1.971   9.367 -0.1426  1.5074 -0.6313
 4860SOL    HW226217   0.496   2.088   9.432  0.9489  0.0042 -0.0527
 4861SOL     OW26218   0.266   3.290   6.215  0.6557  0.0289  0.0925
 4861SOL    HW126219   0.233   3.304   6.126  1.0334  0.5240  0.0301
 4861SOL    HW226220   0.357   3.296   6.189  0.4229 -0.8239 -0.9011
 4862SOL     OW26221   3.313   2.627   5.243  0.2772 -0.2146  0.0970
 4862SOL    HW126222   3.368   2.550   5.250  0.8084  0.1896  0.3697
 4862SOL    HW226223   3.310   2.637   5.148  1.9394  1.5136  0.2337
 4863SOL     OW26224   2.160   3.267   8.233 -0.3767 -0.0239 -0.4255
 4863SOL    HW126225   2.146   3.351   8.190  0.5414  1.2416  1.7890
 4863SOL    HW226226   2.075   3.225   8.219  0.6341 -2.3331  0.3657
 4864SOL     OW26227   2.173   1.285   7.191  0.6158 -0.3667 -0.1465
 4864SOL    HW126228   2.106   1.342   7.229  1.0951 -0.0128  0.1780
 4864SOL    HW226229   2.252   1.323   7.231 -0.2454  1.7013 -0.4074
 4865SOL     OW26230   3.648   3.399   6.315 -0.4485 -0.3215  0.1521
 4865SOL    HW126231   3.627   3.366   6.228 -1.8076 -0.5210  0.5580
 4865SOL    HW226232   3.564   3.388   6.359 -0.4155  0.1772  0.3469
 4866SOL     OW26233   1.066   0.631   7.969  0.0646 -0.2011 -0.1108
 4866SOL    HW126234   1.044   0.720   7.995 -0.0243 -0.3081  0.1752
 4866SOL    HW226235   1.109   0.595   8.046 -0.6300  0.0408  0.3924
 4867SOL     OW26236   0.912   0.133   2.914  0.1715 -0.0173 -0.3273
 4867SOL    HW126237   0.891   0.063   2.852  0.8286 -1.0209  0.5869
 4867SOL    HW226238   0.827   0.177   2.908  0.4697  0.3423 -1.8927
 4868SOL     OW26239   4.075   1.612   7.504 -0.0212 -0.1925  0.2760
 4868SOL    HW126240   4.107   1.693   7.543  0.7853  0.0469 -0.8814
 4868SOL    HW226241   4.098   1.625   7.412  1.9646 -1.8611  0.5424
 4869SOL     OW26242   1.732   0.760   5.421 -0.6968  0.1763 -1.1353
 4869SOL    HW126243   1.728   0.682   5.365 -3.0060 -0.0668 -0.6419
 4869SOL    HW226244   1.794   0.805   5.364  0.9641  0.1870  0.6846
 4870SOL     OW26245   1.819   1.242  13.631 -0.0147  0.0286 -0.2150
 4870SOL    HW126246   1.838   1.274  13.719  1.9949  1.4140 -1.1499
 4870SOL    HW226247   1.764   1.167  13.653 -0.2899  0.4314  0.4621
 4871SOL     OW26248   2.070   2.086  10.915  0.1547 -0.1607 -0.4087
 4871SOL    HW126249   2.092   2.063  11.005  0.3873  0.4258 -0.3169
 4871SOL    HW226250   2.083   2.181  10.920  0.7751 -0.1022 -3.2345
 4872SOL     OW26251   1.857   3.190   0.964  0.5556  0.3705  0.0368
 4872SOL    HW126252   1.776   3.241   0.968 -0.8029 -1.7937  0.2484
 4872SOL    HW226253   1.860   3.166   0.871  1.1760  1.2910 -0.1745
 4873SOL     OW26254   1.032   1.683  16.092  0.7370 -0.0573  0.1698
 4873SOL    HW126255   0.949   1.731  16.086  1.4467  0.9191 -1.5045
 4873SOL    HW226256   0.996   1.594  16.096 -1.6836  0.8586 -1.0985
 4874SOL     OW26257   3.682   2.254  10.936  0.0683  0.0992 -0.1519
 4874SOL    HW126258   3.676   2.205  11.018  0.4162 -1.9336 -1.3696
 4874SOL    HW226259   3.616   2.206  10.886 -1.2646 -0.1875  1.8600
 4875SOL     OW26260   1.117   2.581   6.827 -0.3772 -0.8426 -0.3814
 4875SOL    HW126261   1.135   2.604   6.736 -0.1484  2.6312  0.5592
 4875SOL    HW226262   1.093   2.489   6.819  2.5597 -1.8071  1.7802
 4876SOL     OW26263   1.232   2.331   1.596  0.1013 -1.0705  1.0238
 4876SOL    HW126264   1.137   2.341   1.581  0.1531 -2.1964 -0.0592
 4876SOL    HW226265   1.236   2.338   1.691 -1.6620 -3.7549  1.2918
 4877SOL     OW26266   3.077   4.370   0.433  0.1650 -0.3151 -0.0149
 4877SOL    HW126267   3.135   4.347   0.506 -2.5505 -3.8971  1.0057
 4877SOL    HW226268   3.006   4.306   0.445 -0.6046  0.4565 -0.5206
 4878SOL     OW26269   3.765   4.046   7.765 -0.2557 -0.4387  0.3072
 4878SOL    HW126270   3.743   4.138   7.756  1.3148 -0.0346  0.6459
 4878SOL    HW226271   3.857   4.056   7.788 -0.5726 -0.8800  1.7728
 4879SOL     OW26272   4.626   4.499   8.598 -0.1111 -0.7835 -0.0252
 4879SOL    HW126273   4.667   4.570   8.646 -0.6098  0.4962 -1.4743
 4879SOL    HW226274   4.682   4.430   8.632 -1.0616 -0.7360  1.6270
 4880SOL     OW26275   1.296   1.357   7.814 -0.1978 -0.4905 -0.2033
 4880SOL    HW126276   1.322   1.449   7.820 -1.1664 -0.1400 -1.3887
 4880SOL    HW226277   1.353   1.322   7.746 -0.9449 -0.6634 -0.7345
 4881SOL     OW26278   0.910   2.195   3.033  0.0792  0.2535  0.3453
 4881SOL    HW126279   0.899   2.249   2.955  1.3660 -0.6422 -0.4576
 4881SOL    HW226280   0.820   2.172   3.057 -0.2399 -0.7384 -1.8256
 4882SOL     OW26281   4.583   1.433  16.686 -0.0581  0.5170 -0.1859
 4882SOL    HW126282   4.527   1.468  16.755 -1.9217 -1.9922 -0.4116
 4882SOL    HW226283   4.667   1.475  16.701 -0.3101  1.5586 -1.6614
 4883SOL     OW26284   3.846   2.764   0.797  0.0882 -0.0037  0.0357
 4883SOL    HW126285   3.932   2.722   0.792 -0.4854 -1.0829 -0.7702
 4883SOL    HW226286   3.860   2.838   0.855 -0.4525  0.0799  0.0571
 4884SOL     OW26287   0.198   4.287  14.122  0.3440  0.2888  0.2634
 4884SOL    HW126288   0.289   4.284  14.095  0.6788 -1.1198  1.5489
 4884SOL    HW226289   0.160   4.338  14.050 -0.1582 -0.5455 -0.0706
 4885SOL     OW26290   4.497   4.618   5.139 -0.3031  0.2161 -0.4175
 4885SOL    HW126291   4.532   4.593   5.053 -0.8339  1.5443 -1.0352
 4885SOL    HW226292   4.571   4.670   5.170 -0.0215 -0.0011 -0.7164
 4886SOL     OW26293   0.482   4.541   8.097  0.0095  0.9365  0.3769
 4886SOL    HW126294   0.560   4.535   8.151  0.5267  2.0275 -0.2467
 4886SOL    HW226295   0.457   4.449   8.103 -0.6121  1.1416  1.0476
 4887SOL     OW26296   4.613   3.252   6.865  0.0427 -0.1797 -0.5629
 4887SOL    HW126297   4.594   3.300   6.784 -0.1397  3.8981  1.9130
 4887SOL    HW226298   4.524   3.263   6.901 -0.0831 -2.1417 -0.2605
 4888SOL     OW26299   0.472   0.112   3.938 -0.0451  0.3255  0.1120
 4888SOL    HW126300   0.456   0.018   3.931 -0.5802  0.4373 -0.2225
 4888SOL    HW226301   0.513   0.125   4.023 -0.1118 -0.5890  0.2764
 4889SOL     OW26302   2.947   0.564   6.213  0.2175 -0.1669  0.0090
 4889SOL    HW126303   2.940   0.658   6.230 -1.1721 -0.2478 -0.1428
 4889SOL    HW226304   2.952   0.524   6.300 -0.7320  0.1860  0.2207
 4890SOL     OW26305   0.134   4.638   0.185 -0.4243  0.1883 -0.1296
 4890SOL    HW126306   0.056   4.613   0.236 -1.1822  1.0505 -0.8659
 4890SOL    HW226307   0.195   4.567   0.206 -0.6679 -0.1670 -0.6075
 4891SOL     OW26308   1.571   4.512  11.261  0.2763  0.6049 -0.4552
 4891SOL    HW126309   1.563   4.516  11.356  0.6070 -0.0755 -0.3949
 4891SOL    HW226310   1.527   4.592  11.235  1.3028  0.8228 -1.5333
 4892SOL     OW26311   1.776   2.039  15.055  0.2535  0.4106  0.2824
 4892SOL    HW126312   1.720   2.023  15.131 -1.0346  0.4243 -0.6666
 4892SOL    HW226313   1.839   1.972  15.083  2.1387  1.3380 -1.6934
 4893SOL     OW26314   3.715   1.220   4.524  0.2924 -0.1644 -0.0129
 4893SOL    HW126315   3.768   1.300   4.528  0.9076 -0.5890  0.4679
 4893SOL    HW226316   3.648   1.240   4.590 -1.3929  2.0316 -2.3857
 4894SOL     OW26317   4.716   3.990  15.290  0.1625  0.0915 -0.4065
 4894SOL    HW126318   4.665   3.911  15.311  3.9763 -1.8532  1.4983
 4894SOL    HW226319   4.643   4.045  15.263 -0.2229  1.1496  2.7454
 4895SOL     OW26320   2.264   3.429   4.742  0.1873  0.1432 -0.0542
 4895SOL    HW126321   2.240   3.368   4.812  0.4089  1.6427  1.3209
 4895SOL    HW226322   2.217   3.384   4.672  0.7281 -0.8697  0.2270
 4896SOL     OW26323   0.895   3.240   6.795 -0.1295  0.0411 -0.3525
 4896SOL    HW126324   0.826   3.185   6.758 -0.9423  1.5363 -1.0560
 4896SOL    HW226325   0.940   3.259   6.713 -0.9229 -0.3482 -0.8796
 4897SOL     OW26326   2.439   0.164   2.637 -0.2126  0.1920 -0.1789
 4897SOL    HW126327   2.458   0.220   2.712  2.5845 -1.3610  0.2555
 4897SOL    HW226328   2.348   0.142   2.658  0.2736 -2.7377 -1.2296
 4898SOL     OW26329   0.081   3.750   2.385 -0.0766  0.1379 -0.9378
 4898SOL    HW126330   0.090   3.845   2.386  2.5867 -0.0750 -2.7957
 4898SOL    HW226331   4.728   3.723   2.363 -1.1753  1.6335  1.7039
 4899SOL     OW26332   2.261   3.556   8.325 -0.7185  0.2558  0.4655
 4899SOL    HW126333   2.289   3.646   8.338 -1.9685  0.8620 -1.0202
 4899SOL    HW226334   2.174   3.580   8.293  0.3555  2.6870 -0.6347
 4900SOL     OW26335   1.197   1.209  15.759  0.1617 -0.2170 -0.4309
 4900SOL    HW126336   1.144   1.255  15.824  0.5254 -1.5036  0.7654
 4900SOL    HW226337   1.291   1.223  15.772  0.3763 -0.7682 -1.3936
 4901SOL     OW26338   3.857   3.964   5.099  0.2638  0.2090  0.1789
 4901SOL    HW126339   3.766   3.941   5.116 -0.4206  2.6231 -0.2164
 4901SOL    HW226340   3.892   3.972   5.188  2.6889  0.0790 -0.7429
 4902SOL     OW26341   1.607   4.234   9.673 -0.8477  0.2032  0.0683
 4902SOL    HW126342   1.585   4.154   9.625 -1.1451  0.2719  0.0904
 4902SOL    HW226343   1.694   4.211   9.707 -0.1857  1.2041 -0.9242
 4903SOL     OW26344   0.208   1.045   6.600 -0.6023  0.1929 -0.1436
 4903SOL    HW126345   0.142   1.048   6.531 -1.5611  0.9186  0.8104
 4903SOL    HW226346   0.173   1.123   6.644 -0.8722 -1.2544  2.1848
 4904SOL     OW26347   1.582   0.643  10.505 -0.3666 -0.1906  0.5578
 4904SOL    HW126348   1.577   0.603  10.592 -0.0586  0.3763  0.8383
 4904SOL    HW226349   1.531   0.719  10.531 -0.7418 -0.7719  1.5139
 4905SOL     OW26350   4.538   0.338  13.000  0.0628 -0.5163  0.6291
 4905SOL    HW126351   4.536   0.432  12.982  0.6406 -0.8261 -0.9944
 4905SOL    HW226352   4.447   0.326  13.028 -0.5038 -0.9170 -1.4338
 4906SOL     OW26353   3.750   1.833   5.426 -0.7711  0.2661 -0.1488
 4906SOL    HW126354   3.832   1.882   5.421 -0.1434 -0.7764 -0.2691
 4906SOL    HW226355   3.786   1.751   5.461  0.9147  1.7548  1.5714
 4907SOL     OW26356   2.591   1.681   6.850 -0.2853  0.4608  0.2364
 4907SOL    HW126357   2.654   1.692   6.779 -2.0844 -0.4819 -1.5002
 4907SOL    HW226358   2.511   1.688   6.798 -1.3219  3.3652  2.1802
 4908SOL     OW26359   0.557   1.511   6.575  0.0396 -0.1549 -0.0486
 4908SOL    HW126360   0.502   1.438   6.548  0.6272 -0.3069 -0.8458
 4908SOL    HW226361   0.498   1.567   6.625 -2.6747  0.3793 -3.8103
 4909SOL     OW26362   2.523   2.014  16.889 -0.4440 -0.0903 -0.1658
 4909SOL    HW126363   2.576   2.007  16.968 -0.6634 -0.7193 -0.0779
 4909SOL    HW226364   2.518   2.109  16.873 -1.3622 -0.1609 -0.3217
 4910SOL     OW26365   4.204   3.649   3.806 -0.2325 -0.2574  0.0490
 4910SOL    HW126366   4.233   3.728   3.851  0.1182 -2.0270  2.9155
 4910SOL    HW226367   4.116   3.679   3.782  0.4972  1.5780 -0.3541
 4911SOL     OW26368   0.449   3.893   5.267  0.1251 -0.1077 -0.0244
 4911SOL    HW126369   0.541   3.898   5.241  0.0969  0.1080 -0.0872
 4911SOL    HW226370   0.435   3.801   5.289 -0.4817  0.2897  1.2613
 4912SOL     OW26371   0.973   2.575   3.497 -0.7787 -0.6749  0.4439
 4912SOL    HW126372   1.037   2.640   3.527  0.3640 -2.1979  1.2933
 4912SOL    HW226373   1.014   2.528   3.425  0.9135 -0.6038  1.3631
 4913SOL     OW26374   2.474   0.435   4.940 -0.2639  0.4149  0.0308
 4913SOL    HW126375   2.401   0.431   4.878 -0.1382  0.5136 -0.1230
 4913SOL    HW226376   2.495   0.528   4.944 -0.9292  0.6078 -0.9548
 4914SOL     OW26377   3.579   2.419   6.825 -0.5675 -0.0987 -0.1833
 4914SOL    HW126378   3.665   2.415   6.867 -0.3731 -1.9345 -0.7688
 4914SOL    HW226379   3.610   2.416   6.735  0.9552 -0.0214  0.3446
 4915SOL     OW26380   3.755   1.994   8.042 -0.4258 -0.5010 -0.0934
 4915SOL    HW126381   3.736   2.072   8.095  1.3938  0.0798 -0.2929
 4915SOL    HW226382   3.842   2.014   8.008  0.2023  1.3143  2.5573
 4916SOL     OW26383   0.348   2.069   2.660  0.1974  0.2119  0.3136
 4916SOL    HW126384   0.382   2.000   2.603 -0.1572  0.6007 -0.3713
 4916SOL    HW226385   0.378   2.028   2.741 -3.0035 -1.1566  0.7923
 4917SOL     OW26386   0.511   0.964   5.901  0.1786 -0.0632 -0.2957
 4917SOL    HW126387   0.423   0.976   5.864  0.4184  2.1471 -0.1798
 4917SOL    HW226388   0.571   1.002   5.837  2.2337 -0.3061  1.5116
 4918SOL     OW26389   1.884   3.987   9.521 -0.1050 -0.4392  0.1698
 4918SOL    HW126390   1.942   3.928   9.569  0.5724 -0.7480 -1.0185
 4918SOL    HW226391   1.822   3.920   9.490  0.3556 -0.4983 -0.6309
 4919SOL     OW26392   2.138   0.140  15.954 -0.2652 -0.2038  0.2131
 4919SOL    HW126393   2.097   0.215  15.912 -1.2895  0.3371  2.1614
 4919SOL    HW226394   2.194   0.113  15.882  0.8306 -0.6735  1.2436
 4920SOL     OW26395   0.372   4.478   9.088 -0.2085  0.2726  0.6671
 4920SOL    HW126396   0.279   4.467   9.106 -0.0855 -0.9232  0.5685
 4920SOL    HW226397   0.390   4.572   9.085  0.4458  0.0979 -0.8186
 4921SOL     OW26398   3.834   1.804   3.439 -0.2387 -0.2021  0.2842
 4921SOL    HW126399   3.749   1.819   3.399 -0.0359 -1.3079 -0.5547
 4921SOL    HW226400   3.852   1.886   3.486  0.0086  0.5179 -1.0795
 4922SOL     OW26401   0.900   1.552   5.414  0.1385 -0.2103  0.6673
 4922SOL    HW126402   0.944   1.539   5.498 -0.0781 -1.7119  0.5443
 4922SOL    HW226403   0.975   1.576   5.360  0.4831  0.0036  1.2489
 4923SOL     OW26404   0.876   3.328   7.481  0.4429  0.0851 -0.0816
 4923SOL    HW126405   0.824   3.285   7.413 -2.9282  0.5761  2.2050
 4923SOL    HW226406   0.883   3.272   7.558  0.7809 -1.9089 -1.5744
 4924SOL     OW26407   2.217   2.168   3.926 -0.1759 -0.1366 -0.4052
 4924SOL    HW126408   2.290   2.161   3.987 -0.1042  1.0460 -0.3583
 4924SOL    HW226409   2.243   2.254   3.892 -3.5758  0.7786 -0.7068
 4925SOL     OW26410   1.044   3.146   6.547  0.2002  0.0594 -0.1488
 4925SOL    HW126411   1.139   3.137   6.540  0.2887  0.1617  0.9562
 4925SOL    HW226412   1.031   3.146   6.452  0.0746  0.1463 -0.1331
 4926SOL     OW26413   3.924   1.748   8.308 -0.1411 -0.5462 -0.3796
 4926SOL    HW126414   4.009   1.710   8.326 -0.6586 -0.4230  2.2958
 4926SOL    HW226415   3.913   1.784   8.396  0.9109  1.1506 -0.9700
 4927SOL     OW26416   3.124   4.715   2.053  0.0336  0.1063  0.0276
 4927SOL    HW126417   3.063   0.052   2.044 -0.8298 -0.7178 -0.8938
 4927SOL    HW226418   3.071   4.669   2.119 -0.5669 -1.8387 -1.8141
 4928SOL     OW26419   0.269   1.192  12.827 -0.4466  0.2851 -0.1010
 4928SOL    HW126420   0.264   1.253  12.753 -1.8009 -0.9647 -1.0257
 4928SOL    HW226421   0.228   1.247  12.894 -0.2070  0.0747  0.2198
 4929SOL     OW26422   2.521   3.072   8.104 -0.0591  0.3887 -0.3306
 4929SOL    HW126423   2.480   3.106   8.184 -1.4453 -0.9303 -0.4815
 4929SOL    HW226424   2.444   3.030   8.065 -1.6978  1.1663  2.0147
 4930SOL     OW26425   0.844   0.644   3.420  0.4702 -0.0131 -0.3311
 4930SOL    HW126426   0.864   0.552   3.405 -0.6809 -0.5893  1.7085
 4930SOL    HW226427   0.928   0.682   3.448  1.5172 -0.9260 -2.2461
 4931SOL     OW26428   0.345   0.546   7.273  0.4198 -0.0983  0.3289
 4931SOL    HW126429   0.427   0.577   7.311  0.4057 -1.2329  1.2768
 4931SOL    HW226430   0.367   0.453   7.282  0.4655 -0.2566 -1.3543
 4932SOL     OW26431   3.031   3.688   4.854 -0.0702 -0.2386 -0.1055
 4932SOL    HW126432   2.964   3.753   4.832  0.4643  1.1441  2.4214
 4932SOL    HW226433   2.993   3.660   4.937  0.1515 -0.2745 -0.0186
 4933SOL     OW26434   1.197   2.262   5.960 -0.2310 -0.5814  0.3455
 4933SOL    HW126435   1.193   2.249   5.865  1.7136  0.5265  0.1036
 4933SOL    HW226436   1.105   2.263   5.985 -0.6384 -1.7588 -1.0954
 4934SOL     OW26437   0.478   4.642  14.756  0.1905 -0.0942 -0.2082
 4934SOL    HW126438   0.514   4.554  14.747  2.0846  0.6866 -0.3333
 4934SOL    HW226439   0.415   4.648  14.684 -0.0056 -0.2127 -0.0431
 4935SOL     OW26440   1.114   3.478  16.103 -0.7286 -0.7541  0.6016
 4935SOL    HW126441   1.148   3.565  16.122 -1.2417 -0.6917  1.2244
 4935SOL    HW226442   1.039   3.505  16.051 -0.4086  2.3295  1.7675
 4936SOL     OW26443   2.791   3.783   7.551  0.2262 -0.1669 -0.2556
 4936SOL    HW126444   2.798   3.765   7.645 -2.3140 -0.8356 -0.2003
 4936SOL    HW226445   2.878   3.754   7.521  0.4144  0.4060 -0.2572
 4937SOL     OW26446   3.934   2.030   3.854  0.1687  0.0192  0.5600
 4937SOL    HW126447   3.871   1.958   3.856  1.0701 -0.8014 -0.1880
 4937SOL    HW226448   4.007   1.987   3.899  1.6282  1.1608 -0.7449
 4938SOL     OW26449   1.109   2.896   0.511  0.0217 -0.2212 -0.2000
 4938SOL    HW126450   1.020   2.919   0.537  0.5068  0.9471  0.4408
 4938SOL    HW226451   1.157   2.970   0.547  0.6092  0.1859 -1.8378
 4939SOL     OW26452   2.108   1.108   5.695 -0.5108 -0.0074 -0.7908
 4939SOL    HW126453   2.086   1.028   5.648  3.0083 -1.2313 -0.3924
 4939SOL    HW226454   2.053   1.173   5.652 -1.4637 -1.3966 -1.6575
 4940SOL     OW26455   4.085   0.600   9.433  0.3177  0.0203  0.3246
 4940SOL    HW126456   4.172   0.638   9.421 -0.0039  0.0139 -1.9499
 4940SOL    HW226457   4.045   0.629   9.351  0.1314  1.4131  0.9149
 4941SOL     OW26458   4.458   3.926  15.569 -0.3236  0.4019  0.0098
 4941SOL    HW126459   4.429   4.014  15.543 -0.5942  0.2732 -0.1203
 4941SOL    HW226460   4.541   3.945  15.614  0.5919 -1.1467 -1.0444
 4942SOL     OW26461   4.109   1.033   9.981 -0.0757 -0.1781  0.0759
 4942SOL    HW126462   4.127   0.941   9.962  0.1071  0.1191 -1.1837
 4942SOL    HW226463   4.192   1.080   9.969  0.0560 -0.6360 -0.8000
 4943SOL     OW26464   1.058   3.864   3.974  0.2441  0.0285 -0.1367
 4943SOL    HW126465   1.084   3.842   4.064 -0.8589 -1.3046 -0.1504
 4943SOL    HW226466   1.058   3.778   3.931  1.6396  0.6702 -1.4268
 4944SOL     OW26467   4.227   1.306   9.722 -0.0749  0.1982  0.1919
 4944SOL    HW126468   4.148   1.253   9.721  1.1908 -1.6683 -0.5945
 4944SOL    HW226469   4.271   1.276   9.801  2.4421  0.2776 -1.1747
 4945SOL     OW26470   4.310   3.824   3.973 -0.2814 -0.4163  0.4559
 4945SOL    HW126471   4.282   3.795   4.060 -0.0225  0.7661  0.9304
 4945SOL    HW226472   4.262   3.905   3.957 -1.4026 -1.3003 -0.8015
 4946SOL     OW26473   0.935   1.495   6.372 -0.0324  0.4222  0.5345
 4946SOL    HW126474   0.998   1.553   6.330 -2.5361  1.7093 -1.4492
 4946SOL    HW226475   1.001   1.428   6.388 -0.2974 -0.2951 -1.3093
 4947SOL     OW26476   2.775   2.983   2.726 -0.0858  0.2954 -0.3308
 4947SOL    HW126477   2.861   3.026   2.724  0.9777 -1.8912 -0.9702
 4947SOL    HW226478   2.777   2.953   2.817 -2.3047 -0.8017 -0.6348
 4948SOL     OW26479   3.532   3.754  12.123 -0.9525  0.0797 -0.2803
 4948SOL    HW126480   3.595   3.687  12.096 -0.4131  0.6309 -0.3787
 4948SOL    HW226481   3.556   3.828  12.067  1.1323 -0.9995 -0.8342
 4949SOL     OW26482   0.114   1.397  15.358 -0.2209 -0.1828  0.4483
 4949SOL    HW126483   0.128   1.492  15.365 -2.1989  0.1410  0.1756
 4949SOL    HW226484   0.108   1.388  15.263 -0.5112  2.4837  0.1946
 4950SOL     OW26485   3.096   4.669  14.933  0.0469 -0.2828  0.1507
 4950SOL    HW126486   3.092   4.631  14.845 -1.1387  2.0583 -0.7973
 4950SOL    HW226487   3.135   0.016  14.910  0.3965 -0.7999 -1.0991
 4951SOL     OW26488   1.643   3.329   6.373  0.3339  0.0429  0.0742
 4951SOL    HW126489   1.654   3.243   6.414  0.2083  0.7287  1.5499
 4951SOL    HW226490   1.723   3.330   6.320  1.2578  1.3280  1.4681
 4952SOL     OW26491   1.652   1.105   7.847 -0.3424  0.2052  0.2575
 4952SOL    HW126492   1.738   1.114   7.805 -1.3722  1.4354 -1.5508
 4952SOL    HW226493   1.654   1.172   7.915  0.4898  0.7886 -0.3432
 4953SOL     OW26494   0.226   0.011  16.692  0.2231  0.5454  0.6578
 4953SOL    HW126495   0.262   0.012  16.781  0.0200 -3.6085  0.7580
 4953SOL    HW226496   0.183   0.095  16.674 -1.0662 -0.5043 -1.1249
 4954SOL     OW26497   2.472   1.239   1.911  0.0393  0.2006  0.2469
 4954SOL    HW126498   2.380   1.213   1.902 -0.7055  3.0400 -0.4224
 4954SOL    HW226499   2.512   1.169   1.963 -2.7053 -1.0036  0.7156
 4955SOL     OW26500   3.701   4.012  14.510  0.2162  0.0743  0.8657
 4955SOL    HW126501   3.687   4.062  14.429 -2.3091  0.5356  1.6027
 4955SOL    HW226502   3.735   3.933  14.469 -1.4373  0.7460 -1.8023
 4956SOL     OW26503   1.470   4.086  14.025  0.0953  0.2849 -0.2344
 4956SOL    HW126504   1.551   4.076  14.076 -0.5016  0.1832  0.6938
 4956SOL    HW226505   1.416   4.015  14.059  0.6397 -0.4179 -0.8250
 4957SOL     OW26506   1.189   1.586   4.951 -0.3571 -0.3062  0.8251
 4957SOL    HW126507   1.283   1.574   4.938 -0.1841 -1.0792  2.9282
 4957SOL    HW226508   1.170   1.665   4.901  3.1835 -0.4988 -0.8721
 4958SOL     OW26509   1.057   1.720  13.883 -0.9705 -0.1027 -0.0875
 4958SOL    HW126510   1.021   1.664  13.814 -0.7289  0.9729 -1.0846
 4958SOL    HW226511   1.015   1.694  13.965 -0.3864 -1.0603 -0.0864
 4959SOL     OW26512   0.511   2.138   4.691  0.4960  0.4354 -0.0597
 4959SOL    HW126513   0.570   2.153   4.765  0.2987  0.3297  0.1187
 4959SOL    HW226514   0.463   2.220   4.695  0.0673  0.1725  0.2562
 4960SOL     OW26515   1.838   4.315  15.087  0.1875 -0.1730  0.1740
 4960SOL    HW126516   1.810   4.401  15.117  0.0704 -0.6379  1.4187
 4960SOL    HW226517   1.756   4.272  15.063  0.8502 -1.5552  0.3256
 4961SOL     OW26518   0.391   2.214   6.599  0.0904 -0.1266 -0.2988
 4961SOL    HW126519   0.452   2.285   6.618  0.4665  0.0781 -2.2783
 4961SOL    HW226520   0.391   2.215   6.503 -0.8279 -0.4346 -0.3026
 4962SOL     OW26521   2.395   0.924   3.412  0.0434  0.0536  0.6382
 4962SOL    HW126522   2.426   0.973   3.488  1.8507  1.3311 -0.9210
 4962SOL    HW226523   2.477   0.879   3.390  0.7845  1.1536  1.1788
 4963SOL     OW26524   4.377   3.522  14.553  0.1989 -0.6985 -0.3883
 4963SOL    HW126525   4.394   3.510  14.459  1.1501 -2.7104  0.0375
 4963SOL    HW226526   4.449   3.481  14.601 -0.6863 -2.5871 -0.6744
 4964SOL     OW26527   0.458   3.636   5.379 -0.3174  0.6335  0.0007
 4964SOL    HW126528   0.436   3.616   5.470  0.0636 -2.3289 -0.5764
 4964SOL    HW226529   0.476   3.551   5.340  0.2305  0.5575  0.4303
 4965SOL     OW26530   2.213   3.610   5.429 -0.0411 -0.0883  0.1300
 4965SOL    HW126531   2.302   3.618   5.462 -0.8048 -0.6964  2.3147
 4965SOL    HW226532   2.165   3.555   5.490  1.8938 -0.7209  1.0681
 4966SOL     OW26533   4.298   3.603   8.725 -0.2332  0.5171 -0.3243
 4966SOL    HW126534   4.218   3.637   8.765 -0.2858  2.8925 -2.4264
 4966SOL    HW226535   4.346   3.684   8.706  0.1793  0.2153 -0.5764
 4967SOL     OW26536   0.477   0.140   2.779  0.7277  0.6191 -0.2899
 4967SOL    HW126537   0.512   0.142   2.690  0.1804  1.1669 -0.4929
 4967SOL    HW226538   0.401   0.199   2.780 -1.1447 -1.8092  0.1678
 4968SOL     OW26539   1.148   1.732  17.700  0.1802 -0.1473 -0.2425
 4968SOL    HW126540   1.222   1.692  17.745 -0.6873  0.4527  1.7757
 4968SOL    HW226541   1.112   1.789   0.024 -0.3435 -0.7118 -0.0339
 4969SOL     OW26542   2.618   1.567   2.867  0.5691  0.4092 -0.2017
 4969SOL    HW126543   2.712   1.577   2.851  0.4974  0.2343 -0.7347
 4969SOL    HW226544   2.596   1.542   2.778 -1.2355  0.4374  0.2493
 4970SOL     OW26545   4.047   3.215  12.261 -0.4724 -0.2273 -0.0091
 4970SOL    HW126546   3.968   3.177  12.222  0.3054  0.7421 -2.5265
 4970SOL    HW226547   4.112   3.195  12.194  0.0210  1.7820 -0.1405
 4971SOL     OW26548   0.523   4.317   4.173  0.2747  0.3932 -0.4561
 4971SOL    HW126549   0.484   4.403   4.194 -0.1735  0.4468 -1.4750
 4971SOL    HW226550   0.587   4.301   4.241  0.6320  1.3208 -0.5669
 4972SOL     OW26551   2.594   1.679  11.931  0.2994  0.2758 -0.1612
 4972SOL    HW126552   2.519   1.657  11.876 -0.9567  0.8032  1.3217
 4972SOL    HW226553   2.550   1.710  12.010  3.1694 -0.3758  1.7072
 4973SOL     OW26554   0.190   0.011   4.844  0.2401 -0.5964 -0.2245
 4973SOL    HW126555   0.277   0.039   4.873  0.7002  1.2270 -3.4657
 4973SOL    HW226556   0.176   4.675   4.904 -1.5329 -0.8063 -0.9188
 4974SOL     OW26557   3.881   3.690  17.062 -0.1818 -0.0941 -0.3045
 4974SOL    HW126558   3.915   3.664  16.977  1.9674 -0.3772  0.6468
 4974SOL    HW226559   3.788   3.666  17.059  0.3125 -1.9931 -0.4856
 4975SOL     OW26560   3.756   2.362   2.770  0.3949  0.1595  0.1904
 4975SOL    HW126561   3.794   2.379   2.684 -0.3533 -0.3344 -0.2363
 4975SOL    HW226562   3.661   2.358   2.760  0.3249 -0.4421  1.0162
 4976SOL     OW26563   1.399   2.210   5.240 -0.2085  0.2006  0.2247
 4976SOL    HW126564   1.489   2.213   5.274 -0.2989  1.0304  0.3924
 4976SOL    HW226565   1.398   2.287   5.184 -1.0016  0.9272  1.2562
 4977SOL     OW26566   4.173   3.149   7.710  0.1775 -0.1207  0.5050
 4977SOL    HW126567   4.237   3.174   7.776  4.1125 -2.5119 -2.3968
 4977SOL    HW226568   4.103   3.108   7.760 -0.2807 -1.3504 -1.1370
 4978SOL     OW26569   2.925   1.950   4.556 -0.3892  0.5499  1.0546
 4978SOL    HW126570   2.905   1.908   4.472 -0.4711  1.1492  0.7784
 4978SOL    HW226571   2.952   1.870   4.601  1.6796  0.3316 -0.5713
 4979SOL     OW26572   1.885   0.622   2.830 -0.8041  0.4665  0.4655
 4979SOL    HW126573   1.790   0.632   2.826 -1.0888 -1.6652  1.4647
 4979SOL    HW226574   1.907   0.571   2.752 -0.5428 -0.2776  1.0148
 4980SOL     OW26575   0.231   1.242  16.377 -0.6478 -0.1628 -0.0261
 4980SOL    HW126576   0.159   1.217  16.435 -0.5083 -0.2557  0.1071
 4980SOL    HW226577   0.188   1.213  16.297  1.2623  0.0688 -1.1243
 4981SOL     OW26578   3.737   4.242  11.788 -0.0653 -0.4870  0.1167
 4981SOL    HW126579   3.680   4.165  11.789  0.0619 -0.5771  0.5748
 4981SOL    HW226580   3.821   4.204  11.762 -1.2092 -2.8287 -0.1208
 4982SOL     OW26581   3.954   2.053  14.251  0.2606  0.4837 -0.2833
 4982SOL    HW126582   4.039   2.067  14.293  0.0588 -0.0950  0.3251
 4982SOL    HW226583   3.926   2.139  14.221 -1.7201 -0.5034 -1.2416
 4983SOL     OW26584   3.414   1.734   8.521 -0.1781  0.0522 -0.0645
 4983SOL    HW126585   3.347   1.703   8.582 -0.0907 -2.5401 -1.2494
 4983SOL    HW226586   3.400   1.828   8.528 -2.0143 -0.2697  0.4461
 4984SOL     OW26587   2.647   3.540  14.468 -0.4990  0.8186 -0.0582
 4984SOL    HW126588   2.638   3.445  14.471  1.1614  0.5736 -2.6725
 4984SOL    HW226589   2.629   3.554  14.375  0.3835  1.9478 -0.0568
 4985SOL     OW26590   2.309   4.385   2.384  0.0716  0.1543  0.0625
 4985SOL    HW126591   2.279   4.314   2.440  0.5601 -0.4736 -0.4772
 4985SOL    HW226592   2.237   4.397   2.322 -0.6006 -0.3269  0.7516
 4986SOL     OW26593   4.303   0.252   2.571  0.3142  0.0294 -0.6694
 4986SOL    HW126594   4.294   0.234   2.477 -1.5819 -1.4300 -0.2073
 4986SOL    HW226595   4.396   0.271   2.576  0.4554 -0.6798 -0.6409
 4987SOL     OW26596   0.625   2.987  12.221  0.1832  0.0686 -0.0016
 4987SOL    HW126597   0.539   2.946  12.217  0.2871 -0.0945 -0.5222
 4987SOL    HW226598   0.680   2.910  12.211  0.9049  0.8648 -2.1500
 4988SOL     OW26599   0.715   0.788   8.135 -0.6028  0.6862 -0.1406
 4988SOL    HW126600   0.643   0.839   8.098  0.9655  2.4557 -0.7370
 4988SOL    HW226601   0.778   0.851   8.168 -0.0312 -0.3806  0.8143
 4989SOL     OW26602   2.760   2.667   9.235 -0.2286  0.2595 -0.1345
 4989SOL    HW126603   2.775   2.686   9.328 -1.3338 -0.8360  0.2704
 4989SOL    HW226604   2.702   2.591   9.240  0.2034  0.0495  1.7311
 4990SOL     OW26605   3.709   0.233  15.857 -0.0907 -0.2352 -1.1096
 4990SOL    HW126606   3.725   0.139  15.867  0.2288 -0.1263 -0.5943
 4990SOL    HW226607   3.684   0.263  15.944 -0.0211 -0.1278 -1.1258
 4991SOL     OW26608   0.911   3.661   2.485 -0.8253  0.2874  0.2787
 4991SOL    HW126609   0.874   3.749   2.480  0.3074  0.7269 -0.3473
 4991SOL    HW226610   0.837   3.607   2.455  0.2926 -0.4333 -1.1703
 4992SOL     OW26611   0.453   2.056  15.184  0.1164  0.1497 -0.3628
 4992SOL    HW126612   0.508   1.984  15.216 -2.2433 -1.4273  0.1240
 4992SOL    HW226613   0.364   2.027  15.202 -0.5156  2.3737  0.0934
 4993SOL     OW26614   4.169   2.219   6.790  0.5213 -0.3084  0.1233
 4993SOL    HW126615   4.262   2.239   6.800  0.5441 -0.9599  1.1742
 4993SOL    HW226616   4.167   2.202   6.696  1.8201 -0.6615  0.1586
 4994SOL     OW26617   3.600   1.732  11.615 -0.0839  0.2207  0.1882
 4994SOL    HW126618   3.538   1.690  11.555 -0.1132  1.9392 -1.0155
 4994SOL    HW226619   3.668   1.770  11.560  0.6833 -2.5743 -0.7966
 4995SOL     OW26620   1.402   0.587   9.401  0.0817  0.2501 -0.5843
 4995SOL    HW126621   1.361   0.520   9.346 -0.6305  0.6760 -0.5652
 4995SOL    HW226622   1.488   0.593   9.358  0.4207 -1.0484 -0.0865
 4996SOL     OW26623   1.815   4.002   6.382 -0.4237  0.0016  0.2632
 4996SOL    HW126624   1.765   3.967   6.456  1.1625  0.3179  1.4824
 4996SOL    HW226625   1.803   3.937   6.313  0.3481 -0.3814  0.4915
 4997SOL     OW26626   4.547   4.478  12.435 -0.1128  0.2340 -0.2512
 4997SOL    HW126627   4.507   4.563  12.416  0.3462  0.1284 -1.7591
 4997SOL    HW226628   4.529   4.430  12.353  0.0224  2.3346 -1.5128
 4998SOL     OW26629   2.672   1.503   1.238 -0.4950  0.3060 -0.5349
 4998SOL    HW126630   2.694   1.557   1.314  2.6888 -1.5672 -0.1315
 4998SOL    HW226631   2.691   1.568   1.170  0.6830 -0.7527 -1.2203
 4999SOL     OW26632   3.796   1.533   3.365  0.8044  0.0121 -0.1483
 4999SOL    HW126633   3.769   1.545   3.274  0.5902 -0.0424 -0.0925
 4999SOL    HW226634   3.821   1.622   3.388 -0.7413  0.4848 -0.3141
 5000SOL     OW26635   2.405   0.220  13.364  1.3117  0.0988  0.7783
 5000SOL    HW126636   2.484   0.271  13.349  1.1884  0.6987  2.2330
 5000SOL    HW226637   2.450   0.142  13.396  0.4884  0.2526  2.3329
 5001SOL     OW26638   3.650   4.145   7.117 -0.3702  0.0095  0.2036
 5001SOL    HW126639   3.665   4.230   7.159 -1.0845  1.6560 -2.8888
 5001SOL    HW226640   3.730   4.116   7.074 -0.6859 -1.3261  0.5255
 5002SOL     OW26641   2.426   1.452   0.581  0.1652 -0.3403  0.4325
 5002SOL    HW126642   2.433   1.548   0.579  1.0625 -0.4744 -3.4127
 5002SOL    HW226643   2.516   1.423   0.591  1.0999  1.8296 -1.6862
 5003SOL     OW26644   1.718   3.720  15.751 -0.3680  0.1773  0.0963
 5003SOL    HW126645   1.637   3.769  15.736 -0.9584 -0.9276 -0.3496
 5003SOL    HW226646   1.737   3.749  15.840  1.2123  0.0858 -0.2163
 5004SOL     OW26647   3.038   4.346   4.461 -0.1165 -0.3587  0.6795
 5004SOL    HW126648   3.017   4.401   4.385  0.7264 -1.0373 -0.0521
 5004SOL    HW226649   3.113   4.394   4.497  0.3233 -1.3068  1.0131
 5005SOL     OW26650   0.181   0.040   2.167  0.0029 -0.5332 -0.4674
 5005SOL    HW126651   0.133   4.705   2.209 -1.0151  0.5656  0.2273
 5005SOL    HW226652   0.258   4.726   2.142 -0.2288 -0.4288 -1.4038
 5006SOL     OW26653   1.218   0.006   2.375 -0.5074  0.1453 -0.1684
 5006SOL    HW126654   1.140   0.047   2.411  0.2704  1.3149  0.2073
 5006SOL    HW226655   1.234   4.682   2.447  0.2775  3.2245  2.2325
 5007SOL     OW26656   4.669   4.600   2.959  0.3597  0.3519  0.4845
 5007SOL    HW126657   4.579   4.569   2.956  0.2174  0.8418 -0.5747
 5007SOL    HW226658   4.664   4.623   3.051 -0.5457  0.8588  0.3047
 5008SOL     OW26659   1.330   1.496   4.100 -0.0288 -0.4505 -0.1080
 5008SOL    HW126660   1.260   1.503   4.036 -0.3525  2.7256  0.6189
 5008SOL    HW226661   1.407   1.503   4.043  0.2918 -0.0783  0.3614
 5009SOL     OW26662   1.799   1.041   0.206  0.5002  0.1324  0.1679
 5009SOL    HW126663   1.865   1.044   0.137 -1.0919  0.0504 -1.3778
 5009SOL    HW226664   1.822   1.117   0.259  1.6916  0.2631 -0.5433
 5010SOL     OW26665   0.948   3.728  12.979 -0.0430 -0.8087  0.0280
 5010SOL    HW126666   0.870   3.783  12.970 -0.4882 -1.4447  0.0123
 5010SOL    HW226667   0.987   3.752  13.063  1.3508  0.4547 -0.9697
 5011SOL     OW26668   2.119   4.130   8.141  0.1065  0.3664 -0.5449
 5011SOL    HW126669   2.204   4.096   8.168  0.1377  0.1604 -0.9130
 5011SOL    HW226670   2.131   4.186   8.064  1.3064 -1.3684 -1.6107
 5012SOL     OW26671   3.767   2.413   5.505 -0.3216 -0.0951  0.5181
 5012SOL    HW126672   3.777   2.468   5.583  3.4968  0.9561 -0.7453
 5012SOL    HW226673   3.844   2.443   5.458 -0.6024  0.1610  0.2247
 5013SOL     OW26674   4.439   0.725   8.314 -0.2449 -0.1500  0.0581
 5013SOL    HW126675   4.395   0.753   8.394 -1.0534 -1.8973  0.2387
 5013SOL    HW226676   4.524   0.696   8.347 -0.1707  0.9057  0.7906
 5014SOL     OW26677   2.921   1.883   7.223 -0.2762 -0.3651 -0.1619
 5014SOL    HW126678   2.936   1.960   7.168  0.8576 -0.4433  0.0259
 5014SOL    HW226679   2.992   1.901   7.285 -0.1327  2.3068 -1.1258
 5015SOL     OW26680   3.430   3.360   2.607 -0.3046 -0.0323 -0.9285
 5015SOL    HW126681   3.400   3.273   2.580 -0.0854 -0.2852 -0.3427
 5015SOL    HW226682   3.374   3.374   2.683 -0.5055  0.0003 -1.0818
 5016SOL     OW26683   0.816   0.305  16.485 -0.1242  0.3170 -0.0375
 5016SOL    HW126684   0.781   0.246  16.553 -1.9085  1.3786 -0.0363
 5016SOL    HW226685   0.812   0.255  16.404 -0.1203 -0.4432  0.4339
 5017SOL     OW26686   1.772   0.020  11.588 -0.0752  0.2891 -0.2794
 5017SOL    HW126687   1.809   4.686  11.639 -1.7298 -0.5380 -0.2332
 5017SOL    HW226688   1.823   4.733  11.510 -0.7117  4.0916 -1.8795
 5018SOL     OW26689   0.717   2.468   7.689 -0.6164 -0.6410  0.5755
 5018SOL    HW126690   0.623   2.482   7.677 -0.2164 -0.2474 -2.1643
 5018SOL    HW226691   0.738   2.507   7.774 -0.0825 -1.3503  0.7642
 5019SOL     OW26692   2.949   2.216   5.659 -0.0812  0.2741  0.0488
 5019SOL    HW126693   2.881   2.220   5.592 -1.1208  2.6389  1.2264
 5019SOL    HW226694   2.917   2.154   5.724  1.1648  1.6222  1.9593
 5020SOL     OW26695   2.443   4.404   8.143  0.3282  0.0215 -0.3348
 5020SOL    HW126696   2.537   4.417   8.132  0.4760 -0.7419  0.0760
 5020SOL    HW226697   2.450   4.314   8.174  0.0167  0.4508  0.9426
 5021SOL     OW26698   3.779   4.598   8.091 -0.0779  0.7982 -0.4886
 5021SOL    HW126699   3.860   4.636   8.057  1.7981 -1.7494  1.0497
 5021SOL    HW226700   3.765   4.655   8.167 -1.3769  1.7242 -1.4444
 5022SOL     OW26701   2.327   4.589   5.728 -0.1950  0.3879 -0.5445
 5022SOL    HW126702   2.242   4.605   5.687 -1.9602 -4.3779  1.2970
 5022SOL    HW226703   2.355   4.674   5.763  1.8862  0.0325 -1.3656
 5023SOL     OW26704   1.883   1.773   3.709  0.0937 -0.0285  0.4508
 5023SOL    HW126705   1.839   1.692   3.735 -1.2256 -0.4054 -2.9721
 5023SOL    HW226706   1.807   1.831   3.705  0.7064  0.8474  1.3251
 5024SOL     OW26707   0.193   0.620  13.848 -0.0131  0.0274 -0.1003
 5024SOL    HW126708   0.160   0.696  13.894 -0.0957 -1.7201  2.7425
 5024SOL    HW226709   0.176   0.644  13.757 -0.1612  2.2927  0.5316
 5025SOL     OW26710   0.162   3.404   1.657  0.1108  0.5810 -0.6900
 5025SOL    HW126711   0.139   3.497   1.656  3.3345  1.3662 -0.2892
 5025SOL    HW226712   0.193   3.385   1.568  0.2966 -1.6485 -0.1518
 5026SOL     OW26713   2.885   1.518  17.199 -0.0446  0.2105 -0.2047
 5026SOL    HW126714   2.965   1.471  17.222  0.1216  0.4086 -0.3803
 5026SOL    HW226715   2.908   1.557  17.115  2.6413  0.4575  0.6349
 5027SOL     OW26716   3.746   3.710   1.096  0.2636  0.6496  0.2864
 5027SOL    HW126717   3.761   3.652   1.171 -0.2964 -1.4941 -1.2510
 5027SOL    HW226718   3.839   3.720   1.078  0.5860 -2.2309  0.2386
 5028SOL     OW26719   4.598   0.858   9.607 -0.3510  0.3608 -0.6077
 5028SOL    HW126720   4.519   0.881   9.656  1.1543  4.5672 -0.1965
 5028SOL    HW226721   4.626   0.937   9.560  0.0490 -0.0895 -1.1199
 5029SOL     OW26722   0.066   1.180   3.962 -0.0773 -0.2895 -0.5514
 5029SOL    HW126723   0.156   1.202   3.937 -0.3271  0.4921 -0.7441
 5029SOL    HW226724   0.042   1.127   3.886 -0.9168 -0.3973 -0.2101
 5030SOL     OW26725   4.005   1.376   7.202 -0.2497  0.7579  0.0239
 5030SOL    HW126726   4.074   1.311   7.209 -0.2870  0.7234  0.0686
 5030SOL    HW226727   3.947   1.345   7.133  0.2875 -1.0417  0.4060
 5031SOL     OW26728   0.170   1.942   9.426 -0.6703 -0.4548 -0.4470
 5031SOL    HW126729   0.169   1.876   9.496  0.8845  0.3355  0.3178
 5031SOL    HW226730   0.085   1.924   9.387 -0.9196 -1.3662  0.5325
 5032SOL     OW26731   2.835   1.573   0.175 -0.2136 -0.2238 -0.2626
 5032SOL    HW126732   2.868   1.498   0.224  3.5553  0.6528 -1.3928
 5032SOL    HW226733   2.839   1.529   0.090 -1.6774 -0.5618 -0.1537
 5033SOL     OW26734   1.504   1.845   6.754  0.0080 -0.0108 -0.1314
 5033SOL    HW126735   1.483   1.783   6.684  0.0831  0.9250 -0.9964
 5033SOL    HW226736   1.600   1.844   6.756 -0.0684 -2.2084  2.0672
 5034SOL     OW26737   0.550   4.262  15.444 -0.2644 -0.7471 -0.0003
 5034SOL    HW126738   0.493   4.236  15.371 -0.5358  0.6440 -0.2928
 5034SOL    HW226739   0.634   4.224  15.418 -0.1225  0.0218 -0.6619
 5035SOL     OW26740   0.642   4.027   7.978 -0.2411 -0.9302 -0.0994
 5035SOL    HW126741   0.563   3.975   7.993 -0.9439  0.1622 -0.0646
 5035SOL    HW226742   0.712   3.970   8.009  0.4797  0.2937  0.5166
 5036SOL     OW26743   0.497   3.023  15.112 -0.2811  0.1870  0.1097
 5036SOL    HW126744   0.468   2.968  15.039 -1.0434 -0.2070  0.7109
 5036SOL    HW226745   0.583   2.984  15.100 -0.6659  0.3747 -3.2145
 5037SOL     OW26746   4.452   3.851   3.532  0.0246  0.7631  0.5082
 5037SOL    HW126747   4.524   3.910   3.511  1.9061 -2.2181 -1.5726
 5037SOL    HW226748   4.478   3.820   3.618  2.0440  0.4499 -0.2032
 5038SOL     OW26749   3.465   0.133   4.871  0.1059 -0.1542 -1.0711
 5038SOL    HW126750   3.417   0.093   4.943 -1.5449  1.2101 -1.4252
 5038SOL    HW226751   3.405   0.199   4.837  1.0988  1.8671  1.1209
 5039SOL     OW26752   0.048   0.654   2.128 -0.2521  0.2600  0.1205
 5039SOL    HW126753   0.130   0.691   2.095 -0.4829 -1.2629 -2.1369
 5039SOL    HW226754   0.088   0.620   2.208 -1.7587 -2.0715 -0.1161
 5040SOL     OW26755   0.453   0.271   7.278  0.3913 -0.0890  0.0465
 5040SOL    HW126756   0.547   0.289   7.277 -0.2170  3.0369  1.6101
 5040SOL    HW226757   0.451   0.224   7.361  0.5685 -1.1759 -0.5587
 5041SOL     OW26758   4.216   3.800   4.602  0.1790 -0.0945 -0.1947
 5041SOL    HW126759   4.254   3.851   4.674  1.8683  0.4942 -1.5100
 5041SOL    HW226760   4.138   3.851   4.581  0.0041 -1.2390 -2.3941
 5042SOL     OW26761   3.180   4.187   3.316  0.4346 -0.1695  0.0782
 5042SOL    HW126762   3.166   4.277   3.285 -0.8697 -1.4255 -2.9370
 5042SOL    HW226763   3.090   4.158   3.307  0.0488  0.9854  0.1488
 5043SOL     OW26764   2.598   4.705   5.344 -0.1155 -0.3886 -0.7107
 5043SOL    HW126765   2.623   4.649   5.418 -1.8918 -2.1045 -1.3911
 5043SOL    HW226766   2.680   4.735   5.306  0.2969 -0.2778  0.2594
 5044SOL     OW26767   4.301   0.821   4.715 -0.4795  0.1732 -0.0410
 5044SOL    HW126768   4.389   0.803   4.681 -1.3036 -0.9716 -1.5954
 5044SOL    HW226769   4.276   0.728   4.720 -1.9663  0.5425 -0.5792
 5045SOL     OW26770   1.053   1.821   5.157  0.0809 -0.1197 -0.2684
 5045SOL    HW126771   1.106   1.803   5.080 -0.3963  1.3027 -0.9259
 5045SOL    HW226772   1.068   1.914   5.170 -2.3071  0.3382 -0.8150
 5046SOL     OW26773   0.297   2.956  15.502  0.5934  0.0854 -0.2367
 5046SOL    HW126774   0.265   2.930  15.588  0.1420 -0.3046 -0.5231
 5046SOL    HW226775   0.213   2.956  15.455  1.0676 -0.9956 -1.1032
 5047SOL     OW26776   1.677   0.601   5.202 -0.0477 -0.0050 -0.2903
 5047SOL    HW126777   1.725   0.580   5.122  1.7575  0.0954  0.7556
 5047SOL    HW226778   1.624   0.526   5.229  0.9854 -0.2942  0.9699
 5048SOL     OW26779   3.087   0.329   7.840 -0.3222  0.5636  0.1301
 5048SOL    HW126780   3.028   0.401   7.863 -0.7256  0.6931 -1.3249
 5048SOL    HW226781   3.170   0.376   7.831  0.2857 -0.4996  0.2235
 5049SOL     OW26782   1.754   0.922   2.644  0.7676  0.3063  0.1201
 5049SOL    HW126783   1.713   0.850   2.693  1.0561 -1.4877 -2.2624
 5049SOL    HW226784   1.818   0.945   2.711  0.0235  0.0216  0.9356
 5050SOL     OW26785   0.304   0.731   9.411  0.0543 -0.0357 -0.5157
 5050SOL    HW126786   0.293   0.823   9.434 -1.5715 -0.3336 -0.0576
 5050SOL    HW226787   0.274   0.736   9.320 -2.0688  1.8179  0.2765
 5051SOL     OW26788   2.081   3.939   2.993 -0.7678  0.0865 -0.4308
 5051SOL    HW126789   2.001   3.953   2.943 -1.5241 -1.1148  0.4582
 5051SOL    HW226790   2.061   3.856   3.036 -0.3389 -0.3953 -1.1457
 5052SOL     OW26791   3.971   0.640  15.279 -0.0463  0.3484 -0.4321
 5052SOL    HW126792   4.007   0.710  15.334 -0.4287  0.2764 -0.0848
 5052SOL    HW226793   3.910   0.592  15.336 -0.0131  2.0275  1.0492
 5053SOL     OW26794   4.537   3.272   7.729 -0.2340 -0.3338 -0.1438
 5053SOL    HW126795   4.617   3.306   7.768  0.6905  0.0252 -2.3087
 5053SOL    HW226796   4.535   3.183   7.766 -0.8017 -1.0339 -1.8563
 5054SOL     OW26797   4.474   0.163   2.130 -0.0091 -0.0125  0.0618
 5054SOL    HW126798   4.472   0.139   2.222  1.1007  0.0452  0.0947
 5054SOL    HW226799   4.520   0.087   2.096 -0.2588  0.9246 -2.3720
 5055SOL     OW26800   1.583   3.364   5.011 -0.1948 -0.1380 -0.3909
 5055SOL    HW126801   1.539   3.430   5.065  0.9348  1.0794 -0.9505
 5055SOL    HW226802   1.526   3.344   4.937 -1.6041 -1.5259  1.0715
 5056SOL     OW26803   1.676   3.756   7.953  0.3065  0.2937 -0.1404
 5056SOL    HW126804   1.624   3.683   7.920  0.9022 -0.1804 -0.0146
 5056SOL    HW226805   1.746   3.701   7.987  0.0687 -0.9264 -1.6026
 5057SOL     OW26806   3.653   4.725   5.507 -0.3131 -0.5856 -0.5483
 5057SOL    HW126807   3.651   4.731   5.411  2.3278 -1.4237 -0.6734
 5057SOL    HW226808   3.561   4.708   5.528  0.2176  0.7483  2.8714
 5058SOL     OW26809   2.740   3.301   8.073 -0.0231  0.5201  0.1266
 5058SOL    HW126810   2.715   3.243   8.001  0.1250 -2.3110  2.3858
 5058SOL    HW226811   2.676   3.369   8.054  0.7401  0.8873 -1.1570
 5059SOL     OW26812   2.899   0.235   2.661 -0.3441  0.5836 -0.1564
 5059SOL    HW126813   2.849   0.275   2.732 -2.0915  2.5843 -2.5267
 5059SOL    HW226814   2.849   0.155   2.646 -0.8270  0.3219  2.8486
 5060SOL     OW26815   4.045   1.177   1.124 -0.1774  0.1663 -0.2422
 5060SOL    HW126816   3.951   1.165   1.136 -0.4221  2.1100 -0.1538
 5060SOL    HW226817   4.071   1.108   1.184 -1.8213  0.7334  1.1200
 5061SOL     OW26818   2.935   0.663  14.225 -0.8592  0.4622 -0.2982
 5061SOL    HW126819   2.997   0.684  14.156 -0.2684  0.4392  0.2302
 5061SOL    HW226820   2.899   0.583  14.185  1.6463 -0.9046  0.2176
 5062SOL     OW26821   3.092   4.643   7.154 -0.3075 -0.2092  0.2220
 5062SOL    HW126822   3.175   4.600   7.172 -0.0351  1.4130  2.7289
 5062SOL    HW226823   3.054   4.581   7.091 -0.9623 -0.7038  1.0970
 5063SOL     OW26824   1.321   2.120   4.099  0.1098  0.8715  0.3213
 5063SOL    HW126825   1.237   2.086   4.067  1.2026 -1.1889 -0.3500
 5063SOL    HW226826   1.305   2.211   4.073  0.3301  1.1983  1.3400
 5064SOL     OW26827   4.041   0.339  14.801 -0.0587  0.1624 -0.3122
 5064SOL    HW126828   4.081   0.310  14.883 -1.9312 -1.0701  0.1513
 5064SOL    HW226829   4.110   0.391  14.759 -1.3746  1.7448 -0.4917
 5065SOL     OW26830   1.150   1.435   3.911 -0.8291  0.7578  0.4547
 5065SOL    HW126831   1.074   1.379   3.925 -0.0280 -0.5128 -0.2726
 5065SOL    HW226832   1.107   1.519   3.898 -1.9149 -0.0254 -0.9170
 5066SOL     OW26833   0.349   0.494  13.239  0.1991 -1.5590 -1.0283
 5066SOL    HW126834   0.287   0.522  13.173 -0.3452  0.9217  0.5544
 5066SOL    HW226835   0.389   0.416  13.200  0.3153 -1.5915 -0.8490
 5067SOL     OW26836   0.963   1.918   9.713 -0.2743  0.1232  0.4915
 5067SOL    HW126837   0.942   1.969   9.635 -1.2112 -0.2510  0.4985
 5067SOL    HW226838   0.932   1.972   9.785 -1.5147 -1.4761  1.1728
 5068SOL     OW26839   0.170   3.654   7.937  0.0727  0.0416 -0.4572
 5068SOL    HW126840   0.097   3.593   7.937 -0.4960  0.7212 -0.5621
 5068SOL    HW226841   0.167   3.685   8.027 -0.0027 -1.1556 -0.0489
 5069SOL     OW26842   3.117   1.205   6.563  0.0792  0.0199  0.4534
 5069SOL    HW126843   3.047   1.230   6.623  0.0888  1.1627 -0.0183
 5069SOL    HW226844   3.076   1.221   6.478  1.3316  1.9460  0.2102
 5070SOL     OW26845   4.220   4.367   6.110  0.0746  0.1232  0.5532
 5070SOL    HW126846   4.280   4.330   6.046 -1.0975 -1.5276  0.4006
 5070SOL    HW226847   4.144   4.408   6.069  0.4013  0.8267  0.6492
 5071SOL     OW26848   3.763   1.821  11.203  0.2405 -0.0040 -0.6064
 5071SOL    HW126849   3.706   1.843  11.130 -0.3818  2.0805  0.5170
 5071SOL    HW226850   3.814   1.758  11.153  0.6798  1.3758 -1.9042
 5072SOL     OW26851   1.851   3.256   4.805 -0.0957  0.1396  0.0074
 5072SOL    HW126852   1.765   3.245   4.764  0.9338 -0.0407 -2.1317
 5072SOL    HW226853   1.824   3.319   4.872 -2.3446 -2.1080  1.2028
 5073SOL     OW26854   2.773   4.644   7.415  0.5868 -0.1121 -0.4920
 5073SOL    HW126855   2.699   4.609   7.464  1.1223  1.1105  1.1821
 5073SOL    HW226856   2.812   4.566   7.375 -0.5248 -0.8629 -0.1182
 5074SOL     OW26857   1.935   4.696   7.423 -0.2328 -0.5830  0.0445
 5074SOL    HW126858   2.006   4.706   7.359 -0.0364 -2.4627 -0.0454
 5074SOL    HW226859   1.983   4.667   7.500 -1.2401  0.8024  1.1828
 5075SOL     OW26860   1.265   2.974   1.039  0.6327  0.2031  0.0652
 5075SOL    HW126861   1.256   2.998   0.946 -0.4160  2.2260  0.6818
 5075SOL    HW226862   1.356   2.948   1.048  0.3592  0.1038  2.5541
 5076SOL     OW26863   2.218   1.750   1.159 -0.1460  0.6865 -1.1877
 5076SOL    HW126864   2.257   1.828   1.200 -0.0029  0.7594 -1.4603
 5076SOL    HW226865   2.128   1.760   1.190 -0.8657  1.7436 -3.6178
 5077SOL     OW26866   2.665   0.584   7.327 -0.0966 -0.1073 -0.3413
 5077SOL    HW126867   2.623   0.636   7.395  0.7397 -1.3544  1.1198
 5077SOL    HW226868   2.648   0.635   7.247  2.2851  1.9156  0.4217
 5078SOL     OW26869   1.180   2.587   2.903 -0.0465 -0.4641  0.1035
 5078SOL    HW126870   1.217   2.499   2.895 -0.0353 -0.6596  2.1995
 5078SOL    HW226871   1.104   2.561   2.955 -1.4061  1.8218 -0.7827
 5079SOL     OW26872   3.653   0.226   0.193  0.1514 -0.8672  0.2117
 5079SOL    HW126873   3.609   0.192   0.271 -0.1237 -1.6981 -0.3045
 5079SOL    HW226874   3.732   0.172   0.195  0.6563 -0.1476 -0.1853
 5080SOL     OW26875   3.458   3.413   6.811  0.0781 -0.3425  0.4149
 5080SOL    HW126876   3.400   3.380   6.743  2.4304  0.5233 -2.0094
 5080SOL    HW226877   3.536   3.435   6.759  0.7490 -1.1735  1.0674
 5081SOL     OW26878   3.710   3.753  14.435 -0.5222  0.5055 -0.4496
 5081SOL    HW126879   3.727   3.680  14.495  1.4179  1.3196 -0.0097
 5081SOL    HW226880   3.625   3.721  14.403 -0.8283  1.1318 -0.2618
 5082SOL     OW26881   0.264   3.863   4.005  0.0078  0.5804  0.0771
 5082SOL    HW126882   0.317   3.869   3.925  0.3736 -1.3218  0.1798
 5082SOL    HW226883   0.185   3.819   3.974  1.5456 -1.8247 -0.4217
 5083SOL     OW26884   0.582   4.222   2.504 -0.6218 -0.6955  0.0604
 5083SOL    HW126885   0.634   4.152   2.545 -1.1252 -0.1587  1.5896
 5083SOL    HW226886   0.496   4.183   2.521 -1.3413  1.4309  1.1773
 5084SOL     OW26887   4.003   0.537   8.396 -0.1580  0.5269 -0.2743
 5084SOL    HW126888   4.044   0.619   8.367 -0.9783 -0.1045 -3.2302
 5084SOL    HW226889   4.046   0.522   8.480 -1.5163  1.3749  0.5867
 5085SOL     OW26890   3.419   3.762   3.890  0.0571  0.1352 -1.0393
 5085SOL    HW126891   3.384   3.679   3.923  0.0217  0.2850 -0.7021
 5085SOL    HW226892   3.352   3.802   3.835 -0.6819 -0.9611 -0.9392
 5086SOL     OW26893   0.141   3.387  11.714  0.1713  0.1914 -0.6380
 5086SOL    HW126894   0.060   3.420  11.753  0.8180 -0.0756  0.9399
 5086SOL    HW226895   0.142   3.449  11.641  2.1406 -0.3331 -1.0483
 5087SOL     OW26896   2.521   2.070   7.710 -0.3569 -0.0846  0.0644
 5087SOL    HW126897   2.577   2.050   7.785 -0.7260 -0.3896  0.2644
 5087SOL    HW226898   2.577   2.035   7.641  1.9691  0.0703  1.8600
 5088SOL     OW26899   3.889   3.028  17.314 -0.6150 -0.2245 -0.1201
 5088SOL    HW126900   3.945   3.077  17.374  1.5821 -3.2720  0.3121
 5088SOL    HW226901   3.914   3.068  17.231  1.2481  0.1836  0.6383
 5089SOL     OW26902   3.136   0.793  10.742  0.2179 -0.0434 -0.5098
 5089SOL    HW126903   3.175   0.770  10.658  1.6461  0.4146  0.0269
 5089SOL    HW226904   3.185   0.873  10.764  0.9501 -0.4629 -0.5906
 5090SOL     OW26905   0.680   3.847   3.445 -0.2431  0.2960 -0.9344
 5090SOL    HW126906   0.596   3.886   3.469  0.9557  1.8750  0.7208
 5090SOL    HW226907   0.694   3.900   3.366  0.5880  1.6546  0.1064
 5091SOL     OW26908   2.751   3.437   6.991  0.6269 -0.0120 -0.8749
 5091SOL    HW126909   2.796   3.459   7.073  0.9748 -2.1905 -0.4743
 5091SOL    HW226910   2.681   3.384   7.029  0.9952  0.9810  1.1853
 5092SOL     OW26911   2.405   1.422   6.742 -0.0780  0.1841  0.2468
 5092SOL    HW126912   2.392   1.515   6.721  0.2542  0.2716  0.4202
 5092SOL    HW226913   2.336   1.389   6.685  0.0842  0.1241  0.0841
 5093SOL     OW26914   2.612   4.694   2.630  0.4712  0.2259  0.3440
 5093SOL    HW126915   2.533   0.009   2.620 -0.0885 -0.1917  2.5013
 5093SOL    HW226916   2.627   4.680   2.724  0.2854  1.2746  0.5257
 5094SOL     OW26917   2.234   3.569   6.632  0.3972 -0.4176  0.3230
 5094SOL    HW126918   2.319   3.600   6.664 -0.2066 -0.0379  1.5582
 5094SOL    HW226919   2.230   3.630   6.558 -0.0048 -0.1423  0.5751
 5095SOL     OW26920   0.878   0.397   3.887 -0.0220  0.2637  0.0975
 5095SOL    HW126921   0.887   0.381   3.981 -0.2888  0.7939  0.2138
 5095SOL    HW226922   0.945   0.343   3.845 -0.4653  0.8000 -1.2812
 5096SOL     OW26923   4.509   0.802   2.188  0.6791 -0.6383 -0.4197
 5096SOL    HW126924   4.470   0.855   2.118 -1.4251 -0.3841  0.9511
 5096SOL    HW226925   4.604   0.807   2.176  0.7575  1.5784  1.0994
 5097SOL     OW26926   2.435   3.711   5.542 -0.2862 -0.0315 -0.3663
 5097SOL    HW126927   2.527   3.735   5.555  0.3704 -1.0861 -3.0936
 5097SOL    HW226928   2.382   3.789   5.530  0.4913  0.5273 -0.1796
 5098SOL     OW26929   0.616   0.751   1.792 -0.0822  0.1447  0.1217
 5098SOL    HW126930   0.533   0.797   1.802  0.4928  1.1352  0.3098
 5098SOL    HW226931   0.664   0.800   1.726  0.6008 -2.0446 -1.0083
 5099SOL     OW26932   1.551   2.472   5.689  0.2354 -0.1689 -0.1615
 5099SOL    HW126933   1.499   2.529   5.745  0.0321 -1.6037  1.1117
 5099SOL    HW226934   1.528   2.383   5.715  1.9271 -1.3157 -2.5335
 5100SOL     OW26935   2.028   3.669   8.948  0.4240  0.0687 -0.1684
 5100SOL    HW126936   2.051   3.588   8.901 -0.3895  0.6305 -1.5304
 5100SOL    HW226937   1.996   3.718   8.872 -0.6129  0.9029  0.8124
 5101SOL     OW26938   3.395   0.292  17.219 -0.1491 -0.2294 -0.4172
 5101SOL    HW126939   3.402   0.330  17.131  2.2037  1.4559  0.5185
 5101SOL    HW226940   3.353   0.208  17.198 -1.2230  1.0267 -3.2967
 5102SOL     OW26941   1.360   1.367   2.975 -0.1731 -0.4863 -0.3154
 5102SOL    HW126942   1.445   1.322   2.969 -0.0148  0.0567 -2.1442
 5102SOL    HW226943   1.345   1.363   3.070  0.0938  1.5893 -0.1919
 5103SOL     OW26944   0.586   1.638   4.264  0.2097  0.3235 -0.1967
 5103SOL    HW126945   0.658   1.667   4.319 -1.1884 -0.5741  2.1052
 5103SOL    HW226946   0.539   1.600   4.339 -1.5079 -1.1571 -2.0008
 5104SOL     OW26947   2.437   2.907  16.278 -0.2105 -0.4019 -0.0105
 5104SOL    HW126948   2.514   2.856  16.303  0.2822  0.5162  0.3702
 5104SOL    HW226949   2.441   2.980  16.340  1.4112  0.6711 -1.3436
 5105SOL     OW26950   2.969   1.567   6.370 -0.1388  0.0814 -0.1257
 5105SOL    HW126951   3.013   1.575   6.454 -1.2614  0.3938  0.4370
 5105SOL    HW226952   3.046   1.580   6.316  0.8006 -0.6175  1.0514
 5106SOL     OW26953   4.278   0.872   8.019  0.0213  0.7281 -0.2844
 5106SOL    HW126954   4.331   0.869   7.940  2.9557 -0.7072  1.7628
 5106SOL    HW226955   4.255   0.964   8.032  0.7844  0.7274  1.0040
 5107SOL     OW26956   1.673   3.998   2.186  0.3025 -0.5307  0.1271
 5107SOL    HW126957   1.629   3.964   2.107  1.1233  1.3023 -1.1221
 5107SOL    HW226958   1.602   4.041   2.234 -1.5258 -1.0215 -2.1096
 5108SOL     OW26959   3.424   0.231   7.533  0.1115  0.4646 -0.1096
 5108SOL    HW126960   3.483   0.305   7.549  0.1028  0.1041  1.5915
 5108SOL    HW226961   3.461   0.160   7.585 -0.7952  1.7285  2.2437
 5109SOL     OW26962   0.878   2.016   8.538 -0.2979 -0.2444  0.0437
 5109SOL    HW126963   0.784   2.019   8.516 -0.2774 -1.0898 -0.1595
 5109SOL    HW226964   0.922   2.000   8.454  3.7429 -0.4823  2.2613
 5110SOL     OW26965   1.888   4.644   4.842 -0.5764 -0.4316 -0.0909
 5110SOL    HW126966   1.913   4.572   4.900  2.1071  0.8968  0.4325
 5110SOL    HW226967   1.874   4.710   4.910  0.7485 -1.3255  1.0574
 5111SOL     OW26968   1.605   4.069  14.852  0.4804  0.0110  0.2462
 5111SOL    HW126969   1.591   4.058  14.758  2.4185 -2.1509  0.1888
 5111SOL    HW226970   1.641   3.985  14.883  1.9619  0.6254  0.1960
 5112SOL     OW26971   2.927   2.986   4.345  0.2760  0.6152  0.0928
 5112SOL    HW126972   3.008   2.937   4.354 -0.8419 -0.6813  3.1624
 5112SOL    HW226973   2.861   2.916   4.341 -1.3103  2.1402 -0.5522
 5113SOL     OW26974   3.175   1.513   5.195 -0.1865 -0.4887  0.4444
 5113SOL    HW126975   3.086   1.478   5.202 -0.1041 -0.6148  0.8756
 5113SOL    HW226976   3.196   1.436   5.142  1.0179  1.3209 -1.7302
 5114SOL     OW26977   4.562   2.991   9.376  0.3526 -0.0294  0.1040
 5114SOL    HW126978   4.644   3.020   9.335  0.7360 -2.1466 -0.6596
 5114SOL    HW226979   4.523   3.077   9.383  0.9429  0.0795  2.2612
 5115SOL     OW26980   3.251   2.979   9.094 -0.3531 -0.4371  0.5708
 5115SOL    HW126981   3.191   2.936   9.034  0.4052 -2.8528  1.5663
 5115SOL    HW226982   3.320   2.913   9.096 -0.5741 -0.6677  0.5628
 5116SOL     OW26983   0.606   2.790   2.927  0.5656 -0.3242 -0.4113
 5116SOL    HW126984   0.591   2.842   2.848  1.8298 -1.1067 -1.1579
 5116SOL    HW226985   0.548   2.722   2.894  0.1803 -0.3142  0.2302
 5117SOL     OW26986   4.068   0.141   4.586  0.7186 -0.2164 -0.0267
 5117SOL    HW126987   4.082   0.052   4.619  1.0991  0.4690  1.6677
 5117SOL    HW226988   4.136   0.188   4.633  0.4204 -0.0494  0.2351
 5118SOL     OW26989   2.943   2.434  10.274 -0.0322 -0.3799  0.1884
 5118SOL    HW126990   2.919   2.399  10.360  1.3363 -0.6532  0.4498
 5118SOL    HW226991   2.971   2.518  10.310 -1.1816  0.5433 -1.0652
 5119SOL     OW26992   3.173   1.002  17.634  0.3376  0.2112 -0.2990
 5119SOL    HW126993   3.186   0.959  17.719  0.0442 -0.1457 -0.4322
 5119SOL    HW226994   3.192   1.092  17.660 -0.0139 -0.1411  1.2151
 5120SOL     OW26995   1.893   4.444   5.025  0.7834  0.1198  0.9537
 5120SOL    HW126996   1.927   4.477   5.108  2.9997  2.9621 -1.1117
 5120SOL    HW226997   1.804   4.422   5.052  0.7734 -1.7362 -0.5415
 5121SOL     OW26998   0.979   3.804   1.369 -0.0546  0.4141  0.4525
 5121SOL    HW126999   0.896   3.847   1.346  0.2991 -0.1494 -1.8413
 5121SOL    HW227000   1.029   3.885   1.370  1.1170 -0.3078 -0.2746
 5122SOL     OW27001   2.588   2.455  16.220 -0.6645  0.7748 -0.4518
 5122SOL    HW127002   2.607   2.424  16.308  0.0505 -0.2789 -0.9633
 5122SOL    HW227003   2.633   2.387  16.168 -0.6984  0.5302 -0.1590
 5123SOL     OW27004   2.541   3.716   6.631 -0.1312  0.5789 -0.7651
 5123SOL    HW127005   2.582   3.747   6.550 -0.3305  3.3695  0.1942
 5123SOL    HW227006   2.571   3.784   6.690 -0.6553  0.8718 -0.8349
 5124SOL     OW27007   3.296   4.665  14.183 -0.2393  0.8032  0.4822
 5124SOL    HW127008   3.206   4.660  14.151  0.2568  1.0415 -0.9507
 5124SOL    HW227009   3.284   0.020  14.210  1.9751  1.7737 -1.8145
 5125SOL     OW27010   1.265   0.003   4.408 -0.5017 -0.1978  0.2219
 5125SOL    HW127011   1.284   0.060   4.482 -1.1094 -0.4880  0.6009
 5125SOL    HW227012   1.172   0.017   4.389  0.0632  3.1065 -0.1542
 5126SOL     OW27013   0.030   2.439  15.531 -0.3247 -0.9097  0.1074
 5126SOL    HW127014   0.083   2.478  15.601  0.9908 -1.2277 -0.7135
 5126SOL    HW227015   4.686   2.409  15.572 -1.6096  0.5349 -1.3924
 5127SOL     OW27016   1.510   4.589  17.146  0.2317  0.9189  0.9256
 5127SOL    HW127017   1.605   4.597  17.154  0.3692 -1.6403  1.8553
 5127SOL    HW227018   1.473   4.677  17.149 -1.9648  0.0723 -1.8497
 5128SOL     OW27019   3.190   3.045   8.688  0.3630  0.1160 -0.6923
 5128SOL    HW127020   3.139   3.047   8.607  0.6512  2.5893 -0.7879
 5128SOL    HW227021   3.216   2.953   8.684  0.1194 -0.0312  0.8809
 5129SOL     OW27022   1.653   0.112  16.318 -0.0074  0.5245  0.0094
 5129SOL    HW127023   1.588   0.156  16.372 -0.3689 -1.1987  0.9742
 5129SOL    HW227024   1.635   0.140  16.228 -0.6180  0.7890  0.2157
 5130SOL     OW27025   4.370   0.476  12.062  0.2449 -0.5351 -0.2186
 5130SOL    HW127026   4.440   0.473  12.128 -0.1248  1.5366  0.2856
 5130SOL    HW227027   4.334   0.388  12.061 -0.7785 -0.1656  3.4560
 5131SOL     OW27028   1.019   3.103   8.362 -0.0565 -0.8060 -0.0773
 5131SOL    HW127029   0.966   3.043   8.415  3.2681 -0.5390  3.4784
 5131SOL    HW227030   1.087   3.116   8.428 -1.7266 -1.8849  1.8515
 5132SOL     OW27031   3.150   4.644   9.089 -0.0541 -0.0760 -0.0754
 5132SOL    HW127032   3.168   4.639   8.996  2.1915  1.2695  0.2994
 5132SOL    HW227033   3.230   4.687   9.118  0.0921 -0.6944  0.4416
 5133SOL     OW27034   2.327   4.122   7.501 -0.5825  0.3954 -0.0256
 5133SOL    HW127035   2.301   4.134   7.592  0.7397  0.2099  0.3830
 5133SOL    HW227036   2.248   4.145   7.452  1.3184  0.7891 -2.9042
 5134SOL     OW27037   1.275   4.407   2.863  0.1484 -0.0831 -0.9330
 5134SOL    HW127038   1.368   4.428   2.855 -0.1995  0.4708 -3.4027
 5134SOL    HW227039   1.249   4.492   2.899  1.2281 -1.1595  2.3970
 5135SOL     OW27040   1.345   4.117   3.198  0.1998 -0.4627 -0.2524
 5135SOL    HW127041   1.372   4.058   3.128  1.0386 -1.3234  0.7938
 5135SOL    HW227042   1.375   4.203   3.168  0.7424 -0.3507  0.6029
 5136SOL     OW27043   3.272   1.654   8.281 -0.7588 -0.0336  0.3758
 5136SOL    HW127044   3.341   1.672   8.217 -1.4422 -0.9430 -0.6262
 5136SOL    HW227045   3.304   1.712   8.350 -0.3456  2.4458 -1.9046
 5137SOL     OW27046   1.942   1.749  17.133  0.0022 -0.3165 -0.0014
 5137SOL    HW127047   1.879   1.694  17.086 -1.2555  1.0675  0.0403
 5137SOL    HW227048   1.879   1.800  17.185  1.0036  0.0607  0.8265
 5138SOL     OW27049   1.511   2.404  11.572 -0.6922 -0.8342  0.2576
 5138SOL    HW127050   1.477   2.482  11.528  0.4166 -0.6456 -0.2520
 5138SOL    HW227051   1.431   2.354  11.589  0.2345 -2.4197 -0.0035
 5139SOL     OW27052   2.226   1.218   6.891  0.1346 -0.2411  0.1110
 5139SOL    HW127053   2.171   1.213   6.812 -0.4648  0.8842  0.4543
 5139SOL    HW227054   2.207   1.309   6.915 -0.0688  0.1758 -1.5893
 5140SOL     OW27055   1.148   3.506   3.426 -0.0178  0.1483 -0.0446
 5140SOL    HW127056   1.241   3.531   3.429  0.2007 -0.4998 -1.4677
 5140SOL    HW227057   1.111   3.570   3.486 -0.2335 -1.4827  1.5572
 5141SOL     OW27058   3.721   3.748   6.974  0.6902 -0.7033 -0.2512
 5141SOL    HW127059   3.725   3.759   7.069 -1.2134 -0.1517 -0.2242
 5141SOL    HW227060   3.691   3.835   6.948 -0.3538 -0.7466  0.8172
 5142SOL     OW27061   4.378   3.472   3.643 -0.1206  1.3493 -0.4112
 5142SOL    HW127062   4.321   3.522   3.702 -0.9010 -2.4572  2.0343
 5142SOL    HW227063   4.463   3.500   3.677  0.7026 -0.9599 -0.6025
 5143SOL     OW27064   4.239   0.239   2.309 -0.0692  0.1299 -0.1106
 5143SOL    HW127065   4.305   0.288   2.261  1.0883 -0.9313  0.3697
 5143SOL    HW227066   4.237   0.161   2.253 -1.7105  0.3242 -0.3126
 5144SOL     OW27067   3.512   1.028   7.505 -0.2405  0.0980 -0.2987
 5144SOL    HW127068   3.570   1.056   7.434 -0.0834  2.1002  0.6325
 5144SOL    HW227069   3.545   1.074   7.582  0.3754 -3.2629  1.4390
 5145SOL     OW27070   4.659   0.609   7.863 -0.1340  0.0369 -0.2013
 5145SOL    HW127071   4.638   0.644   7.776 -0.0203 -0.5325 -0.4566
 5145SOL    HW227072   0.017   0.594   7.858  0.0571  1.1210  0.2903
 5146SOL     OW27073   1.041   1.562  13.418  0.6437  0.1306  0.0361
 5146SOL    HW127074   1.094   1.484  13.406 -0.6642 -0.6770 -0.5762
 5146SOL    HW227075   0.962   1.533  13.372 -0.5569  1.3198  1.3396
 5147SOL     OW27076   2.757   2.618   7.391  0.0893  0.2338  0.7978
 5147SOL    HW127077   2.778   2.537   7.344 -0.3370  1.0549 -0.7917
 5147SOL    HW227078   2.735   2.578   7.475 -1.4012 -0.2177  0.2048
 5148SOL     OW27079   4.313   2.498  13.729 -0.0544 -0.2175  0.1914
 5148SOL    HW127080   4.344   2.459  13.647 -0.9525  1.2969 -0.8596
 5148SOL    HW227081   4.345   2.588  13.723  2.1627 -1.0682 -1.0972
 5149SOL     OW27082   1.764   4.165   7.421 -0.5086 -0.1462  0.5916
 5149SOL    HW127083   1.858   4.181   7.419 -0.6616  0.8214  1.0694
 5149SOL    HW227084   1.735   4.256   7.413  0.0237 -0.2233 -2.0428
 5150SOL     OW27085   4.020   3.731   1.164 -0.2202 -0.1020 -0.4831
 5150SOL    HW127086   4.038   3.639   1.147 -2.4446 -1.3829  4.0688
 5150SOL    HW227087   4.087   3.771   1.109  0.3917  0.6624  0.8386
 5151SOL     OW27088   3.872   2.672   8.404 -0.1007 -0.1190 -0.5885
 5151SOL    HW127089   3.921   2.733   8.458  0.3447 -1.4027  0.4596
 5151SOL    HW227090   3.787   2.716   8.409  0.5792  1.0136  0.6595
 5152SOL     OW27091   1.357   0.845   9.499  0.6010  0.1199 -0.0993
 5152SOL    HW127092   1.370   0.754   9.471  1.3646  0.9330 -2.3482
 5152SOL    HW227093   1.446   0.877   9.489  0.8708  0.2064  2.4803
 5153SOL     OW27094   1.606   0.277   4.958  0.0577  0.2381 -0.4189
 5153SOL    HW127095   1.564   0.307   4.877 -1.6945  1.5916  0.9971
 5153SOL    HW227096   1.641   0.190   4.937 -1.5427 -0.5315  0.1133
 5154SOL     OW27097   2.981   3.812   7.988 -0.4864 -0.1855  0.2474
 5154SOL    HW127098   2.988   3.817   7.893  1.5992 -0.2309  0.4000
 5154SOL    HW227099   3.033   3.734   8.005 -0.5653 -0.3005 -0.0281
 5155SOL     OW27100   3.619   3.883   7.896  0.1817  0.0827 -0.1122
 5155SOL    HW127101   3.607   3.920   7.983 -3.5239  0.5669 -0.8051
 5155SOL    HW227102   3.686   3.939   7.858  1.7330  0.0943  2.6784
 5156SOL     OW27103   1.326   3.201  10.919  0.2051  0.5149 -0.3088
 5156SOL    HW127104   1.373   3.190  11.001 -1.3199 -0.7200  0.3939
 5156SOL    HW227105   1.296   3.113  10.896 -3.0807  2.3302 -3.0446
 5157SOL     OW27106   4.538   1.217  11.043 -0.5380  0.6695 -0.2577
 5157SOL    HW127107   4.530   1.176  10.956 -1.5854  0.0258  0.1435
 5157SOL    HW227108   4.505   1.141  11.091 -1.0070  0.4613 -0.9018
 5158SOL     OW27109   1.871   1.593  12.648 -0.1767  0.0418 -0.1875
 5158SOL    HW127110   1.947   1.641  12.681 -0.2078  1.7071 -2.5780
 5158SOL    HW227111   1.831   1.567  12.731 -0.5797  2.5952  0.4267
 5159SOL     OW27112   4.557   4.419   2.708  0.1554  0.1145 -0.1368
 5159SOL    HW127113   4.546   4.459   2.794 -3.2765  3.7910 -2.2499
 5159SOL    HW227114   4.536   4.491   2.648 -1.3185 -1.1636 -1.1665
 5160SOL     OW27115   0.780   0.746   4.303  0.4751 -0.8930  0.6820
 5160SOL    HW127116   0.696   0.701   4.310 -1.2535  2.3945  0.9092
 5160SOL    HW227117   0.764   0.786   4.217 -2.2302  1.2712  2.1711
 5161SOL     OW27118   0.016   2.801   5.496 -0.3545 -0.1352  0.5482
 5161SOL    HW127119   4.690   2.733   5.471  0.1288 -0.0870 -0.8138
 5161SOL    HW227120   0.002   2.806   5.590  0.6365  0.5680  0.6590
 5162SOL     OW27121   4.661   2.900   2.123 -0.1686 -0.0091 -0.5866
 5162SOL    HW127122   4.721   2.873   2.053  1.4193 -1.0562  1.1548
 5162SOL    HW227123   4.618   2.977   2.086 -1.8707  0.0297  1.5110
 5163SOL     OW27124   2.675   3.223   4.179  0.4265 -0.5138 -0.0148
 5163SOL    HW127125   2.764   3.205   4.149  0.0414  0.8453 -2.0079
 5163SOL    HW227126   2.620   3.221   4.101 -2.4519  1.0834  1.9832
 5164SOL     OW27127   3.995   1.773   4.203  0.4607  0.5973  0.3620
 5164SOL    HW127128   4.043   1.808   4.128 -0.1554  0.7152  0.0270
 5164SOL    HW227129   4.012   1.679   4.192  1.3724  0.7938  0.0518
 5165SOL     OW27130   3.801   0.362   4.576 -0.3070  0.1414  0.7962
 5165SOL    HW127131   3.878   0.324   4.618 -1.6181 -1.0109  2.1704
 5165SOL    HW227132   3.770   0.294   4.517 -0.0315  1.6123 -1.0626
 5166SOL     OW27133   1.803   3.097   0.710 -0.4754  0.1624  0.0765
 5166SOL    HW127134   1.826   3.004   0.709 -2.2716 -0.2383 -2.2807
 5166SOL    HW227135   1.789   3.109   0.616  1.4285  0.3964 -0.1917
 5167SOL     OW27136   4.140   3.413  11.800  0.5506 -0.2925 -0.4583
 5167SOL    HW127137   4.137   3.472  11.875 -2.1108  0.4048 -1.0792
 5167SOL    HW227138   4.205   3.455  11.744  0.7012  2.7446  2.0091
 5168SOL     OW27139   1.605   0.010   4.885 -0.2057 -0.8800  0.2203
 5168SOL    HW127140   1.534   4.710   4.831 -0.6992  0.4926 -0.0692
 5168SOL    HW227141   1.683   4.710   4.843  0.1564  1.3546 -1.0350
 5169SOL     OW27142   0.526   1.597   9.155 -0.2266 -0.2242  0.0858
 5169SOL    HW127143   0.460   1.535   9.186 -0.1494  0.3188  1.3268
 5169SOL    HW227144   0.569   1.600   9.240  1.5804 -0.4010 -0.8114
 5170SOL     OW27145   1.546   4.461   2.848 -0.8031 -0.1532  0.1039
 5170SOL    HW127146   1.637   4.489   2.845 -0.2307 -1.7991  1.8728
 5170SOL    HW227147   1.559   4.382   2.795 -2.4017 -0.7841  0.6635
 5171SOL     OW27148   2.381   3.976   5.451 -0.2003  0.9116 -0.6454
 5171SOL    HW127149   2.388   4.032   5.529 -1.5566  1.6019 -1.0220
 5171SOL    HW227150   2.352   4.041   5.388 -0.7433  1.1393 -0.1624
 5172SOL     OW27151   4.730   1.250   4.853 -0.3105 -0.2639  0.3125
 5172SOL    HW127152   0.007   1.227   4.945 -1.2388 -0.3811  0.4175
 5172SOL    HW227153   4.658   1.193   4.827 -0.0911 -0.0717 -0.7488
 5173SOL     OW27154   4.393   2.551  12.922  0.0811  0.1069 -0.3076
 5173SOL    HW127155   4.305   2.566  12.956  0.4351  2.4456 -0.4431
 5173SOL    HW227156   4.389   2.509  12.836 -0.6411  0.1597 -0.2973
 5174SOL     OW27157   3.829   3.117  15.412 -0.1858 -0.4069  0.0832
 5174SOL    HW127158   3.907   3.070  15.440  0.6432  1.3217  0.6343
 5174SOL    HW227159   3.845   3.118  15.318 -1.6594  1.7476 -0.1621
 5175SOL     OW27160   0.831   2.253  13.785 -0.0057  0.5202 -0.6658
 5175SOL    HW127161   0.860   2.339  13.816  1.6658 -0.8802  1.7012
 5175SOL    HW227162   0.917   2.215  13.768 -0.8459 -2.3727  1.6176
 5176SOL     OW27163   0.318   4.056   2.237 -0.3222 -0.3961 -0.4236
 5176SOL    HW127164   0.320   4.021   2.325 -0.7219  0.5917 -0.0185
 5176SOL    HW227165   0.343   4.147   2.252 -0.0749 -0.5848  0.2765
 5177SOL     OW27166   2.315   3.865   1.445  0.3550 -0.1714  0.2104
 5177SOL    HW127167   2.348   3.954   1.431  0.6674 -0.3503 -0.1823
 5177SOL    HW227168   2.391   3.808   1.459  2.3152  2.8114  1.9207
 5178SOL     OW27169   4.665   0.349   7.755 -0.2967  0.3864  0.1152
 5178SOL    HW127170   4.720   0.353   7.677  0.3945  0.2409  0.5965
 5178SOL    HW227171   4.688   0.429   7.801 -0.9356 -0.1294  1.3378
 5179SOL     OW27172   0.175   3.980   6.422 -0.0756  0.1410 -0.0111
 5179SOL    HW127173   0.236   3.988   6.349 -0.8751 -1.3929 -0.8238
 5179SOL    HW227174   0.236   3.977   6.496 -1.8669  0.2966  1.4675
 5180SOL     OW27175   0.785   4.009   4.542 -0.0207 -0.0795 -0.4682
 5180SOL    HW127176   0.870   4.039   4.573  0.3063  2.0662 -3.4483
 5180SOL    HW227177   0.799   3.946   4.472  1.4281 -1.1923  0.8428
 5181SOL     OW27178   4.565   0.167   7.119  0.4847 -0.3762 -0.2770
 5181SOL    HW127179   4.608   0.161   7.033 -2.8159 -0.6400 -1.9054
 5181SOL    HW227180   4.481   0.131   7.092  0.2396  1.4792 -1.9552
 5182SOL     OW27181   1.554   4.356   3.109 -0.4896  0.3265  0.2939
 5182SOL    HW127182   1.530   4.390   3.023  1.0009  3.3430  1.0857
 5182SOL    HW227183   1.592   4.270   3.088 -1.0265  0.1150  0.1806
 5183SOL     OW27184   2.165   2.381   4.418  0.5985 -0.4812  0.1170
 5183SOL    HW127185   2.259   2.385   4.400  0.6697 -1.8858  0.2469
 5183SOL    HW227186   2.143   2.457   4.363 -1.3545 -1.9999 -1.1794
 5184SOL     OW27187   3.851   1.945  15.975 -0.4481 -0.0025 -0.8821
 5184SOL    HW127188   3.928   1.896  16.006  0.4430 -0.0798 -3.2051
 5184SOL    HW227189   3.899   1.980  15.900  1.0756  0.2782  0.2185
 5185SOL     OW27190   2.947   1.678   8.625 -0.2080 -0.1154 -0.0343
 5185SOL    HW127191   2.881   1.615   8.595  1.2817 -1.1205 -1.1890
 5185SOL    HW227192   2.989   1.711   8.546 -2.7974  0.0607 -1.3303
 5186SOL     OW27193   1.103   1.161   2.130  0.3646  0.1352  0.0759
 5186SOL    HW127194   1.024   1.184   2.179  0.9893 -0.5923  1.4252
 5186SOL    HW227195   1.169   1.189   2.193  1.6376 -0.0952 -1.1579
 5187SOL     OW27196   2.511   1.111   3.603  0.1918  0.3381  0.2697
 5187SOL    HW127197   2.524   1.170   3.677  2.1588  0.8329 -0.4683
 5187SOL    HW227198   2.548   1.026   3.625  0.1298  0.5850  1.3343
 5188SOL     OW27199   1.254   1.837   6.074 -0.1167  0.3810 -0.3080
 5188SOL    HW127200   1.189   1.782   6.118  3.2696 -2.2350  1.3587
 5188SOL    HW227201   1.277   1.900   6.142 -0.4030  0.1863 -0.0317
 5189SOL     OW27202   3.620   1.413   4.746 -0.5557 -0.6879 -0.3905
 5189SOL    HW127203   3.664   1.473   4.686  0.0280 -0.7747 -0.0531
 5189SOL    HW227204   3.608   1.466   4.826  1.3572  1.5756 -1.5890
 5190SOL     OW27205   3.488   0.648   2.914 -0.0502  0.3816 -0.0712
 5190SOL    HW127206   3.518   0.613   2.831 -0.2368 -0.3013  0.1444
 5190SOL    HW227207   3.395   0.668   2.900  0.0167  0.9048  0.2125
 5191SOL     OW27208   0.006   4.528   4.595  0.5815 -0.0296 -0.4459
 5191SOL    HW127209   4.684   4.507   4.667 -1.1056  0.1648 -1.7625
 5191SOL    HW227210   4.694   4.588   4.539  2.5777  2.3472  0.4216
 5192SOL     OW27211   2.380   2.400  11.810  0.2752  0.2209 -0.2143
 5192SOL    HW127212   2.308   2.445  11.854 -0.0786 -0.1464 -0.4167
 5192SOL    HW227213   2.386   2.440  11.723  0.4216  1.9918  0.6214
 5193SOL     OW27214   0.792   4.693   9.266  0.8683  0.4786 -0.8781
 5193SOL    HW127215   0.722   4.652   9.215  1.6276 -0.3992 -1.2031
 5193SOL    HW227216   0.827   4.627   9.326 -1.2720  1.4856  1.5243
 5194SOL     OW27217   2.686   4.030   4.583 -0.9540  0.0321 -0.3960
 5194SOL    HW127218   2.709   4.102   4.524  0.2678  0.4984  0.6605
 5194SOL    HW227219   2.659   4.077   4.662 -0.5381 -2.4893  1.2549
 5195SOL     OW27220   2.294   2.728   3.340  0.4374  0.3968  0.0248
 5195SOL    HW127221   2.226   2.795   3.341  1.8145  1.7556  1.7938
 5195SOL    HW227222   2.376   2.770   3.368  2.2698 -2.6769 -0.6518
 5196SOL     OW27223   3.021   3.425   8.471  0.2525  0.0834 -0.1801
 5196SOL    HW127224   2.999   3.411   8.562  1.0438 -2.0672 -0.3296
 5196SOL    HW227225   2.934   3.417   8.433  0.2878 -0.5540 -0.1108
 5197SOL     OW27226   0.309   2.381   6.117  0.0851  0.3389 -0.0442
 5197SOL    HW127227   0.367   2.417   6.049 -1.2458  0.5633 -1.0579
 5197SOL    HW227228   0.229   2.432   6.105  0.8412  1.4665 -0.3069
 5198SOL     OW27229   1.322   0.335   3.523 -0.3553 -0.0189 -0.0730
 5198SOL    HW127230   1.304   0.248   3.487 -2.0011 -0.7011  2.3822
 5198SOL    HW227231   1.368   0.379   3.452  0.1213  0.0436  0.2810
 5199SOL     OW27232   0.372   3.345   2.201 -0.1678 -0.8515 -0.3249
 5199SOL    HW127233   0.422   3.379   2.275 -0.8874 -1.5238  0.4739
 5199SOL    HW227234   0.373   3.425   2.150 -2.4278 -0.5406  0.0970
 5200SOL     OW27235   3.424   0.106  15.168 -0.2045 -0.5836 -0.3758
 5200SOL    HW127236   3.417   0.202  15.174 -0.4643 -0.6259  0.0138
 5200SOL    HW227237   3.392   0.101  15.078 -0.6338 -0.0242 -0.2584
 5201SOL     OW27238   0.885   2.755   2.162 -0.5799 -0.0006 -0.0158
 5201SOL    HW127239   0.879   2.753   2.258 -2.3033  0.1220 -0.1077
 5201SOL    HW227240   0.844   2.837   2.135  0.3941 -0.0596 -1.6423
 5202SOL     OW27241   3.677   4.621   9.265  0.1406  0.7669  0.4333
 5202SOL    HW127242   3.771   4.626   9.247 -0.0973  0.7243 -0.7689
 5202SOL    HW227243   3.642   4.622   9.176 -0.5333 -2.0687  0.6591
 5203SOL     OW27244   3.497   3.334   0.446  0.6552 -0.1304  0.3423
 5203SOL    HW127245   3.442   3.257   0.437  0.7315 -0.2440  0.8507
 5203SOL    HW227246   3.433   3.405   0.458 -0.3822 -1.1077  0.5003
 5204SOL     OW27247   0.996   1.187  15.229  0.4627  0.1936  0.0889
 5204SOL    HW127248   1.045   1.172  15.148 -2.0747  0.7221 -1.5501
 5204SOL    HW227249   1.054   1.200  15.304  0.2640  0.7278  0.1451
 5205SOL     OW27250   1.355   4.085   3.496 -0.6341  0.0441  0.1562
 5205SOL    HW127251   1.448   4.062   3.500 -0.8692 -0.7803  0.7974
 5205SOL    HW227252   1.349   4.085   3.400 -1.1374  0.4427  0.1875
 5206SOL     OW27253   1.163   3.748   4.266  0.4472 -0.0186 -0.1364
 5206SOL    HW127254   1.104   3.714   4.334  0.4458 -0.1205 -0.1880
 5206SOL    HW227255   1.240   3.691   4.275 -0.6364 -1.3045  1.1341
 5207SOL     OW27256   4.127   2.614   9.766  0.1478 -0.1370 -0.0320
 5207SOL    HW127257   4.180   2.645   9.839  0.2295  1.3163 -0.6983
 5207SOL    HW227258   4.106   2.525   9.796 -0.7525 -0.3388 -1.2649
 5208SOL     OW27259   1.426   4.123   4.025  0.0896 -0.3039  0.0367
 5208SOL    HW127260   1.396   4.083   3.943 -0.4982  0.9076 -0.3313
 5208SOL    HW227261   1.378   4.205   4.033  0.3850 -0.4593  3.6063
 5209SOL     OW27262   4.108   2.114  16.299  0.5580  0.1679 -0.2863
 5209SOL    HW127263   4.174   2.097  16.367 -0.3495 -4.7725 -0.6207
 5209SOL    HW227264   4.110   2.209  16.297  2.0050  0.1204 -1.2978
 5210SOL     OW27265   1.088   3.969  16.146  0.2825 -0.4102  0.0506
 5210SOL    HW127266   1.134   4.033  16.201  1.1578 -1.4163  0.4831
 5210SOL    HW227267   0.995   3.984  16.161  0.5269  1.6182 -0.4692
 5211SOL     OW27268   0.609   0.829   2.677 -0.3380  0.6192 -0.4790
 5211SOL    HW127269   0.691   0.791   2.646 -0.3482  0.0349  0.2161
 5211SOL    HW227270   0.609   0.823   2.773 -1.9595  5.2164 -0.1959
 5212SOL     OW27271   1.907   2.716   7.643  0.5487  0.7098  0.4378
 5212SOL    HW127272   1.972   2.695   7.710 -0.0179  1.3024  1.1759
 5212SOL    HW227273   1.926   2.809   7.643 -0.2405  0.8757  1.2318
 5213SOL     OW27274   4.510   3.463  14.811 -0.3549  0.5048  0.1081
 5213SOL    HW127275   4.466   3.413  14.881  0.2536 -1.3232 -0.8228
 5213SOL    HW227276   4.468   3.549  14.816 -1.9055 -0.3064  1.2767
 5214SOL     OW27277   2.484   3.259   9.315 -0.5639 -0.1404  0.3504
 5214SOL    HW127278   2.579   3.251   9.310 -0.8812 -3.7006  0.2911
 5214SOL    HW227279   2.478   3.355   9.318  2.0021 -0.0445  2.3385
 5215SOL     OW27280   0.012   4.293  12.350 -0.0551  0.4342  0.3739
 5215SOL    HW127281   0.089   4.296  12.408 -0.7643 -2.0769  1.4460
 5215SOL    HW227282   4.699   4.350  12.409  0.5979  0.5274  0.8389
 5216SOL     OW27283   3.965   2.669   6.613  0.0377 -0.1850  0.1872
 5216SOL    HW127284   3.967   2.744   6.553 -0.3475  0.9739  1.6076
 5216SOL    HW227285   3.883   2.699   6.654 -0.0722 -0.5326  0.2219
 5217SOL     OW27286   4.324   3.928   8.362 -0.7662 -0.5946  0.0223
 5217SOL    HW127287   4.237   3.962   8.381  0.2580  1.3822  1.1840
 5217SOL    HW227288   4.330   3.932   8.266  2.0243 -1.5268  0.1551
 5218SOL     OW27289   2.374   4.695   8.168 -0.8387 -0.4671  0.1146
 5218SOL    HW127290   2.383   4.617   8.113  1.3853 -0.0904 -0.0588
 5218SOL    HW227291   2.424   0.027   8.124 -1.9423 -1.5202 -2.7636
 5219SOL     OW27292   3.024   3.998   7.145  0.3142  0.3218 -0.5669
 5219SOL    HW127293   3.005   4.056   7.071 -1.0429 -0.2345 -0.6486
 5219SOL    HW227294   3.087   3.932   7.116  0.7372  0.2906  0.4251
 5220SOL     OW27295   4.278   3.366   1.521  0.0540  0.0039 -0.6702
 5220SOL    HW127296   4.187   3.391   1.502 -0.0712 -0.0183 -0.1034
 5220SOL    HW227297   4.324   3.404   1.446 -0.4827  0.7866 -0.6079
 5221SOL     OW27298   2.369   3.913   1.025  0.0396  0.2198  0.1167
 5221SOL    HW127299   2.439   3.920   1.091  1.6682  1.9231 -1.8033
 5221SOL    HW227300   2.306   3.862   1.075 -0.5636  0.0828 -0.7892
 5222SOL     OW27301   4.524   0.823  15.150  0.6411 -0.1180 -0.5409
 5222SOL    HW127302   4.546   0.733  15.128 -0.8366 -0.6825  0.3016
 5222SOL    HW227303   4.463   0.825  15.224  1.2253 -2.1873 -0.0087
 5223SOL     OW27304   1.651   0.574  14.058  0.5676 -0.1414 -1.0452
 5223SOL    HW127305   1.601   0.643  14.102  2.0988  0.9200 -0.9701
 5223SOL    HW227306   1.698   0.532  14.130 -0.6370 -1.7196 -1.1718
 5224SOL     OW27307   3.873   3.924   3.324 -0.0278 -0.6831 -0.1795
 5224SOL    HW127308   3.965   3.951   3.321 -0.7302  1.5121 -1.4152
 5224SOL    HW227309   3.885   3.846   3.270 -1.6683 -1.2471  0.2785
 5225SOL     OW27310   0.021   2.178   7.545  0.1886  0.1258 -0.1358
 5225SOL    HW127311   0.006   2.157   7.453 -0.3807  1.7061 -0.4106
 5225SOL    HW227312   0.093   2.118   7.567 -0.6711 -0.9679 -0.3512
 5226SOL     OW27313   3.927   1.270   4.211  0.1000 -0.2068 -0.3633
 5226SOL    HW127314   3.839   1.242   4.238 -0.0816 -0.2771 -1.0354
 5226SOL    HW227315   3.976   1.245   4.290 -0.9846 -1.5350 -0.0879
 5227SOL     OW27316   4.512   2.018  15.591  0.0146 -0.7878  0.1027
 5227SOL    HW127317   4.521   2.113  15.601 -0.4723 -0.6995 -0.3209
 5227SOL    HW227318   4.519   1.996  15.498  1.9981  0.3550 -0.0101
 5228SOL     OW27319   1.095   3.759   7.063  0.0799 -0.8698  0.4295
 5228SOL    HW127320   1.147   3.819   7.116  0.3788 -1.4085  0.7313
 5228SOL    HW227321   1.096   3.677   7.110  1.0817 -1.0393  0.1141
 5229SOL     OW27322   1.996   0.032  11.856 -0.4931 -0.7037  0.0943
 5229SOL    HW127323   1.958   4.690  11.816  0.4697 -2.0744  1.8981
 5229SOL    HW227324   1.987   0.013  11.949 -1.1051  0.3679  0.2589
 5230SOL     OW27325   3.545   0.180   1.878  0.2617 -0.5894 -0.4429
 5230SOL    HW127326   3.576   0.251   1.935  1.4143 -1.8409  0.4740
 5230SOL    HW227327   3.449   0.178   1.882  0.2831 -1.8594 -0.5481
 5231SOL     OW27328   1.911   1.288   2.663  0.2318  0.4600  0.2288
 5231SOL    HW127329   1.923   1.274   2.569  1.3669 -1.2721  0.6451
 5231SOL    HW227330   1.948   1.376   2.673 -0.4847  0.9544 -1.3630
 5232SOL     OW27331   3.424   2.832  15.578  0.0443  0.4574  0.2179
 5232SOL    HW127332   3.506   2.874  15.552 -0.7198  0.5523 -2.0189
 5232SOL    HW227333   3.452   2.741  15.584 -2.1597 -0.3603 -1.7080
 5233SOL     OW27334   3.683   4.123   3.245  0.2196 -0.0226 -0.0725
 5233SOL    HW127335   3.745   4.051   3.254  0.8154  0.3607 -1.0388
 5233SOL    HW227336   3.637   4.091   3.168  0.5794 -0.2355 -0.2016
 5234SOL     OW27337   2.248   1.785   8.079 -0.3367  0.7884 -0.2764
 5234SOL    HW127338   2.334   1.770   8.040 -1.1150 -0.4894 -1.4740
 5234SOL    HW227339   2.189   1.757   8.009  1.0662  1.1182 -1.6152
 5235SOL     OW27340   2.318   0.143   9.112  0.3635 -0.2893 -0.1548
 5235SOL    HW127341   2.402   0.150   9.066 -0.0245  0.6229 -0.7107
 5235SOL    HW227342   2.315   0.236   9.130 -1.4100 -0.8965  2.6443
 5236SOL     OW27343   0.881   0.398   7.476 -0.9087 -0.2783 -0.3575
 5236SOL    HW127344   0.957   0.426   7.425 -3.0097 -0.1739 -3.4345
 5236SOL    HW227345   0.908   0.415   7.566 -1.7637 -0.3431 -0.0896
 5237SOL     OW27346   1.081   1.203   7.104 -0.1417  0.0366  0.2912
 5237SOL    HW127347   1.156   1.153   7.071 -0.7030 -0.6142 -0.0046
 5237SOL    HW227348   1.037   1.229   7.023  1.1108 -1.7767 -0.9775
 5238SOL     OW27349   1.113   2.268   1.260  0.1871  0.3029 -0.3504
 5238SOL    HW127350   1.117   2.180   1.297 -0.4748 -0.4976 -2.2060
 5238SOL    HW227351   1.201   2.290   1.289 -0.6058  2.0549  0.7874
 5239SOL     OW27352   1.011   1.741  12.683  0.3584  0.1210 -0.3672
 5239SOL    HW127353   1.041   1.828  12.708  0.4263 -0.0416  0.1066
 5239SOL    HW227354   0.957   1.768  12.609 -1.8043  2.4754  2.0736
 5240SOL     OW27355   3.437   3.425   6.483  0.5137 -0.1899 -0.4405
 5240SOL    HW127356   3.386   3.505   6.469  1.0582  0.1174 -0.6539
 5240SOL    HW227357   3.364   3.375   6.520 -0.1603  0.3562 -1.0251
 5241SOL     OW27358   4.237   3.027   3.181 -0.4209  0.1073 -0.1804
 5241SOL    HW127359   4.229   3.021   3.276 -1.2826  1.9763 -0.1396
 5241SOL    HW227360   4.300   3.098   3.167 -0.9066  0.6627  0.4658
 5242SOL     OW27361   4.550   1.773   4.031  0.0297  0.0591  0.2296
 5242SOL    HW127362   4.494   1.696   4.022 -3.1212  2.5703 -1.7469
 5242SOL    HW227363   4.566   1.798   3.940  0.3904 -2.7188 -0.4487
 5243SOL     OW27364   4.396   0.226   3.544  0.1646 -0.9947 -0.1074
 5243SOL    HW127365   4.473   0.253   3.594 -0.0412 -1.1307  0.2806
 5243SOL    HW227366   4.343   0.180   3.609 -0.9297 -1.4362 -1.3233
 5244SOL     OW27367   3.005   0.204   2.065  0.0048  0.0984  0.1876
 5244SOL    HW127368   3.007   0.231   2.157 -0.7934  0.4236  0.1127
 5244SOL    HW227369   3.012   0.287   2.018  0.3937  0.3873  0.7560
 5245SOL     OW27370   4.550   2.207   8.931  0.6259 -0.1039  0.5026
 5245SOL    HW127371   4.499   2.146   8.878  1.0446  1.2781 -1.4598
 5245SOL    HW227372   4.614   2.229   8.863  1.6575 -1.2761  1.0667
 5246SOL     OW27373   1.023   0.226   7.894  0.0411  0.1975  0.1375
 5246SOL    HW127374   1.017   0.312   7.853 -0.1525 -0.3007 -0.8567
 5246SOL    HW227375   1.009   0.169   7.819  0.4059 -0.3033  0.4453
 5247SOL     OW27376   3.152   0.110   5.581  0.1496 -0.6726 -0.4142
 5247SOL    HW127377   3.244   0.118   5.605  0.3388  0.7537 -1.6240
 5247SOL    HW227378   3.138   0.198   5.545 -0.6341 -0.3506  0.6657
 5248SOL     OW27379   4.433   2.068   7.152  0.3816  0.7905 -0.2473
 5248SOL    HW127380   4.400   2.065   7.242  0.6335 -0.5561 -0.1950
 5248SOL    HW227381   4.353   2.050   7.103 -0.2235  1.0289  0.6404
 5249SOL     OW27382   3.390   3.549   2.338  0.5351 -0.1641  0.3386
 5249SOL    HW127383   3.324   3.490   2.375 -0.5569  0.9617  0.1874
 5249SOL    HW227384   3.455   3.556   2.407  1.4657  2.0213 -0.7492
 5250SOL     OW27385   2.177   0.127  16.565 -0.3176 -0.0822  0.1612
 5250SOL    HW127386   2.111   0.185  16.528 -0.8673 -0.8116 -0.0017
 5250SOL    HW227387   2.260   0.147  16.521 -1.2559  0.7758 -1.1953
 5251SOL     OW27388   2.845   4.207  15.333  0.1291 -0.2885  0.3988
 5251SOL    HW127389   2.834   4.258  15.253  1.1375  2.8627  2.2637
 5251SOL    HW227390   2.906   4.139  15.305  1.5153  0.2327  2.1694
 5252SOL     OW27391   1.287   1.232   4.955  0.6745  0.2064  0.1368
 5252SOL    HW127392   1.306   1.322   4.929  0.6378  0.5337  1.2230
 5252SOL    HW227393   1.356   1.213   5.019  0.5698  1.0722  0.5168
 5253SOL     OW27394   1.896   1.823   3.342 -0.0615 -0.0810 -0.1142
 5253SOL    HW127395   1.978   1.851   3.383  0.7685 -2.6204 -0.0580
 5253SOL    HW227396   1.828   1.880   3.380 -0.0698  0.0224 -0.2845
 5254SOL     OW27397   0.860   2.893   1.561  0.2113 -0.1653  0.3930
 5254SOL    HW127398   0.926   2.850   1.506  0.1724  2.0640 -1.3998
 5254SOL    HW227399   0.787   2.831   1.560  1.0601 -1.1055 -2.7984
 5255SOL     OW27400   1.573   2.890   3.260  0.4817  0.2837 -0.3819
 5255SOL    HW127401   1.589   2.859   3.349 -1.1448  0.1770 -0.1316
 5255SOL    HW227402   1.631   2.843   3.200 -0.1258  0.8819 -1.4373
 5256SOL     OW27403   1.056   1.079   2.621 -0.3058 -0.4132  0.3501
 5256SOL    HW127404   0.985   1.073   2.686  0.5889  1.8573  1.5260
 5256SOL    HW227405   1.128   1.105   2.678  0.2707  1.8941 -1.4262
 5257SOL     OW27406   0.584   0.667   5.621 -0.2137 -0.3574  0.3213
 5257SOL    HW127407   0.580   0.731   5.549 -1.6417  0.0294  0.7394
 5257SOL    HW227408   0.641   0.600   5.583  0.0113 -0.5374  0.9901
 5258SOL     OW27409   2.160   1.773  11.331  0.1998 -0.1189  0.0107
 5258SOL    HW127410   2.214   1.760  11.409 -0.1617  0.1435  0.3027
 5258SOL    HW227411   2.088   1.827  11.364  2.5944  1.5528  2.5211
 5259SOL     OW27412   0.896   1.888   7.991 -0.2203  0.7637 -0.9752
 5259SOL    HW127413   0.959   1.860   7.924 -0.5634 -2.2485 -0.0193
 5259SOL    HW227414   0.952   1.933   8.054 -2.1488 -0.4540  1.5624
 5260SOL     OW27415   1.194   3.329  13.709 -0.0711 -0.2407  0.5482
 5260SOL    HW127416   1.145   3.387  13.767 -1.9986  1.8483 -3.1889
 5260SOL    HW227417   1.123   3.271  13.682 -0.1927  0.0210  0.3009
 5261SOL     OW27418   4.468   3.428   7.175  0.2300 -0.5725 -0.0201
 5261SOL    HW127419   4.388   3.376   7.184  1.6817 -2.4973  1.7439
 5261SOL    HW227420   4.440   3.507   7.222  0.7548  0.6134 -1.7324
 5262SOL     OW27421   3.489   3.511   4.554  0.6135 -0.2367  0.5073
 5262SOL    HW127422   3.523   3.429   4.518  1.0352 -0.2255  0.8827
 5262SOL    HW227423   3.490   3.575   4.483  0.5091  0.2238  0.9209
 5263SOL     OW27424   2.238   3.779  15.929 -0.0640 -0.7021 -0.0458
 5263SOL    HW127425   2.174   3.789  15.859  1.1213  1.6548 -0.7858
 5263SOL    HW227426   2.177   3.808  15.997  1.2836 -1.3254  1.4326
 5264SOL     OW27427   2.438   4.252   4.949 -0.2288 -0.3708 -0.4296
 5264SOL    HW127428   2.357   4.259   4.999 -0.0615  1.8548 -0.4601
 5264SOL    HW227429   2.410   4.192   4.880  0.8137 -0.7780 -0.4954
 5265SOL     OW27430   1.387   0.323   5.507  0.0587  0.1419 -0.5723
 5265SOL    HW127431   1.472   0.292   5.538 -0.7033 -1.6080 -0.2277
 5265SOL    HW227432   1.404   0.344   5.415 -0.7626 -1.7113 -1.1496
 5266SOL     OW27433   3.564   4.413   7.266 -0.4638 -0.2895 -0.3817
 5266SOL    HW127434   3.643   4.388   7.315 -0.0410  0.7078 -0.5740
 5266SOL    HW227435   3.603   4.492   7.230 -1.9546  0.3529 -0.5975
 5267SOL     OW27436   2.846   0.958   3.259  0.2465 -0.3669 -0.2732
 5267SOL    HW127437   2.926   0.917   3.228  1.0340 -0.9117  2.5033
 5267SOL    HW227438   2.782   0.890   3.281 -1.3279  1.2143  0.0650
 5268SOL     OW27439   0.772   0.516   5.496  0.8080 -0.0515 -0.1122
 5268SOL    HW127440   0.833   0.575   5.450 -1.6439  0.8779 -2.1924
 5268SOL    HW227441   0.838   0.461   5.538 -1.0645  0.4668  3.4541
 5269SOL     OW27442   1.337   2.386   1.351  0.6335 -0.1551  0.0641
 5269SOL    HW127443   1.374   2.474   1.349 -1.8110  0.9184  1.9961
 5269SOL    HW227444   1.323   2.365   1.444  0.6720  1.7141  0.4935
 5270SOL     OW27445   4.718   1.514   5.438  0.2487 -0.0398 -0.0191
 5270SOL    HW127446   0.031   1.444   5.396 -1.8011 -1.8347  0.5235
 5270SOL    HW227447   0.041   1.547   5.506  1.1847 -1.4317 -0.1470
 5271SOL     OW27448   3.243   0.765   7.373 -0.2250 -0.6089  0.3937
 5271SOL    HW127449   3.331   0.747   7.406  0.0277 -0.2679 -0.0895
 5271SOL    HW227450   3.190   0.719   7.439  1.2579 -0.7338  1.5013
 5272SOL     OW27451   0.190   1.712   4.344  0.2020 -0.2562 -0.4675
 5272SOL    HW127452   0.212   1.803   4.327  0.5078  0.0230  1.4137
 5272SOL    HW227453   0.095   1.710   4.333  0.2520 -1.4825 -0.7283
 5273SOL     OW27454   4.721   2.406   1.444  0.1320  0.3826 -0.1861
 5273SOL    HW127455   4.728   2.461   1.366 -1.8897  0.3564 -0.3828
 5273SOL    HW227456   0.002   2.316   1.415  3.3405  0.7019  0.6976
 5274SOL     OW27457   0.699   3.754   3.749 -0.6562 -0.4575  0.0112
 5274SOL    HW127458   0.745   3.675   3.723 -0.9919 -0.2876 -1.0887
 5274SOL    HW227459   0.720   3.820   3.683 -1.6920 -0.1412 -0.0100
 5275SOL     OW27460   4.088   0.997   4.655 -0.1269  0.2647  0.2090
 5275SOL    HW127461   4.033   0.995   4.733  0.9540  0.3905  0.9802
 5275SOL    HW227462   4.166   0.952   4.685  2.1886  2.4967 -2.4059
 5276SOL     OW27463   2.227   4.628   9.086 -0.2988 -0.5671  0.1201
 5276SOL    HW127464   2.196   4.620   9.176 -2.1350  2.0107 -0.2979
 5276SOL    HW227465   2.247   4.722   9.084  0.1061 -0.6405  0.7146
 5277SOL     OW27466   3.499   3.952  15.372  0.3594 -0.0288 -0.1599
 5277SOL    HW127467   3.456   3.951  15.286  0.0957  0.4505 -0.0368
 5277SOL    HW227468   3.522   3.860  15.375 -3.0135 -0.9236 -1.0038
 5278SOL     OW27469   1.484   3.016   4.541 -0.5989 -0.3143  0.0487
 5278SOL    HW127470   1.540   2.958   4.593  0.7427  1.6792  0.8388
 5278SOL    HW227471   1.447   2.957   4.475  0.1159  0.9434 -1.4826
 5279SOL     OW27472   4.144   2.545   4.948  0.4424 -0.1290  0.5326
 5279SOL    HW127473   4.141   2.594   4.866 -2.6268 -0.0998  0.6681
 5279SOL    HW227474   4.208   2.599   4.995  0.2287  0.0590  0.6132
 5280SOL     OW27475   3.804   2.626   4.651  0.0221 -0.0057  0.1396
 5280SOL    HW127476   3.768   2.546   4.612  1.3648 -0.1426 -0.8339
 5280SOL    HW227477   3.752   2.640   4.730  0.0854  1.9655 -0.1794
 5281SOL     OW27478   1.291   2.704   6.318  0.5694 -0.4428  0.2487
 5281SOL    HW127479   1.329   2.743   6.396 -1.8786  1.7878  0.3174
 5281SOL    HW227480   1.368   2.653   6.292 -0.4967 -1.5805 -0.6903
 5282SOL     OW27481   3.914   1.228   2.636  0.4668  0.2610  0.0128
 5282SOL    HW127482   3.928   1.160   2.571 -2.6448  0.3732 -0.7740
 5282SOL    HW227483   3.821   1.220   2.658  0.5480 -0.4699  0.0663
 5283SOL     OW27484   0.080   0.983   6.927 -0.1248 -0.3343 -0.0646
 5283SOL    HW127485   0.088   1.027   6.843  2.5391 -0.2133  0.2624
 5283SOL    HW227486   0.134   1.037   6.986  2.3527 -2.1939 -0.6709
 5284SOL     OW27487   0.121   3.943   7.499  0.1947  0.1783  0.0633
 5284SOL    HW127488   0.158   3.888   7.430 -0.2728 -0.9192  0.6796
 5284SOL    HW227489   0.145   3.894   7.578  2.1105  1.6454  0.3866
 5285SOL     OW27490   1.527   3.755   5.712  0.2934  0.5660  0.7785
 5285SOL    HW127491   1.439   3.729   5.686  1.2087 -1.1008 -0.6954
 5285SOL    HW227492   1.526   3.775   5.805 -1.6703 -1.5982  1.2237
 5286SOL     OW27493   0.677   4.647   7.257 -0.2724  0.7122 -0.1748
 5286SOL    HW127494   0.635   4.697   7.327  1.0684  0.3568  0.8773
 5286SOL    HW227495   0.685   4.561   7.300  0.7902  0.7373 -0.3167
 5287SOL     OW27496   4.375   1.290  12.955 -0.2391 -0.9964 -0.0892
 5287SOL    HW127497   4.467   1.281  12.930 -0.6312 -0.6710 -1.7146
 5287SOL    HW227498   4.337   1.219  12.903 -4.1604 -0.1927  1.6546
 5288SOL     OW27499   3.015   2.741  11.439 -0.1415 -0.3560  0.2038
 5288SOL    HW127500   3.085   2.690  11.397 -0.2220 -0.2805 -0.0236
 5288SOL    HW227501   2.944   2.703  11.388  3.3855 -5.4154 -0.8886
 5289SOL     OW27502   4.100   0.036  17.098 -0.2905 -0.2689  0.2072
 5289SOL    HW127503   4.142   4.717  17.033  2.6180  2.2962 -0.1015
 5289SOL    HW227504   4.141   4.730  17.173 -2.3072 -0.4213  1.2388
 5290SOL     OW27505   3.955   0.829   1.742  0.6756  0.0564  0.2733
 5290SOL    HW127506   4.038   0.785   1.761  0.3770 -0.9043 -0.6498
 5290SOL    HW227507   3.988   0.881   1.668 -2.3984 -0.6316 -1.5638
 5291SOL     OW27508   2.376   3.656   1.216  0.5229  0.0116  0.7189
 5291SOL    HW127509   2.329   3.708   1.282  0.5950  1.4391 -0.3499
 5291SOL    HW227510   2.351   3.566   1.237 -0.3125  0.4337  1.5100
 5292SOL     OW27511   2.035   4.331   7.658 -0.2284 -0.5575  0.5288
 5292SOL    HW127512   1.940   4.344   7.659 -0.6117 -3.4636  1.8836
 5292SOL    HW227513   2.052   4.238   7.641 -1.4231 -0.6404 -0.2379
 5293SOL     OW27514   2.468   0.501  13.727  0.1329  0.2996  0.0321
 5293SOL    HW127515   2.476   0.568  13.795 -1.5565  1.2536 -0.6999
 5293SOL    HW227516   2.541   0.441  13.744  0.6238  1.3476  1.6369
 5294SOL     OW27517   2.792   0.609   3.520  0.1196  0.3108 -0.0152
 5294SOL    HW127518   2.887   0.595   3.527  0.4683  2.8002  0.3223
 5294SOL    HW227519   2.780   0.704   3.514 -1.4689  0.1283  0.4601
 5295SOL     OW27520   2.088   2.925   7.114 -0.3447 -0.4990  0.3391
 5295SOL    HW127521   2.048   2.978   7.045  1.7461  0.6442  0.0024
 5295SOL    HW227522   2.146   2.989   7.155 -1.7202  0.7343  0.3244
 5296SOL     OW27523   2.517   2.673   6.328  0.1048 -0.0860  0.3271
 5296SOL    HW127524   2.556   2.753   6.364 -2.0722  0.9786  0.2562
 5296SOL    HW227525   2.594   2.616   6.334  1.9721  2.6583  2.4261
 5297SOL     OW27526   3.485   0.495   4.290 -0.2965  0.3969  0.4327
 5297SOL    HW127527   3.535   0.433   4.237  0.7086  2.4645 -1.0833
 5297SOL    HW227528   3.402   0.508   4.243  1.3751  1.2129 -2.3043
 5298SOL     OW27529   2.832   1.059   7.872 -0.0672  0.2232 -0.2366
 5298SOL    HW127530   2.857   0.998   7.941 -0.6947  1.5526  1.1744
 5298SOL    HW227531   2.749   1.094   7.905 -0.3651 -0.4679 -0.2617
 5299SOL     OW27532   1.275   0.828  11.958 -0.6025  0.1322  0.4068
 5299SOL    HW127533   1.234   0.837  12.044 -0.4319  1.9424  0.2945
 5299SOL    HW227534   1.196   0.821  11.904 -0.7149  1.7876  0.3574
 5300SOL     OW27535   2.692   1.673   7.729  0.1224  0.6031 -0.3055
 5300SOL    HW127536   2.730   1.694   7.644  0.6714  0.6058 -0.0641
 5300SOL    HW227537   2.621   1.620   7.692  1.0570 -0.7663 -0.1659
 5301SOL     OW27538   0.079   0.461   7.152 -0.4041 -0.1712 -0.1199
 5301SOL    HW127539   0.166   0.498   7.162  0.3142 -2.3267  1.6775
 5301SOL    HW227540   0.049   0.507   7.074 -0.8951  0.4089  0.4172
 5302SOL     OW27541   1.413   0.297   1.229  0.6524 -0.2906 -0.0843
 5302SOL    HW127542   1.370   0.268   1.309 -0.3381  0.8179 -0.2060
 5302SOL    HW227543   1.491   0.335   1.269 -0.5845 -0.6272  2.6329
 5303SOL     OW27544   3.008   4.007   6.156 -0.7842 -0.6892  0.2090
 5303SOL    HW127545   3.030   4.005   6.249 -0.4827  0.0146  0.1502
 5303SOL    HW227546   3.011   3.912   6.146 -0.0793 -0.6189 -0.2180
 5304SOL     OW27547   3.207   3.501   3.107 -0.3041 -0.4000 -0.7891
 5304SOL    HW127548   3.153   3.552   3.167 -1.3224 -0.1943 -1.8919
 5304SOL    HW227549   3.299   3.521   3.127 -0.5411  2.4615 -2.6241
 5305SOL     OW27550   0.780   0.548  16.381  0.6596  0.2227 -0.3280
 5305SOL    HW127551   0.840   0.615  16.415  1.9425 -0.9533 -0.3041
 5305SOL    HW227552   0.810   0.469  16.425 -0.5804 -0.5512 -0.8856
 5306SOL     OW27553   2.426   0.491   7.644  0.3306  0.3063 -0.4721
 5306SOL    HW127554   2.502   0.451   7.602 -1.4061  0.1431 -3.5139
 5306SOL    HW227555   2.419   0.583   7.617  0.1251  0.8433  1.4519
 5307SOL     OW27556   1.753   2.384  14.779  0.1101 -0.1016 -0.1530
 5307SOL    HW127557   1.720   2.469  14.749  4.0202  1.8143  0.9933
 5307SOL    HW227558   1.675   2.332  14.801 -0.3667  1.0723  0.9777
 5308SOL     OW27559   1.725   1.797  12.524  0.0763  0.3199 -0.5096
 5308SOL    HW127560   1.784   1.732  12.562  0.8771  1.4274  0.1351
 5308SOL    HW227561   1.681   1.832  12.601 -1.8814 -0.3175 -1.3324
 5309SOL     OW27562   4.122   3.549   1.791 -0.2463 -0.4399  0.5169
 5309SOL    HW127563   4.034   3.516   1.774  0.4086 -1.9114 -0.0295
 5309SOL    HW227564   4.167   3.484   1.845  2.7811  0.8007 -0.5575
 5310SOL     OW27565   0.851   1.428   4.399  0.3789 -0.0240 -0.2588
 5310SOL    HW127566   0.772   1.471   4.368  1.1307  1.4689 -0.0872
 5310SOL    HW227567   0.903   1.425   4.319 -0.7655 -0.0324 -0.9933
 5311SOL     OW27568   3.016   2.905   5.249  0.3340 -0.3591 -0.3845
 5311SOL    HW127569   3.067   2.977   5.210  0.3112  0.2181  0.6304
 5311SOL    HW227570   3.052   2.834   5.198  0.7162  0.8196 -1.7461
 5312SOL     OW27571   1.582   2.561   2.371 -0.0967 -0.0814 -0.1342
 5312SOL    HW127572   1.649   2.550   2.303  0.8890  1.4003  0.6103
 5312SOL    HW227573   1.626   2.505   2.435 -1.0212 -0.1113  0.4681
 5313SOL     OW27574   3.860   2.876   8.795 -0.0665 -0.1879  0.1766
 5313SOL    HW127575   3.774   2.901   8.830  0.3947  0.2181  1.0126
 5313SOL    HW227576   3.844   2.876   8.700 -1.5861  1.5798  0.4164
 5314SOL     OW27577   0.952   4.066   9.182  0.4551 -1.0369  0.1317
 5314SOL    HW127578   0.998   4.033   9.104 -1.8570 -0.3357 -1.5304
 5314SOL    HW227579   1.026   4.083   9.241  0.2941  1.0811 -0.2883
 5315SOL     OW27580   2.306   3.908   2.260  0.4141 -0.5168 -0.6354
 5315SOL    HW127581   2.259   3.923   2.342 -0.3415  0.1512 -1.1928
 5315SOL    HW227582   2.278   3.991   2.220 -0.7210  0.1945  1.6346
 5316SOL     OW27583   0.465   4.290  11.840  0.2372 -0.2253 -0.0249
 5316SOL    HW127584   0.446   4.328  11.754 -1.8047 -1.2954 -0.0364
 5316SOL    HW227585   0.417   4.207  11.833 -3.1617  1.6921  0.7663
 5317SOL     OW27586   4.720   3.294   2.873 -0.2681  0.3327 -0.1078
 5317SOL    HW127587   0.038   3.348   2.816 -2.7494  2.1121 -0.8082
 5317SOL    HW227588   4.633   3.299   2.833  0.8255 -1.8681 -2.7172
 5318SOL     OW27589   1.159   0.148   2.772  0.2186 -0.1914 -0.8764
 5318SOL    HW127590   1.181   0.241   2.766  2.7362 -0.7174 -0.0143
 5318SOL    HW227591   1.066   0.154   2.791  0.2194 -0.8929 -0.6447
 5319SOL     OW27592   2.263   1.029   0.997  0.5333 -0.3622  0.5884
 5319SOL    HW127593   2.337   0.997   1.048  0.0858 -1.1164  0.7608
 5319SOL    HW227594   2.255   1.122   1.016  0.0977 -0.2395 -0.1702
 5320SOL     OW27595   3.386   2.256  16.780 -0.3767 -0.3090  0.1330
 5320SOL    HW127596   3.465   2.303  16.806 -0.6505 -0.7960  1.8556
 5320SOL    HW227597   3.329   2.327  16.751 -1.3095  0.5824  4.1791
 5321SOL     OW27598   2.754   1.050   6.620 -0.5077 -0.1836 -0.5206
 5321SOL    HW127599   2.801   0.984   6.671 -0.6222 -1.0063 -1.4856
 5321SOL    HW227600   2.743   1.120   6.684 -2.5101  1.0717 -2.2277
 5322SOL     OW27601   3.736   4.003   4.338  0.1902 -0.4782  0.1916
 5322SOL    HW127602   3.670   3.967   4.277 -0.9755  0.9241  0.6365
 5322SOL    HW227603   3.812   4.008   4.279 -1.3440  1.0118 -1.6721
 5323SOL     OW27604   1.247   4.316   2.481  0.2345 -0.2760  0.0190
 5323SOL    HW127605   1.308   4.307   2.408  2.0446 -0.3409  1.5346
 5323SOL    HW227606   1.194   4.240   2.459  1.6488 -1.0266 -0.8291
 5324SOL     OW27607   1.432   3.595   3.387  0.2033  0.1792 -0.1128
 5324SOL    HW127608   1.476   3.622   3.468  1.3245 -1.6707 -0.1029
 5324SOL    HW227609   1.467   3.506   3.378  0.5323  0.2057  0.9769
 5325SOL     OW27610   1.860   2.454   5.679 -0.4072 -0.1932  0.8029
 5325SOL    HW127611   1.876   2.540   5.717 -0.9227 -0.2095  1.0632
 5325SOL    HW227612   1.764   2.450   5.679 -0.3429 -1.4745  0.8978
 5326SOL     OW27613   1.221   4.068   5.057 -0.7602  0.2595 -0.6727
 5326SOL    HW127614   1.166   4.121   4.999  0.5488  0.7139 -1.5060
 5326SOL    HW227615   1.303   4.110   5.028  0.3242 -0.4929  1.3607
 5327SOL     OW27616   3.726   0.225  10.181  0.0381 -0.2890  0.5849
 5327SOL    HW127617   3.747   0.170  10.256 -1.4349  1.5073  2.3031
 5327SOL    HW227618   3.797   0.289  10.187 -0.7893  0.5848  1.0489
 5328SOL     OW27619   0.135   1.654  13.877 -0.0992  0.3971  0.2574
 5328SOL    HW127620   0.085   1.584  13.836  0.4765  0.5738 -0.7579
 5328SOL    HW227621   0.166   1.606  13.954 -0.2655 -0.4648 -0.2166
 5329SOL     OW27622   1.940   0.596   0.802 -0.4134 -0.1570  0.1279
 5329SOL    HW127623   1.999   0.633   0.867  0.1965 -2.8627  1.0874
 5329SOL    HW227624   1.998   0.522   0.784  2.1346  1.1110  3.2766
 5330SOL     OW27625   3.033   4.529   4.251  0.0932 -0.2488  0.2198
 5330SOL    HW127626   3.089   4.598   4.217  0.1490  0.7512  2.3672
 5330SOL    HW227627   2.992   4.490   4.173  0.4606 -1.6701  0.7264
 5331SOL     OW27628   4.299   0.136   8.320 -0.1988 -0.1177  0.6577
 5331SOL    HW127629   4.384   0.106   8.287 -1.6764 -1.2928 -2.1151
 5331SOL    HW227630   4.262   0.179   8.243 -0.0283  1.2901  1.3614
 5332SOL     OW27631   1.063   0.889   3.750 -0.0782 -0.0632  0.6231
 5332SOL    HW127632   1.062   0.794   3.761 -0.3839 -0.3639 -1.9540
 5332SOL    HW227633   1.104   0.906   3.665 -1.6753  0.1379 -0.1065
 5333SOL     OW27634   2.515   2.528   0.670 -0.7266  0.3541 -0.3441
 5333SOL    HW127635   2.543   2.613   0.637  2.5805  0.6011  3.1157
 5333SOL    HW227636   2.572   2.464   0.627 -0.0245  1.0557 -0.4473
 5334SOL     OW27637   2.365   2.181   4.996  0.1027  0.0900  0.1964
 5334SOL    HW127638   2.319   2.128   4.931  1.3994 -0.4642 -0.2613
 5334SOL    HW227639   2.354   2.272   4.971 -0.1136 -0.2320 -0.8740
 5335SOL     OW27640   4.157   1.623   7.229 -0.4659 -0.5115  0.3207
 5335SOL    HW127641   4.140   1.532   7.204 -0.2815 -0.0547 -1.4354
 5335SOL    HW227642   4.224   1.651   7.167  0.3807 -2.5173  0.3088
 5336SOL     OW27643   3.713   0.241   6.860 -0.2469 -0.1656  0.1306
 5336SOL    HW127644   3.657   0.230   6.783  1.3981  0.2041 -1.1279
 5336SOL    HW227645   3.795   0.244   6.810  0.2290 -1.3172  0.8521
 5337SOL     OW27646   3.730   2.354  15.655 -0.4945 -0.1460 -0.4610
 5337SOL    HW127647   3.785   2.363  15.578 -1.3544 -1.9110 -1.2943
 5337SOL    HW227648   3.709   2.260  15.650 -0.5994 -0.0627 -1.6100
 5338SOL     OW27649   4.531   2.178  17.409  0.0507 -0.0074 -0.2022
 5338SOL    HW127650   4.617   2.160  17.371  0.0426 -0.1010 -0.1765
 5338SOL    HW227651   4.490   2.093  17.396 -1.3578  0.6753 -0.2665
 5339SOL     OW27652   4.530   3.004   8.708  0.0241  0.2931  0.0614
 5339SOL    HW127653   4.525   2.954   8.790 -1.5941  2.8164  1.4812
 5339SOL    HW227654   4.442   2.989   8.676  0.4967  0.7945 -1.4679
 5340SOL     OW27655   0.565   0.649   6.699 -0.1179  0.3620 -0.1265
 5340SOL    HW127656   0.537   0.738   6.723  0.5369  0.3405  0.7060
 5340SOL    HW227657   0.657   0.666   6.719 -0.1135  1.7802 -1.3645
 5341SOL     OW27658   3.187   2.247  13.863  0.4066 -0.1622  0.4197
 5341SOL    HW127659   3.099   2.229  13.897  0.2610 -2.0624 -0.9605
 5341SOL    HW227660   3.181   2.191  13.785  1.6344  1.5230 -0.8682
 5342SOL     OW27661   0.115   1.857  10.306 -0.4472  0.7108  0.4550
 5342SOL    HW127662   0.102   1.764  10.326 -1.5283  0.5823 -0.8618
 5342SOL    HW227663   0.039   1.877  10.252 -0.3561  1.7915  0.7355
 5343SOL     OW27664   4.215   3.001  17.087  0.2763 -0.3755  0.0593
 5343SOL    HW127665   4.242   3.038  17.171  1.2553  1.3679 -1.0196
 5343SOL    HW227666   4.123   3.028  17.083  0.2710 -0.7603 -2.5136
 5344SOL     OW27667   2.608   1.182   0.451  0.1581  0.4193  0.4439
 5344SOL    HW127668   2.672   1.242   0.491  1.0498  0.3402 -0.8557
 5344SOL    HW227669   2.609   1.205   0.358 -0.9532 -0.0885  0.3116
 5345SOL     OW27670   3.062   4.369  10.652 -0.9530 -0.2999 -0.1108
 5345SOL    HW127671   3.077   4.357  10.746  1.1754 -1.2406 -0.5725
 5345SOL    HW227672   3.035   4.461  10.649  2.8874  0.8360  0.9781
 5346SOL     OW27673   4.259   1.365   8.204 -0.0922  0.1727 -0.7410
 5346SOL    HW127674   4.202   1.337   8.132 -0.4892  0.3693 -0.4984
 5346SOL    HW227675   4.327   1.413   8.156  2.9667 -1.1833  2.2393
 5347SOL     OW27676   3.495   4.410  13.961  0.2170  0.1230 -0.1126
 5347SOL    HW127677   3.408   4.387  13.996  0.1147  0.4461 -0.1586
 5347SOL    HW227678   3.486   4.366  13.876 -1.5956  0.3953 -0.0686
 5348SOL     OW27679   3.551   0.795  17.034 -0.4349  0.6153 -0.6139
 5348SOL    HW127680   3.582   0.758  17.116 -0.3297  1.8643 -0.0978
 5348SOL    HW227681   3.459   0.767  17.033 -0.2787  0.0368  1.0170
 5349SOL     OW27682   3.332   0.610  17.041  0.0932  0.1119  0.1620
 5349SOL    HW127683   3.368   0.537  16.989 -0.8612 -0.8307  0.8320
 5349SOL    HW227684   3.238   0.593  17.038  0.1901 -0.2641 -1.1060
 5350SOL     OW27685   1.691   1.109   3.606  0.1584 -0.4896 -0.6490
 5350SOL    HW127686   1.679   1.099   3.700  0.9289  1.5642 -0.3439
 5350SOL    HW227687   1.785   1.091   3.605  0.0897 -0.8524 -0.5033
 5351SOL     OW27688   2.819   4.625   0.545  0.1007 -0.4355 -0.1059
 5351SOL    HW127689   2.907   4.631   0.582 -0.0962 -1.7928  0.5911
 5351SOL    HW227690   2.790   4.716   0.552  0.6720 -0.3399  1.0586
 5352SOL     OW27691   4.587   1.907   3.484 -0.0338 -0.4484  0.0253
 5352SOL    HW127692   4.525   1.956   3.539  0.4289  0.7737 -0.5407
 5352SOL    HW227693   4.607   1.973   3.418  0.7433 -1.3870 -0.6578
 5353SOL     OW27694   3.012   4.143   5.299  0.4178  0.8711 -0.1173
 5353SOL    HW127695   3.096   4.098   5.293 -0.3306 -0.5770  0.2440
 5353SOL    HW227696   2.962   4.076   5.345  0.0686 -0.2502 -2.1084
 5354SOL     OW27697   3.765   2.479   8.244  0.2112 -0.6494  0.4567
 5354SOL    HW127698   3.755   2.552   8.182  1.8491 -1.3128 -0.5731
 5354SOL    HW227699   3.805   2.526   8.318  2.6880 -0.7385 -0.8269
 5355SOL     OW27700   2.216   0.426   1.002  0.0457  0.0863 -0.0399
 5355SOL    HW127701   2.273   0.414   1.078  0.1289 -0.8378 -0.2488
 5355SOL    HW227702   2.129   0.395   1.028 -0.4413  0.3713 -1.3465
 5356SOL     OW27703   4.521   2.101  13.352  0.1183 -0.2293  0.6875
 5356SOL    HW127704   4.475   2.151  13.419 -0.4164 -0.6418  0.6267
 5356SOL    HW227705   4.479   2.130  13.271  2.5402 -1.2607 -0.9428
 5357SOL     OW27706   2.989   1.322  15.141 -0.1307 -0.3108  0.1485
 5357SOL    HW127707   2.936   1.352  15.215 -0.5226 -1.8728  0.4916
 5357SOL    HW227708   2.937   1.247  15.111 -2.1027  0.7890  0.7823
 5358SOL     OW27709   2.673   0.476   0.253 -0.1803 -0.1234  0.3213
 5358SOL    HW127710   2.737   0.440   0.314 -0.3873  1.3203  1.3983
 5358SOL    HW227711   2.593   0.491   0.302  0.8614  2.8342  1.1388
 5359SOL     OW27712   0.307   3.228  11.898 -0.4724  0.6285  0.1141
 5359SOL    HW127713   0.317   3.239  11.804 -0.9614 -0.7030 -0.0980
 5359SOL    HW227714   0.254   3.308  11.902  1.1851  1.7285 -0.0657
 5360SOL     OW27715   4.127   3.424   9.884  0.0331 -0.1799 -0.1405
 5360SOL    HW127716   4.065   3.351   9.880  0.4417 -0.5509  0.2499
 5360SOL    HW227717   4.093   3.450   9.970 -0.8400  2.8561 -1.4146
 5361SOL     OW27718   4.577   4.661   5.506 -0.2457 -0.9300  0.3511
 5361SOL    HW127719   4.486   4.639   5.524  0.3902 -2.6535  1.3837
 5361SOL    HW227720   4.627   4.613   5.572  0.4035 -0.7922 -0.0335
 5362SOL     OW27721   2.554   2.604   2.230  0.0609  0.0989 -0.0683
 5362SOL    HW127722   2.521   2.666   2.295  0.0739  0.0235  0.0094
 5362SOL    HW227723   2.604   2.656   2.166  1.2982 -0.7467  0.2074
 5363SOL     OW27724   3.445   3.803   2.671 -0.2628  0.5727 -0.4378
 5363SOL    HW127725   3.460   3.844   2.756  0.9669  2.0883 -1.3960
 5363SOL    HW227726   3.457   3.710   2.690 -0.1308  0.2500 -2.0549
 5364SOL     OW27727   4.559   1.427   9.421 -0.3562  0.1428  0.3838
 5364SOL    HW127728   4.470   1.390   9.423 -0.0107 -0.7897 -1.2579
 5364SOL    HW227729   4.542   1.521   9.431  1.5523  0.3904  1.2895
 5365SOL     OW27730   4.578   3.165   6.067 -0.0292 -0.0582 -0.4558
 5365SOL    HW127731   4.549   3.230   6.131 -0.7971 -0.6159 -0.2379
 5365SOL    HW227732   4.534   3.199   5.989 -1.0549 -0.8104 -0.2028
 5366SOL     OW27733   1.400   2.794  17.026 -0.2286 -0.5246 -0.1550
 5366SOL    HW127734   1.440   2.831  17.104  0.1259  2.6482 -1.8421
 5366SOL    HW227735   1.361   2.868  16.979  2.1024  0.1881 -0.9638
 5367SOL     OW27736   0.797   4.728  11.760  0.4461  0.6091 -0.3243
 5367SOL    HW127737   0.808   4.679  11.678  0.5934 -1.1296  0.7220
 5367SOL    HW227738   0.885   0.022  11.777  0.5394 -0.9700  1.9624
 5368SOL     OW27739   0.506   0.643  14.442 -0.3308 -0.2173  0.5045
 5368SOL    HW127740   0.580   0.689  14.402 -1.6670 -0.8421 -2.6664
 5368SOL    HW227741   0.490   0.685  14.527  4.0885  0.9444  0.7818
 5369SOL     OW27742   2.904   3.033   6.034  0.1447 -0.2902  0.7163
 5369SOL    HW127743   2.863   2.971   6.095  0.0116  0.1855  1.1116
 5369SOL    HW227744   2.933   2.972   5.966  0.0746  0.1208  0.3187
 5370SOL     OW27745   1.352   3.258  16.427 -0.7334  0.1771  0.1562
 5370SOL    HW127746   1.423   3.196  16.440  0.5538  1.5341 -0.4397
 5370SOL    HW227747   1.406   3.335  16.413  0.3114 -1.2937 -3.8761
 5371SOL     OW27748   0.944   2.393   4.424  1.0168  0.2810 -0.0011
 5371SOL    HW127749   0.855   2.399   4.388  1.9899  1.1708 -2.2162
 5371SOL    HW227750   0.991   2.367   4.345 -0.6774 -0.1831 -0.8689
 5372SOL     OW27751   0.233   3.468  14.916  0.0902 -0.4861  0.5154
 5372SOL    HW127752   0.143   3.486  14.943 -0.8188 -1.3895 -2.0160
 5372SOL    HW227753   0.270   3.414  14.986  0.0302 -2.7725 -1.2473
 5373SOL     OW27754   4.012   1.350   9.536 -0.1128  0.4820 -0.4533
 5373SOL    HW127755   3.972   1.335   9.622 -1.3362  0.9283 -0.9399
 5373SOL    HW227756   3.953   1.418   9.504  1.5233  1.7884 -0.6985
 5374SOL     OW27757   1.881   0.729  12.983 -0.3044  0.0952 -0.2330
 5374SOL    HW127758   1.873   0.710  13.076  0.4396  0.5878 -0.0685
 5374SOL    HW227759   1.791   0.724  12.952 -0.4716  0.0114  0.2644
 5375SOL     OW27760   1.225   4.572   9.935 -0.0584 -0.1720  0.3550
 5375SOL    HW127761   1.311   4.571   9.977 -0.0704 -1.2697  0.3441
 5375SOL    HW227762   1.216   4.477   9.943  0.7616 -0.4702 -2.2913
 5376SOL     OW27763   1.097   2.366  16.579  0.3663 -0.0112  0.4137
 5376SOL    HW127764   1.087   2.355  16.674  1.3543 -0.4798  0.4634
 5376SOL    HW227765   1.044   2.445  16.571 -1.4988 -1.2381  0.7543
 5377SOL     OW27766   4.632   2.086   2.409 -0.3510 -0.4955 -0.5515
 5377SOL    HW127767   4.605   2.000   2.443  1.2999 -0.9041 -0.2786
 5377SOL    HW227768   4.727   2.087   2.416 -0.4195  0.2734  0.1842
 5378SOL     OW27769   3.699   0.900  12.835 -0.7880  1.0203 -0.6138
 5378SOL    HW127770   3.698   0.805  12.823 -1.4494  0.7465  1.5691
 5378SOL    HW227771   3.661   0.900  12.923  1.5478  0.8699  0.4139
 5379SOL     OW27772   4.253   3.427   6.734 -0.5858 -0.6718  0.1542
 5379SOL    HW127773   4.199   3.493   6.691 -1.5413 -1.7057 -0.2292
 5379SOL    HW227774   4.306   3.467   6.803  0.2307  0.7299 -1.2823
 5380SOL     OW27775   4.494   1.809   7.481 -0.0225  0.4590 -0.7433
 5380SOL    HW127776   4.443   1.890   7.484  0.2780  0.6671 -1.3044
 5380SOL    HW227777   4.532   1.827   7.395  0.7792  1.4142 -0.1934
 5381SOL     OW27778   3.224   0.270   4.811  0.1837 -0.4152 -0.5602
 5381SOL    HW127779   3.213   0.330   4.886  0.5457 -1.5029  0.3660
 5381SOL    HW227780   3.164   0.203   4.843 -1.8966  0.8912 -1.6779
 5382SOL     OW27781   2.091   3.478   8.762 -0.0787 -0.4285 -0.3929
 5382SOL    HW127782   2.170   3.525   8.735  0.6683 -1.6079 -0.2769
 5382SOL    HW227783   2.081   3.414   8.691 -0.8754 -1.6668  0.8643
 5383SOL     OW27784   4.305   4.683   8.100 -0.2420  0.5479 -0.0015
 5383SOL    HW127785   4.271   4.717   8.183 -1.2993  0.3063 -0.3419
 5383SOL    HW227786   4.315   4.589   8.113  1.5944  0.8873  1.1352
 5384SOL     OW27787   0.281   0.868   7.344 -0.0100 -0.5148 -0.2094
 5384SOL    HW127788   0.346   0.856   7.275  1.3854  1.6381  0.7387
 5384SOL    HW227789   0.341   0.884   7.417  1.2025  0.8637 -1.5168
 5385SOL     OW27790   1.876   1.250   4.331  0.2821  0.0416 -0.8642
 5385SOL    HW127791   1.970   1.264   4.317  0.6240 -1.4139 -0.0213
 5385SOL    HW227792   1.871   1.184   4.400  2.8923 -1.0526 -1.7055
 5386SOL     OW27793   3.889   3.227   7.510 -0.2218  0.5423  0.3668
 5386SOL    HW127794   3.817   3.263   7.562  0.0825 -1.2635  2.0363
 5386SOL    HW227795   3.905   3.296   7.445 -1.0723  1.0279  0.6710
 5387SOL     OW27796   4.715   1.359   2.492  0.0350  0.5766 -0.5338
 5387SOL    HW127797   0.052   1.302   2.471  0.1537 -0.0729  1.7047
 5387SOL    HW227798   4.692   1.309   2.570  0.4100  0.6876 -0.3569
 5388SOL     OW27799   2.557   1.277   3.840  0.4705  0.2907  0.1005
 5388SOL    HW127800   2.584   1.202   3.893 -2.1293  0.1213  1.1940
 5388SOL    HW227801   2.479   1.305   3.888  0.0271  0.9241 -0.9902
 5389SOL     OW27802   1.700   2.147   4.978 -0.5033  0.0753  0.6007
 5389SOL    HW127803   1.754   2.073   4.948 -1.1024  0.7854 -2.1585
 5389SOL    HW227804   1.738   2.150   5.066  2.6152  0.5458 -0.7674
 5390SOL     OW27805   3.603   3.883   4.102  0.2028  0.0397  0.3362
 5390SOL    HW127806   3.536   3.873   4.035 -1.0881 -2.0964  1.9823
 5390SOL    HW227807   3.668   3.925   4.045  0.1314 -1.3189 -0.7338
 5391SOL     OW27808   3.650   3.975   6.838  0.1496  0.1819 -0.3943
 5391SOL    HW127809   3.581   4.038   6.821  0.8966  1.5911  1.7435
 5391SOL    HW227810   3.717   4.009   6.778  0.4435 -2.3574 -1.4969
 5392SOL     OW27811   2.622   4.276   2.604 -0.2735  0.9242 -0.0597
 5392SOL    HW127812   2.586   4.205   2.657  1.7694  0.5610  0.8298
 5392SOL    HW227813   2.716   4.273   2.625  0.1081  0.9958 -1.8000
 5393SOL     OW27814   0.689   1.780   9.486 -0.2812  1.1065 -0.3876
 5393SOL    HW127815   0.755   1.847   9.504  1.5168  0.4052 -4.2428
 5393SOL    HW227816   0.614   1.838   9.475 -0.2630  1.4164  1.1893
 5394SOL     OW27817   4.717   2.192   7.282 -0.4637 -0.0007  0.0060
 5394SOL    HW127818   4.660   2.156   7.214 -0.7653  0.6222 -0.0672
 5394SOL    HW227819   4.679   2.280   7.284 -5.6017 -2.2553 -0.7935
 5395SOL     OW27820   4.193   0.019   4.205 -0.9812  0.1613 -0.3754
 5395SOL    HW127821   4.181   4.661   4.206 -0.0554  0.0725  2.3481
 5395SOL    HW227822   4.253   0.040   4.134  1.0164  0.4165  1.3887
 5396SOL     OW27823   0.223   3.940   7.872 -0.6926 -0.0752  0.0032
 5396SOL    HW127824   0.162   4.012   7.885 -2.4941 -1.5228 -0.3904
 5396SOL    HW227825   0.160   3.880   7.912  1.0206 -1.3543  0.7633
 5397SOL     OW27826   2.526   2.583  17.257 -0.2903 -0.6433 -0.0045
 5397SOL    HW127827   2.600   2.551  17.307 -0.0655  0.5953  0.4681
 5397SOL    HW227828   2.484   2.641  17.321 -0.6977 -0.5547 -0.3510
 5398SOL     OW27829   4.415   4.616   7.293 -0.2523 -0.7043  0.2722
 5398SOL    HW127830   4.434   4.688   7.352 -0.6091 -1.9663  1.9104
 5398SOL    HW227831   4.369   4.646   7.215 -0.1319 -2.6288 -0.5622
 5399SOL     OW27832   1.970   1.734  16.320  0.4647  0.6087  0.0583
 5399SOL    HW127833   1.902   1.738  16.388 -0.2730  0.4606 -0.6692
 5399SOL    HW227834   2.049   1.756  16.368 -0.7885  2.0948  1.4311
 5400SOL     OW27835   1.422   3.630  12.767 -0.0622 -0.1758  0.1846
 5400SOL    HW127836   1.373   3.687  12.707  0.1710 -0.0315  0.1273
 5400SOL    HW227837   1.355   3.566  12.789 -0.1375 -0.7498 -1.7201
 5401SOL     OW27838   1.974   4.490   4.103  0.4247  0.1958 -0.2674
 5401SOL    HW127839   1.886   4.527   4.092  0.1515 -0.4259 -0.1668
 5401SOL    HW227840   1.979   4.459   4.012  2.4157  0.2351 -0.1554
 5402SOL     OW27841   1.346   3.798   3.001 -0.0965 -0.6073 -0.0585
 5402SOL    HW127842   1.317   3.709   2.983 -0.4281 -0.6467  0.6846
 5402SOL    HW227843   1.279   3.812   3.068 -1.4567  0.5970 -1.6394
 5403SOL     OW27844   3.664   1.890   5.151 -0.4311  0.6304 -0.0270
 5403SOL    HW127845   3.723   1.824   5.114 -0.5535 -0.1691  1.1903
 5403SOL    HW227846   3.705   1.894   5.238 -0.4684  0.3783  0.0020
 5404SOL     OW27847   2.413   4.658   3.483  0.2431  0.1877 -0.1876
 5404SOL    HW127848   2.391   4.613   3.564  0.1622  0.0122 -0.3075
 5404SOL    HW227849   2.364   4.601   3.423 -2.2023  2.2972 -0.2159
 5405SOL     OW27850   2.875   2.494   3.601  0.2212  0.6319  0.0648
 5405SOL    HW127851   2.821   2.551   3.655 -1.3118 -0.4407 -0.3633
 5405SOL    HW227852   2.829   2.411   3.594  0.7787  0.4269 -1.0946
 5406SOL     OW27853   1.225   2.987  17.581 -0.0739  0.4546 -0.4238
 5406SOL    HW127854   1.248   2.896  17.563 -0.6930  0.3257 -0.5685
 5406SOL    HW227855   1.310   3.030  17.587  0.8616 -1.2893 -1.3421
 5407SOL     OW27856   3.328   4.566   5.943  0.2745  0.0597 -0.1972
 5407SOL    HW127857   3.415   4.527   5.940  0.3822  0.4802 -2.3156
 5407SOL    HW227858   3.333   4.587   6.036 -0.3746 -2.5046  0.4340
 5408SOL     OW27859   2.363   0.427  12.873  0.5529  0.6350 -0.4193
 5408SOL    HW127860   2.431   0.435  12.805  0.8180  0.1034 -0.2118
 5408SOL    HW227861   2.349   0.520  12.889 -1.7363 -0.2291  2.5947
 5409SOL     OW27862   1.961   4.715   7.705  0.3514  0.0944 -0.7053
 5409SOL    HW127863   1.930   0.022   7.785  1.1613  0.7348 -0.7390
 5409SOL    HW227864   1.894   4.647   7.697  0.9538 -0.6808  0.7243
 5410SOL     OW27865   1.099   3.722   3.582  0.6199  0.0380  0.3185
 5410SOL    HW127866   1.100   3.702   3.676  0.0244  1.4606  0.6347
 5410SOL    HW227867   1.094   3.818   3.588  0.6319  0.0072  0.8782
 5411SOL     OW27868   0.874   0.536   6.525  0.1621 -0.3488 -0.0627
 5411SOL    HW127869   0.925   0.598   6.474 -1.8982  3.1071  2.1191
 5411SOL    HW227870   0.792   0.585   6.535  1.2703  1.1169  1.8336
 5412SOL     OW27871   3.766   3.125  10.808  0.1907  0.1651 -0.2642
 5412SOL    HW127872   3.758   3.220  10.815 -0.9807  0.0367  0.1329
 5412SOL    HW227873   3.676   3.097  10.790 -0.4946  1.5565  1.0287
 5413SOL     OW27874   3.731   0.622   3.215  0.1999  0.1368  0.1755
 5413SOL    HW127875   3.663   0.688   3.209 -1.0337 -1.0726  0.8142
 5413SOL    HW227876   3.742   0.609   3.309 -1.2668 -1.4449  0.1306
 5414SOL     OW27877   3.422   1.072  17.151  0.2904 -0.1184 -0.3949
 5414SOL    HW127878   3.364   1.039  17.219  1.5462  0.8087  1.1321
 5414SOL    HW227879   3.449   0.993  17.104 -0.7409 -0.7019  0.0039
 5415SOL     OW27880   2.312   3.955   9.363 -0.1035 -0.1020  0.4677
 5415SOL    HW127881   2.283   3.960   9.272 -1.1336  0.8839  0.8693
 5415SOL    HW227882   2.249   3.887   9.387 -1.3481  2.1957  3.6688
 5416SOL     OW27883   3.446   3.189   8.711 -0.0667 -0.3737 -0.0626
 5416SOL    HW127884   3.408   3.225   8.791 -0.6755  2.3548 -1.5934
 5416SOL    HW227885   3.367   3.174   8.660  0.1990  2.7359 -1.3625
 5417SOL     OW27886   1.559   3.283   3.057  0.2452  0.1361  0.4874
 5417SOL    HW127887   1.509   3.201   3.060 -0.8819  0.8029  0.1293
 5417SOL    HW227888   1.547   3.304   2.964  1.6197 -0.7395  0.1152
 5418SOL     OW27889   2.229   3.904   7.172 -0.0939  0.3481  0.0488
 5418SOL    HW127890   2.221   3.976   7.110 -2.0483 -0.7779 -1.0030
 5418SOL    HW227891   2.267   3.833   7.120  1.0476  0.6102  0.5220
 5419SOL     OW27892   2.631   0.086   2.898  0.3478 -0.3467 -0.6652
 5419SOL    HW127893   2.573   0.161   2.886  2.1671  0.8202 -2.1450
 5419SOL    HW227894   2.580   0.057   2.974 -0.5792 -1.7314 -1.7909
 5420SOL     OW27895   1.590   0.048   1.923 -0.0246 -0.0186  0.0829
 5420SOL    HW127896   1.578   0.059   2.017  0.6326  1.5111 -0.0160
 5420SOL    HW227897   1.498   0.045   1.895 -0.0197  0.8095 -0.0203
 5421SOL     OW27898   0.603   0.124   6.634 -0.4176  0.8131 -0.0481
 5421SOL    HW127899   0.647   0.144   6.716 -3.2727 -2.4288  2.2605
 5421SOL    HW227900   0.636   0.193   6.576  0.4793  0.0448 -0.4469
 5422SOL     OW27901   3.174   3.823   8.722  0.7607 -0.1625 -0.4298
 5422SOL    HW127902   3.126   3.892   8.677  0.3671  0.3624  0.7935
 5422SOL    HW227903   3.227   3.797   8.646  1.9250 -3.2355  1.4197
 5423SOL     OW27904   1.542   2.293   1.750 -0.0585 -0.1783 -0.0421
 5423SOL    HW127905   1.593   2.365   1.715  1.1453  0.0618  2.1927
 5423SOL    HW227906   1.529   2.328   1.838  0.2775 -1.9644  0.7222
 5424SOL     OW27907   0.765   4.039   2.626  0.3590  0.1767  0.6388
 5424SOL    HW127908   0.776   3.953   2.667  1.4620 -0.2519 -0.5483
 5424SOL    HW227909   0.776   4.092   2.705  0.5941  1.6494 -0.3833
 5425SOL     OW27910   3.773   0.968   4.517  0.6341  0.1873 -0.0054
 5425SOL    HW127911   3.723   1.049   4.533 -1.3772 -0.2771 -3.7809
 5425SOL    HW227912   3.717   0.894   4.539  1.6714 -0.7823 -0.6569
 5426SOL     OW27913   2.455   2.031   1.817 -0.2760 -0.7502  0.1817
 5426SOL    HW127914   2.405   2.082   1.753 -0.6272 -2.3026 -0.7645
 5426SOL    HW227915   2.537   2.079   1.818 -1.3695  1.1212  0.7388
 5427SOL     OW27916   3.745   2.396  13.061  0.6494 -0.4354 -0.2563
 5427SOL    HW127917   3.651   2.389  13.073  0.6614  0.8141  0.6220
 5427SOL    HW227918   3.777   2.368  13.147  0.3843 -1.7931 -0.6082
 5428SOL     OW27919   1.108   3.283   9.225  0.2913 -0.3096  0.2090
 5428SOL    HW127920   1.174   3.332   9.273 -3.1530  1.1192  3.4572
 5428SOL    HW227921   1.157   3.209   9.188 -0.4652  0.0516 -1.5414
 5429SOL     OW27922   4.113   3.624   6.618 -0.0793 -0.4917  0.7595
 5429SOL    HW127923   4.076   3.649   6.533  2.1345 -0.8560 -0.3005
 5429SOL    HW227924   4.049   3.669   6.674 -0.3590 -1.0799  0.9204
 5430SOL     OW27925   3.631   3.984  17.305 -0.3295  0.0500  0.3643
 5430SOL    HW127926   3.705   4.019  17.354 -1.4999  1.4853  1.1020
 5430SOL    HW227927   3.661   3.973  17.215 -1.4240  1.8914 -0.2082
 5431SOL     OW27928   4.314   4.665   6.317  0.4922  0.4971 -0.1123
 5431SOL    HW127929   4.229   4.676   6.360  1.2145  3.7166  0.4798
 5431SOL    HW227930   4.371   4.721   6.370  2.6115 -1.8975  0.1427
 5432SOL     OW27931   4.485   2.874   9.008 -0.0121  0.1508 -0.3195
 5432SOL    HW127932   4.404   2.875   9.059 -0.5387 -0.9064 -1.1577
 5432SOL    HW227933   4.521   2.786   9.022  0.4237  0.3050 -0.4716
 5433SOL     OW27934   3.361   2.774  15.899 -0.0259  0.1025 -0.6774
 5433SOL    HW127935   3.315   2.691  15.882 -0.9975 -0.0318  2.6935
 5433SOL    HW227936   3.381   2.811  15.813 -3.7913  4.6291  0.4029
 5434SOL     OW27937   3.294   3.415   4.974  0.4462 -0.2201 -0.6511
 5434SOL    HW127938   3.277   3.506   4.949  1.9994  0.0622 -0.6940
 5434SOL    HW227939   3.225   3.393   5.036 -0.0316 -1.1234 -1.4933
 5435SOL     OW27940   2.924   0.287   9.796  0.5424  0.6615 -0.4394
 5435SOL    HW127941   2.971   0.247   9.868  0.4598 -2.4430 -2.1337
 5435SOL    HW227942   2.992   0.352   9.777  0.1397  0.6496 -1.9488
 5436SOL     OW27943   0.467   0.008   4.900 -0.2265 -0.0031 -0.0764
 5436SOL    HW127944   0.562   0.013   4.887 -0.1484 -1.9802 -0.1972
 5436SOL    HW227945   0.461   4.728   4.994 -1.9951  1.4189  0.0691
 5437SOL     OW27946   3.532   0.470   3.141 -0.5087 -0.2941  0.3665
 5437SOL    HW127947   3.612   0.521   3.157 -0.7366 -0.0687  0.7743
 5437SOL    HW227948   3.496   0.520   3.068 -0.2481  1.7545  1.6536
 5438SOL     OW27949   0.010   4.121   5.328 -0.5986  0.7929  0.0216
 5438SOL    HW127950   4.703   4.091   5.248  0.0773 -0.3773  0.0866
 5438SOL    HW227951   4.709   4.063   5.394  0.5132  0.3366  0.2603
 5439SOL     OW27952   1.728   4.360   5.298 -0.3477  0.0636 -0.1107
 5439SOL    HW127953   1.815   4.329   5.321 -0.5445  0.4703  1.1899
 5439SOL    HW227954   1.673   4.344   5.375  0.6398  0.4036  0.6612
 5440SOL     OW27955   2.103   4.727   4.392 -0.1777  0.1245  0.5460
 5440SOL    HW127956   2.196   0.012   4.382 -0.0930 -0.3974  0.2305
 5440SOL    HW227957   2.068   0.065   4.342 -2.4052 -0.6199  1.0028
 5441SOL     OW27958   1.295   1.584   7.224 -0.5189 -0.0278 -0.3594
 5441SOL    HW127959   1.235   1.658   7.230  1.3203  1.2744  1.8273
 5441SOL    HW227960   1.252   1.513   7.271  0.0362 -0.7415 -0.9309
 5442SOL     OW27961   4.713   2.748   6.964  0.0814 -0.2269  0.6016
 5442SOL    HW127962   4.619   2.765   6.971 -0.1834 -2.0571  1.4112
 5442SOL    HW227963   0.013   2.836   6.974  0.6607 -0.6691  2.3771
 5443SOL     OW27964   2.472   1.719  10.248 -0.3504 -0.4924  0.2370
 5443SOL    HW127965   2.450   1.628  10.270 -1.2071  0.6089  3.9327
 5443SOL    HW227966   2.497   1.704  10.157 -0.1162 -1.1467  0.4082
 5444SOL     OW27967   3.764   1.961   5.922  0.8793  0.0379  0.0734
 5444SOL    HW127968   3.787   1.893   5.985  0.3426 -0.4149 -0.2176
 5444SOL    HW227969   3.831   1.944   5.856 -0.9346 -0.1249 -1.7359
 5445SOL     OW27970   0.012   4.306   6.770  0.5345 -0.2905  0.0622
 5445SOL    HW127971   0.088   4.335   6.821  1.7083 -1.9751 -0.7268
 5445SOL    HW227972   0.045   4.284   6.683  3.1168 -0.7742  1.1486
 5446SOL     OW27973   3.982   0.227   2.423 -0.5616 -0.1018 -0.3206
 5446SOL    HW127974   4.074   0.224   2.449 -1.7500 -0.2791  3.8843
 5446SOL    HW227975   3.992   0.227   2.328 -1.8705 -0.5746 -0.4515
 5447SOL     OW27976   2.768   0.454   0.003 -0.2596 -0.0706 -0.7324
 5447SOL    HW127977   2.851   0.422   0.037  0.0942  0.5001 -1.0626
 5447SOL    HW227978   2.719   0.459   0.085  0.6133  0.1917 -0.2309
 5448SOL     OW27979   3.286   1.779  16.955 -0.1803  0.3048 -0.1637
 5448SOL    HW127980   3.296   1.837  16.879 -1.1267  1.4016  0.5588
 5448SOL    HW227981   3.322   1.841  17.018 -0.4145 -0.3870  0.6602
 5449SOL     OW27982   0.276   2.191   1.473 -0.5377  0.0160  0.4487
 5449SOL    HW127983   0.359   2.180   1.520  0.3809  2.4690 -0.5702
 5449SOL    HW227984   0.226   2.110   1.481 -0.3334 -0.2056 -0.4094
 5450SOL     OW27985   3.129   3.057   4.941  0.1854  0.4266  0.9103
 5450SOL    HW127986   3.154   3.121   4.874  0.4633 -0.4850  0.1440
 5450SOL    HW227987   3.204   3.039   4.997  1.7531 -0.3450 -1.4222
 5451SOL     OW27988   4.380   2.468   2.716  0.1395 -0.3112 -0.8079
 5451SOL    HW127989   4.354   2.377   2.707  2.8751 -1.2039  0.2877
 5451SOL    HW227990   4.315   2.487   2.784 -1.5811  0.9922 -2.8345
 5452SOL     OW27991   1.269   0.365   7.933 -0.5236 -0.0338 -0.1668
 5452SOL    HW127992   1.192   0.311   7.919 -0.5750  0.5056 -2.0712
 5452SOL    HW227993   1.237   0.425   8.000 -1.2390  0.3071 -0.8079
 5453SOL     OW27994   0.819   3.837  13.299 -0.0786  0.0290 -0.2256
 5453SOL    HW127995   0.869   3.877  13.370 -1.0088 -0.4733  0.7196
 5453SOL    HW227996   0.887   3.838  13.232  1.6345  3.2462  1.5827
 5454SOL     OW27997   2.571   0.512   4.135  0.2098 -0.3538  0.6817
 5454SOL    HW127998   2.573   0.563   4.216  0.6175 -0.2770  0.6258
 5454SOL    HW227999   2.503   0.555   4.084  1.8670 -0.1322 -1.3517
 5455SOL     OW28000   0.909   3.050   5.409  0.4126 -0.3309 -0.9754
 5455SOL    HW128001   0.871   2.964   5.427 -1.0978  0.5450  0.0767
 5455SOL    HW228002   0.947   3.058   5.496  0.2074  0.4749 -0.9662
 5456SOL     OW28003   0.684   1.159   4.215 -0.1716  0.7188  0.7337
 5456SOL    HW128004   0.768   1.117   4.233 -0.8071 -0.5393  0.7328
 5456SOL    HW228005   0.628   1.083   4.229  2.5415 -1.9431 -3.1014
 5457SOL     OW28006   1.063   1.405  10.486 -0.4936  0.3915  0.4354
 5457SOL    HW128007   1.126   1.405  10.559 -1.4269  1.1550  1.2376
 5457SOL    HW228008   1.113   1.473  10.441  0.4445 -0.8424 -0.4068
 5458SOL     OW28009   3.050   0.466   3.475  0.0894  0.4326 -0.2447
 5458SOL    HW128010   3.122   0.406   3.494 -1.2048 -0.9338  0.3886
 5458SOL    HW228011   2.998   0.433   3.401  0.2454  1.4637 -0.8210
 5459SOL     OW28012   3.216   2.753   7.954 -0.1006 -0.1780  0.1490
 5459SOL    HW128013   3.167   2.686   7.907  0.4653 -0.4379 -0.0646
 5459SOL    HW228014   3.306   2.725   7.937  0.0308 -0.9244  2.1082
 5460SOL     OW28015   1.955   1.893   5.280 -0.1319 -0.1988  0.0481
 5460SOL    HW128016   1.918   1.979   5.259  0.4214  0.0281  0.0219
 5460SOL    HW228017   1.951   1.910   5.374  0.5169 -2.3045  0.4463
 5461SOL     OW28018   4.255   0.087   0.343  0.2208  0.0002 -0.6020
 5461SOL    HW128019   4.341   0.128   0.346  0.6818 -0.8696 -1.8687
 5461SOL    HW228020   4.240   0.057   0.433 -0.2836  5.1827  1.0288
 5462SOL     OW28021   1.010   0.943   6.922  0.5006 -0.1239  0.1316
 5462SOL    HW128022   1.100   0.974   6.927  0.0494  1.4501 -1.4127
 5462SOL    HW228023   1.015   0.910   6.833 -0.3719  0.6840 -0.2176
 5463SOL     OW28024   2.140   2.013   0.825  0.4140 -0.4695 -0.2525
 5463SOL    HW128025   2.179   2.100   0.825  2.5996 -1.4681  0.5972
 5463SOL    HW228026   2.080   2.014   0.899 -0.0362 -4.1476 -0.5579
 5464SOL     OW28027   0.149   0.609   4.042  0.2981  0.2259 -0.0778
 5464SOL    HW128028   0.211   0.632   3.974  0.4464 -2.7048 -0.9509
 5464SOL    HW228029   0.078   0.590   3.980 -0.7749 -0.3919  1.3195
 5465SOL     OW28030   0.053   2.708   2.418 -0.5607 -0.4690 -0.2251
 5465SOL    HW128031   0.111   2.750   2.355 -1.0618 -0.1216 -0.4593
 5465SOL    HW228032   4.719   2.771   2.403 -0.1504 -0.3130 -1.4980
 5466SOL     OW28033   1.286   1.354   3.245 -0.0055 -0.2300 -0.9052
 5466SOL    HW128034   1.338   1.273   3.243  0.3366 -0.0391  0.5333
 5466SOL    HW228035   1.334   1.400   3.313 -0.4542  0.6824 -1.2090
 5467SOL     OW28036   1.495   1.331   5.263  0.2493 -0.6118  0.6344
 5467SOL    HW128037   1.559   1.330   5.334 -0.2002 -2.7345  1.0243
 5467SOL    HW228038   1.520   1.406   5.209  0.5870 -1.8652 -0.9463
 5468SOL     OW28039   0.688   1.602   7.107  0.2635  0.1173  0.9058
 5468SOL    HW128040   0.638   1.555   7.174  0.9326 -0.2086  1.1781
 5468SOL    HW228041   0.776   1.565   7.118  0.6858  0.8512 -0.0072
 5469SOL     OW28042   1.891   4.121   3.446 -0.3042  0.2991  0.3099
 5469SOL    HW128043   1.894   4.057   3.376  0.2701  1.4108 -0.6835
 5469SOL    HW228044   1.970   4.095   3.494  0.1183 -2.1714 -1.7352
 5470SOL     OW28045   4.505   3.786   3.776 -0.1901  0.3047  0.9011
 5470SOL    HW128046   4.526   3.879   3.768 -0.9992  0.4938  1.0047
 5470SOL    HW228047   4.465   3.776   3.863  2.0885 -0.0339  1.9323
 5471SOL     OW28048   0.841   1.521   0.988 -0.3020 -0.0183 -0.1900
 5471SOL    HW128049   0.923   1.571   0.980 -0.3643  0.2245  0.6990
 5471SOL    HW228050   0.863   1.456   0.922 -1.7960  0.2494 -0.9619
 5472SOL     OW28051   0.323   2.567  13.947 -0.4129 -0.2360  0.1741
 5472SOL    HW128052   0.407   2.533  13.916 -0.3670 -1.8475  2.0535
 5472SOL    HW228053   0.350   2.592  14.036  0.5123 -0.2162 -0.1120
 5473SOL     OW28054   1.477   0.976   2.551  0.1968  0.3234 -0.6333
 5473SOL    HW128055   1.458   0.886   2.527 -1.6065  0.6518 -0.3810
 5473SOL    HW228056   1.570   0.963   2.570 -0.2645 -0.3451  1.1161
 5474SOL     OW28057   4.158   1.908   5.571 -0.0292  0.3955 -0.1965
 5474SOL    HW128058   4.186   1.894   5.480 -0.3320  1.4322 -0.4501
 5474SOL    HW228059   4.192   1.835   5.623 -0.0339 -0.0434 -0.8105
 5475SOL     OW28060   1.528   1.361   6.572 -0.1167  0.1685  0.5090
 5475SOL    HW128061   1.610   1.375   6.618 -0.7022  0.3857  1.4757
 5475SOL    HW228062   1.578   1.366   6.490  1.4648  0.1148  1.4795
 5476SOL     OW28063   0.856   3.093   6.073  0.3423 -0.5378  0.7536
 5476SOL    HW128064   0.794   3.041   6.022  0.4611 -1.1868  1.2720
 5476SOL    HW228065   0.807   3.119   6.151  0.0792 -2.5927  1.2740
 5477SOL     OW28066   3.460   1.359   6.299 -0.2454  0.4739  0.0233
 5477SOL    HW128067   3.452   1.300   6.374 -0.4057  0.2069 -0.2023
 5477SOL    HW228068   3.500   1.304   6.232 -0.0750 -1.0014  1.3507
 5478SOL     OW28069   3.515   3.286   2.189  0.0086 -0.0404  0.1744
 5478SOL    HW128070   3.492   3.373   2.222  1.5522  1.0355 -1.5971
 5478SOL    HW228071   3.452   3.232   2.237 -0.5274 -0.4711 -1.0169
 5479SOL     OW28072   4.170   1.591   8.376  0.4087 -0.4919  0.4525
 5479SOL    HW128073   4.186   1.516   8.319 -2.2785 -0.7624  0.0967
 5479SOL    HW228074   4.260   1.621   8.391  0.0086  0.2120  1.4505
 5480SOL     OW28075   0.803   4.020   9.732 -0.4495  0.1657 -0.2232
 5480SOL    HW128076   0.861   4.041   9.804 -0.8427  0.2735  0.0621
 5480SOL    HW228077   0.762   3.942   9.768  1.3052 -0.7415 -0.2250
 5481SOL     OW28078   4.531   1.991   2.098 -0.2123  0.1732 -0.0469
 5481SOL    HW128079   4.550   1.901   2.073 -0.8123  0.2085 -0.6363
 5481SOL    HW228080   4.481   1.984   2.179  1.0345  0.2569  0.7375
 5482SOL     OW28081   1.505   3.349   3.326  0.3820 -0.1446  0.1839
 5482SOL    HW128082   1.517   3.362   3.232 -0.6199 -2.3309 -0.2443
 5482SOL    HW228083   1.562   3.272   3.335 -0.3032 -0.7086 -0.3247
 5483SOL     OW28084   2.611   0.490   8.939  0.0267  0.0562  0.0973
 5483SOL    HW128085   2.614   0.542   9.019 -2.1444  2.5229 -1.4350
 5483SOL    HW228086   2.677   0.529   8.881  0.9751 -0.4390  0.8328
 5484SOL     OW28087   0.713   1.660   8.539 -0.5528  0.0364  0.0166
 5484SOL    HW128088   0.618   1.653   8.529 -0.5664 -0.6422  0.6449
 5484SOL    HW228089   0.713   1.573   8.578 -0.5473  0.7302  1.5770
 5485SOL     OW28090   2.834   0.774   1.691 -0.8341 -0.1785 -0.1899
 5485SOL    HW128091   2.909   0.715   1.697 -0.7790 -0.1283 -0.3792
 5485SOL    HW228092   2.858   0.841   1.756 -1.8486  1.2484 -1.2850
 5486SOL     OW28093   4.730   4.195   5.707 -0.5768 -0.4927 -0.0844
 5486SOL    HW128094   4.665   4.228   5.645 -2.6457 -3.1851  0.6512
 5486SOL    HW228095   4.665   4.174   5.774 -0.5441 -0.8669 -0.1676
 5487SOL     OW28096   3.790   3.432   9.146 -0.3816  0.2975 -0.7917
 5487SOL    HW128097   3.784   3.519   9.108 -2.9358  1.4566  2.2438
 5487SOL    HW228098   3.765   3.449   9.237  2.2439  1.8207 -0.3772
 5488SOL     OW28099   3.323   2.711   2.030  0.0579  0.2391  0.3754
 5488SOL    HW128100   3.302   2.638   2.089  1.0265 -0.3526 -0.0083
 5488SOL    HW228101   3.240   2.723   1.984 -0.3226 -0.7192  0.8051
 5489SOL     OW28102   3.447   0.964   8.022  0.2962 -0.1689  0.2956
 5489SOL    HW128103   3.415   1.033   8.081  2.2223  1.3209 -0.4023
 5489SOL    HW228104   3.475   0.903   8.089  0.8496 -0.4317 -0.1721
 5490SOL     OW28105   1.963   1.602   8.445  0.3360 -0.0304  0.0146
 5490SOL    HW128106   1.876   1.564   8.457  0.2160  0.6653  1.3901
 5490SOL    HW228107   1.973   1.664   8.518 -0.5641 -1.3775  1.2699
 5491SOL     OW28108   3.160   0.157   2.676 -0.4711 -0.0159  0.5170
 5491SOL    HW128109   3.070   0.187   2.683  0.1441  1.4853  2.0803
 5491SOL    HW228110   3.170   0.106   2.757  0.2872 -1.0153 -0.2041
 5492SOL     OW28111   3.963   3.963  12.384  0.0726 -0.5336 -0.1988
 5492SOL    HW128112   3.951   3.882  12.335 -0.0668 -1.1243  0.8092
 5492SOL    HW228113   4.056   3.952  12.406 -0.1863  0.1056  1.2166
 5493SOL     OW28114   1.625   2.810   3.510 -0.2408 -0.1038  0.1091
 5493SOL    HW128115   1.584   2.817   3.597  1.3621  1.5915  0.7177
 5493SOL    HW228116   1.694   2.746   3.529  1.3776  2.2983  2.4075
 5494SOL     OW28117   3.146   0.037  11.665 -0.6436  0.2346  0.0900
 5494SOL    HW128118   3.132   0.062  11.756  1.0198  2.2354 -0.1830
 5494SOL    HW228119   3.204   0.108  11.635  1.3751 -2.3316 -2.0280
 5495SOL     OW28120   1.370   4.135   8.287  0.1115  0.1370  0.4659
 5495SOL    HW128121   1.341   4.166   8.201 -1.3717 -1.9865  0.1994
 5495SOL    HW228122   1.359   4.218   8.334 -1.1040 -0.1253  0.6483
 5496SOL     OW28123   4.307   3.851  13.746  0.0888  0.1198  0.1501
 5496SOL    HW128124   4.365   3.907  13.694  1.5011 -0.0177  1.5822
 5496SOL    HW228125   4.236   3.842  13.682  1.2563 -2.6627 -0.7172
 5497SOL     OW28126   2.739   1.272   3.131 -0.1672  0.3731 -0.4897
 5497SOL    HW128127   2.661   1.282   3.076 -1.6739  2.3596  2.0421
 5497SOL    HW228128   2.758   1.185   3.097 -0.8319  0.4774 -1.1205
 5498SOL     OW28129   2.606   0.127  17.050 -0.6758  0.5092  0.2642
 5498SOL    HW128130   2.554   0.074  16.989  1.6397 -1.0499 -0.3245
 5498SOL    HW228131   2.552   0.206  17.045 -0.7800  0.4705  0.7333
 5499SOL     OW28132   4.459   3.751   6.125  0.3287  0.5618  0.1652
 5499SOL    HW128133   4.444   3.662   6.092  0.7354  0.6113 -0.1533
 5499SOL    HW228134   4.554   3.752   6.134  0.4313  2.5908 -1.1595
 5500SOL     OW28135   3.957   0.640   0.797 -0.2537 -0.7075 -0.4983
 5500SOL    HW128136   4.037   0.619   0.844  0.4128  2.2467 -0.3228
 5500SOL    HW228137   3.924   0.724   0.831  1.5519 -0.1825 -0.0515
 5501SOL     OW28138   0.812   0.492   2.079  0.0306 -0.4393  0.2311
 5501SOL    HW128139   0.858   0.567   2.040 -2.4673  1.2475  0.5503
 5501SOL    HW228140   0.868   0.473   2.154  0.0549  1.4579  0.7055
 5502SOL     OW28141   2.648   0.352   6.259 -0.6395 -0.2497 -0.6422
 5502SOL    HW128142   2.724   0.368   6.202  0.1714 -0.1275  0.4731
 5502SOL    HW228143   2.578   0.365   6.195 -1.5426 -1.2076  0.1550
 5503SOL     OW28144   3.357   4.268   7.689  0.7044  0.5900  0.0479
 5503SOL    HW128145   3.389   4.186   7.727  0.8678  0.5131 -0.2572
 5503SOL    HW228146   3.344   4.247   7.597  2.4430  1.4903 -0.4042
 5504SOL     OW28147   1.041   1.282   8.374 -0.0469 -0.1820  0.2057
 5504SOL    HW128148   1.067   1.254   8.462  0.4153 -1.4421 -0.3268
 5504SOL    HW228149   0.948   1.300   8.388  0.1659  0.0880  1.3174
 5505SOL     OW28150   0.849   2.211   6.609 -0.3181  0.0129  0.2874
 5505SOL    HW128151   0.761   2.175   6.625 -0.2431 -0.7393 -1.0370
 5505SOL    HW228152   0.825   2.297   6.575  1.4627 -1.1921 -3.9882
 5506SOL     OW28153   2.510   2.676   4.425  0.0437 -0.0251  0.2776
 5506SOL    HW128154   2.446   2.741   4.454 -0.2819  0.2250 -0.9670
 5506SOL    HW228155   2.570   2.679   4.499 -1.1459 -1.3469  1.2842
 5507SOL     OW28156   0.545   2.029   0.427 -0.0069  0.0644  0.7714
 5507SOL    HW128157   0.456   2.015   0.395 -0.8135  1.8906  2.2747
 5507SOL    HW228158   0.594   1.994   0.352 -0.1393 -0.0057  0.7177
 5508SOL     OW28159   1.866   0.264   2.335  0.4018 -0.1784 -0.3095
 5508SOL    HW128160   1.838   0.355   2.320 -0.1204 -0.5429 -1.5758
 5508SOL    HW228161   1.806   0.239   2.405  0.0151  0.5193 -0.3878
 5509SOL     OW28162   0.171   4.444   7.093 -0.6222 -0.4346 -0.0088
 5509SOL    HW128163   0.209   4.526   7.124  0.8928 -1.3822  0.6419
 5509SOL    HW228164   0.252   4.393   7.086 -0.1280  0.2208  0.8412
 5510SOL     OW28165   0.013   1.857   8.608 -0.3718 -0.0768 -0.4476
 5510SOL    HW128166   4.661   1.891   8.596 -0.1447  0.1781 -1.3572
 5510SOL    HW228167   0.044   1.904   8.686 -0.6835 -0.7930  0.1083
 5511SOL     OW28168   0.670   3.058   1.465  0.6251  0.4728 -0.1664
 5511SOL    HW128169   0.588   3.014   1.485  1.6460 -0.6009  1.6499
 5511SOL    HW228170   0.734   2.999   1.506  1.7280  0.7435 -1.4935
 5512SOL     OW28171   4.418   3.555   5.942  0.4107  0.1766  0.6356
 5512SOL    HW128172   4.385   3.465   5.941  0.1091  0.2757  1.6048
 5512SOL    HW228173   4.509   3.533   5.922  0.3979  0.8822 -0.1916
 5513SOL     OW28174   4.509   4.345   7.938 -0.3037  0.4249 -0.6300
 5513SOL    HW128175   4.545   4.351   7.850 -0.3769  1.6039 -0.5839
 5513SOL    HW228176   4.418   4.373   7.927 -1.1047 -1.0890  2.0208
 5514SOL     OW28177   0.437   4.322   3.705  0.5950 -0.0805 -0.0639
 5514SOL    HW128178   0.512   4.342   3.761  0.1027 -1.4373  1.0626
 5514SOL    HW228179   0.359   4.349   3.753 -0.0482 -0.8418 -0.6714
 5515SOL     OW28180   1.499   0.625   6.363  0.6298  0.4712  0.1664
 5515SOL    HW128181   1.512   0.629   6.458 -2.0642 -2.6320  0.6841
 5515SOL    HW228182   1.455   0.541   6.351  1.9572 -0.6774  3.2106
 5516SOL     OW28183   4.438   2.942  13.412 -0.3895 -0.1277 -0.1601
 5516SOL    HW128184   4.508   3.003  13.391  1.2716 -1.4979  1.5087
 5516SOL    HW228185   4.385   2.989  13.476 -0.5433 -1.6701  0.8398
 5517SOL     OW28186   4.476   2.314   9.353  0.4018 -0.0583 -0.1329
 5517SOL    HW128187   4.393   2.339   9.314  0.0403 -0.3033  0.4743
 5517SOL    HW228188   4.445   2.286   9.439  1.4486  1.9563  0.8884
 5518SOL     OW28189   2.617   4.335  14.563  0.3257  0.0645 -0.4935
 5518SOL    HW128190   2.523   4.348  14.550  0.1190  0.5687  1.3517
 5518SOL    HW228191   2.626   4.308  14.655  0.4922  0.5918 -0.3519
 5519SOL     OW28192   4.608   3.877   7.756  0.0467  0.3283  0.8637
 5519SOL    HW128193   4.665   3.921   7.819  1.1927 -0.0463  0.0953
 5519SOL    HW228194   4.529   3.930   7.762  1.6053  2.4591  2.6484
 5520SOL     OW28195   2.137   4.721   2.963 -0.2224 -0.0444 -0.6484
 5520SOL    HW128196   2.070   0.030   3.015  1.0119 -2.2726  2.9404
 5520SOL    HW228197   2.131   4.642   3.017  0.6330  0.4367  0.1637
 5521SOL     OW28198   3.755   0.126  10.439  0.1623  0.7751  0.2821
 5521SOL    HW128199   3.707   0.114  10.520  0.9141  0.5304  0.6862
 5521SOL    HW228200   3.798   0.041  10.427  1.7809  1.6829 -0.4099
 5522SOL     OW28201   3.572   3.437   4.945 -0.3140  0.4419  0.1477
 5522SOL    HW128202   3.615   3.457   5.028  0.1575 -1.7541  0.4397
 5522SOL    HW228203   3.478   3.436   4.966 -0.2895  1.4010  0.2894
 5523SOL     OW28204   4.363   2.726   2.637 -0.4710  0.0611  0.4830
 5523SOL    HW128205   4.365   2.738   2.731  2.5804  1.0448  0.2850
 5523SOL    HW228206   4.398   2.637   2.637  0.8246  0.5661  1.5592
 5524SOL     OW28207   3.924   4.650   6.660 -0.3527 -0.3604  0.2291
 5524SOL    HW128208   3.860   4.658   6.731 -1.0143  1.6206 -0.6158
 5524SOL    HW228209   3.864   4.685   6.595  1.4217  0.1415 -1.1199
 5525SOL     OW28210   0.640   1.474   8.115 -0.5313 -0.0550 -0.6168
 5525SOL    HW128211   0.603   1.529   8.046  0.1132  1.0647 -0.0708
 5525SOL    HW228212   0.576   1.479   8.186  0.2739  2.2243 -0.0237
 5526SOL     OW28213   3.891   1.037   9.614  0.3783  0.1223 -0.5944
 5526SOL    HW128214   3.864   1.064   9.526  1.7825  0.3878 -0.9506
 5526SOL    HW228215   3.818   0.979   9.634  2.1778 -2.5502 -1.8775
 5527SOL     OW28216   1.136   2.597   7.927  0.1539 -0.0871  0.6803
 5527SOL    HW128217   1.140   2.505   7.903  1.4227 -0.2359  1.4502
 5527SOL    HW228218   1.230   2.614   7.923  0.1716 -0.8282 -1.5838
 5528SOL     OW28219   0.137   4.170   1.963 -0.3136  0.3416 -0.0189
 5528SOL    HW128220   0.057   4.130   1.997  1.0122 -2.2827  0.0126
 5528SOL    HW228221   0.195   4.107   2.005 -2.2542  0.5145  2.9254
 5529SOL     OW28222   0.831   3.090   2.170  0.8555 -0.1039 -0.3404
 5529SOL    HW128223   0.763   3.138   2.216  0.9901  0.5049 -0.7779
 5529SOL    HW228224   0.904   3.102   2.230  0.3727 -0.4598  0.3197
 5530SOL     OW28225   3.662   2.561   6.025 -0.6526  0.2818 -0.0929
 5530SOL    HW128226   3.690   2.511   6.102 -2.5077  0.3572  0.6335
 5530SOL    HW228227   3.739   2.618   6.021  1.3487 -2.2346  2.1106
 5531SOL     OW28228   4.402   3.246   3.192 -0.2940 -0.0804  0.2455
 5531SOL    HW128229   4.462   3.307   3.149 -0.2331  1.4422  2.4719
 5531SOL    HW228230   4.353   3.305   3.248  0.7806  0.8302  0.2426
 5532SOL     OW28231   3.007   0.743   1.305 -0.0227  0.0925  0.4136
 5532SOL    HW128232   2.969   0.656   1.294 -0.3362 -0.0570  2.6947
 5532SOL    HW228233   2.933   0.801   1.288 -0.2084  0.6502  3.1046
 5533SOL     OW28234   1.041   3.589   2.038  0.2475 -0.0839  0.4916
 5533SOL    HW128235   0.982   3.647   2.086 -0.3263 -0.4113  0.1840
 5533SOL    HW228236   1.043   3.647   1.961  2.5430 -0.4233  0.2704
 5534SOL     OW28237   1.360   4.662   9.149 -0.5865 -0.6092 -0.0914
 5534SOL    HW128238   1.385   0.010   9.186  0.6212 -0.2266 -1.7910
 5534SOL    HW228239   1.275   4.644   9.190 -0.4389  1.4538  1.1414
 5535SOL     OW28240   3.678   3.456   3.217  0.1485  0.7845 -0.0421
 5535SOL    HW128241   3.636   3.473   3.301  2.1774  0.2222  1.0957
 5535SOL    HW228242   3.619   3.508   3.163 -1.6318 -1.7696 -0.5503
 5536SOL     OW28243   2.821   2.474  15.584  0.4929  0.2541  0.2065
 5536SOL    HW128244   2.757   2.523  15.533  1.1947  1.0135  0.0514
 5536SOL    HW228245   2.864   2.421  15.517  0.2325  1.2962 -0.7921
 5537SOL     OW28246   0.767   1.563  10.775 -0.1664  0.2434 -0.0876
 5537SOL    HW128247   0.722   1.504  10.835  1.1201 -0.4410  0.2035
 5537SOL    HW228248   0.717   1.643  10.790  0.9176  0.8792  0.0924
 5538SOL     OW28249   4.074   0.650   5.663 -0.1341  0.5568 -0.1031
 5538SOL    HW128250   4.112   0.698   5.589  2.8225 -2.5624 -0.6318
 5538SOL    HW228251   4.048   0.718   5.725 -1.9669  0.7772 -1.1088
 5539SOL     OW28252   1.276   4.730   6.208 -0.7613 -0.1984 -0.2791
 5539SOL    HW128253   1.326   0.051   6.265 -2.9723 -0.7931  2.2591
 5539SOL    HW228254   1.245   4.657   6.261  0.7056 -0.5670  0.0690
 5540SOL     OW28255   2.386   0.730   9.041 -0.5359 -0.6258 -0.2608
 5540SOL    HW128256   2.401   0.811   8.992 -0.1575  0.3133  1.3967
 5540SOL    HW228257   2.328   0.686   8.979  0.0751  1.5730 -2.3833
 5541SOL     OW28258   0.724   4.262   6.577 -0.0304 -0.2720  0.3547
 5541SOL    HW128259   0.678   4.339   6.608 -3.0358 -2.5571  1.5564
 5541SOL    HW228260   0.721   4.277   6.482 -0.2091  1.1121  0.5893
 5542SOL     OW28261   3.254   2.018   4.778  0.1618  0.6930  0.8649
 5542SOL    HW128262   3.263   1.967   4.697  0.7403  0.4408  1.0862
 5542SOL    HW228263   3.343   2.004   4.810  0.5080 -0.6676 -0.6745
 5543SOL     OW28264   2.244   0.876   5.331  0.1822 -0.3081 -0.0041
 5543SOL    HW128265   2.199   0.910   5.409 -2.2146  0.9472 -1.9323
 5543SOL    HW228266   2.213   0.927   5.256 -1.1371 -2.1073 -0.6874
 5544SOL     OW28267   0.605   2.270  13.618  0.2951 -0.5380 -0.2653
 5544SOL    HW128268   0.685   2.297  13.664  0.6117  0.4247 -1.3818
 5544SOL    HW228269   0.626   2.205  13.550 -1.6246 -1.5478  0.0988
 5545SOL     OW28270   3.986   0.606   9.162  0.3841  0.1358 -0.1521
 5545SOL    HW128271   3.920   0.565   9.107 -0.6217  1.9351 -0.2688
 5545SOL    HW228272   4.067   0.595   9.112  1.0450  1.8547  0.5511
 5546SOL     OW28273   2.374   1.460   8.085 -0.1180  0.4615 -0.9568
 5546SOL    HW128274   2.398   1.537   8.034  3.8053  0.4311  0.8245
 5546SOL    HW228275   2.288   1.484   8.120 -0.5257 -0.2668 -1.4537
 5547SOL     OW28276   2.587   0.836   9.788  0.1495 -0.3493 -0.2545
 5547SOL    HW128277   2.558   0.780   9.860  1.5571  1.3787  1.6666
 5547SOL    HW228278   2.507   0.883   9.767  0.8728  1.9876  2.2768
 5548SOL     OW28279   3.073   3.057   7.714  0.2859  0.0510  0.1931
 5548SOL    HW128280   3.136   3.065   7.786  1.9120 -0.1063 -1.2111
 5548SOL    HW228281   2.994   3.048   7.767 -1.1290 -1.9925 -2.2855
 5549SOL     OW28282   2.230   1.910   6.461 -0.0973  0.3000  0.3488
 5549SOL    HW128283   2.294   1.888   6.394 -1.2945  4.8371 -2.3082
 5549SOL    HW228284   2.248   2.002   6.479 -1.4271  0.5276  0.5268
 5550SOL     OW28285   0.262   3.611   2.093  0.3564 -0.6516  0.6021
 5550SOL    HW128286   0.194   3.596   2.158 -1.0903  2.4086 -0.1728
 5550SOL    HW228287   0.207   3.619   2.015 -0.9203 -0.9213  1.4794
 5551SOL     OW28288   0.056   1.061   0.334  0.5203 -0.1168 -0.7343
 5551SOL    HW128289   0.054   0.988   0.396  1.2797 -0.1857 -0.7865
 5551SOL    HW228290   0.129   1.115   0.364 -0.7680  0.5423  1.1468
 5552SOL     OW28291   3.559   2.754  12.466  0.0575  0.6045 -0.3585
 5552SOL    HW128292   3.523   2.702  12.394  1.2855  0.5985 -0.9794
 5552SOL    HW228293   3.625   2.693  12.499  1.5362  2.0273 -0.6419
 5553SOL     OW28294   3.516   3.379   5.258  0.6526  0.7725  0.0480
 5553SOL    HW128295   3.444   3.347   5.312  1.6093 -0.1147  0.8212
 5553SOL    HW228296   3.537   3.292   5.225 -0.0218  1.2840 -1.7168
 5554SOL     OW28297   1.610   3.776   0.094 -0.0352  0.2870 -0.5659
 5554SOL    HW128298   1.557   3.756   0.017 -0.3760  0.5506 -0.3996
 5554SOL    HW228299   1.548   3.743   0.158 -0.9778  1.3502 -0.9394
 5555SOL     OW28300   1.981   0.870   8.513 -0.0548  0.0332  0.8326
 5555SOL    HW128301   1.891   0.887   8.543 -0.3789  2.3407 -1.4908
 5555SOL    HW228302   2.001   0.790   8.561  2.3435 -0.9951 -1.9637
 5556SOL     OW28303   0.120   2.545   9.667 -0.0428 -0.4066  0.0970
 5556SOL    HW128304   0.095   2.624   9.619 -0.2807  0.6962  1.9962
 5556SOL    HW228305   0.206   2.563   9.704 -1.2176  1.2122  2.0894
 5557SOL     OW28306   2.859   1.239   7.014 -0.9103  0.2475  0.0154
 5557SOL    HW128307   2.929   1.176   7.002 -0.2342  1.0196 -0.0665
 5557SOL    HW228308   2.913   1.318   7.012  1.6062 -1.4383  1.6026
 5558SOL     OW28309   0.306   1.282   8.785  0.1763 -0.4489  0.0175
 5558SOL    HW128310   0.400   1.270   8.803  1.0660  1.7427 -3.2295
 5558SOL    HW228311   0.305   1.356   8.726  0.4254  1.6332  2.6297
 5559SOL     OW28312   1.016   1.395  12.437 -0.7303  0.9325  0.6638
 5559SOL    HW128313   1.040   1.368  12.525  0.4231  2.0680  0.7045
 5559SOL    HW228314   0.998   1.310  12.396  1.2867  0.3829  0.9095
 5560SOL     OW28315   2.492   3.615   8.559  0.1022 -0.2275 -0.1095
 5560SOL    HW128316   2.518   3.543   8.502 -1.6785 -0.9839  0.0138
 5560SOL    HW228317   2.524   3.694   8.517 -0.1953  1.4356  2.7845
 5561SOL     OW28318   3.314   3.258   5.455  0.0650 -0.1392 -0.0404
 5561SOL    HW128319   3.233   3.231   5.500  1.2595 -1.5389  1.2907
 5561SOL    HW228320   3.375   3.212   5.513  0.3514  0.2594 -0.0344
 5562SOL     OW28321   4.663   2.196   6.654  0.0276 -0.3085  0.1739
 5562SOL    HW128322   4.666   2.231   6.565 -0.0507 -0.9451 -0.0804
 5562SOL    HW228323   0.008   2.232   6.689 -0.5747  1.8058 -0.6331
 5563SOL     OW28324   0.429   4.385  10.437  0.3452 -0.0729 -0.2388
 5563SOL    HW128325   0.463   4.327  10.504 -0.7073 -1.6452 -1.0558
 5563SOL    HW228326   0.403   4.457  10.495  0.8107  0.8560 -1.1656
 5564SOL     OW28327   0.533   1.541   5.133  0.2551  0.6136  0.0794
 5564SOL    HW128328   0.612   1.591   5.113 -0.3239  0.7413 -1.8601
 5564SOL    HW228329   0.508   1.508   5.047  1.7091 -0.5977  0.1274
 5565SOL     OW28330   0.973   0.377   5.284  0.1901  0.1573  0.2947
 5565SOL    HW128331   1.057   0.401   5.243 -0.7809  0.9203 -1.2688
 5565SOL    HW228332   0.923   0.436   5.227  1.1972 -0.7854 -1.5866
 5566SOL     OW28333   3.890   1.611   6.809 -0.3265 -0.0935 -0.1620
 5566SOL    HW128334   3.928   1.583   6.725 -0.3618 -0.9362  0.1082
 5566SOL    HW228335   3.969   1.633   6.860 -1.8530  1.0338  1.7079
 5567SOL     OW28336   3.756   4.512  13.127 -0.2493 -0.5128  0.0839
 5567SOL    HW128337   3.800   4.567  13.191  0.5262 -1.0960  0.0456
 5567SOL    HW228338   3.828   4.468  13.083  0.2101  0.0243  0.3010
 5568SOL     OW28339   4.601   1.605   2.569 -0.0727 -0.1504  0.4402
 5568SOL    HW128340   4.510   1.577   2.581 -0.7546  1.5071 -0.7386
 5568SOL    HW228341   4.645   1.520   2.570  0.0573 -0.0938 -0.5365
 5569SOL     OW28342   4.142   4.439   3.841  0.3119 -0.3789 -0.0413
 5569SOL    HW128343   4.115   4.528   3.863  1.9166  0.1672 -0.2644
 5569SOL    HW228344   4.057   4.397   3.846  0.0674  0.1168 -0.0838
 5570SOL     OW28345   2.823   1.490   7.467  0.2794 -0.3638  0.0954
 5570SOL    HW128346   2.759   1.418   7.464  0.6416 -0.6859  0.1083
 5570SOL    HW228347   2.895   1.446   7.422  1.3170 -0.9230  2.2951
 5571SOL     OW28348   0.184   1.791   8.425  0.1255 -0.5966  0.0280
 5571SOL    HW128349   0.126   1.821   8.495  1.6376  2.0860  0.1739
 5571SOL    HW228350   0.193   1.870   8.371  1.4737  0.2764  1.5272
 5572SOL     OW28351   0.154   4.353  11.328  0.2390  0.2779 -0.3793
 5572SOL    HW128352   0.187   4.314  11.410 -2.9136 -0.7802  0.3849
 5572SOL    HW228353   0.235   4.399  11.306  0.6656 -0.7119 -0.8911
 5573SOL     OW28354   0.480   3.374   7.756  0.0422 -0.1672  0.0493
 5573SOL    HW128355   0.564   3.373   7.803  1.2817  1.9277 -2.1080
 5573SOL    HW228356   0.510   3.406   7.671  0.6574  0.1563  0.3836
 5574SOL     OW28357   4.480   0.021   6.542  0.7662 -0.8095 -0.1472
 5574SOL    HW128358   4.413   4.699   6.578  0.9233 -0.5862  0.5159
 5574SOL    HW228359   4.558   4.718   6.581  0.6993  1.6506  2.5307
 5575SOL     OW28360   3.419   3.733   8.095  0.1473  0.2358  0.6963
 5575SOL    HW128361   3.427   3.705   8.004 -2.9721 -1.6609  0.9960
 5575SOL    HW228362   3.374   3.659   8.137  0.7034 -1.2502 -1.3173
 5576SOL     OW28363   1.845   1.716  16.013  0.3108 -0.4478  0.5030
 5576SOL    HW128364   1.857   1.774  16.088 -0.8496 -1.0776  1.1791
 5576SOL    HW228365   1.873   1.635  16.055  2.1723 -0.0621  0.0076
 5577SOL     OW28366   3.782   1.923   2.815 -0.0383 -0.9356 -0.3210
 5577SOL    HW128367   3.750   1.993   2.872 -0.8171 -3.1025  1.9577
 5577SOL    HW228368   3.707   1.864   2.827 -0.3773 -0.5081 -0.3455
 5578SOL     OW28369   2.523   4.078   4.190  0.4039 -0.4212  0.0744
 5578SOL    HW128370   2.617   4.062   4.182  0.7058  0.2328  2.5266
 5578SOL    HW228371   2.520   4.160   4.141  2.4966 -0.8131 -0.7071
 5579SOL     OW28372   2.146   2.600   1.819  0.1741 -0.3773 -0.2086
 5579SOL    HW128373   2.091   2.578   1.745  0.8630 -1.7468 -0.3214
 5579SOL    HW228374   2.232   2.573   1.785 -0.1751  0.7845 -1.9784
 5580SOL     OW28375   3.948   1.729   7.828  0.4871 -0.1084  0.2193
 5580SOL    HW128376   3.876   1.771   7.781  1.9478 -0.8810 -2.7569
 5580SOL    HW228377   3.925   1.723   7.920 -2.0736 -0.2173 -0.4386
 5581SOL     OW28378   4.062   3.313   5.819  0.1775 -0.1799  0.1120
 5581SOL    HW128379   4.068   3.234   5.765 -0.4865 -0.8282  0.9813
 5581SOL    HW228380   4.134   3.297   5.880  0.1711 -0.5323  0.0302
 5582SOL     OW28381   3.986   3.897   1.383  0.1094  0.3205 -0.1898
 5582SOL    HW128382   3.988   3.841   1.461  1.5426 -1.4021 -1.4508
 5582SOL    HW228383   3.997   3.824   1.323 -0.5991  0.9423 -1.0576
 5583SOL     OW28384   4.720   0.864   3.711 -0.1028  0.5194  0.3677
 5583SOL    HW128385   0.052   0.915   3.752 -0.7895  0.5759  1.4399
 5583SOL    HW228386   0.024   0.859   3.624  0.9948 -0.3130  0.9381
 5584SOL     OW28387   0.559   1.410   3.531  0.1033 -0.3224 -0.1509
 5584SOL    HW128388   0.477   1.459   3.524  0.0080 -0.3818  0.5261
 5584SOL    HW228389   0.627   1.474   3.515  0.0888 -0.4669 -0.8348
 5585SOL     OW28390   4.434   0.576   3.485 -0.4540 -0.1657 -0.0056
 5585SOL    HW128391   4.461   0.508   3.546  1.1236 -0.0294 -0.5558
 5585SOL    HW228392   4.367   0.542   3.426  1.4651 -2.4854 -0.8399
 5586SOL     OW28393   2.592   1.496   3.361 -0.0450  0.1607 -0.2586
 5586SOL    HW128394   2.583   1.429   3.293  1.0717  0.3861 -0.6393
 5586SOL    HW228395   2.627   1.436   3.427  1.5376  0.8747 -0.4436
 5587SOL     OW28396   3.568   1.770   7.579  0.4500  0.4289 -0.5610
 5587SOL    HW128397   3.638   1.758   7.515 -0.9495  0.6207 -2.1330
 5587SOL    HW228398   3.577   1.695   7.638 -2.0760 -0.9003 -1.8735
 5588SOL     OW28399   3.307   3.691   6.505 -0.2231 -0.4313  0.2043
 5588SOL    HW128400   3.276   3.781   6.497  1.7670  0.6053  3.9586
 5588SOL    HW228401   3.387   3.701   6.558  0.5260 -0.5395 -0.9035
 5589SOL     OW28402   1.304   2.270   8.044 -0.1401 -0.3874 -0.0788
 5589SOL    HW128403   1.395   2.287   8.018 -0.4234 -0.4843 -1.1455
 5589SOL    HW228404   1.310   2.319   8.125 -1.7992 -0.6993  0.2345
 5590SOL     OW28405   0.195   1.193   2.534  0.7079  0.0905 -0.3266
 5590SOL    HW128406   0.188   1.103   2.502  2.9878 -0.2687  0.1640
 5590SOL    HW228407   0.208   1.174   2.627  1.8141  0.5729 -0.3771
 5591SOL     OW28408   3.311   4.241   9.790  0.0493  0.2271  1.0765
 5591SOL    HW128409   3.277   4.287   9.713 -2.1278  0.3679  2.1162
 5591SOL    HW228410   3.359   4.170   9.748  0.1577  0.2168  1.2165
 5592SOL     OW28411   3.310   3.122   6.156  0.3358  0.1871 -0.2311
 5592SOL    HW128412   3.291   3.090   6.244  0.6165 -0.5475 -0.4348
 5592SOL    HW228413   3.270   3.209   6.157  1.4699  0.6920  0.2820
 5593SOL     OW28414   0.004   0.369   4.200  0.1542 -0.0263  0.0304
 5593SOL    HW128415   0.046   0.455   4.204 -1.6136  0.8912 -1.3875
 5593SOL    HW228416   0.053   0.307   4.255  0.2776  0.4054  0.4099
 5594SOL     OW28417   2.464   3.180   5.325 -0.5395  0.3064 -0.6217
 5594SOL    HW128418   2.496   3.090   5.320  1.7684  1.2823 -3.1740
 5594SOL    HW228419   2.371   3.160   5.334 -0.3895  0.4258  1.1943
 5595SOL     OW28420   3.580   3.226  13.245  0.0625 -0.1698 -0.2255
 5595SOL    HW128421   3.607   3.216  13.154 -1.4866 -1.1867 -0.5803
 5595SOL    HW228422   3.519   3.299  13.234 -1.0318 -1.0482 -0.0971
 5596SOL     OW28423   1.708   4.614  12.248 -0.4378 -0.1199 -0.1186
 5596SOL    HW128424   1.689   4.542  12.308 -1.3781  0.3746  0.1695
 5596SOL    HW228425   1.649   4.679  12.285  0.3287  0.9084 -0.7056
 5597SOL     OW28426   4.734   2.137   3.091  0.3593 -0.2869  0.0098
 5597SOL    HW128427   0.020   2.104   3.004  0.0584 -0.0882 -0.1409
 5597SOL    HW228428   0.087   2.143   3.126 -0.2801  0.5108  1.4833
 5598SOL     OW28429   0.602   4.203   9.452 -0.4082 -0.3999  0.2647
 5598SOL    HW128430   0.511   4.216   9.479 -0.1912  0.5957  0.5427
 5598SOL    HW228431   0.594   4.224   9.359  0.7746  1.0014  0.4809
 5599SOL     OW28432   3.523   3.318   9.094  0.6395  0.3819 -0.4146
 5599SOL    HW128433   3.563   3.315   9.180  1.9831 -0.0895 -1.0621
 5599SOL    HW228434   3.436   3.280   9.105  0.2567  0.7960 -2.0372
 5600SOL     OW28435   3.588   3.482  12.858 -0.4952  0.6996  0.2102
 5600SOL    HW128436   3.671   3.529  12.855  0.9195 -1.8834 -2.1886
 5600SOL    HW228437   3.528   3.554  12.839 -0.1258  0.5738 -1.4996
 5601SOL     OW28438   0.105   3.311  10.307  0.3239 -0.7413  0.6741
 5601SOL    HW128439   0.037   3.355  10.255 -0.7440  0.1100  2.7883
 5601SOL    HW228440   0.102   3.221  10.276 -0.8272 -0.0791 -1.1900
 5602SOL     OW28441   1.365   1.065   7.729  0.3563  0.1862 -0.4589
 5602SOL    HW128442   1.452   1.083   7.763 -0.2472  0.4627  0.9501
 5602SOL    HW228443   1.350   0.976   7.760 -1.2522  1.1466  1.5755
 5603SOL     OW28444   3.453   4.366   0.028  0.5248  0.2546 -0.1786
 5603SOL    HW128445   3.438   4.276  17.744 -1.8601  0.3544  0.7409
 5603SOL    HW228446   3.469   4.345   0.119 -1.7544  1.0275  0.4094
 5604SOL     OW28447   3.581   1.603  17.681 -0.5182  0.1709 -0.2839
 5604SOL    HW128448   3.570   1.692  17.716 -0.3948  0.3527 -0.7065
 5604SOL    HW228449   3.561   1.561   0.020  1.0789 -0.5476 -0.2678
 5605SOL     OW28450   3.175   2.454   3.274  0.5931 -0.4542 -0.1606
 5605SOL    HW128451   3.203   2.367   3.302  2.1626  0.1797  0.2581
 5605SOL    HW228452   3.167   2.489   3.363 -0.3542 -0.5224 -0.2125
 5606SOL     OW28453   4.074   4.105   0.932 -0.3827 -0.1689 -0.3726
 5606SOL    HW128454   4.066   4.193   0.967 -1.6253 -0.5377  0.2683
 5606SOL    HW228455   4.162   4.099   0.894 -0.4631  0.6924 -0.6962
 5607SOL     OW28456   1.425   3.831   7.646 -0.1859 -0.0921 -0.4332
 5607SOL    HW128457   1.362   3.760   7.640 -1.1950  0.7584  0.1075
 5607SOL    HW228458   1.364   3.899   7.676  1.1038  0.5789  0.6779
 5608SOL     OW28459   2.583   3.946  15.459 -0.3046  0.2481 -0.6998
 5608SOL    HW128460   2.550   3.941  15.369 -1.1393 -1.4011 -0.3037
 5608SOL    HW228461   2.504   3.946  15.513 -0.3406 -0.9930 -0.7558
 5609SOL     OW28462   0.194   4.505   7.837 -0.2138  0.4966 -0.4962
 5609SOL    HW128463   0.168   4.535   7.924 -0.4821 -1.6079  0.1482
 5609SOL    HW228464   0.269   4.450   7.859 -0.9055  0.1332  0.9235
 5610SOL     OW28465   3.147   3.589   7.249  0.1511  0.1713  0.5679
 5610SOL    HW128466   3.123   3.592   7.341  0.5161 -2.3361  0.7236
 5610SOL    HW228467   3.218   3.651   7.230  2.1496 -2.8484 -1.6345
 5611SOL     OW28468   3.038   1.992   4.134  0.0721  0.4954 -0.2413
 5611SOL    HW128469   2.979   1.930   4.176  1.6468 -1.5516 -1.0220
 5611SOL    HW228470   3.121   1.987   4.181 -0.9497 -1.7236  1.3436
 5612SOL     OW28471   0.970   2.316   1.670 -0.2995 -0.3472 -0.2980
 5612SOL    HW128472   0.893   2.330   1.614  0.2291  1.3402 -0.6010
 5612SOL    HW228473   0.937   2.285   1.754 -0.4968 -1.0830 -0.6451
 5613SOL     OW28474   2.551   0.354   1.297  0.0390 -0.4354 -0.0489
 5613SOL    HW128475   2.554   0.281   1.236  2.1304 -0.3597 -0.0211
 5613SOL    HW228476   2.459   0.379   1.304 -0.6009 -3.1073  0.9606
 5614SOL     OW28477   1.778   1.433   6.702 -0.0931  0.4128  0.0948
 5614SOL    HW128478   1.868   1.465   6.697  0.2528 -0.8043 -1.2883
 5614SOL    HW228479   1.780   1.349   6.748  0.8925  0.8099  0.7939
 5615SOL     OW28480   0.123   2.484   5.223 -0.0786 -0.2144  0.4834
 5615SOL    HW128481   0.077   2.474   5.140 -1.0442  1.6436  0.7773
 5615SOL    HW228482   0.211   2.461   5.194 -0.3790  0.4851 -0.9841
 5616SOL     OW28483   3.922   3.738   3.737  0.1310  0.2129  0.0974
 5616SOL    HW128484   3.832   3.709   3.755 -0.1940  0.4057 -1.2131
 5616SOL    HW228485   3.900   3.828   3.714 -2.2046 -0.4895 -0.4772
 5617SOL     OW28486   0.372   2.474   8.642  0.4274  0.4658  0.4065
 5617SOL    HW128487   0.326   2.406   8.691  0.8590  1.3345  2.0330
 5617SOL    HW228488   0.409   2.516   8.720  0.9478 -1.7393  1.3204
 5618SOL     OW28489   0.175   0.616   7.497  0.4463  0.0971  0.2792
 5618SOL    HW128490   0.109   0.686   7.500  0.6615  0.3491 -0.7766
 5618SOL    HW228491   0.202   0.623   7.405 -0.6000 -1.7909 -0.1834
 5619SOL     OW28492   3.988   3.116   7.207 -0.0277  0.4032  0.0257
 5619SOL    HW128493   3.944   3.145   7.287  0.1070 -1.7900  0.8955
 5619SOL    HW228494   3.922   3.145   7.144 -1.6581 -2.7242  0.2993
 5620SOL     OW28495   0.483   0.960   3.258 -0.2493 -0.5638  0.1073
 5620SOL    HW128496   0.508   1.020   3.327 -2.8134  0.9084 -0.2219
 5620SOL    HW228497   0.566   0.913   3.256  0.0523 -0.0642  1.0154
 5621SOL     OW28498   1.185   4.651   3.893 -0.1229  0.3270  0.0135
 5621SOL    HW128499   1.267   4.700   3.891  0.5544 -0.8220 -0.1388
 5621SOL    HW228500   1.206   4.564   3.926  1.8473  0.8570  0.1892
 5622SOL     OW28501   4.592   3.995   3.291 -0.6591  0.1945  0.1219
 5622SOL    HW128502   4.687   3.985   3.282 -0.5153  0.6980  1.0251
 5622SOL    HW228503   4.588   4.073   3.346 -0.3283  1.9695 -2.4009
 5623SOL     OW28504   4.093   2.418   9.974  0.2092  0.3156 -0.3290
 5623SOL    HW128505   4.029   2.486   9.993 -0.2627 -0.3746  0.5290
 5623SOL    HW228506   4.064   2.336  10.014 -0.5067  1.3781  1.3282
 5624SOL     OW28507   1.454   0.123   1.586  0.3556 -0.6231  0.3214
 5624SOL    HW128508   1.408   0.153   1.665  1.7952  0.3092  0.8114
 5624SOL    HW228509   1.376   0.145   1.536 -0.4809  0.1830  1.9760
 5625SOL     OW28510   2.824   4.522  14.535  0.2736 -0.2739  0.4666
 5625SOL    HW128511   2.762   4.453  14.557  0.9979 -1.1511 -0.2076
 5625SOL    HW228512   2.817   4.578  14.612  0.0682 -2.3583  1.9530
 5626SOL     OW28513   4.725   1.852   4.995  0.0791 -0.8555 -0.5357
 5626SOL    HW128514   0.058   1.808   5.045 -0.0629 -0.0087  0.4045
 5626SOL    HW228515   0.008   1.939   5.028  0.1248 -1.7629  1.8107
 5627SOL     OW28516   0.667   1.641   5.988  0.0949 -0.1273 -0.1624
 5627SOL    HW128517   0.680   1.735   5.972  1.4272 -0.6225 -2.0130
 5627SOL    HW228518   0.730   1.625   6.057 -0.7964 -3.0242 -0.0467
 5628SOL     OW28519   2.472   1.873   2.568  0.5068 -0.2235 -0.4849
 5628SOL    HW128520   2.447   1.961   2.542 -0.5243  0.1920  1.9140
 5628SOL    HW228521   2.565   1.874   2.547  0.9435  0.5785  1.5105
 5629SOL     OW28522   1.157   0.435  13.068  0.0113 -0.0534 -0.6046
 5629SOL    HW128523   1.139   0.454  13.160 -2.2571 -0.4318 -0.9914
 5629SOL    HW228524   1.090   0.370  13.050 -1.1200  0.8004  0.5548
 5630SOL     OW28525   3.291   0.212   2.962  0.1695  0.1451 -0.0666
 5630SOL    HW128526   3.367   0.194   3.017 -1.5145  1.2447  2.6265
 5630SOL    HW228527   3.262   0.123   2.946 -1.0495  0.2822  1.3291
 5631SOL     OW28528   3.245   0.685   0.891  0.0157  0.0764 -0.0490
 5631SOL    HW128529   3.150   0.676   0.881 -0.2136  2.7774 -0.4368
 5631SOL    HW228530   3.251   0.699   0.985  0.3032 -1.0053  0.0951
 5632SOL     OW28531   3.876   0.894   6.612  0.4147 -0.1957 -0.2368
 5632SOL    HW128532   3.807   0.852   6.561 -0.5858  0.1510  0.8290
 5632SOL    HW228533   3.912   0.960   6.553  2.2362 -1.0419 -0.0763
 5633SOL     OW28534   3.597   3.687  15.339 -0.2628 -0.0503 -0.3747
 5633SOL    HW128535   3.614   3.649  15.253  0.5593  0.8434 -0.6046
 5633SOL    HW228536   3.673   3.651  15.385  0.1698  0.8254 -0.4141
 5634SOL     OW28537   2.433   2.558   1.210 -0.6302 -0.3157 -0.2694
 5634SOL    HW128538   2.445   2.463   1.208  0.7893 -0.1569  1.0255
 5634SOL    HW228539   2.409   2.581   1.299  0.5419  1.1089 -0.3160
 5635SOL     OW28540   1.631   3.301   6.958 -0.3527  0.6076 -0.0347
 5635SOL    HW128541   1.603   3.223   6.908 -0.6587  2.7652 -3.2362
 5635SOL    HW228542   1.642   3.359   6.883 -1.0140 -0.0512 -0.6431
 5636SOL     OW28543   0.822   0.649   8.727  0.0404  0.1991 -0.4554
 5636SOL    HW128544   0.809   0.558   8.700  0.2918  0.3430 -1.0655
 5636SOL    HW228545   0.746   0.662   8.783 -0.1200  1.1584 -0.8958
 5637SOL     OW28546   3.986   1.357   5.927 -0.0561  0.3530 -0.2706
 5637SOL    HW128547   4.070   1.374   5.968 -0.6574 -0.4402  1.2712
 5637SOL    HW228548   3.960   1.277   5.973 -1.7473  0.6668 -0.6678
 5638SOL     OW28549   4.010   4.398   2.233 -0.1259 -0.0171  0.4355
 5638SOL    HW128550   4.017   4.303   2.237  0.9402 -0.0021 -1.2810
 5638SOL    HW228551   4.012   4.414   2.138 -3.6568 -0.0535  0.3400
 5639SOL     OW28552   1.113   1.065  12.998  0.2389 -0.0504 -0.4597
 5639SOL    HW128553   1.160   1.121  12.936  1.5142 -0.5783  0.0430
 5639SOL    HW228554   1.066   1.016  12.931 -1.1582  0.3479  0.2130
 5640SOL     OW28555   3.643   1.623  15.271 -0.2480 -0.3631  0.3141
 5640SOL    HW128556   3.729   1.620  15.313 -1.4745 -0.5893  2.8269
 5640SOL    HW228557   3.598   1.541  15.291 -0.8249 -0.4705 -1.4277
 5641SOL     OW28558   0.416   0.525   6.237 -0.0355 -0.1800  0.7247
 5641SOL    HW128559   0.506   0.524   6.270  0.3461 -2.3680 -0.4065
 5641SOL    HW228560   0.360   0.567   6.302  0.3980  1.1074  0.2723
 5642SOL     OW28561   1.695   4.688   3.222  0.0286 -0.1594  0.0629
 5642SOL    HW128562   1.644   4.607   3.220  1.2235 -0.9119  0.4503
 5642SOL    HW228563   1.777   4.670   3.178 -0.4603 -3.1214  0.4052
 5643SOL     OW28564   0.569   3.411  17.319  0.0675 -0.5227 -0.2538
 5643SOL    HW128565   0.664   3.411  17.328  0.0220 -1.2612  0.2317
 5643SOL    HW228566   0.552   3.343  17.384 -0.0140  0.2496  0.5276
 5644SOL     OW28567   4.521   1.087   7.811 -0.2391 -0.3807  0.4755
 5644SOL    HW128568   4.560   1.130   7.735 -0.9290 -0.6975 -0.0570
 5644SOL    HW228569   4.467   1.159   7.841 -0.7977 -0.9654  0.8797
 5645SOL     OW28570   0.735   3.700   9.225  0.2332 -0.2788 -0.5705
 5645SOL    HW128571   0.712   3.789   9.253 -0.0697  0.0511 -1.8918
 5645SOL    HW228572   0.790   3.711   9.147  0.4039  0.6774 -0.3186
 5646SOL     OW28573   0.571   2.434   6.729  0.1126  0.6124 -0.0642
 5646SOL    HW128574   0.523   2.510   6.762 -0.4780 -1.1075  3.0041
 5646SOL    HW228575   0.626   2.419   6.806 -0.4518 -1.1374 -0.0171
 5647SOL     OW28576   2.512   0.549  13.448  0.0434 -0.0871 -0.1635
 5647SOL    HW128577   2.483   0.532  13.537  0.1431 -1.7173 -0.4519
 5647SOL    HW228578   2.547   0.464  13.422  1.1078  0.6035 -0.9591
 5648SOL     OW28579   0.068   0.089   8.930  0.1416  0.3110 -0.2376
 5648SOL    HW128580   0.018   0.011   8.906 -2.8334  0.9781  3.8141
 5648SOL    HW228581   0.083   0.121   8.842 -1.4684  0.4817 -0.4525
 5649SOL     OW28582   4.733   3.358   4.938  0.3601 -0.2890 -0.0189
 5649SOL    HW128583   4.694   3.377   4.853  0.7041 -2.0607 -0.5686
 5649SOL    HW228584   4.658   3.328   4.989  0.4661  0.7892  0.7662
 5650SOL     OW28585   4.160   0.319   3.139  0.2176  0.2660 -0.2155
 5650SOL    HW128586   4.195   0.256   3.075  0.6933 -0.5871  0.8908
 5650SOL    HW228587   4.077   0.342   3.097 -0.0328 -0.3522 -0.0670
 5651SOL     OW28588   4.224   4.328   5.657  0.5848 -0.1749  0.0006
 5651SOL    HW128589   4.223   4.251   5.600  0.1918  1.7543 -2.6075
 5651SOL    HW228590   4.139   4.320   5.699  1.0130 -1.4576  0.6286
 5652SOL     OW28591   2.521   2.324   0.130  0.2498  0.3541 -0.2059
 5652SOL    HW128592   2.538   2.253   0.192  3.1991  0.7246 -0.5674
 5652SOL    HW228593   2.450   2.363   0.181  1.0111 -0.8724  1.7762
 5653SOL     OW28594   4.118   0.044  13.397 -0.5382 -0.0200 -1.2227
 5653SOL    HW128595   4.107   0.003  13.484  0.9178  3.8149  0.7418
 5653SOL    HW228596   4.202   0.007  13.371  0.1027 -0.8006  1.9440
 5654SOL     OW28597   2.761   3.719   7.815 -0.1378  0.2650  0.1545
 5654SOL    HW128598   2.828   3.701   7.881  1.3774 -0.9849 -1.7414
 5654SOL    HW228599   2.677   3.713   7.862 -1.1556  0.5730 -1.6430
 5655SOL     OW28600   0.533   3.333   6.126  0.1488 -0.5880 -0.6060
 5655SOL    HW128601   0.513   3.327   6.033  0.6701  0.8904 -0.8094
 5655SOL    HW228602   0.554   3.426   6.123  1.0218 -0.7308  1.0984
 5656SOL     OW28603   3.449   1.360   7.496  0.2643  0.2974  0.1024
 5656SOL    HW128604   3.499   1.409   7.561  0.4661 -3.1748  2.5176
 5656SOL    HW228605   3.383   1.428   7.482 -0.0181  0.1894  0.9131
 5657SOL     OW28606   2.181   2.238   2.666  0.4145 -0.0833  0.0326
 5657SOL    HW128607   2.125   2.165   2.642 -0.4351 -0.2219  2.4941
 5657SOL    HW228608   2.199   2.217   2.758  1.3778  1.5261  0.2185
 5658SOL     OW28609   4.173   3.662   6.160 -0.5578  0.5610  0.0333
 5658SOL    HW128610   4.262   3.698   6.163  0.4992 -2.0628  0.0425
 5658SOL    HW228611   4.140   3.709   6.083  0.5112  2.0465  0.4797
 5659SOL     OW28612   1.212   0.981  11.491 -0.1789 -0.2291 -0.2881
 5659SOL    HW128613   1.119   0.960  11.504 -0.5125  0.0187 -2.3702
 5659SOL    HW228614   1.256   0.909  11.537  0.6095  0.2330 -0.3176
 5660SOL     OW28615   1.999   2.364   5.462  0.2846  0.0010  0.0156
 5660SOL    HW128616   1.974   2.375   5.554 -1.0337  2.0988 -0.5987
 5660SOL    HW228617   1.934   2.424   5.426  0.7874  0.2252 -0.5353
 5661SOL     OW28618   1.739   0.364   8.304 -0.5853 -0.5142  0.3632
 5661SOL    HW128619   1.740   0.431   8.373  2.1451  0.7300 -0.9108
 5661SOL    HW228620   1.751   0.281   8.351  3.1395 -0.6319 -0.8039
 5662SOL     OW28621   1.496   2.769  10.589  0.1755 -0.6722 -0.0563
 5662SOL    HW128622   1.433   2.841  10.581 -0.4615 -0.9441  2.4693
 5662SOL    HW228623   1.541   2.777  10.505  2.0305  0.9245  1.0982
 5663SOL     OW28624   0.220   4.469  10.258 -0.3565 -0.6819  0.1471
 5663SOL    HW128625   0.287   4.449  10.323  3.0038 -0.3815 -3.2757
 5663SOL    HW228626   0.253   4.548  10.217 -1.3399 -1.7325 -2.6849
 5664SOL     OW28627   3.320   0.806   4.039  0.0986 -0.0414  0.7651
 5664SOL    HW128628   3.357   0.795   3.952  0.3514 -0.4864  0.9249
 5664SOL    HW228629   3.258   0.732   4.042  0.8148 -0.7009 -1.2858
 5665SOL     OW28630   0.411   3.944   8.522 -0.3195  0.6539  0.5531
 5665SOL    HW128631   0.386   3.969   8.611 -0.8885  0.5104  0.4369
 5665SOL    HW228632   0.374   3.856   8.518  0.9397  0.2100 -1.2332
 5666SOL     OW28633   0.345   2.282   2.869 -0.1463 -0.4432  0.2393
 5666SOL    HW128634   0.272   2.315   2.818  0.2600  0.2688  0.1092
 5666SOL    HW228635   0.411   2.307   2.805 -1.2650  0.5496 -0.5198
 5667SOL     OW28636   1.176   1.698  10.714  0.0729  0.2772 -0.0184
 5667SOL    HW128637   1.097   1.695  10.767  1.1107  0.7413  1.5523
 5667SOL    HW228638   1.215   1.611  10.721 -1.2350 -0.3523 -0.5249
 5668SOL     OW28639   1.028   3.600   9.566 -0.4444  0.2452  0.1325
 5668SOL    HW128640   1.014   3.692   9.544  1.4604 -0.0029 -2.1407
 5668SOL    HW228641   1.122   3.592   9.547 -0.8301  0.0876 -1.6573
 5669SOL     OW28642   4.527   2.887  12.987 -0.3955 -0.2112  0.4082
 5669SOL    HW128643   4.437   2.856  12.989 -0.0748 -1.0271  1.8455
 5669SOL    HW228644   4.510   2.979  13.007 -0.2972 -0.0001 -0.4879
 5670SOL     OW28645   4.267   2.098   4.267 -0.2467  0.2594 -0.0837
 5670SOL    HW128646   4.294   2.074   4.178 -0.5458  1.2259 -0.4276
 5670SOL    HW228647   4.347   2.126   4.311  0.4630 -1.1429 -0.4512
 5671SOL     OW28648   3.720   0.750   4.844 -0.2473  0.7164 -0.2117
 5671SOL    HW128649   3.673   0.762   4.761 -2.5833 -0.4262  0.9517
 5671SOL    HW228650   3.814   0.743   4.825 -1.0212  0.5522 -3.9679
 5672SOL     OW28651   0.435   1.488  17.129  0.1762  0.6049  0.3267
 5672SOL    HW128652   0.347   1.524  17.137 -0.4600 -0.7336 -0.5383
 5672SOL    HW228653   0.458   1.493  17.222  2.4092  0.2480 -0.1924
 5673SOL     OW28654   2.645   2.283   4.339 -0.3549  0.9006  0.0657
 5673SOL    HW128655   2.705   2.317   4.272  0.0333 -0.6147 -0.3662
 5673SOL    HW228656   2.691   2.211   4.382 -1.1337 -0.8535 -2.0407
 5674SOL     OW28657   1.049   3.629   8.673  0.4676 -0.0779 -0.1030
 5674SOL    HW128658   1.092   3.654   8.755  0.5926  1.6851 -0.6982
 5674SOL    HW228659   1.059   3.534   8.663  1.6773  0.1362 -0.9029
 5675SOL     OW28660   0.371   2.381   4.635  0.1159  0.4514 -0.3529
 5675SOL    HW128661   0.307   2.443   4.670 -0.2729 -0.2503  0.1776
 5675SOL    HW228662   0.412   2.436   4.567  1.0837 -0.4496 -0.4968
 5676SOL     OW28663   1.543   3.941   8.308  0.3566 -0.0305 -0.0639
 5676SOL    HW128664   1.598   4.015   8.333  0.9511 -0.0738 -1.1992
 5676SOL    HW228665   1.467   3.983   8.269  0.2878 -0.6576 -0.6024
 5677SOL     OW28666   0.438   4.085   7.737 -0.0848 -0.1591 -0.3077
 5677SOL    HW128667   0.497   4.010   7.727  0.3887  0.0338  1.1264
 5677SOL    HW228668   0.359   4.035   7.761  1.8600 -1.5196  3.1970
 5678SOL     OW28669   1.914   3.219   3.592 -0.8148  0.3333 -0.0904
 5678SOL    HW128670   1.881   3.155   3.528  0.5833  0.7968 -1.2848
 5678SOL    HW228671   2.004   3.227   3.561 -0.0381  0.7518  2.2542
 5679SOL     OW28672   0.480   4.253   1.930  0.3042 -0.3966 -0.5303
 5679SOL    HW128673   0.506   4.179   1.876  2.1219 -0.8374  0.9766
 5679SOL    HW228674   0.514   4.219   2.013  0.9152 -2.1575 -1.5076
 5680SOL     OW28675   1.404   3.109  15.784 -0.2862 -0.1119  0.3346
 5680SOL    HW128676   1.495   3.127  15.805 -0.4995  2.0285 -0.5024
 5680SOL    HW228677   1.359   3.184  15.823  1.1928  1.4325 -0.9488
 5681SOL     OW28678   1.837   0.071   9.172  0.2254 -0.0696 -0.2832
 5681SOL    HW128679   1.743   0.084   9.168  0.1832 -0.1766  0.4353
 5681SOL    HW228680   1.842   0.050   9.265  3.1570 -1.4183 -0.7135
 5682SOL     OW28681   2.809   4.666  14.749  0.1181  0.1915 -0.2644
 5682SOL    HW128682   2.835   4.732  14.813  2.4026 -0.7010 -0.2918
 5682SOL    HW228683   2.719   4.646  14.775 -0.0848  1.0030 -0.3463
 5683SOL     OW28684   4.272   3.271   9.036 -0.2456 -0.2521  0.2675
 5683SOL    HW128685   4.244   3.187   9.071  1.1385 -1.1435 -0.7204
 5683SOL    HW228686   4.193   3.324   9.032 -1.0257 -1.4566 -0.0676
 5684SOL     OW28687   0.869   3.977   2.386  0.4967  0.1836  0.3886
 5684SOL    HW128688   0.783   3.959   2.348  0.3687 -0.6152  1.0261
 5684SOL    HW228689   0.850   4.024   2.468  0.4880  1.7201 -0.4978
 5685SOL     OW28690   4.236   2.914   5.369 -0.0104 -0.0698 -0.1245
 5685SOL    HW128691   4.244   2.885   5.460 -1.2495  2.6086  0.8497
 5685SOL    HW228692   4.237   2.834   5.317 -1.1103  1.5162 -2.6156
 5686SOL     OW28693   0.460   0.289   2.304 -0.0643 -0.4804 -0.0704
 5686SOL    HW128694   0.384   0.233   2.292  0.7017 -1.5717  0.1806
 5686SOL    HW228695   0.489   0.311   2.216  1.4646 -0.3124  0.4713
 5687SOL     OW28696   0.756   4.618   7.648  0.5100  0.3155 -0.6516
 5687SOL    HW128697   0.783   4.555   7.715  0.1849 -0.3765 -1.1762
 5687SOL    HW228698   0.661   4.626   7.660  0.1278  0.1568 -3.5952
 5688SOL     OW28699   0.202   2.224   9.468  0.4913 -0.0654 -0.0225
 5688SOL    HW128700   0.209   2.139   9.426 -1.7706 -0.0324 -0.4839
 5688SOL    HW228701   0.138   2.275   9.419  0.3433  0.6187  0.8616
 5689SOL     OW28702   1.238   0.071   6.762 -0.0270 -0.3719 -0.0641
 5689SOL    HW128703   1.258   0.165   6.757  0.1377 -0.3350  1.2659
 5689SOL    HW228704   1.283   0.044   6.682 -0.6611 -1.0817 -0.1754
 5690SOL     OW28705   0.116   3.698   4.523 -0.2418 -0.3475  0.6173
 5690SOL    HW128706   0.115   3.778   4.577  1.1142 -0.9960  1.5823
 5690SOL    HW228707   0.195   3.666   4.566  1.2631  0.9594 -1.1504
 5691SOL     OW28708   1.844   4.041   1.000  0.3227 -0.1882  0.1076
 5691SOL    HW128709   1.760   4.005   0.971 -0.8055  1.5631  1.1856
 5691SOL    HW228710   1.859   3.968   1.061  1.2598  0.5365  0.7362
 5692SOL     OW28711   3.801   4.156   8.332 -0.1865  0.4099  0.2135
 5692SOL    HW128712   3.714   4.196   8.340 -0.1505  0.6262 -0.4434
 5692SOL    HW228713   3.851   4.233   8.306  0.5446 -0.0786  0.1878
 5693SOL     OW28714   2.118   4.444  11.811 -0.1305  0.0011  0.1634
 5693SOL    HW128715   2.138   4.471  11.900  0.6647  2.8276 -0.8488
 5693SOL    HW228716   2.151   4.354  11.815  1.7481  0.6851  0.1276
 5694SOL     OW28717   2.587   1.340   6.439  0.5089  0.2686  0.0458
 5694SOL    HW128718   2.576   1.249   6.410  2.2343  0.8359 -2.3735
 5694SOL    HW228719   2.531   1.338   6.517 -0.6849 -1.1629 -0.8400
 5695SOL     OW28720   0.199   1.957  13.233  0.8752  0.1683  0.6028
 5695SOL    HW128721   0.270   1.964  13.297 -0.8911 -3.6010  2.9922
 5695SOL    HW228722   0.124   1.998  13.276  0.4241  1.4297 -1.4156
 5696SOL     OW28723   1.943   4.564  13.752  0.3283 -0.6688  0.2110
 5696SOL    HW128724   1.898   4.492  13.796 -1.2282  2.1523  3.1436
 5696SOL    HW228725   1.938   4.530  13.662  0.3181  1.4504 -0.5894
 5697SOL     OW28726   1.131   3.873   7.457 -0.1744 -0.6928  0.3238
 5697SOL    HW128727   1.149   3.787   7.495 -2.3505 -0.4133  1.9729
 5697SOL    HW228728   1.138   3.928   7.536  1.0138 -0.7249  0.2322
 5698SOL     OW28729   3.094   0.290   8.429 -0.4276  0.1439 -0.0738
 5698SOL    HW128730   3.000   0.293   8.410  0.2629 -2.5698 -3.8199
 5698SOL    HW228731   3.129   0.220   8.374 -0.3692 -0.5371  0.8257
 5699SOL     OW28732   0.648   1.739  16.726  0.1697 -0.3165 -0.4632
 5699SOL    HW128733   0.626   1.691  16.807  2.1010 -0.0383  0.2221
 5699SOL    HW228734   0.736   1.712  16.701  0.5371 -0.7643  1.2764
 5700SOL     OW28735   3.047   3.457  12.543 -0.5313 -0.4287 -0.1476
 5700SOL    HW128736   3.127   3.482  12.496  0.1969 -0.4415  1.0840
 5700SOL    HW228737   3.007   3.540  12.571 -2.6585 -0.6038 -2.6297
 5701SOL     OW28738   1.770   2.798  11.509  0.5493 -0.2726 -0.3418
 5701SOL    HW128739   1.734   2.735  11.571  0.3327  0.9435  0.7646
 5701SOL    HW228740   1.708   2.871  11.514  2.0816  0.9892  0.1330
 5702SOL     OW28741   1.452   3.603  15.983  0.3265 -0.0528 -0.2212
 5702SOL    HW128742   1.397   3.598  16.061  0.3061  2.7874 -0.0621
 5702SOL    HW228743   1.424   3.690  15.955  0.3479  0.8577  2.6210
 5703SOL     OW28744   1.848   3.278   9.361  0.4331  0.2194  0.0493
 5703SOL    HW128745   1.875   3.254   9.273 -0.8050  1.2058 -0.6042
 5703SOL    HW228746   1.852   3.190   9.398  3.6576  0.2265 -0.3651
 5704SOL     OW28747   2.053   4.299  16.090  0.3123 -0.5590 -0.3090
 5704SOL    HW128748   2.011   4.352  16.158 -0.3653  0.7182 -1.7154
 5704SOL    HW228749   2.146   4.305  16.109 -0.0376  0.5323  1.0544
 5705SOL     OW28750   2.639   0.356  13.330 -0.2096  0.2105  0.0970
 5705SOL    HW128751   2.733   0.342  13.347  0.1372 -1.4455 -3.2847
 5705SOL    HW228752   2.652   0.393  13.243  1.3643  1.6476  0.9459
 5706SOL     OW28753   4.133   1.640  12.580  0.0718  0.0397 -0.0654
 5706SOL    HW128754   4.084   1.628  12.498  1.7234  2.9236 -1.4882
 5706SOL    HW228755   4.158   1.549  12.589  1.6415  0.4447 -0.3796
 5707SOL     OW28756   2.160   4.168   8.519  0.1894 -0.0181  0.1040
 5707SOL    HW128757   2.120   4.085   8.544 -1.5016  0.5598 -0.7111
 5707SOL    HW228758   2.255   4.160   8.528  0.1896  0.1030  0.2093
 5708SOL     OW28759   1.723   3.581   6.481 -0.1416  0.8396  0.1080
 5708SOL    HW128760   1.719   3.642   6.406  0.9457 -0.0085 -0.6459
 5708SOL    HW228761   1.692   3.495   6.453 -1.6418  1.5914 -0.5392
 5709SOL     OW28762   1.039   1.187   6.434 -0.0353  0.2984  0.0890
 5709SOL    HW128763   1.042   1.183   6.530 -1.3208 -1.3150  0.0727
 5709SOL    HW228764   1.074   1.100   6.414 -0.7576 -0.0571  0.3764
 5710SOL     OW28765   2.086   0.931  12.834 -0.4064 -0.4499  0.3583
 5710SOL    HW128766   2.155   0.864  12.836  0.1227  0.1435  1.7437
 5710SOL    HW228767   2.018   0.895  12.890  0.1639 -1.6083  0.3073
 5711SOL     OW28768   0.475   4.008   5.859 -0.0641 -0.7368 -0.4362
 5711SOL    HW128769   0.506   4.010   5.950 -1.5232  0.3492  0.0470
 5711SOL    HW228770   0.500   4.095   5.827  1.2719  0.1892  3.0905
 5712SOL     OW28771   4.537   3.384   5.279 -0.5740  0.2502  0.1214
 5712SOL    HW128772   4.465   3.416   5.225  0.7591  0.5520 -1.4649
 5712SOL    HW228773   4.587   3.462   5.301 -0.5117 -0.0624  1.0866
 5713SOL     OW28774   2.182   3.811   4.016 -0.1758 -0.3933  0.1957
 5713SOL    HW128775   2.132   3.842   4.092 -0.5987 -0.9516  0.1440
 5713SOL    HW228776   2.265   3.788   4.058 -1.5030 -2.1567  1.8727
 5714SOL     OW28777   2.264   4.510   3.734  0.5153  0.0267 -0.5941
 5714SOL    HW128778   2.263   4.471   3.821  0.4524  1.9374  0.2576
 5714SOL    HW228779   2.326   4.449   3.695  0.7584 -0.7935  1.0820
 5715SOL     OW28780   2.326   3.857   6.017 -0.2713  0.9500 -0.4078
 5715SOL    HW128781   2.371   3.903   6.088 -0.2666  1.3094 -0.6443
 5715SOL    HW228782   2.393   3.846   5.949  0.8928 -0.0216  0.9083
 5716SOL     OW28783   1.192   0.306  10.215 -0.2140 -0.1885  0.1792
 5716SOL    HW128784   1.221   0.328  10.127  1.5258 -0.3123  0.7177
 5716SOL    HW228785   1.229   0.376  10.268  0.3286  1.0381 -1.8122
 5717SOL     OW28786   0.785   0.467  11.084  0.2802 -0.2245  0.6770
 5717SOL    HW128787   0.843   0.420  11.025  0.1366  1.1009 -0.5149
 5717SOL    HW228788   0.767   0.399  11.149  1.2773 -2.6589 -1.6233
 5718SOL     OW28789   2.717   0.030   6.576  0.6049  0.1219  0.6461
 5718SOL    HW128790   2.756   0.076   6.650  0.9064  0.0623  0.5258
 5718SOL    HW228791   2.625   0.034   6.604  0.1937 -1.4142 -0.4589
 5719SOL     OW28792   4.074   4.442   1.967 -0.1675 -0.5801 -0.5004
 5719SOL    HW128793   4.158   4.484   1.983 -1.0168  0.4783  1.1600
 5719SOL    HW228794   4.060   4.478   1.879  3.3470 -0.6579 -1.0559
 5720SOL     OW28795   2.744   4.674  17.209  0.0580  0.1195 -0.5603
 5720SOL    HW128796   2.690   4.728  17.152  0.7180  1.2706 -0.0995
 5720SOL    HW228797   2.833   4.705  17.192  1.0337 -2.9814 -1.1256
 5721SOL     OW28798   2.568   0.669   1.850 -0.7334 -0.0121  0.1537
 5721SOL    HW128799   2.646   0.623   1.881  1.3751  2.0483 -2.1972
 5721SOL    HW228800   2.495   0.613   1.877  0.8155 -1.2533  1.8141
 5722SOL     OW28801   2.389   4.622   8.427  0.1563 -0.2216 -0.2120
 5722SOL    HW128802   2.322   4.555   8.441  2.4234 -1.8429  2.8480
 5722SOL    HW228803   2.374   4.644   8.335  1.3397 -1.7243 -0.7638
 5723SOL     OW28804   0.781   0.029   7.970  0.0544  0.0088 -0.5904
 5723SOL    HW128805   0.790   4.682   8.016 -0.8256 -0.0883 -0.5876
 5723SOL    HW228806   0.863   0.025   7.921 -1.7792  0.4025 -3.6838
 5724SOL     OW28807   1.351   3.451   3.928  0.2773 -0.3584 -0.3015
 5724SOL    HW128808   1.404   3.382   3.888  1.3750  0.1912  0.2361
 5724SOL    HW228809   1.414   3.517   3.957 -0.3294  0.7477 -1.4686
 5725SOL     OW28810   4.343   3.176   4.002  0.3426 -0.6191 -0.3539
 5725SOL    HW128811   4.301   3.216   3.926  1.6905 -1.0531 -1.3328
 5725SOL    HW228812   4.313   3.235   4.071 -0.4306  0.1459 -1.3480
 5726SOL     OW28813   2.554   3.594   4.213 -0.1426 -0.2040 -0.2224
 5726SOL    HW128814   2.471   3.556   4.242 -0.2280  0.9382  1.0557
 5726SOL    HW228815   2.610   3.580   4.290  0.7891  0.5271 -0.7614
 5727SOL     OW28816   3.851   2.200   9.063 -0.6472  0.0934  0.1816
 5727SOL    HW128817   3.828   2.128   9.005 -1.4234  2.5170 -2.5253
 5727SOL    HW228818   3.865   2.163   9.150 -0.5600  0.1686  0.2001
 5728SOL     OW28819   4.007   1.510   4.130  0.4348 -0.4868 -0.3642
 5728SOL    HW128820   3.985   1.422   4.160 -1.8878  0.1920 -0.1173
 5728SOL    HW228821   4.061   1.467   4.064  2.0384 -0.6822  1.0653
 5729SOL     OW28822   1.225   1.381   2.340 -0.0400 -0.2935  0.1260
 5729SOL    HW128823   1.167   1.403   2.414 -0.8554 -0.5765 -0.4264
 5729SOL    HW228824   1.214   1.286   2.333  0.4798 -0.4999  1.9900
 5730SOL     OW28825   3.039   1.376   7.364 -0.3880 -0.0435 -0.3786
 5730SOL    HW128826   3.061   1.302   7.308 -0.0706  0.8566 -1.4387
 5730SOL    HW228827   3.122   1.423   7.356  1.0938 -2.4707  0.8400
 5731SOL     OW28828   3.297   3.629   1.078 -0.0430  0.3027 -0.7857
 5731SOL    HW128829   3.314   3.579   1.158 -1.3430  0.9540 -0.0947
 5731SOL    HW228830   3.248   3.566   1.023  0.1847  0.2418 -0.9174
 5732SOL     OW28831   3.385   0.983   6.213 -0.0782 -1.0429 -0.0864
 5732SOL    HW128832   3.309   0.927   6.228 -0.9178 -0.1323 -0.9770
 5732SOL    HW228833   3.434   0.927   6.153 -0.2674 -1.9499  0.6025
 5733SOL     OW28834   4.333   0.738   5.535 -0.4447  0.0017 -0.1117
 5733SOL    HW128835   4.336   0.819   5.485 -1.4905 -0.3116 -0.6747
 5733SOL    HW228836   4.315   0.674   5.467  0.3022  1.0566 -1.2981
 5734SOL     OW28837   0.700   3.985   9.332 -0.4300  0.3972 -0.3583
 5734SOL    HW128838   0.768   4.019   9.273  0.7961  1.4965  1.6894
 5734SOL    HW228839   0.686   4.056   9.395  0.4603  0.9341 -0.7636
 5735SOL     OW28840   2.265   3.425   1.330  0.3417  0.5689 -0.1997
 5735SOL    HW128841   2.243   3.332   1.326  0.0284  0.6720 -0.9685
 5735SOL    HW228842   2.337   3.428   1.393  0.3734 -2.6592 -0.0813
 5736SOL     OW28843   2.597   3.863   7.007  0.6111 -0.2137  0.4058
 5736SOL    HW128844   2.604   3.896   6.917 -1.2830 -1.0170 -0.0235
 5736SOL    HW228845   2.516   3.909   7.031  0.8161  0.7278 -0.6804
 5737SOL     OW28846   2.485   2.923   3.372  0.0757 -0.0897  0.0898
 5737SOL    HW128847   2.523   2.992   3.317  0.4960  0.7454  1.4381
 5737SOL    HW228848   2.564   2.870   3.385 -0.3070 -0.3713  1.2763
 5738SOL     OW28849   1.315   1.928  16.575 -0.2211 -0.2339 -0.3694
 5738SOL    HW128850   1.304   1.974  16.658 -2.1808  1.1875 -1.4260
 5738SOL    HW228851   1.318   2.003  16.516  0.1052 -0.5998 -0.8143
 5739SOL     OW28852   2.563   4.331   9.466 -0.5215  0.5460  0.3007
 5739SOL    HW128853   2.599   4.245   9.490 -0.3658  1.0391  1.8315
 5739SOL    HW228854   2.471   4.319   9.489 -0.9141 -0.7878 -1.9246
 5740SOL     OW28855   0.245   0.635   6.413  0.2771  0.4421 -0.3521
 5740SOL    HW128856   0.182   0.704   6.393 -1.1937 -0.4944  1.0781
 5740SOL    HW228857   0.250   0.646   6.508 -0.4422 -0.5488 -0.1954
 5741SOL     OW28858   1.249   1.839   8.186  0.2707  0.3255  0.3701
 5741SOL    HW128859   1.214   1.755   8.216  2.4691 -0.7381 -0.0856
 5741SOL    HW228860   1.297   1.869   8.263  0.5837 -1.6067  0.9278
 5742SOL     OW28861   3.784   3.012   6.993 -0.0655  0.0488  0.1478
 5742SOL    HW128862   3.740   2.928   7.008 -1.0838  0.3172 -1.2933
 5742SOL    HW228863   3.744   3.060   7.065  0.6461  1.5792 -0.4653
 5743SOL     OW28864   1.112   2.764   1.184  0.2459  0.1397  0.1784
 5743SOL    HW128865   1.031   2.781   1.137 -0.3139  1.3703  1.5821
 5743SOL    HW228866   1.174   2.828   1.149  1.7743 -1.1482  0.5256
 5744SOL     OW28867   0.227   0.299   2.554 -0.1421  0.1233 -0.7114
 5744SOL    HW128868   0.226   0.295   2.650 -2.1403 -2.2781 -0.8297
 5744SOL    HW228869   0.259   0.389   2.554 -1.2985  0.5330  1.0735
 5745SOL     OW28870   4.392   0.971   4.215 -0.7282  0.0015 -0.4427
 5745SOL    HW128871   4.354   1.037   4.273  0.5381  1.9804 -1.9016
 5745SOL    HW228872   4.348   0.889   4.238 -0.1861  0.3475  1.8962
 5746SOL     OW28873   0.305   2.118  13.753 -0.0536 -0.2198 -0.1560
 5746SOL    HW128874   0.295   2.084  13.664  2.8917 -1.8868  0.1177
 5746SOL    HW228875   0.313   2.035  13.799 -0.3027 -1.5995 -2.5784
 5747SOL     OW28876   3.898   0.195   8.927 -0.7967 -0.2373 -0.2066
 5747SOL    HW128877   3.916   0.182   9.020  1.4781  0.1630 -0.6092
 5747SOL    HW228878   3.847   0.114   8.918 -0.4515 -0.3935 -0.7609
 5748SOL     OW28879   2.691   4.048   5.086 -0.0746  0.5094 -0.4741
 5748SOL    HW128880   2.733   4.102   5.018 -0.0363  0.1052 -0.7695
 5748SOL    HW228881   2.610   4.015   5.047 -0.0015 -2.1339  1.6523
 5749SOL     OW28882   0.467   0.155   6.257  0.1494 -0.7225  0.0303
 5749SOL    HW128883   0.394   0.130   6.200  0.2358  0.1842 -0.4684
 5749SOL    HW228884   0.424   0.151   6.343 -0.2528 -1.7403 -0.2136
 5750SOL     OW28885   3.425   4.290  15.538 -0.0463 -0.0872 -0.2620
 5750SOL    HW128886   3.349   4.350  15.544  1.2917  1.4168  1.7802
 5750SOL    HW228887   3.499   4.350  15.528 -1.8032  2.4139  1.5048
 5751SOL     OW28888   4.494   2.258   0.904 -0.0115  0.3055 -0.0035
 5751SOL    HW128889   4.473   2.174   0.943  0.2663  0.0494 -0.4106
 5751SOL    HW228890   4.464   2.235   0.816 -0.6037 -4.6987  1.5138
 5752SOL     OW28891   3.015   0.066   7.854 -0.4102 -0.5718  0.1120
 5752SOL    HW128892   3.033   0.157   7.876  0.0656 -1.0613  1.7420
 5752SOL    HW228893   3.062   0.068   7.770 -2.3339  0.7608 -0.9352
 5753SOL     OW28894   0.721   3.622   9.565  0.4378  0.1161  0.2811
 5753SOL    HW128895   0.799   3.670   9.591 -0.7349  1.1421  1.9073
 5753SOL    HW228896   0.661   3.681   9.610 -0.8015 -1.3883  0.6285
 5754SOL     OW28897   1.266   0.437  15.254  0.3210 -0.2206 -0.2924
 5754SOL    HW128898   1.255   0.342  15.255 -1.5647  0.0081 -0.5859
 5754SOL    HW228899   1.179   0.476  15.252  0.2137 -0.4024  0.9467
 5755SOL     OW28900   3.168   1.297   6.069 -0.2969 -0.5609  0.0317
 5755SOL    HW128901   3.211   1.242   6.003 -1.3845 -2.4413  0.9022
 5755SOL    HW228902   3.141   1.230   6.132 -0.1383 -0.6956 -0.0429
 5756SOL     OW28903   1.466   4.239   7.166  0.4804 -0.7904  0.2429
 5756SOL    HW128904   1.555   4.244   7.130  0.0635 -0.2064 -0.6999
 5756SOL    HW228905   1.476   4.156   7.212 -1.7239 -1.2051 -0.0378
 5757SOL     OW28906   3.855   3.463  10.345  0.7946  0.0262  0.7765
 5757SOL    HW128907   3.811   3.411  10.412  2.6584 -1.8425  0.5200
 5757SOL    HW228908   3.876   3.541  10.396  1.8419  0.6816 -0.6727
 5758SOL     OW28909   0.368   1.619   5.361 -0.4372 -0.3353  0.0150
 5758SOL    HW128910   0.431   1.595   5.293  0.4082 -0.6930  0.9281
 5758SOL    HW228911   0.415   1.700   5.383 -0.7361 -0.4959  1.2595
 5759SOL     OW28912   0.220   0.265  16.009 -0.2224  0.0738  0.1902
 5759SOL    HW128913   0.151   0.262  15.942 -1.5923 -0.3425  1.6292
 5759SOL    HW228914   0.278   0.336  15.981  0.3249  0.0081  1.1710
 5760SOL     OW28915   4.197   4.361   6.449 -0.0620 -0.4966  0.8342
 5760SOL    HW128916   4.112   4.405   6.457 -0.4743 -1.3883  1.3252
 5760SOL    HW228917   4.212   4.344   6.542 -0.5075  0.3587  1.0663
 5761SOL     OW28918   3.761   1.558   5.142  0.6299  0.1636  0.0975
 5761SOL    HW128919   3.816   1.636   5.156  0.2510  0.0297  2.2316
 5761SOL    HW228920   3.736   1.574   5.051 -0.0413  0.5221  0.3476
 5762SOL     OW28921   3.119   1.556   2.868 -0.5837  0.4356  0.4718
 5762SOL    HW128922   3.083   1.471   2.893  1.7603 -0.6884 -0.0067
 5762SOL    HW228923   3.045   1.604   2.904 -0.2030  0.1893  1.5897
 5763SOL     OW28924   0.661   1.929   7.282  0.7679  0.5097 -0.5667
 5763SOL    HW128925   0.654   1.911   7.375 -1.6902  1.8566 -0.5034
 5763SOL    HW228926   0.568   1.932   7.260  0.8270 -3.0726 -1.2875
 5764SOL     OW28927   2.698   2.826   9.800  0.4465  0.8895  0.2981
 5764SOL    HW128928   2.688   2.886   9.874 -2.1663  1.5630 -0.6174
 5764SOL    HW228929   2.787   2.839   9.767  0.3190 -1.2328 -0.8873
 5765SOL     OW28930   4.033   1.865   2.869 -0.6817 -0.4632  0.2630
 5765SOL    HW128931   3.941   1.887   2.856 -0.8419 -1.3266 -0.0058
 5765SOL    HW228932   4.062   1.948   2.907  0.5528 -0.8332  0.1418
 5766SOL     OW28933   3.162   3.740   3.415  0.1975  0.1760 -0.1450
 5766SOL    HW128934   3.079   3.745   3.463  0.4223 -0.7312  0.3306
 5766SOL    HW228935   3.214   3.666   3.446 -1.3828 -0.4797  0.9172
 5767SOL     OW28936   1.539   4.565  12.626 -0.2069  0.2477  0.0076
 5767SOL    HW128937   1.456   4.597  12.591 -0.0072  0.9700  0.2096
 5767SOL    HW228938   1.523   4.474  12.600  1.4670 -0.1483  0.3564
 5768SOL     OW28939   4.712   3.562  13.778 -0.3074  0.1363 -0.4596
 5768SOL    HW128940   0.070   3.550  13.787 -0.0203  2.4018 -0.3721
 5768SOL    HW228941   4.693   3.644  13.824  3.5822  0.9040 -0.2672
 5769SOL     OW28942   2.833   3.687  12.373  0.5566 -0.2923 -0.2622
 5769SOL    HW128943   2.910   3.638  12.345 -0.7536 -1.8055 -1.2380
 5769SOL    HW228944   2.755   3.638  12.346  0.3789  0.1407 -0.5437
 5770SOL     OW28945   1.109   1.558   5.213  0.0372  0.1539  0.2959
 5770SOL    HW128946   1.083   1.650   5.224 -0.0448  0.3696 -1.6990
 5770SOL    HW228947   1.126   1.562   5.119  0.3977 -2.4901  0.2568
 5771SOL     OW28948   2.156   0.680   5.017 -0.2103  0.3551  0.3884
 5771SOL    HW128949   2.126   0.758   4.972  0.9702  0.0100 -1.0024
 5771SOL    HW228950   2.244   0.705   5.044  1.1431 -1.2274 -2.5068
 5772SOL     OW28951   3.343   0.624   6.819 -0.0735 -0.0765 -0.1016
 5772SOL    HW128952   3.343   0.720   6.813 -0.7885 -0.0874 -0.3135
 5772SOL    HW228953   3.251   0.608   6.841 -0.2062  0.7953 -0.0149
 5773SOL     OW28954   0.158   3.139   8.815 -1.0778 -0.0859 -0.4490
 5773SOL    HW128955   0.234   3.092   8.850 -0.7093  1.3724  0.7094
 5773SOL    HW228956   0.134   3.080   8.743 -0.2579 -0.4071 -0.4697
 5774SOL     OW28957   3.846   0.785   8.574 -0.4909  0.4528 -0.0096
 5774SOL    HW128958   3.804   0.700   8.563 -0.9562  0.8042 -0.9914
 5774SOL    HW228959   3.849   0.808   8.667  0.6300  1.4457 -0.2863
 5775SOL     OW28960   1.295   0.663  12.991 -0.3232  0.2420 -0.2014
 5775SOL    HW128961   1.234   0.720  12.945 -0.6358  0.8918  1.0317
 5775SOL    HW228962   1.247   0.584  13.016  1.3404 -0.8409 -0.3941
 5776SOL     OW28963   3.565   0.154   3.678  0.1298 -0.4662 -0.7247
 5776SOL    HW128964   3.619   0.129   3.603  1.8636  1.0808 -0.0040
 5776SOL    HW228965   3.492   0.092   3.680  0.3821 -0.6766  2.0170
 5777SOL     OW28966   3.407   2.899  11.121  0.3439  0.4421 -0.3342
 5777SOL    HW128967   3.439   2.840  11.189 -0.5642  0.5656  0.2043
 5777SOL    HW228968   3.443   2.865  11.039  0.7493  1.7108 -0.6788
 5778SOL     OW28969   1.524   3.148   0.793 -0.3672  0.1461 -0.0691
 5778SOL    HW128970   1.608   3.114   0.764  0.4602  0.2251  2.2341
 5778SOL    HW228971   1.536   3.243   0.787 -2.2098  0.2288 -2.5192
 5779SOL     OW28972   4.607   3.201   8.020 -0.4369  0.5403  0.4257
 5779SOL    HW128973   4.615   3.109   8.046  0.6692  0.6663  0.5694
 5779SOL    HW228974   4.691   3.229   8.058 -1.5293  2.1044  1.7212
 5780SOL     OW28975   1.911   1.958  10.744 -0.4499  0.0413 -0.2347
 5780SOL    HW128976   1.953   2.017  10.807  0.0388  0.7002 -1.1723
 5780SOL    HW228977   1.823   1.995  10.745 -0.6481 -0.3980 -1.2895
 5781SOL     OW28978   4.115   3.474   8.231 -0.1371 -0.4889 -0.0419
 5781SOL    HW128979   4.169   3.398   8.207  0.6610  0.2314 -0.5180
 5781SOL    HW228980   4.055   3.416   8.278 -1.0070 -0.0753 -0.6611
 5782SOL     OW28981   0.036   2.693   8.610  0.9412 -0.7681 -0.1294
 5782SOL    HW128982   0.044   2.667   8.702  0.4376  0.6658  0.3241
 5782SOL    HW228983   0.048   2.607   8.570  0.1213 -1.9518  2.1290
 5783SOL     OW28984   1.442   4.458   6.961 -0.1607 -0.0198  0.1704
 5783SOL    HW128985   1.473   4.380   7.007 -0.8861  0.1848  0.9999
 5783SOL    HW228986   1.373   4.496   7.016 -2.0088 -2.9074 -0.1480
 5784SOL     OW28987   4.012   0.951   4.283 -0.1738  0.3287  0.7931
 5784SOL    HW128988   3.917   0.956   4.295 -0.0760 -0.8132  1.9697
 5784SOL    HW228989   4.038   1.025   4.338 -1.2963  0.9183  0.5358
 5785SOL     OW28990   1.042   0.984   7.299 -0.1016  0.2092 -0.7436
 5785SOL    HW128991   1.138   0.986   7.300 -0.0225 -2.7590 -1.4252
 5785SOL    HW228992   1.033   1.067   7.252 -1.6370  1.3549  1.6147
 5786SOL     OW28993   2.603   2.504   6.924 -0.0403  0.2724 -0.1186
 5786SOL    HW128994   2.585   2.598   6.926 -1.5977 -0.0049 -0.9083
 5786SOL    HW228995   2.601   2.491   7.019 -1.1760  2.2986  0.1281
 5787SOL     OW28996   2.037   0.689   0.371 -0.1334 -0.3491 -0.4071
 5787SOL    HW128997   2.042   0.597   0.397  2.4170 -0.5388 -1.6107
 5787SOL    HW228998   2.063   0.735   0.451 -1.6890  1.3375 -0.8606
 5788SOL     OW28999   1.674   1.076   8.346 -0.0589 -0.4974 -0.0001
 5788SOL    HW129000   1.729   1.105   8.273  0.1495  0.8867  0.7124
 5788SOL    HW229001   1.607   1.027   8.300  0.1311 -1.8864  1.1929
 5789SOL     OW29002   1.715   4.040   9.139  0.5396  0.3848  0.6392
 5789SOL    HW129003   1.699   3.950   9.111  0.0644  0.2457  1.3584
 5789SOL    HW229004   1.705   4.079   9.052  1.2870  2.1485  1.3574
 5790SOL     OW29005   0.520   3.230   7.451  0.2940 -0.5291 -0.0072
 5790SOL    HW129006   0.566   3.245   7.369 -2.7207 -1.8593 -1.9379
 5790SOL    HW229007   0.439   3.280   7.438 -0.5556 -1.7210  0.6476
 5791SOL     OW29008   3.137   4.335   0.814 -0.5395 -0.5015 -0.4170
 5791SOL    HW129009   3.199   4.373   0.876 -0.5813 -0.4327 -0.4165
 5791SOL    HW229010   3.094   4.420   0.800 -1.4721 -1.1794 -1.7680
 5792SOL     OW29011   1.184   2.443   4.152  0.2493  0.2909 -0.3631
 5792SOL    HW129012   1.193   2.396   4.069 -1.9714  0.0162 -0.4734
 5792SOL    HW229013   1.136   2.371   4.192  1.3380  0.2562  0.8544
 5793SOL     OW29014   2.738   1.351   3.565 -0.1084  0.4450 -0.0667
 5793SOL    HW129015   2.796   1.283   3.530 -0.7990 -0.0023 -0.3328
 5793SOL    HW229016   2.685   1.299   3.625  0.4253  0.8686  0.7709
 5794SOL     OW29017   4.571   3.435   4.749  0.2072 -0.0481 -0.0718
 5794SOL    HW129018   4.525   3.351   4.743  0.8611 -0.4483  0.5491
 5794SOL    HW229019   4.540   3.493   4.679  1.5480  0.8638  0.0967
 5795SOL     OW29020   1.095   4.046   5.701  0.7923  0.6445  0.5008
 5795SOL    HW129021   1.120   4.035   5.609  1.1643  2.0307  0.4281
 5795SOL    HW229022   1.019   4.104   5.704 -0.4913 -0.8291 -3.7679
 5796SOL     OW29023   3.522   3.816   8.351  0.3543  0.1380 -0.0974
 5796SOL    HW129024   3.571   3.875   8.292 -0.1085 -0.1479 -0.7674
 5796SOL    HW229025   3.511   3.737   8.299 -0.6718 -0.9441  1.7799
 5797SOL     OW29026   3.178   2.058   7.511  0.8704 -0.4298  0.2505
 5797SOL    HW129027   3.162   1.980   7.457 -1.6042  1.6854 -2.0490
 5797SOL    HW229028   3.266   2.040   7.542  1.3356  2.3706  0.5449
 5798SOL     OW29029   3.822   1.268   5.157 -0.0630  0.7947  0.7646
 5798SOL    HW129030   3.824   1.361   5.136 -1.2656  0.6557  0.0336
 5798SOL    HW229031   3.794   1.238   5.070 -1.2058  2.1130  0.6822
 5799SOL     OW29032   0.446   4.735   7.910 -0.3197  0.4421  0.4600
 5799SOL    HW129033   0.534   0.034   7.923 -0.7629  1.2800  1.1309
 5799SOL    HW229034   0.437   4.676   7.985 -0.0144 -1.6003 -1.0919
 5800SOL     OW29035   3.362   1.879   5.255  0.2745 -0.1376  0.5072
 5800SOL    HW129036   3.385   1.869   5.348  0.9631 -0.0969  0.3375
 5800SOL    HW229037   3.412   1.959   5.237  1.5687 -1.3822 -1.3154
 5801SOL     OW29038   2.315   1.257   5.591  0.2173  0.2450 -0.2349
 5801SOL    HW129039   2.253   1.196   5.629 -0.4207 -0.3988 -2.3230
 5801SOL    HW229040   2.362   1.295   5.666  1.4334  0.9845 -1.3795
 5802SOL     OW29041   2.635   1.503   2.590 -0.1867 -0.5144 -0.1217
 5802SOL    HW129042   2.665   1.417   2.558  0.7415  0.1552 -1.0474
 5802SOL    HW229043   2.561   1.515   2.530  2.4965 -2.1350 -3.7180
 5803SOL     OW29044   4.724   0.880   7.438 -0.3697 -0.2924  0.5670
 5803SOL    HW129045   0.061   0.885   7.376  0.2507 -0.1287  1.3097
 5803SOL    HW229046   4.728   0.964   7.484 -0.2802  0.9393 -1.7085
 5804SOL     OW29047   0.012   1.674   5.722  0.0576 -0.0611 -0.2483
 5804SOL    HW129048   0.080   1.612   5.696  1.7295  1.6051  0.1163
 5804SOL    HW229049   4.721   1.653   5.812  2.0229 -1.0690  0.1278
 5805SOL     OW29050   3.971   1.821   7.186  0.6250  0.7516 -0.4099
 5805SOL    HW129051   4.028   1.884   7.230 -0.1398  1.6672 -0.7260
 5805SOL    HW229052   4.030   1.746   7.190 -0.4240 -0.1246 -1.4122
 5806SOL     OW29053   0.040   4.202  15.007  0.0468  0.1225  0.2522
 5806SOL    HW129054   0.130   4.217  14.978  0.7575 -0.7360  2.0240
 5806SOL    HW229055   0.035   4.289  15.047 -0.2862 -0.4915  1.5429
 5807SOL     OW29056   2.696   2.594   7.924 -0.1837  0.2545 -0.1565
 5807SOL    HW129057   2.716   2.503   7.942 -0.4531  0.2165 -0.0380
 5807SOL    HW229058   2.781   2.620   7.889  0.1103  1.4051  1.4137
 5808SOL     OW29059   0.305   4.193  14.965 -0.6614  0.4617 -0.0576
 5808SOL    HW129060   0.351   4.240  14.896  1.2474 -0.8035  0.3490
 5808SOL    HW229061   0.321   4.100  14.947  0.2565  1.2377 -3.2183
 5809SOL     OW29062   1.183   0.840   1.962 -0.2571 -0.5692 -0.0477
 5809SOL    HW129063   1.113   0.905   1.957  0.6147  0.3384 -0.4159
 5809SOL    HW229064   1.228   0.854   1.879  1.0260 -1.5892  0.4649
 5810SOL     OW29065   0.415   1.111  10.211 -0.8808  0.1437 -0.4262
 5810SOL    HW129066   0.423   1.163  10.291 -0.4631  0.1232 -0.4542
 5810SOL    HW229067   0.498   1.068  10.190 -0.4385  1.3207 -1.0839
 5811SOL     OW29068   0.460   3.981   3.567 -0.2330 -0.0852  0.3920
 5811SOL    HW129069   0.410   4.032   3.631 -1.3310  1.9130 -2.0328
 5811SOL    HW229070   0.431   3.901   3.610 -1.0456  1.0431  1.9279
 5812SOL     OW29071   2.379   0.051   5.199 -0.4228  0.2903  0.0392
 5812SOL    HW129072   2.453   0.092   5.155 -1.0460  0.8747 -0.4576
 5812SOL    HW229073   2.428   4.712   5.230  0.0861  0.0876 -1.2474
 5813SOL     OW29074   0.886   4.339   3.751 -0.0890  0.6061 -0.2770
 5813SOL    HW129075   0.858   4.286   3.677 -0.1021 -0.0605  0.2009
 5813SOL    HW229076   0.814   4.321   3.812 -0.1832  0.8647 -0.3137
 5814SOL     OW29077   0.714   2.639   3.476 -0.9218  0.0077 -0.1124
 5814SOL    HW129078   0.806   2.616   3.490 -1.1658 -0.2316  1.1205
 5814SOL    HW229079   0.715   2.628   3.381  1.9094  0.1757 -0.0886
 5815SOL     OW29080   4.654   0.856  10.644 -0.7392 -0.3166  0.9835
 5815SOL    HW129081   0.006   0.835  10.673  0.1179  1.6998 -0.2697
 5815SOL    HW229082   4.634   0.938  10.688  1.4549  0.3020  0.8257
 5816SOL     OW29083   1.326   1.613   0.178  0.0692  0.0812 -0.0409
 5816SOL    HW129084   1.402   1.560   0.154  1.0908  1.4892  0.0520
 5816SOL    HW229085   1.367   1.664   0.248  0.6407  1.3471 -1.2825
 5817SOL     OW29086   4.340   4.113   0.822  0.2620 -0.4457 -0.2439
 5817SOL    HW129087   4.367   4.075   0.738 -0.7801 -0.3995 -0.6071
 5817SOL    HW229088   4.352   4.036   0.878 -3.0515 -0.7514  0.0487
 5818SOL     OW29089   1.311   0.537   8.681  0.7770 -0.4174 -0.2519
 5818SOL    HW129090   1.309   0.463   8.742  0.8389  0.4712  0.8455
 5818SOL    HW229091   1.257   0.496   8.614 -0.7930 -0.4595  1.0107
 5819SOL     OW29092   3.286   0.630   1.540 -0.0234 -0.0280 -0.3395
 5819SOL    HW129093   3.274   0.537   1.554 -1.1167  0.2279  0.4124
 5819SOL    HW229094   3.377   0.620   1.513  0.4838 -0.0525  1.3850
 5820SOL     OW29095   4.334   0.569   2.182  0.0159  0.1998  0.3597
 5820SOL    HW129096   4.357   0.661   2.169  1.5808 -0.3204 -0.6691
 5820SOL    HW229097   4.415   0.520   2.162 -1.6191 -1.7745 -1.4390
 5821SOL     OW29098   4.074   2.994   1.931 -0.0291  0.5820 -0.0368
 5821SOL    HW129099   4.140   2.984   1.863  1.6876 -2.9663  2.1492
 5821SOL    HW229100   4.049   2.903   1.944  0.8675  0.1324 -1.4450
 5822SOL     OW29101   3.605   2.689   9.184  0.6385  0.1195 -0.0278
 5822SOL    HW129102   3.643   2.662   9.100 -1.1025 -1.0062 -0.4601
 5822SOL    HW229103   3.590   2.609   9.234 -1.0528 -0.8002 -2.0033
 5823SOL     OW29104   0.128   1.945   3.613 -0.1226  0.4178 -0.7541
 5823SOL    HW129105   0.118   2.040   3.617  1.0636  0.4922  0.3152
 5823SOL    HW229106   0.042   1.927   3.573  0.3345  0.1733 -1.6287
 5824SOL     OW29107   3.414   3.318   7.831  0.1701  0.2529  0.0107
 5824SOL    HW129108   3.320   3.333   7.838  0.2024  0.6735 -0.5035
 5824SOL    HW229109   3.429   3.269   7.912 -3.4442  1.1787  1.2110
 5825SOL     OW29110   0.461   1.899   5.437 -0.5426 -0.5371  0.1142
 5825SOL    HW129111   0.528   1.846   5.479  1.9929  1.5974 -1.2194
 5825SOL    HW229112   0.515   1.951   5.377 -2.3587 -1.7675 -2.6042
 5826SOL     OW29113   4.691   3.109   4.160  0.0941  0.3272 -0.1976
 5826SOL    HW129114   4.666   3.030   4.208 -0.0920  0.0771 -0.7114
 5826SOL    HW229115   0.035   3.136   4.205  0.9832  0.4464 -1.8753
 5827SOL     OW29116   4.099   2.931  16.437 -0.4148 -0.4634 -0.4564
 5827SOL    HW129117   4.091   2.896  16.525  0.5997 -0.3439 -0.3132
 5827SOL    HW229118   4.006   2.938  16.416 -0.1987  2.2509 -0.5797
 5828SOL     OW29119   3.672   1.129   2.790 -0.0056  0.8646 -0.8912
 5828SOL    HW129120   3.609   1.138   2.719 -0.5204  1.4529 -0.3727
 5828SOL    HW229121   3.724   1.052   2.770  0.1569  0.3074  1.6261
 5829SOL     OW29122   3.858   1.441   4.533 -0.2346  0.9686  0.7425
 5829SOL    HW129123   3.871   1.490   4.614  0.8536  1.1674  0.4485
 5829SOL    HW229124   3.949   1.441   4.504 -0.1003  0.2855  1.1652
 5830SOL     OW29125   1.356   0.299   3.820  0.0823  0.6595  0.3495
 5830SOL    HW129126   1.426   0.351   3.858  1.5740 -1.2559  0.1979
 5830SOL    HW229127   1.370   0.310   3.726 -0.9001 -0.9667 -0.0060
 5831SOL     OW29128   1.275   3.794  15.233  0.4654 -0.1503  0.3022
 5831SOL    HW129129   1.350   3.835  15.190 -0.3488  1.2884  0.2732
 5831SOL    HW229130   1.270   3.715  15.179 -0.2000  0.0628  0.0485
 5832SOL     OW29131   0.164   1.621   8.727  0.3085  0.5091 -0.1444
 5832SOL    HW129132   0.089   1.678   8.745 -1.1174 -1.6051  0.6624
 5832SOL    HW229133   0.129   1.550   8.673  2.5582  0.1039 -1.0838
 5833SOL     OW29134   1.624   4.736   5.534  0.2114  0.3340  0.0960
 5833SOL    HW129135   1.578   4.679   5.471 -0.6672  2.5206 -1.2394
 5833SOL    HW229136   1.664   4.667   5.587  2.2281  0.3310 -1.4425
 5834SOL     OW29137   0.908   1.170   4.827  0.1923 -0.1124  0.0635
 5834SOL    HW129138   0.930   1.241   4.887 -1.4431  1.3218 -1.0018
 5834SOL    HW229139   0.944   1.208   4.746 -0.3232  1.3881  0.5330
 5835SOL     OW29140   0.462   0.702   7.904 -0.5155  0.2254 -0.5621
 5835SOL    HW129141   0.429   0.785   7.870  0.2877  2.3064  3.8318
 5835SOL    HW229142   0.462   0.724   7.997  1.0293  2.9193 -1.2008
 5836SOL     OW29143   4.471   2.377   5.263  0.2879 -0.6553  0.1867
 5836SOL    HW129144   4.401   2.313   5.253  0.5036 -0.4939 -2.3819
 5836SOL    HW229145   4.537   2.318   5.297 -0.5261 -0.8657  1.3858
 5837SOL     OW29146   1.393   0.649   0.268 -0.1605 -0.0855  0.7500
 5837SOL    HW129147   1.327   0.670   0.335  1.7115  0.5549  2.3847
 5837SOL    HW229148   1.446   0.728   0.259  0.4432 -0.6609 -0.6966
 5838SOL     OW29149   2.743   1.707  16.907  0.4426  0.1418 -0.0054
 5838SOL    HW129150   2.835   1.727  16.923  0.0094  2.2117 -0.1826
 5838SOL    HW229151   2.723   1.739  16.819  1.9779 -0.9582 -0.7500
 5839SOL     OW29152   1.948   4.674  12.141 -0.2773 -0.1291  0.0794
 5839SOL    HW129153   1.970   0.001  12.210  1.6242 -1.2858  0.5504
 5839SOL    HW229154   1.859   4.652  12.168  0.0686 -1.3737  0.2022
 5840SOL     OW29155   3.645   2.864  12.185  0.8583 -0.2034 -0.6230
 5840SOL    HW129156   3.592   2.875  12.264  0.0872  1.6334 -1.3877
 5840SOL    HW229157   3.656   2.954  12.154  1.4454 -0.2631 -0.5856
 5841SOL     OW29158   2.571   1.555   5.594 -0.4906 -0.3746  0.4480
 5841SOL    HW129159   2.642   1.554   5.659 -0.1529  0.3647  0.0821
 5841SOL    HW229160   2.518   1.491   5.641  0.1170  0.6490  2.5216
 5842SOL     OW29161   3.697   4.507  15.177  0.3036 -0.2113  0.1174
 5842SOL    HW129162   3.790   4.526  15.170  0.4239 -0.3757  1.3617
 5842SOL    HW229163   3.690   4.429  15.121 -1.5531  0.0513 -0.0185
 5843SOL     OW29164   3.237   1.075  15.034  0.4271 -0.3288  0.7169
 5843SOL    HW129165   3.294   1.006  15.069  0.5427  0.1725  1.5302
 5843SOL    HW229166   3.172   1.014  14.999 -1.4746  2.0213  0.1699
 5844SOL     OW29167   4.124   2.942   9.591  0.3173  0.2495 -0.3200
 5844SOL    HW129168   4.204   2.920   9.543  0.8985  2.4385 -0.3320
 5844SOL    HW229169   4.162   2.922   9.677 -0.5169  0.3924  0.0839
 5845SOL     OW29170   3.683   4.112   3.933  0.0735 -0.3399 -0.7111
 5845SOL    HW129171   3.654   4.147   4.017 -1.5360 -3.1169 -0.1370
 5845SOL    HW229172   3.648   4.176   3.870 -1.0549  0.6647  0.9508
 5846SOL     OW29173   0.678   0.429  15.945  0.0587 -0.4777  0.8076
 5846SOL    HW129174   0.587   0.458  15.953  0.5691  0.7122  2.2431
 5846SOL    HW229175   0.679   0.336  15.923  1.6448 -0.2853  0.0350
 5847SOL     OW29176   4.055   0.733  12.552  0.2876 -0.0246  0.5264
 5847SOL    HW129177   3.967   0.698  12.562 -0.6552  2.2856  0.4002
 5847SOL    HW229178   4.034   0.822  12.583 -2.4614 -0.4317 -0.2358
 5848SOL     OW29179   1.513   3.674   6.807  0.2085  0.3207  0.0862
 5848SOL    HW129180   1.456   3.742   6.842 -1.0554 -0.3025 -0.7582
 5848SOL    HW229181   1.515   3.703   6.716 -2.2068  0.1345 -0.0147
 5849SOL     OW29182   3.019   0.552  12.000  0.5886 -0.2109 -0.6242
 5849SOL    HW129183   3.105   0.587  12.025  0.5257  0.0783 -0.8144
 5849SOL    HW229184   2.963   0.629  11.993  0.9484 -0.1958 -3.3216
 5850SOL     OW29185   3.068   2.726   6.814  0.6096  0.1301 -0.1070
 5850SOL    HW129186   3.011   2.697   6.886 -1.3269 -2.4442 -2.6744
 5850SOL    HW229187   3.037   2.814   6.794  2.9242  0.4606 -2.1916
 5851SOL     OW29188   0.164   3.699   8.205 -0.0368 -0.1257 -0.3058
 5851SOL    HW129189   0.184   3.619   8.255 -1.4170 -0.4980 -0.3445
 5851SOL    HW229190   0.202   3.763   8.266 -1.3817  0.1107  0.2923
 5852SOL     OW29191   0.023   3.031   7.640  0.1910  0.4516  0.4886
 5852SOL    HW129192   4.672   3.013   7.674  0.2803 -0.3878  0.2721
 5852SOL    HW229193   0.044   3.120   7.668  2.4595  1.1377 -3.3528
 5853SOL     OW29194   3.206   0.764   5.058  0.7744 -0.1063 -0.0535
 5853SOL    HW129195   3.246   0.840   5.101 -0.0358  1.9992 -3.0106
 5853SOL    HW229196   3.251   0.747   4.975  0.2235  0.3212 -0.4391
 5854SOL     OW29197   0.047   0.533   8.894 -0.1984  0.7464  0.6189
 5854SOL    HW129198   0.129   0.522   8.847 -1.0846 -0.3734 -0.6610
 5854SOL    HW229199   0.080   0.518   8.982  0.0488 -0.1619  0.3698
 5855SOL     OW29200   0.903   1.961   7.133 -0.1549 -1.2921 -0.0770
 5855SOL    HW129201   0.826   1.938   7.185 -1.0491  1.3978 -0.2099
 5855SOL    HW229202   0.978   1.913   7.168  0.7370  0.5038  0.4718
 5856SOL     OW29203   2.960   4.668   0.212  0.2031 -0.3256  0.1475
 5856SOL    HW129204   3.044   4.625   0.226 -0.1244 -1.2042 -0.5927
 5856SOL    HW229205   2.896   4.597   0.220 -2.0479  1.5424 -1.4412
 5857SOL     OW29206   0.282   2.612   3.545 -0.0297  0.6259  0.0766
 5857SOL    HW129207   0.248   2.692   3.585 -1.0051  0.9719 -1.4392
 5857SOL    HW229208   0.282   2.561   3.626 -1.9836  2.1352  1.0237
 5858SOL     OW29209   0.022   1.382   7.710 -0.5968 -0.0128  0.2102
 5858SOL    HW129210   0.060   1.340   7.633  0.0530 -2.0055  1.6338
 5858SOL    HW229211   4.670   1.394   7.676 -0.4326  0.2783 -0.1160
 5859SOL     OW29212   3.330   2.892   6.987  0.2997  0.0227  0.1767
 5859SOL    HW129213   3.297   2.890   7.078 -0.5922 -1.8996 -0.1891
 5859SOL    HW229214   3.340   2.986   6.971  1.3544  0.3807  2.9696
 5860SOL     OW29215   3.473   2.578   4.115 -0.1727  0.4763 -0.2758
 5860SOL    HW129216   3.524   2.546   4.190  0.0203  2.4667  0.4396
 5860SOL    HW229217   3.519   2.659   4.093  0.2973  0.1077 -0.6584
 5861SOL     OW29218   0.993   0.512   3.189  0.3917  0.6047 -0.1238
 5861SOL    HW129219   0.960   0.596   3.158 -0.5602 -0.1116 -1.0273
 5861SOL    HW229220   1.066   0.498   3.128  1.0121 -0.4963  0.8562
 5862SOL     OW29221   4.382   1.960  17.291  0.1718 -0.4733  0.2725
 5862SOL    HW129222   4.391   1.933  17.200  0.3864  2.0285 -0.4558
 5862SOL    HW229223   4.375   1.878  17.339  0.0753 -1.1348 -0.8753
 5863SOL     OW29224   3.358   2.812   8.642  0.4569  0.0938  0.0371
 5863SOL    HW129225   3.295   2.764   8.588  2.4678  0.1966 -2.3825
 5863SOL    HW229226   3.429   2.750   8.627  0.6426 -0.0221  1.4258
 5864SOL     OW29227   4.115   1.232  17.700 -0.1213  0.1286  0.1249
 5864SOL    HW129228   4.051   1.270  17.641 -1.9314  1.4966  2.9547
 5864SOL    HW229229   4.070   1.232   0.040 -0.3208  2.1337  0.0175
 5865SOL     OW29230   2.802   4.430  15.059 -0.0531 -0.0782  0.3268
 5865SOL    HW129231   2.860   4.390  14.994 -1.2169  1.4930 -1.6835
 5865SOL    HW229232   2.859   4.502  15.085 -2.0943  1.6797 -0.1002
 5866SOL     OW29233   3.285   2.101   6.727  0.5089  0.0659 -0.1543
 5866SOL    HW129234   3.325   2.164   6.668  0.6633 -0.4345 -0.5867
 5866SOL    HW229235   3.271   2.158   6.802 -0.7070 -0.6542  0.1649
 5867SOL     OW29236   2.767   4.075  12.841  0.0585  0.6990 -0.0403
 5867SOL    HW129237   2.859   4.066  12.869 -0.4319 -0.0856  1.3022
 5867SOL    HW229238   2.761   4.108  12.751  2.7671  0.7244 -0.2256
 5868SOL     OW29239   4.098   1.017   6.491 -0.6939 -0.0191  0.1311
 5868SOL    HW129240   4.152   0.947   6.525 -0.9142 -0.1860  0.1421
 5868SOL    HW229241   4.165   1.071   6.448 -0.7429  2.6128  3.3190
 5869SOL     OW29242   3.682   2.524  10.995  0.6094 -0.2271 -0.5406
 5869SOL    HW129243   3.661   2.574  10.916 -1.3250 -1.9535 -1.1344
 5869SOL    HW229244   3.655   2.434  10.973 -1.1678 -0.3083  2.0758
 5870SOL     OW29245   4.682   3.674   9.232 -0.2691 -0.5122  0.1036
 5870SOL    HW129246   0.009   3.716   9.291 -0.8970  2.5367 -1.3539
 5870SOL    HW229247   4.733   3.602   9.196 -1.8069 -1.5685  0.0332
 5871SOL     OW29248   4.405   0.701   0.835 -1.1148  0.5785 -0.3779
 5871SOL    HW129249   4.337   0.637   0.813  0.9483 -1.1758 -1.6725
 5871SOL    HW229250   4.355   0.764   0.887  1.7110  3.4394 -1.1733
 5872SOL     OW29251   2.489   3.543   6.840 -0.6945  0.4473  0.2767
 5872SOL    HW129252   2.564   3.568   6.894  0.1175  0.7030 -0.9859
 5872SOL    HW229253   2.508   3.590   6.759 -0.9813  2.8939  1.6521
 5873SOL     OW29254   3.346   0.128   3.968 -0.2755  0.2916  0.2668
 5873SOL    HW129255   3.381   0.203   3.920  1.0277  0.5327  1.5914
 5873SOL    HW229256   3.420   0.121   4.029  0.2074 -2.6673 -0.6836
 5874SOL     OW29257   1.242   3.118   8.541 -0.0428  0.5376 -0.5695
 5874SOL    HW129258   1.308   3.070   8.592 -0.1848  1.3903  0.4154
 5874SOL    HW229259   1.300   3.155   8.474 -0.7420 -0.0440 -1.4935
 5875SOL     OW29260   2.041   3.152   2.741 -0.2375  0.5133  0.0822
 5875SOL    HW129261   1.979   3.108   2.682  0.5838 -0.2991 -0.1706
 5875SOL    HW229262   2.118   3.118   2.696 -0.1558  0.8413 -0.0250
 5876SOL     OW29263   2.737   4.735   4.712  0.0752 -0.3043  0.4701
 5876SOL    HW129264   2.671   4.676   4.675  0.0302  0.5588 -0.7953
 5876SOL    HW229265   2.682   0.076   4.707 -2.0509 -1.7526  1.1003
 5877SOL     OW29266   1.700   3.891  13.879  0.6975  1.0858  0.3437
 5877SOL    HW129267   1.655   3.927  13.956 -0.3188  0.1384  0.1807
 5877SOL    HW229268   1.729   3.803  13.902 -0.6442  0.1124 -1.7771
 5878SOL     OW29269   0.349   0.182   7.522 -0.5131 -0.1811  0.2923
 5878SOL    HW129270   0.275   0.212   7.469  1.9897  0.2961 -2.9094
 5878SOL    HW229271   0.370   0.260   7.574  0.1830 -0.1182 -0.0902
 5879SOL     OW29272   3.588   2.227  15.038  0.6743 -0.0019 -0.4604
 5879SOL    HW129273   3.594   2.221  15.133  1.2079  0.0557 -0.4876
 5879SOL    HW229274   3.559   2.142  15.003 -0.7173  0.7119 -1.0280
 5880SOL     OW29275   4.170   1.039   9.634 -0.1014 -0.1811  0.2269
 5880SOL    HW129276   4.179   1.046   9.539  2.1004 -2.5145  0.2554
 5880SOL    HW229277   4.076   1.039   9.653 -0.0611 -2.9938  0.4895
 5881SOL     OW29278   0.746   2.801   5.754  0.4361  0.2203  0.4933
 5881SOL    HW129279   0.711   2.872   5.808 -0.4936 -0.9501  1.4392
 5881SOL    HW229280   0.716   2.730   5.810  2.8002 -0.6486  0.6542
 5882SOL     OW29281   2.942   3.361   9.445 -0.0853 -0.1677  0.3886
 5882SOL    HW129282   3.015   3.409   9.406  0.4029 -0.4068  1.0123
 5882SOL    HW229283   2.945   3.373   9.540 -0.4753 -1.4903  0.5646
 5883SOL     OW29284   0.079   2.874   1.910  0.1912  0.2530 -0.4042
 5883SOL    HW129285   0.156   2.838   1.868  1.2715  0.9543  0.9812
 5883SOL    HW229286   0.120   2.948   1.954  4.1913 -1.2330 -1.6805
 5884SOL     OW29287   2.469   1.542   8.548 -0.3548  0.6845 -1.1426
 5884SOL    HW129288   2.390   1.574   8.591  0.9871 -0.0069  1.8151
 5884SOL    HW229289   2.426   1.480   8.488 -0.6896  2.4873 -2.7924
 5885SOL     OW29290   4.576   3.764  15.396 -0.3998 -0.3218  0.3331
 5885SOL    HW129291   4.510   3.706  15.358 -0.0686 -0.9346  0.6759
 5885SOL    HW229292   4.528   3.822  15.455  0.3084 -1.5620  2.1473
 5886SOL     OW29293   1.938   0.640   4.108 -0.3762 -0.6671  0.1369
 5886SOL    HW129294   1.969   0.695   4.180 -1.1191  0.6804 -0.5705
 5886SOL    HW229295   1.975   0.554   4.127  0.0506 -0.7163 -0.9128
 5887SOL     OW29296   2.515   4.112   0.879 -0.2381 -0.1964  0.1540
 5887SOL    HW129297   2.506   4.094   0.785 -0.2335 -0.1886  0.1521
 5887SOL    HW229298   2.469   4.040   0.923  0.7232 -0.7291  0.2734
 5888SOL     OW29299   0.715   1.882   7.766  0.4917 -0.2528  0.1638
 5888SOL    HW129300   0.702   1.957   7.708 -0.2864  1.3923  2.4582
 5888SOL    HW229301   0.720   1.927   7.851  1.9181  0.7016 -0.4187
 5889SOL     OW29302   3.716   1.239  14.785 -0.3895 -0.1833  0.4629
 5889SOL    HW129303   3.772   1.317  14.791 -2.8221  1.5480  0.9497
 5889SOL    HW229304   3.775   1.177  14.743  0.9809  1.7299 -0.4546
 5890SOL     OW29305   2.059   3.036   4.175  0.3698  0.0143  0.1178
 5890SOL    HW129306   2.036   3.082   4.094 -0.1034  1.1210  0.8860
 5890SOL    HW229307   1.972   3.038   4.215  0.5391 -1.4186  0.5799
 5891SOL     OW29308   2.544   0.230  15.930 -0.8488 -0.3996  0.3917
 5891SOL    HW129309   2.572   0.145  15.965  3.1956  1.2606  1.2339
 5891SOL    HW229310   2.627   0.278  15.929 -0.5742 -0.8772 -0.0879
 5892SOL     OW29311   0.031   0.946  14.928 -0.6749  0.1073 -0.3274
 5892SOL    HW129312   0.036   0.950  15.023  4.0715 -2.4462 -0.4697
 5892SOL    HW229313   4.679   0.915  14.906 -0.3926  1.0141 -2.7624
 5893SOL     OW29314   3.066   0.885  14.933 -0.0548 -0.4946  0.4182
 5893SOL    HW129315   3.012   0.808  14.949  0.5385 -0.6949  1.4354
 5893SOL    HW229316   3.001   0.951  14.911 -0.3948 -0.6495  0.9581
 5894SOL     OW29317   1.093   1.198  15.512 -0.1028 -0.0144  0.7625
 5894SOL    HW129318   1.020   1.254  15.538 -1.7607 -0.8994 -1.8968
 5894SOL    HW229319   1.154   1.190  15.585 -1.5329  1.2727  2.0868
 5895SOL     OW29320   4.041   4.532  11.169  0.2075  0.0076  0.4276
 5895SOL    HW129321   3.975   4.539  11.100 -0.6972 -0.5865  1.2317
 5895SOL    HW229322   4.001   4.582  11.240 -0.7405  1.1181 -0.8857
 5896SOL     OW29323   4.206   1.895   5.148 -0.1347  0.3137 -0.5673
 5896SOL    HW129324   4.269   1.869   5.216  0.1432 -0.2320 -1.0281
 5896SOL    HW229325   4.220   1.989   5.141 -0.6785  0.4622  0.3631
 5897SOL     OW29326   2.163   1.167   0.235 -0.4041  0.1340 -0.2550
 5897SOL    HW129327   2.172   1.242   0.178 -1.6423  0.5052  0.0331
 5897SOL    HW229328   2.087   1.199   0.285 -1.6207 -3.2299  0.0952
 5898SOL     OW29329   3.107   0.978   3.941 -0.1029  0.0641  0.6126
 5898SOL    HW129330   3.154   0.907   3.898  2.8642  1.6102  1.2946
 5898SOL    HW229331   3.184   1.032   3.957  0.7705 -0.8725 -0.4240
 5899SOL     OW29332   2.643   1.941  17.102 -0.5818  0.4266  0.5490
 5899SOL    HW129333   2.640   1.854  17.062 -0.3485  1.1717 -1.0739
 5899SOL    HW229334   2.580   1.931  17.174 -0.0690  1.2482  1.1040
 5900SOL     OW29335   4.104   2.067   3.085  0.3660 -0.1597 -1.0115
 5900SOL    HW129336   4.090   2.013   3.162  0.7948  0.4238 -0.5276
 5900SOL    HW229337   4.087   2.154   3.122 -0.5825 -0.8961  0.2642
 5901SOL     OW29338   2.202   1.832  10.971 -0.2599  0.0808 -0.3512
 5901SOL    HW129339   2.279   1.836  10.915 -1.4231 -1.1775 -2.0290
 5901SOL    HW229340   2.131   1.856  10.912 -0.1394 -0.9418 -0.9061
 5902SOL     OW29341   1.727   4.520  15.202 -0.1415  0.5208 -0.8158
 5902SOL    HW129342   1.736   4.613  15.181  0.7069  0.9532  1.4418
 5902SOL    HW229343   1.702   4.523  15.295 -0.4334  1.6737 -0.9326
 5903SOL     OW29344   3.485   3.219   4.145  0.2962  0.0035  0.3728
 5903SOL    HW129345   3.392   3.239   4.153  0.2782  0.9579 -2.1186
 5903SOL    HW229346   3.478   3.130   4.109  1.7466 -0.1711  0.5370
 5904SOL     OW29347   0.556   2.084  13.006 -0.1542  0.7156  0.2985
 5904SOL    HW129348   0.567   1.998  12.968  1.5772  0.8002  0.6297
 5904SOL    HW229349   0.529   2.134  12.929 -1.9723  0.1984  0.5976
 5905SOL     OW29350   3.378   2.329   6.620  0.9949  0.5406 -0.0756
 5905SOL    HW129351   3.306   2.391   6.620  0.1272 -0.4670 -1.4673
 5905SOL    HW229352   3.448   2.388   6.648  1.3753  0.0878 -0.0582
 5906SOL     OW29353   0.507   3.478  11.566 -0.0069  0.3643 -0.2192
 5906SOL    HW129354   0.598   3.446  11.569 -0.0310  0.0277 -2.4693
 5906SOL    HW229355   0.465   3.399  11.600 -0.7840  0.3404 -1.2213
 5907SOL     OW29356   1.800   1.584   6.247 -0.2640 -0.4646 -0.5230
 5907SOL    HW129357   1.797   1.674   6.280 -1.3742 -0.2988 -1.0821
 5907SOL    HW229358   1.843   1.587   6.161 -2.7694 -0.6672 -1.7651
 5908SOL     OW29359   0.881   1.046   0.986 -0.5535  0.5172 -0.4490
 5908SOL    HW129360   0.848   1.044   1.076  0.8562  0.3034  0.0672
 5908SOL    HW229361   0.874   0.959   0.948 -0.4495 -0.7711  2.4767
 5909SOL     OW29362   0.480   1.619   5.718  0.5808  0.3237 -0.7835
 5909SOL    HW129363   0.545   1.562   5.760 -0.4951 -0.1382  0.2451
 5909SOL    HW229364   0.418   1.626   5.790  1.5419  1.2342 -0.0523
 5910SOL     OW29365   0.774   0.324   0.720 -0.1569  0.2430  0.3170
 5910SOL    HW129366   0.767   0.229   0.714  2.3396  0.1105 -0.1534
 5910SOL    HW229367   0.857   0.344   0.677 -0.7725 -1.1993 -1.5644
 5911SOL     OW29368   4.527   1.841   2.498 -0.0683  0.0164  0.0788
 5911SOL    HW129369   4.569   1.755   2.491 -1.3191 -0.4437 -1.6885
 5911SOL    HW229370   4.491   1.848   2.587  0.1713 -0.5474  0.2218
 5912SOL     OW29371   0.087   1.011   1.947 -0.2360 -0.5106 -0.3000
 5912SOL    HW129372   0.177   0.979   1.941 -0.4202 -1.6941  3.4620
 5912SOL    HW229373   0.046   0.932   1.911  0.7434 -0.6232 -1.1701
 5913SOL     OW29374   4.110   0.663   6.228  0.0535  0.1236 -0.2365
 5913SOL    HW129375   4.104   0.756   6.206  0.6889  0.2293  0.0543
 5913SOL    HW229376   4.185   0.665   6.287 -0.2361  1.6629  0.0871
 5914SOL     OW29377   1.398   1.871  12.736  0.0492 -0.2747  0.1578
 5914SOL    HW129378   1.380   1.791  12.786 -0.4407 -0.5181 -0.4117
 5914SOL    HW229379   1.324   1.928  12.755 -0.0231  0.3786 -2.0981
 5915SOL     OW29380   3.553   2.278  13.763 -0.4560  0.5513  0.2442
 5915SOL    HW129381   3.529   2.185  13.773 -0.4419  0.5472  0.2391
 5915SOL    HW229382   3.644   2.283  13.735 -0.6967  4.3159  0.2175
 5916SOL     OW29383   0.361   3.322   3.847  0.4899 -0.4130  0.0028
 5916SOL    HW129384   0.413   3.325   3.766 -1.7030  2.3578 -1.3095
 5916SOL    HW229385   0.279   3.290   3.810  0.1956  0.8701 -0.4546
 5917SOL     OW29386   1.791   0.365   4.614 -0.1515  0.2089  0.1503
 5917SOL    HW129387   1.855   0.328   4.675  1.2355  2.0222 -0.2036
 5917SOL    HW229388   1.719   0.301   4.612 -0.1717  0.2573 -1.0496
 5918SOL     OW29389   3.985   3.510   4.684  0.0366 -0.0002  0.2999
 5918SOL    HW129390   3.993   3.543   4.595  1.1609  0.3540  0.5316
 5918SOL    HW229391   3.921   3.572   4.719 -0.7903 -0.6645 -0.0520
 5919SOL     OW29392   1.487   3.209   1.703 -0.3078  0.3016  0.0193
 5919SOL    HW129393   1.508   3.129   1.656 -1.8499  0.2895 -0.6238
 5919SOL    HW229394   1.400   3.194   1.740 -0.0189 -1.6088 -0.0949
 5920SOL     OW29395   3.455   1.919   5.514 -0.0922 -0.0161 -0.0351
 5920SOL    HW129396   3.542   1.930   5.477 -1.2566  0.5736 -2.6456
 5920SOL    HW229397   3.457   1.956   5.602 -0.2320 -1.1959  0.4657
 5921SOL     OW29398   3.076   0.416   5.728  0.2987  0.2616  0.4924
 5921SOL    HW129399   2.987   0.399   5.698  1.3462 -2.2866 -1.1997
 5921SOL    HW229400   3.119   0.388   5.647  0.9398  0.2350  0.8430
 5922SOL     OW29401   3.693   0.313   2.507 -0.2803 -0.4585  0.1457
 5922SOL    HW129402   3.662   0.276   2.424 -1.5393  1.9804 -0.4894
 5922SOL    HW229403   3.783   0.328   2.478 -0.6450 -0.4014 -0.9701
 5923SOL     OW29404   4.336   1.240   2.671  0.0284 -0.4407 -0.2244
 5923SOL    HW129405   4.350   1.238   2.576 -0.2847 -1.4751 -0.2475
 5923SOL    HW229406   4.282   1.318   2.684  1.5651  0.3692  1.3890
 5924SOL     OW29407   0.497   1.806   1.658 -0.2712  0.8013  0.0521
 5924SOL    HW129408   0.423   1.814   1.599 -0.5755  1.6374  0.5570
 5924SOL    HW229409   0.472   1.724   1.702  2.2509  0.1532  0.2802
 5925SOL     OW29410   0.635   0.456   4.537 -0.3089 -0.2294  0.2407
 5925SOL    HW129411   0.610   0.545   4.563 -1.4969 -0.3709 -0.3998
 5925SOL    HW229412   0.558   0.402   4.555 -1.7693  1.0679 -2.0543
 5926SOL     OW29413   1.334   1.518   7.529  0.6031  0.1218  0.5914
 5926SOL    HW129414   1.318   1.451   7.462 -0.7766  1.4901 -0.4385
 5926SOL    HW229415   1.420   1.547   7.498  0.1136  0.9836  0.0531
 5927SOL     OW29416   3.522   2.936  17.109  0.3175  0.0435 -0.3075
 5927SOL    HW129417   3.549   2.898  17.025  2.7293  2.9400 -0.8587
 5927SOL    HW229418   3.561   3.024  17.112 -0.9655  0.6102 -0.3782
 5928SOL     OW29419   3.444   0.550   4.552  0.3427 -0.6203  0.2504
 5928SOL    HW129420   3.502   0.519   4.622  1.4718 -0.4570 -0.6175
 5928SOL    HW229421   3.473   0.498   4.477  2.2921 -0.3522  0.8072
 5929SOL     OW29422   0.510   2.932   4.560 -0.2972  0.2364  0.0323
 5929SOL    HW129423   0.477   3.020   4.544  3.8240  1.7889  0.1652
 5929SOL    HW229424   0.520   2.941   4.654 -2.7556 -1.9949  0.5156
 5930SOL     OW29425   0.114   3.635   3.304  0.5020  0.1866  0.3371
 5930SOL    HW129426   0.110   3.651   3.399 -0.2843 -2.3407  0.7101
 5930SOL    HW229427   0.021   3.645   3.283  0.8359  0.3370 -1.0745
 5931SOL     OW29428   4.499   2.683   1.833 -0.1054  0.2293 -0.8506
 5931SOL    HW129429   4.457   2.608   1.791  2.8279 -2.2910  0.6995
 5931SOL    HW229430   4.589   2.680   1.799  0.5708 -0.2522  0.9885
 5932SOL     OW29431   1.286   0.327   8.870 -0.3450 -0.1202 -0.5182
 5932SOL    HW129432   1.351   0.260   8.847  1.3232  1.3048  0.0747
 5932SOL    HW229433   1.347   0.382   8.920 -0.2541 -1.0899  0.4524
 5933SOL     OW29434   0.644   3.113   8.026 -0.1668 -0.0990  0.3316
 5933SOL    HW129435   0.590   3.185   8.058 -0.3288 -0.0593 -0.0255
 5933SOL    HW229436   0.597   3.095   7.944 -1.1767 -2.7883  1.4905
 5934SOL     OW29437   0.368   0.397   3.663 -0.1780  0.2501  0.1643
 5934SOL    HW129438   0.442   0.419   3.719  0.5776 -0.2468 -0.6424
 5934SOL    HW229439   0.415   0.399   3.579 -0.1550  0.8960  0.1895
 5935SOL     OW29440   3.723   1.191   5.642 -0.1374  0.3275  0.2143
 5935SOL    HW129441   3.699   1.142   5.563 -1.0900 -0.4351  0.9786
 5935SOL    HW229442   3.657   1.260   5.653 -0.5121 -0.1668  1.0064
 5936SOL     OW29443   1.293   2.138   4.456  0.6377 -0.5966 -0.1806
 5936SOL    HW129444   1.217   2.080   4.449  0.1762 -0.3532  2.6070
 5936SOL    HW229445   1.282   2.184   4.539 -1.7674  1.0018 -1.3747
 5937SOL     OW29446   1.004   3.860   2.159 -0.0459  0.0790  0.5390
 5937SOL    HW129447   0.986   3.935   2.102  3.0937  0.6380  0.2961
 5937SOL    HW229448   0.958   3.885   2.239 -0.9229  1.2904 -0.3438
 5938SOL     OW29449   0.532   2.108   9.967 -0.2417  0.0378 -0.1108
 5938SOL    HW129450   0.579   2.087   9.886  1.3879 -0.7450  1.0384
 5938SOL    HW229451   0.537   2.023  10.010  0.3623 -0.3619 -0.9863
 5939SOL     OW29452   2.998   2.693   7.559 -0.1100  0.4605 -0.4570
 5939SOL    HW129453   3.043   2.629   7.504 -1.2954 -0.7651 -0.0112
 5939SOL    HW229454   2.909   2.661   7.548 -0.2886  1.1469 -1.0040
 5940SOL     OW29455   3.771   0.207  17.220  0.8686  0.1497 -0.2926
 5940SOL    HW129456   3.729   0.284  17.181 -0.0667 -0.8184 -1.1906
 5940SOL    HW229457   3.853   0.248  17.246 -1.4083  3.2882  2.0208
 5941SOL     OW29458   0.235   2.283   7.747 -0.5021 -0.2842  0.4113
 5941SOL    HW129459   0.309   2.309   7.801 -0.9391  1.3463  0.2132
 5941SOL    HW229460   0.282   2.288   7.663 -0.3321 -0.1492  0.5156
 5942SOL     OW29461   2.634   3.954   6.754  0.0851 -0.0891  0.3586
 5942SOL    HW129462   2.607   4.036   6.712  1.1968  0.6477  1.0856
 5942SOL    HW229463   2.727   3.975   6.762 -0.1461  1.5338 -1.1899
 5943SOL     OW29464   3.411   1.091   4.903 -0.5846  0.1454  0.2933
 5943SOL    HW129465   3.383   1.055   4.818  1.7175  0.7590 -0.7026
 5943SOL    HW229466   3.391   1.026   4.971  1.0213  0.3940  0.9945
 5944SOL     OW29467   3.510   3.739   9.097 -0.2846  0.4369  0.2508
 5944SOL    HW129468   3.539   3.830   9.087  1.5949 -0.0784  1.0071
 5944SOL    HW229469   3.563   3.723   9.175  1.2838  0.1453 -0.8770
 5945SOL     OW29470   2.050   3.070   6.889 -0.1413 -0.3344  0.1972
 5945SOL    HW129471   2.131   3.073   6.839 -0.0575 -1.7403  0.2340
 5945SOL    HW229472   1.979   3.084   6.827  0.7925  0.2798 -0.7205
 5946SOL     OW29473   1.883   1.227   7.681 -0.4082  0.0789  0.1562
 5946SOL    HW129474   1.891   1.231   7.586  1.5526 -0.4898  0.2834
 5946SOL    HW229475   1.849   1.315   7.700  0.8432  0.2833  1.4680
 5947SOL     OW29476   1.775   2.671   6.804  0.2226 -0.1601  0.0625
 5947SOL    HW129477   1.847   2.643   6.860 -0.9756 -2.6237  0.4016
 5947SOL    HW229478   1.707   2.672   6.872  0.8553 -3.3924  0.7674
 5948SOL     OW29479   3.214   0.303  13.672  0.3194  0.4684 -0.1781
 5948SOL    HW129480   3.252   0.247  13.739  0.9035 -0.1985 -1.0584
 5948SOL    HW229481   3.215   0.389  13.714  1.8848  0.7827 -0.8535
 5949SOL     OW29482   3.215   4.127  14.961 -0.0654 -0.3686 -0.2984
 5949SOL    HW129483   3.191   4.219  14.968 -1.2260 -0.7445  0.7184
 5949SOL    HW229484   3.303   4.127  14.924  0.0001  2.3633 -0.1419
 5950SOL     OW29485   1.022   3.536  11.909  0.8125 -0.1211 -0.3215
 5950SOL    HW129486   0.941   3.485  11.908 -0.2483  1.5775 -0.7230
 5950SOL    HW229487   1.063   3.518  11.994  0.4899 -0.3003 -0.2062
 5951SOL     OW29488   2.228   0.240   9.528  0.1862 -0.8836  0.0094
 5951SOL    HW129489   2.315   0.266   9.498  0.4202 -1.3779  0.2632
 5951SOL    HW229490   2.243   0.152   9.563 -1.0997 -1.2621 -0.3701
 5952SOL     OW29491   3.985   2.166  10.041 -0.2114 -0.3229  0.3386
 5952SOL    HW129492   3.981   2.114   9.961  3.2579  1.0500 -0.7204
 5952SOL    HW229493   3.901   2.212  10.043 -1.2978 -2.2628  0.3800
 5953SOL     OW29494   1.364   0.471  11.757 -0.3592 -0.3842  0.1385
 5953SOL    HW129495   1.405   0.453  11.841  1.5818 -1.1448 -0.9924
 5953SOL    HW229496   1.449   0.500  11.724 -1.4553  0.2675 -2.1028
 5954SOL     OW29497   3.934   4.068   6.992  0.1712 -0.0169  0.2571
 5954SOL    HW129498   3.981   3.999   7.040 -0.9113  0.1794  1.6053
 5954SOL    HW229499   3.978   4.071   6.907  0.3303 -0.0814  0.3364
 5955SOL     OW29500   2.322   0.821  17.098  0.1897  0.3991  0.2832
 5955SOL    HW129501   2.400   0.839  17.045  0.2901 -0.2671  0.2017
 5955SOL    HW229502   2.267   0.895  17.071  1.8470  1.6009  0.2003
 5956SOL     OW29503   1.514   4.087   2.493  0.1003  0.0423 -1.0514
 5956SOL    HW129504   1.481   4.107   2.405  2.4096 -1.1099 -2.1941
 5956SOL    HW229505   1.529   3.993   2.495 -0.7735 -0.0819 -0.6344
 5957SOL     OW29506   1.669   3.163  15.848 -0.0190 -0.7358 -0.3592
 5957SOL    HW129507   1.678   3.257  15.862  1.0995 -1.1881  2.0109
 5957SOL    HW229508   1.696   3.118  15.928  0.9541 -1.0637 -0.8728
 5958SOL     OW29509   1.522   3.717  10.141  0.0406  0.4802  0.2749
 5958SOL    HW129510   1.591   3.713  10.207  1.2243  0.0026 -0.9957
 5958SOL    HW229511   1.446   3.683  10.188 -1.0596  1.9931 -0.4020
 5959SOL     OW29512   1.191   3.088   7.500  0.0832  0.3788 -0.3779
 5959SOL    HW129513   1.228   3.045   7.577 -1.0685 -1.7866 -1.0297
 5959SOL    HW229514   1.100   3.059   7.503 -0.1900  0.8454 -3.8084
 5960SOL     OW29515   4.200   4.347  12.176  0.4078 -0.1676  0.4124
 5960SOL    HW129516   4.164   4.299  12.251 -0.5963 -0.9639 -0.5953
 5960SOL    HW229517   4.148   4.321  12.100 -0.0839  3.3678 -0.4979
 5961SOL     OW29518   3.313   0.807   3.111 -0.0101  0.1055 -0.1568
 5961SOL    HW129519   3.384   0.867   3.088 -0.0368  0.1345 -0.1647
 5961SOL    HW229520   3.289   0.761   3.031 -1.2881  0.1329  0.2115
 5962SOL     OW29521   4.483   1.385   8.584  0.1142  0.2204  0.4518
 5962SOL    HW129522   4.400   1.338   8.584 -0.6846  1.6180 -0.0207
 5962SOL    HW229523   4.459   1.457   8.524 -3.1310  0.1408  1.6291
 5963SOL     OW29524   1.179   2.562   0.964 -0.2625 -0.0101  0.3816
 5963SOL    HW129525   1.149   2.625   1.030 -1.4659 -0.8009  0.5944
 5963SOL    HW229526   1.149   2.610   0.887  2.3132 -1.3456 -1.4424
 5964SOL     OW29527   3.445   1.918   2.557  0.1508 -0.1880 -0.4201
 5964SOL    HW129528   3.350   1.923   2.549  0.1193 -2.7468 -1.4856
 5964SOL    HW229529   3.435   1.849   2.622 -0.7697  0.6741  0.3519
 5965SOL     OW29530   4.209   3.054  13.214 -0.3695 -0.8231 -0.5640
 5965SOL    HW129531   4.256   3.097  13.285  0.9591  0.9123 -2.4904
 5965SOL    HW229532   4.128   3.029  13.260  0.0041  0.6350  0.8818
 5966SOL     OW29533   0.827   3.661   0.924  0.5415  0.0801 -0.3267
 5966SOL    HW129534   0.858   3.646   1.013  1.0881  1.9327 -0.2068
 5966SOL    HW229535   0.808   3.573   0.892  3.0686 -0.6441  0.2232
 5967SOL     OW29536   3.481   1.402  14.688  0.2049 -0.0298  0.0562
 5967SOL    HW129537   3.570   1.375  14.709 -0.0447 -0.5922  0.3830
 5967SOL    HW229538   3.493   1.438  14.600  1.5441  1.0935  0.7026
 5968SOL     OW29539   4.067   1.161   7.618  0.0208 -0.2084  0.4148
 5968SOL    HW129540   4.028   1.176   7.704  0.0830  0.2899  0.3570
 5968SOL    HW229541   3.987   1.130   7.573  0.2573  1.0595 -0.8702
 5969SOL     OW29542   1.314   2.824   2.982 -0.1637 -0.0518  0.1345
 5969SOL    HW129543   1.277   2.893   2.927  1.5564 -0.4238 -1.5021
 5969SOL    HW229544   1.262   2.750   2.951 -0.4444 -0.1409  0.8037
 5970SOL     OW29545   2.082   2.809   6.218 -0.5101 -0.2649  0.3802
 5970SOL    HW129546   2.096   2.881   6.279 -0.7341  1.6519 -1.8302
 5970SOL    HW229547   2.017   2.755   6.261 -0.9014 -0.1022 -0.0046
 5971SOL     OW29548   3.170   2.890   7.531 -0.3608 -0.1682  0.4218
 5971SOL    HW129549   3.122   2.809   7.548  0.8397 -1.1525 -0.8852
 5971SOL    HW229550   3.139   2.949   7.600  2.0728  0.6798  0.7747
 5972SOL     OW29551   3.673   3.106   5.561 -0.2948 -0.4633 -0.0018
 5972SOL    HW129552   3.643   3.160   5.634  0.0736 -2.9788  2.0109
 5972SOL    HW229553   3.725   3.171   5.513 -0.4213 -0.4147 -0.0724
 5973SOL     OW29554   2.306   2.351   7.416 -0.3791 -0.7298 -0.0341
 5973SOL    HW129555   2.313   2.438   7.377 -1.0504 -0.9690 -0.6722
 5973SOL    HW229556   2.302   2.302   7.334  0.3325 -0.3544 -0.3009
 5974SOL     OW29557   2.037   4.083  11.983  0.0923  0.2849  0.4096
 5974SOL    HW129558   2.088   4.163  11.988  1.3951 -0.5657  0.5475
 5974SOL    HW229559   1.956   4.119  12.020 -0.4720  0.1754 -0.7317
 5975SOL     OW29560   0.248   2.713  13.401 -0.6714  0.2770 -0.4330
 5975SOL    HW129561   0.249   2.700  13.496 -0.6417  1.5571 -0.2632
 5975SOL    HW229562   0.206   2.633  13.368 -2.7923  1.1789  0.1225
 5976SOL     OW29563   0.696   2.762   4.267  0.2208  0.2606  0.5253
 5976SOL    HW129564   0.636   2.732   4.335 -1.8327  2.6208 -0.2441
 5976SOL    HW229565   0.645   2.819   4.209 -0.7192 -2.3208 -1.2175
 5977SOL     OW29566   0.992   1.772   4.630 -0.6399 -0.1024  0.4988
 5977SOL    HW129567   0.957   1.853   4.669 -0.6278  0.4060 -0.5525
 5977SOL    HW229568   1.083   1.799   4.628 -0.8081  0.4251 -0.0427
 5978SOL     OW29569   2.336   3.659   3.610  0.9183  0.8109 -0.0977
 5978SOL    HW129570   2.352   3.750   3.582  0.2188  1.0571  0.3036
 5978SOL    HW229571   2.365   3.616   3.529  1.8403  0.6394  0.3308
 5979SOL     OW29572   2.409   4.399   6.845 -0.1024  0.3699 -0.3899
 5979SOL    HW129573   2.379   4.484   6.814 -0.1068  0.5093 -0.0038
 5979SOL    HW229574   2.334   4.374   6.899  1.2943 -1.3337  0.7597
 5980SOL     OW29575   0.067   1.649   1.849 -0.5660 -0.1026 -0.3330
 5980SOL    HW129576   0.042   1.576   1.906 -1.8612 -0.3828 -1.2709
 5980SOL    HW229577   0.117   1.706   1.908  1.2700 -0.1921 -1.7925
 5981SOL     OW29578   0.975   0.800   3.133  0.3063  0.3521 -0.0623
 5981SOL    HW129579   0.995   0.861   3.205  0.8168 -1.3937  1.2813
 5981SOL    HW229580   1.015   0.847   3.060  0.2818 -0.3388 -0.5107
 5982SOL     OW29581   0.525   3.432   5.215  0.5023  0.0735 -0.5661
 5982SOL    HW129582   0.529   3.342   5.249 -1.3804 -0.2870 -1.3065
 5982SOL    HW229583   0.590   3.422   5.145 -1.1434  1.0711 -2.2238
 5983SOL     OW29584   1.500   3.141   9.490 -0.3702 -0.1883  0.3330
 5983SOL    HW129585   1.509   3.148   9.395  1.2979 -2.5594  0.3075
 5983SOL    HW229586   1.492   3.046   9.492  1.0794 -0.2892  2.4397
 5984SOL     OW29587   3.690   3.529  15.065  0.1073 -0.2588  0.1080
 5984SOL    HW129588   3.720   3.469  14.996  3.1559 -0.7814  1.8796
 5984SOL    HW229589   3.595   3.522  15.057  0.3495 -2.4536 -0.8684
 5985SOL     OW29590   1.944   2.009   9.043 -0.4250 -0.1117 -0.3474
 5985SOL    HW129591   1.912   2.016   9.133 -0.7413  1.0222 -0.5397
 5985SOL    HW229592   2.017   1.949   9.052  0.9157  1.3386 -1.6457
 5986SOL     OW29593   0.186   0.784   2.383 -0.2621  0.5524  0.1827
 5986SOL    HW129594   0.161   0.692   2.378  0.4151  0.4944 -1.8665
 5986SOL    HW229595   0.281   0.774   2.386 -0.4342 -0.8754  1.0092
 5987SOL     OW29596   1.164   3.758  14.592 -0.5755  0.2978  0.2153
 5987SOL    HW129597   1.137   3.683  14.646  1.2246 -1.2044 -0.9690
 5987SOL    HW229598   1.259   3.746  14.590 -0.6704 -0.6135  0.8774
 5988SOL     OW29599   2.698   1.942   7.873 -0.3854 -0.7854 -0.4490
 5988SOL    HW129600   2.736   1.896   7.948 -2.3335 -1.8442 -0.0886
 5988SOL    HW229601   2.668   1.870   7.817 -1.6031 -1.0364  0.5061
 5989SOL     OW29602   4.120   1.413   2.715 -0.3250  0.2976 -0.5214
 5989SOL    HW129603   4.080   1.425   2.801  1.0026  1.9055 -0.1225
 5989SOL    HW229604   4.056   1.352   2.680  0.1641  0.1346 -1.1433
 5990SOL     OW29605   3.220   0.938   6.558  0.5309  0.0758 -0.1384
 5990SOL    HW129606   3.201   1.031   6.572  0.7330 -0.1475  1.6264
 5990SOL    HW229607   3.135   0.901   6.533  0.8212  0.5752 -1.8954
 5991SOL     OW29608   4.414   3.733   5.412 -0.2995  0.1796  0.5184
 5991SOL    HW129609   4.325   3.708   5.386  0.0347  0.6247 -1.0671
 5991SOL    HW229610   4.410   3.740   5.508  1.1956 -2.1285  0.7322
 5992SOL     OW29611   2.159   4.291   5.029 -0.0648 -0.1873 -0.2922
 5992SOL    HW129612   2.069   4.318   5.049  0.1431  0.9811 -0.9424
 5992SOL    HW229613   2.152   4.205   5.071 -0.4107  0.0012  0.0370
 5993SOL     OW29614   4.279   3.977   6.207 -0.2584 -0.1863 -0.8862
 5993SOL    HW129615   4.344   3.910   6.184  0.1515 -0.5119  1.2096
 5993SOL    HW229616   4.246   4.012   6.125 -0.0095  2.9462  0.3487
 5994SOL     OW29617   0.942   0.067   7.676 -0.1139  0.0401 -0.2277
 5994SOL    HW129618   0.877   4.734   7.667  1.3310 -1.6028  1.8698
 5994SOL    HW229619   0.891   0.142   7.645  0.8078  0.2531 -1.2076
 5995SOL     OW29620   0.870   4.179   2.827  0.0545 -0.2344  0.2651
 5995SOL    HW129621   0.894   4.271   2.837  2.2550 -0.5432 -2.1895
 5995SOL    HW229622   0.942   4.139   2.876 -1.2528 -1.7257  1.0166
 5996SOL     OW29623   1.616   0.871   7.658  0.0221 -0.2330  0.1694
 5996SOL    HW129624   1.632   0.957   7.697  1.2626 -0.5098  0.2998
 5996SOL    HW229625   1.636   0.815   7.733  3.0450 -0.1147 -0.5233
 5997SOL     OW29626   0.504   1.699   0.704 -0.0865  0.0281  0.2224
 5997SOL    HW129627   0.519   1.747   0.623  0.6850  0.4600  0.6232
 5997SOL    HW229628   0.529   1.758   0.775  1.1016  0.0918 -0.2586
 5998SOL     OW29629   0.323   1.640   2.206  0.6443 -0.0122 -0.1489
 5998SOL    HW129630   0.353   1.693   2.133  0.2728  0.2014 -0.1488
 5998SOL    HW229631   0.229   1.660   2.204  0.0820 -2.3302  3.1887
 5999SOL     OW29632   0.705   2.445   6.472  0.2957 -0.8465 -0.3302
 5999SOL    HW129633   0.639   2.464   6.539  0.7360  0.8286 -0.3813
 5999SOL    HW229634   0.660   2.453   6.388 -1.1708  0.3092  0.5546
 6000SOL     OW29635   0.137   2.972   6.512 -0.2032 -0.2750 -0.0132
 6000SOL    HW129636   0.123   3.065   6.490 -1.2015  0.0844  2.1900
 6000SOL    HW229637   0.051   2.957   6.552 -0.1499  1.1520  0.6426
 6001SOL     OW29638   2.648   3.310   5.002  0.0465 -0.2516  0.0154
 6001SOL    HW129639   2.722   3.262   5.038  1.5927  1.1506 -1.2823
 6001SOL    HW229640   2.580   3.243   4.988 -1.3084  1.0283  0.4090
 6002SOL     OW29641   2.009   3.081  16.134 -0.4479  0.0492 -0.1384
 6002SOL    HW129642   2.059   3.140  16.191  2.3244 -2.7751  0.3375
 6002SOL    HW229643   2.045   2.994  16.152  0.5643  0.3176 -0.8715
 6003SOL     OW29644   4.631   4.389   1.121 -0.0049 -0.3464  0.1392
 6003SOL    HW129645   4.667   4.436   1.046 -2.2234  0.3004 -0.4956
 6003SOL    HW229646   4.714   4.363   1.161  0.5231 -0.2889 -0.9087
 6004SOL     OW29647   0.104   0.051   2.895  0.6519 -0.5975  0.0761
 6004SOL    HW129648   0.048   4.712   2.910  1.0067 -1.3789 -2.5372
 6004SOL    HW229649   0.105   0.051   2.799  0.5365 -1.6080  0.0757
 6005SOL     OW29650   2.097   4.584   6.123 -1.1404 -0.3263 -0.8110
 6005SOL    HW129651   2.020   4.536   6.153 -1.9971  1.4243 -0.2166
 6005SOL    HW229652   2.053   4.663   6.091  1.2400  2.0415  1.8518
 6006SOL     OW29653   3.700   2.505   2.326  0.2192  0.3401  0.2770
 6006SOL    HW129654   3.714   2.517   2.232 -0.7099 -1.7871 -0.1431
 6006SOL    HW229655   3.623   2.449   2.319 -0.3397  1.1234  0.1516
 6007SOL     OW29656   0.408   2.444   4.346  1.1504  0.1320  0.4123
 6007SOL    HW129657   0.398   2.439   4.251 -2.7223  2.9715  0.6495
 6007SOL    HW229658   0.433   2.536   4.353  2.4101  0.0592 -2.9470
 6008SOL     OW29659   3.348   1.964   3.096  0.1816  0.0392  1.0405
 6008SOL    HW129660   3.276   1.954   3.158  0.3260  1.6080  1.4794
 6008SOL    HW229661   3.304   1.948   3.013  1.4505  0.2906  0.3193
 6009SOL     OW29662   3.703   3.140  13.462  0.2188  0.1510 -0.7306
 6009SOL    HW129663   3.616   3.159  13.497 -0.1031 -0.8889 -0.9722
 6009SOL    HW229664   3.678   3.166  13.374  1.1891  2.1651 -0.4100
 6010SOL     OW29665   4.047   2.172  11.720 -0.0388 -0.0952 -0.1370
 6010SOL    HW129666   4.074   2.085  11.747  0.7345 -0.2663 -1.4508
 6010SOL    HW229667   4.111   2.234  11.755 -1.4171  0.7621  0.8961
 6011SOL     OW29668   0.665   2.974  14.297 -0.0746 -0.4270 -0.3818
 6011SOL    HW129669   0.717   2.897  14.272 -0.1152 -0.3734 -0.6317
 6011SOL    HW229670   0.633   2.996  14.210 -1.7104  1.1860  0.6375
 6012SOL     OW29671   2.007   2.128   7.124 -0.6344  0.1561 -0.1232
 6012SOL    HW129672   2.068   2.195   7.157  0.3758 -0.9907  0.3187
 6012SOL    HW229673   2.049   2.043   7.123 -1.3156 -0.1879  0.4781
 6013SOL     OW29674   2.080   2.099   8.197  0.6045 -0.2664  0.3337
 6013SOL    HW129675   2.112   2.156   8.267 -1.4447 -1.4847  2.2282
 6013SOL    HW229676   2.056   2.028   8.256 -0.8258  0.8143  1.0289
 6014SOL     OW29677   1.406   1.774  10.013  0.3087  0.1095  0.6993
 6014SOL    HW129678   1.332   1.834  10.013 -1.2450 -1.8245  1.7342
 6014SOL    HW229679   1.377   1.708   9.949  0.6503 -0.7424  1.4241
 6015SOL     OW29680   3.296   3.076   5.163  0.4182  0.3201  0.4042
 6015SOL    HW129681   3.248   3.156   5.186 -1.4887 -1.2386  1.8553
 6015SOL    HW229682   3.366   3.061   5.227  0.5007 -1.3629 -0.0932
 6016SOL     OW29683   1.434   1.659   2.584  0.3062 -0.4086 -0.0223
 6016SOL    HW129684   1.477   1.739   2.615  1.2293 -0.7741 -0.3741
 6016SOL    HW229685   1.407   1.622   2.668  0.2491  0.7942  0.4987
 6017SOL     OW29686   1.707   2.320   2.472 -0.1672 -0.0151 -0.4974
 6017SOL    HW129687   1.788   2.370   2.479 -0.1377 -0.3703  1.6146
 6017SOL    HW229688   1.736   2.231   2.450 -1.3367 -0.9187  1.6018
 6018SOL     OW29689   4.443   4.060  15.308  0.1542  0.6340 -0.0028
 6018SOL    HW129690   4.375   3.993  15.319  0.7606 -0.1798 -1.2014
 6018SOL    HW229691   4.408   4.125  15.247  1.4578  3.4069  2.2200
 6019SOL     OW29692   1.459   3.356   2.789  0.2132 -0.1851  0.4318
 6019SOL    HW129693   1.416   3.424   2.737  0.0736  0.1603  0.9995
 6019SOL    HW229694   1.408   3.278   2.767  1.1159 -0.7181  0.2073
 6020SOL     OW29695   1.190   3.319   0.514 -0.0001  0.3057  0.6548
 6020SOL    HW129696   1.239   3.245   0.478 -3.3197 -2.1195  1.1509
 6020SOL    HW229697   1.173   3.379   0.441 -1.4458 -0.3796  0.4245
 6021SOL     OW29698   4.325   2.914   8.380  0.2792  0.0601 -0.1589
 6021SOL    HW129699   4.376   2.869   8.447 -0.7988 -0.5460  0.2463
 6021SOL    HW229700   4.324   3.006   8.408 -1.3044 -0.3773  1.1752
 6022SOL     OW29701   2.165   2.907   9.637  0.5327 -0.4446 -0.5594
 6022SOL    HW129702   2.103   2.834   9.629 -0.7774  0.8207 -1.9429
 6022SOL    HW229703   2.107   2.982   9.649  0.0567 -0.9137  0.0616
 6023SOL     OW29704   1.608   2.185  14.894 -0.3243 -0.6585 -0.6018
 6023SOL    HW129705   1.672   2.138  14.947 -3.0119 -0.5206  2.7316
 6023SOL    HW229706   1.572   2.116  14.839  1.8630 -1.0293 -1.5673
 6024SOL     OW29707   2.593   4.151   2.066  0.5116 -0.2070  0.6962
 6024SOL    HW129708   2.643   4.232   2.074  0.5192 -0.1160 -0.2531
 6024SOL    HW229709   2.599   4.130   1.973 -1.9763  1.5113  0.1722
 6025SOL     OW29710   2.710   3.473   3.409  0.2599  0.9825  0.0360
 6025SOL    HW129711   2.684   3.384   3.433 -0.6758  1.7935  2.0006
 6025SOL    HW229712   2.694   3.503   3.499  0.0344 -1.8407  0.9329
 6026SOL     OW29713   2.796   0.973   1.867  0.4821 -0.4264 -0.1124
 6026SOL    HW129714   2.784   0.923   1.948 -1.8222  2.0429  1.1174
 6026SOL    HW229715   2.797   1.066   1.892  0.6743 -0.1256 -1.2424
 6027SOL     OW29716   1.427   3.048   3.093  0.5513  0.3236  0.0310
 6027SOL    HW129717   1.393   2.965   3.061  0.7282  0.2716 -0.0223
 6027SOL    HW229718   1.506   3.017   3.136 -0.4037 -2.0899  0.0230
 6028SOL     OW29719   2.699   2.325   3.104 -0.1671  0.3587  0.7810
 6028SOL    HW129720   2.773   2.265   3.114 -1.4248 -1.3029 -0.0010
 6028SOL    HW229721   2.663   2.295   3.021 -2.0995  1.1528  1.3283
 6029SOL     OW29722   0.488   3.529   3.343  0.0310 -0.1614  0.1438
 6029SOL    HW129723   0.575   3.531   3.381  0.4702 -1.8728 -0.7753
 6029SOL    HW229724   0.499   3.457   3.281  1.4735  1.0854 -1.0695
 6030SOL     OW29725   4.083   3.224  10.469 -0.5383  0.4493 -0.3228
 6030SOL    HW129726   4.007   3.169  10.490  0.0921  0.0059  0.8313
 6030SOL    HW229727   4.087   3.278  10.548 -1.6946 -1.4336  1.0585
 6031SOL     OW29728   2.373   1.265   6.072  0.2218 -0.2316  0.5462
 6031SOL    HW129729   2.345   1.334   6.132  0.1497 -1.0905  1.5106
 6031SOL    HW229730   2.455   1.300   6.038  1.1566 -1.6036  1.3707
 6032SOL     OW29731   3.694   2.485   8.818  0.2863  0.2484 -0.0539
 6032SOL    HW129732   3.616   2.431   8.817  0.4041  0.0658  0.7827
 6032SOL    HW229733   3.728   2.483   8.907 -3.0359  1.1524  1.2481
 6033SOL     OW29734   1.059   0.803  11.815  0.2340 -0.6911  0.2313
 6033SOL    HW129735   1.121   0.755  11.761  2.9855  1.0111  1.8600
 6033SOL    HW229736   1.011   0.854  11.750  0.7598  0.2748  0.5989
 6034SOL     OW29737   2.958   4.571  10.961  0.4734  0.1193 -0.3349
 6034SOL    HW129738   2.986   4.502  10.900  0.3536 -0.0673 -0.1801
 6034SOL    HW229739   3.038   4.621  10.950  1.0307 -0.5396  0.6415
 6035SOL     OW29740   3.862   1.606   5.508  0.1011  0.2116  0.7390
 6035SOL    HW129741   3.939   1.575   5.461 -0.2996  2.0831 -1.1743
 6035SOL    HW229742   3.866   1.562   5.592  0.6546 -2.0484 -0.4845
 6036SOL     OW29743   2.263   2.347   4.694  0.2851 -0.8162 -0.6098
 6036SOL    HW129744   2.232   2.386   4.612  0.4169  1.0143  0.1983
 6036SOL    HW229745   2.182   2.314   4.732 -0.0277  1.9514  1.1458
 6037SOL     OW29746   0.230   1.121   4.254 -0.0397 -0.2278  0.5444
 6037SOL    HW129747   0.298   1.188   4.252  0.9229 -1.2700 -1.2253
 6037SOL    HW229748   0.246   1.061   4.181  1.9713  1.1956 -0.1700
 6038SOL     OW29749   2.495   0.899   5.695  0.6251 -0.3436 -0.4425
 6038SOL    HW129750   2.500   0.896   5.600 -0.6051 -0.7512 -0.4855
 6038SOL    HW229751   2.404   0.873   5.701  0.6752 -0.5076 -0.3936
 6039SOL     OW29752   2.172   4.123  15.634  0.3781 -0.4411 -0.2743
 6039SOL    HW129753   2.092   4.087  15.596 -0.2596 -0.6496  1.2416
 6039SOL    HW229754   2.136   4.175  15.706 -1.8851 -1.8645 -0.3682
 6040SOL     OW29755   3.840   1.279  12.561 -0.3070 -0.3361  0.3622
 6040SOL    HW129756   3.813   1.361  12.603 -0.1705 -0.5826  0.9256
 6040SOL    HW229757   3.761   1.260  12.509  0.6649 -0.7698 -0.9726
 6041SOL     OW29758   3.817   4.492  10.713  0.2278 -0.1989  0.1666
 6041SOL    HW129759   3.792   4.542  10.635  1.8623 -2.4677 -1.7955
 6041SOL    HW229760   3.910   4.475  10.698  0.5836  1.3963  0.4843
 6042SOL     OW29761   0.225   0.075   3.147  0.1784 -0.0096  0.2992
 6042SOL    HW129762   0.161   0.090   3.078  0.9698 -3.8295 -1.2569
 6042SOL    HW229763   0.308   0.074   3.099 -0.2220  1.6744 -0.4443
 6043SOL     OW29764   1.051   3.167   3.214  0.3469 -0.1465 -0.1805
 6043SOL    HW129765   1.085   3.137   3.298 -1.1502  1.0456  0.8619
 6043SOL    HW229766   1.000   3.091   3.187  0.0240 -0.2364  0.6883
 6044SOL     OW29767   0.431   0.736   0.024  0.0370 -0.0046 -0.1427
 6044SOL    HW129768   0.390   0.797   0.086  1.1438 -0.4917  1.0701
 6044SOL    HW229769   0.350   0.705  17.728 -0.5974  2.4816 -0.7530
 6045SOL     OW29770   3.332   3.965   3.383  0.0285 -0.1060 -0.1806
 6045SOL    HW129771   3.284   4.046   3.364  0.6432 -0.4664 -3.2228
 6045SOL    HW229772   3.270   3.893   3.370 -0.0513 -0.3690  1.6684
 6046SOL     OW29773   4.442   0.765   3.730  0.4179 -0.0397  0.5951
 6046SOL    HW129774   4.430   0.692   3.669 -0.6826 -0.8069  1.7358
 6046SOL    HW229775   4.536   0.782   3.726  0.5059 -1.0879 -1.8273
 6047SOL     OW29776   1.249   1.844   4.586  0.4853 -0.3306 -0.3993
 6047SOL    HW129777   1.321   1.796   4.546  2.2232 -0.2042  2.6075
 6047SOL    HW229778   1.298   1.911   4.635  0.2082  2.1142 -3.4619
 6048SOL     OW29779   2.083   1.776  16.870 -0.3454 -0.0853 -0.0434
 6048SOL    HW129780   2.043   1.767  16.956 -0.5888 -1.6742 -0.3195
 6048SOL    HW229781   2.009   1.797  16.813 -0.2546  1.4455  0.3951
 6049SOL     OW29782   1.695   0.263   2.833 -0.1724  0.1360  0.2291
 6049SOL    HW129783   1.650   0.276   2.916 -3.6351  0.2782 -1.6769
 6049SOL    HW229784   1.743   0.181   2.847 -0.0194  0.5628  2.1315
 6050SOL     OW29785   0.716   3.820   9.914 -0.1003 -0.0644  0.5326
 6050SOL    HW129786   0.768   3.765   9.973  0.1339 -1.7262 -1.2251
 6050SOL    HW229787   0.668   3.858   9.988 -0.0286  2.1186 -0.5470
 6051SOL     OW29788   0.491   1.242  16.457  0.8687  0.2090  0.3808
 6051SOL    HW129789   0.400   1.259  16.435  0.6813 -0.3424  0.7450
 6051SOL    HW229790   0.511   1.303  16.528 -0.4210 -1.5235  2.2117
 6052SOL     OW29791   0.182   2.919   2.847  0.3396  0.1128  0.0259
 6052SOL    HW129792   0.094   2.954   2.829  1.6109  1.8844 -2.7568
 6052SOL    HW229793   0.228   3.003   2.850 -1.3042  1.0408 -0.9496
 6053SOL     OW29794   0.769   1.423   7.492 -0.0162 -0.2762  0.4574
 6053SOL    HW129795   0.815   1.499   7.457 -1.4952  0.3208 -0.2296
 6053SOL    HW229796   0.745   1.448   7.581 -2.2554  0.9500 -0.4850
 6054SOL     OW29797   2.752   1.688  11.699 -0.3674  0.2704  0.1722
 6054SOL    HW129798   2.710   1.713  11.781 -1.2085  1.6491 -0.6941
 6054SOL    HW229799   2.690   1.631  11.653 -0.3482 -0.2249  0.7579
 6055SOL     OW29800   2.413   0.562  11.325  0.3644 -0.4892 -0.7610
 6055SOL    HW129801   2.418   0.578  11.419 -0.7802 -1.7822 -0.4739
 6055SOL    HW229802   2.328   0.518  11.331  0.3082 -0.1163  1.1559
 6056SOL     OW29803   0.665   1.020   6.359 -0.1349 -0.2288  0.4406
 6056SOL    HW129804   0.661   0.934   6.316 -2.0136 -0.1010  0.3848
 6056SOL    HW229805   0.587   1.062   6.324 -1.0814 -3.1410 -1.0119
 6057SOL     OW29806   0.358   3.781   3.258  0.6150  0.4634  0.2589
 6057SOL    HW129807   0.274   3.737   3.274 -0.7514  1.9497 -2.6262
 6057SOL    HW229808   0.427   3.716   3.267 -1.4184 -2.0703 -2.2751
 6058SOL     OW29809   3.971   2.725   5.146  0.1825 -0.0129 -0.6711
 6058SOL    HW129810   4.036   2.666   5.109  0.0221 -1.5155  1.4530
 6058SOL    HW229811   3.910   2.733   5.072 -0.2156  0.8725 -0.2529
 6059SOL     OW29812   2.136   3.551   5.057  0.0476  0.1622  0.0424
 6059SOL    HW129813   2.133   3.465   5.099  0.6393  0.3986  0.5659
 6059SOL    HW229814   2.168   3.601   5.132 -1.0084  0.8674  0.0195
 6060SOL     OW29815   1.105   0.054   9.265  0.0167 -0.3081  0.6111
 6060SOL    HW129816   1.085   0.142   9.232  0.5661  0.0761  1.3064
 6060SOL    HW229817   1.161   0.064   9.342  3.0733  0.8968 -1.7575
 6061SOL     OW29818   1.607   0.150   6.732 -0.6557  0.1011  0.5126
 6061SOL    HW129819   1.638   0.166   6.822  1.0352  1.1220 -0.2633
 6061SOL    HW229820   1.586   0.057   6.741 -1.8840  0.4021  0.6622
 6062SOL     OW29821   4.156   0.565   2.397 -0.3719  0.7500  0.1866
 6062SOL    HW129822   4.144   0.471   2.410  1.7806  0.1914 -1.8928
 6062SOL    HW229823   4.192   0.572   2.308  1.5469 -2.3382  0.7176
 6063SOL     OW29824   1.091   4.071   8.955  0.3357 -0.2661  0.1464
 6063SOL    HW129825   1.146   4.050   8.879 -0.6488 -0.2655 -0.5701
 6063SOL    HW229826   1.077   4.165   8.945 -0.0137 -0.3924 -0.6285
 6064SOL     OW29827   1.640   3.641  12.600  0.5205 -0.8719 -0.1988
 6064SOL    HW129828   1.655   3.547  12.609 -1.3269 -1.4350 -3.1951
 6064SOL    HW229829   1.567   3.649  12.661 -0.4996  1.1499 -1.6914
 6065SOL     OW29830   3.573   0.190   4.147 -0.4691  0.2999  0.1875
 6065SOL    HW129831   3.660   0.203   4.109 -0.5034 -0.2242 -0.0697
 6065SOL    HW229832   3.585   0.218   4.238 -1.6850 -2.8387  1.3129
 6066SOL     OW29833   2.770   2.133  17.496 -0.3161 -0.3975 -0.0278
 6066SOL    HW129834   2.720   2.051  17.497 -0.1984 -0.4557  1.0623
 6066SOL    HW229835   2.702   2.193  17.529 -0.0537 -0.1829  0.1280
 6067SOL     OW29836   2.251   2.024   4.800  0.1743  0.0188  0.6067
 6067SOL    HW129837   2.179   2.087   4.789  0.7816  0.6875  0.4135
 6067SOL    HW229838   2.211   1.943   4.768  1.4604 -0.0347 -0.8601
 6068SOL     OW29839   2.931   1.364  17.442 -0.2533 -0.3352 -0.0711
 6068SOL    HW129840   3.017   1.322  17.437 -0.3523 -0.5780  0.2248
 6068SOL    HW229841   2.901   1.335  17.356 -0.0508  0.3951 -0.3836
 6069SOL     OW29842   4.301   3.111  12.777  0.2955  0.1705  0.3165
 6069SOL    HW129843   4.322   3.111  12.870 -1.5365 -1.8207  0.7298
 6069SOL    HW229844   4.206   3.097  12.782  0.4257 -1.5007 -1.6354
 6070SOL     OW29845   2.590   0.771  14.243 -0.2166 -0.2703  1.0135
 6070SOL    HW129846   2.675   0.793  14.280  0.3956  1.1504 -1.2335
 6070SOL    HW229847   2.545   0.855  14.250 -0.7589 -0.4102 -0.8105
 6071SOL     OW29848   0.073   0.591   2.762  0.9451  0.0513 -0.0406
 6071SOL    HW129849   0.054   0.533   2.688 -1.2847  1.3011 -0.4570
 6071SOL    HW229850   0.021   0.546   2.828 -0.0463 -2.0903 -2.2555
 6072SOL     OW29851   3.908   0.295   5.533 -0.2305  0.4604  0.0581
 6072SOL    HW129852   3.848   0.294   5.459  1.1220  0.2735 -1.0335
 6072SOL    HW229853   3.998   0.309   5.503 -0.9612 -2.0894 -3.2949
 6073SOL     OW29854   4.632   3.223   3.905 -0.1641 -0.3803 -0.3201
 6073SOL    HW129855   4.689   3.202   3.980 -1.2078  0.0760  0.5934
 6073SOL    HW229856   4.553   3.203   3.954  1.7665  1.6209  3.6590
 6074SOL     OW29857   3.845   3.738   5.685 -0.1098  0.4075  0.5637
 6074SOL    HW129858   3.803   3.709   5.766  0.1201 -0.6862  0.2970
 6074SOL    HW229859   3.779   3.749   5.616  1.0246  0.6367 -0.4914
 6075SOL     OW29860   3.255   2.293   4.847 -0.5621  0.6103 -0.1168
 6075SOL    HW129861   3.253   2.201   4.818  0.3100  0.8783 -1.0290
 6075SOL    HW229862   3.266   2.282   4.941 -0.0240  0.0545 -0.2403
 6076SOL     OW29863   3.014   2.646   9.100  0.2654 -0.4130  0.4053
 6076SOL    HW129864   2.940   2.684   9.148  0.6312 -1.4625  1.8251
 6076SOL    HW229865   2.974   2.563   9.076 -0.8101  0.5401 -1.0740
 6077SOL     OW29866   2.818   2.189  17.226  0.4209  0.4283 -0.0259
 6077SOL    HW129867   2.823   2.177  17.321 -1.6347 -0.9400 -0.0957
 6077SOL    HW229868   2.761   2.266  17.225 -1.4204 -0.9950 -3.5992
 6078SOL     OW29869   4.401   4.405   8.725  0.4107 -0.6285 -0.0770
 6078SOL    HW129870   4.449   4.325   8.702  2.5118  0.7832 -0.6935
 6078SOL    HW229871   4.473   4.468   8.739  0.4483 -0.8557  0.7264
 6079SOL     OW29872   4.017   2.869   8.524  0.2963  0.0439 -0.1205
 6079SOL    HW129873   4.105   2.874   8.559 -0.9428 -1.0217  3.1412
 6079SOL    HW229874   3.999   2.962   8.539 -1.4732 -0.4852  1.0944
 6080SOL     OW29875   3.142   0.918  17.035  0.2308  0.3848  0.1205
 6080SOL    HW129876   3.182   0.895  17.119  1.0586 -1.7097 -0.8234
 6080SOL    HW229877   3.063   0.865  17.045  0.8954 -0.9058 -1.5804
 6081SOL     OW29878   2.108   2.569   3.446 -0.1285 -0.0533 -0.0247
 6081SOL    HW129879   2.188   2.615   3.422 -0.7468  0.2820 -1.4814
 6081SOL    HW229880   2.132   2.496   3.502  1.8437 -0.0763 -0.9031
 6082SOL     OW29881   3.411   3.931  14.562 -0.1385 -0.1478 -0.5310
 6082SOL    HW129882   3.427   3.839  14.538 -1.0690 -0.4546  0.0243
 6082SOL    HW229883   3.500   3.963  14.551  0.2756 -0.7957  1.0265
 6083SOL     OW29884   0.689   4.066   0.876  0.3462  0.1116  0.3887
 6083SOL    HW129885   0.642   4.000   0.926  0.5443 -0.4754 -0.1966
 6083SOL    HW229886   0.780   4.035   0.880  1.3216  2.6643 -1.6859
 6084SOL     OW29887   4.621   1.202   1.930  0.0249  0.3395 -0.2308
 6084SOL    HW129888   4.654   1.113   1.944  1.7677  1.2860  1.8079
 6084SOL    HW229889   4.565   1.222   2.005 -1.6840 -2.3934 -0.7769
 6085SOL     OW29890   4.664   2.462  15.783  0.1016  0.5723  0.2682
 6085SOL    HW129891   4.593   2.515  15.819 -2.4288 -3.1368  0.7000
 6085SOL    HW229892   0.006   2.492  15.829 -0.7235 -0.4222  2.3275
 6086SOL     OW29893   0.524   2.770   3.207  0.5619  0.3757  0.2707
 6086SOL    HW129894   0.533   2.767   3.112 -0.3244 -1.8199  0.2608
 6086SOL    HW229895   0.462   2.701   3.229 -0.7613  1.3678 -0.3716
 6087SOL     OW29896   4.583   1.517   7.318  0.1627  0.2649  0.3132
 6087SOL    HW129897   4.584   1.579   7.245  1.8214 -0.4392 -0.2814
 6087SOL    HW229898   4.677   1.501   7.331 -0.1349 -1.6285  0.2170
 6088SOL     OW29899   0.980   2.538   7.657 -0.5190 -0.4321  0.1823
 6088SOL    HW129900   0.986   2.617   7.711 -1.6641  0.3119 -0.7761
 6088SOL    HW229901   0.886   2.520   7.664 -0.7821  1.4936  1.3965
 6089SOL     OW29902   0.841   3.805   7.951 -0.3709 -0.5575 -0.2492
 6089SOL    HW129903   0.924   3.757   7.948  0.0821  0.0728  2.0371
 6089SOL    HW229904   0.822   3.817   8.044 -3.4774  0.0057 -0.9736
 6090SOL     OW29905   2.253   3.063  12.729 -0.3449 -0.2172  0.4356
 6090SOL    HW129906   2.219   3.110  12.653 -2.3759 -1.9386  0.2824
 6090SOL    HW229907   2.306   2.990  12.696 -0.4810 -0.4645  0.7706
 6091SOL     OW29908   1.538   4.497   1.765  0.3841 -0.0989 -0.9436
 6091SOL    HW129909   1.483   4.539   1.831 -1.4922 -1.4532 -1.6567
 6091SOL    HW229910   1.551   4.562   1.696  0.2534  0.2165 -0.6707
 6092SOL     OW29911   2.166   4.026   5.079 -0.1574  0.8493  0.0346
 6092SOL    HW129912   2.196   3.987   4.997  1.1634  2.4891 -0.2672
 6092SOL    HW229913   2.241   4.008   5.135 -0.0254  0.2338 -0.3439
 6093SOL     OW29914   3.958   3.497   2.285 -0.0463  0.2295  0.8550
 6093SOL    HW129915   4.047   3.526   2.304  0.1003  0.5072 -0.2564
 6093SOL    HW229916   3.958   3.419   2.342 -0.1659 -0.9196 -0.7084
 6094SOL     OW29917   1.040   2.931   6.864 -0.2760 -0.1944  0.0042
 6094SOL    HW129918   0.985   2.858   6.893  1.1165 -0.1938  2.6475
 6094SOL    HW229919   0.982   2.983   6.808 -1.1565  1.2074  2.1777
 6095SOL     OW29920   3.641   0.155  14.672  0.1465 -0.0721  1.0344
 6095SOL    HW129921   3.698   0.097  14.723 -0.9716 -1.4550  0.7299
 6095SOL    HW229922   3.609   0.215  14.740 -0.5017 -2.0860  2.5143
 6096SOL     OW29923   4.650   2.117   1.482 -0.5728 -0.4333 -0.2286
 6096SOL    HW129924   4.729   2.062   1.484  1.0367  1.8594 -1.5909
 6096SOL    HW229925   4.593   2.047   1.449 -1.4257  0.6543 -1.0440
 6097SOL     OW29926   1.930   0.978  13.197 -0.0760  0.1533  0.2764
 6097SOL    HW129927   2.025   0.969  13.190  0.1413  2.3108  0.4991
 6097SOL    HW229928   1.922   0.886  13.171 -1.0473 -0.4303  2.6083
 6098SOL     OW29929   3.992   4.095   2.347  0.6803  0.1797  0.2702
 6098SOL    HW129930   4.036   4.090   2.262 -0.3798 -4.7094  0.0127
 6098SOL    HW229931   3.919   4.036   2.326 -0.2715  1.2412  0.5927
 6099SOL     OW29932   2.713   2.777   6.622 -0.1731 -0.0319 -0.1566
 6099SOL    HW129933   2.729   2.692   6.662 -0.7191 -0.6717 -1.2950
 6099SOL    HW229934   2.783   2.775   6.556 -2.4554  0.8506 -2.6103
 6100SOL     OW29935   1.090   3.198  11.358  0.1793 -0.1985  0.7367
 6100SOL    HW129936   1.020   3.136  11.339  1.4925 -1.5872  0.4288
 6100SOL    HW229937   1.119   3.236  11.275 -0.1330 -1.5909 -0.0048
 6101SOL     OW29938   1.629   4.691   0.348  0.3151 -0.4250  0.3588
 6101SOL    HW129939   1.613   4.653   0.435 -1.4411 -1.1399 -0.2686
 6101SOL    HW229940   1.679   0.030   0.381 -1.2740  0.5518  0.5528
 6102SOL     OW29941   4.482   2.725  12.133  0.4650 -0.3584  0.1394
 6102SOL    HW129942   4.407   2.756  12.083  0.2803 -1.1995 -0.0990
 6102SOL    HW229943   4.449   2.748  12.220  1.8706 -1.2424  0.9026
 6103SOL     OW29944   1.173   4.582   6.408 -0.4817 -0.4546  0.2421
 6103SOL    HW129945   1.104   4.517   6.403 -1.6194  1.0151 -2.9805
 6103SOL    HW229946   1.123   4.662   6.424 -2.7351 -1.8218 -0.0606
 6104SOL     OW29947   4.639   0.813  12.312  0.7887 -0.0001  0.5102
 6104SOL    HW129948   4.560   0.762  12.331  0.6226 -0.2875 -0.9200
 6104SOL    HW229949   4.705   0.745  12.294 -1.0768 -1.3500 -1.2198
 6105SOL     OW29950   0.655   2.016  13.489  0.5439 -0.5318  0.4827
 6105SOL    HW129951   0.585   1.965  13.449  0.0204 -0.8884  1.8682
 6105SOL    HW229952   0.737   1.989  13.447  0.0654 -0.7621 -0.3077
 6106SOL     OW29953   4.078   2.248   7.716  0.1013  0.1378 -0.0873
 6106SOL    HW129954   4.069   2.326   7.661  1.1968  0.1588 -0.2236
 6106SOL    HW229955   4.173   2.249   7.723  0.3877  0.2829 -4.1740
 6107SOL     OW29956   1.537   2.965  17.213 -0.5741 -0.7547  0.1425
 6107SOL    HW129957   1.571   3.050  17.185 -1.2927 -1.3115 -2.4649
 6107SOL    HW229958   1.530   2.985  17.306 -0.2168  1.5553 -0.3122
 6108SOL     OW29959   0.899   0.951   6.153 -0.2226  0.3351  0.2792
 6108SOL    HW129960   0.813   0.909   6.153 -0.2512  0.3939  0.2483
 6108SOL    HW229961   0.902   0.991   6.066 -1.2576  0.5722  0.3594
 6109SOL     OW29962   0.144   3.430   2.721 -0.1990  0.1913  0.3888
 6109SOL    HW129963   0.141   3.421   2.626 -2.9520  0.8668  0.3973
 6109SOL    HW229964   0.152   3.525   2.723 -1.4452  0.3356 -0.9296
 6110SOL     OW29965   2.260   2.566   8.392 -0.2256  0.6973  0.1674
 6110SOL    HW129966   2.335   2.625   8.383  0.5141 -0.2239  0.2535
 6110SOL    HW229967   2.265   2.542   8.485 -1.0771  1.0184  0.2926
 6111SOL     OW29968   4.085   0.962   2.045 -0.2050 -0.1304  0.1590
 6111SOL    HW129969   4.033   0.887   2.014  1.3853 -0.5877 -1.4309
 6111SOL    HW229970   4.170   0.953   2.003 -0.1837  1.3372 -0.0943
 6112SOL     OW29971   0.235   1.167   2.793 -0.2796  0.6425 -0.2504
 6112SOL    HW129972   0.175   1.096   2.816  0.4342  0.4349  0.9861
 6112SOL    HW229973   0.197   1.237   2.845 -0.8173  1.4977 -1.7824
 6113SOL     OW29974   2.032   1.728   3.926 -0.1684  0.1525  0.0886
 6113SOL    HW129975   2.023   1.736   3.832  1.3093 -1.0520 -0.1634
 6113SOL    HW229976   2.012   1.817   3.956  0.7405  0.6146 -0.7022
 6114SOL     OW29977   0.989   3.296   8.188  0.0898  0.2544 -0.0945
 6114SOL    HW129978   0.976   3.236   8.261  3.2716 -0.1594  0.1498
 6114SOL    HW229979   1.048   3.365   8.219  1.9033  0.3600 -3.7934
 6115SOL     OW29980   2.232   0.245   8.843 -0.1750 -0.5841  0.4031
 6115SOL    HW129981   2.263   0.217   8.930 -0.0610  0.8553  0.8169
 6115SOL    HW229982   2.205   0.330   8.878 -0.6714  0.4694 -2.5536
 6116SOL     OW29983   3.284   3.184   5.872 -0.2012  0.1895  0.1623
 6116SOL    HW129984   3.250   3.099   5.843 -2.5019  0.9840  0.5226
 6116SOL    HW229985   3.306   3.154   5.960  0.1964  0.6740  0.2247
 6117SOL     OW29986   0.198   4.223   4.963 -0.6537 -0.4491 -0.2562
 6117SOL    HW129987   0.209   4.153   5.028  0.3201  0.9404  1.0815
 6117SOL    HW229988   0.153   4.182   4.889 -2.4787  2.7038 -0.8629
 6118SOL     OW29989   0.479   1.620   6.288  0.3581  0.0797 -0.3946
 6118SOL    HW129990   0.549   1.559   6.310 -0.3610 -0.1404  1.2963
 6118SOL    HW229991   0.448   1.569   6.213 -2.2933  0.3764  0.5149
 6119SOL     OW29992   2.203   4.358   6.565  0.0641  0.5515  0.0207
 6119SOL    HW129993   2.155   4.420   6.619  1.0569 -0.7277  2.3476
 6119SOL    HW229994   2.175   4.270   6.589 -0.0065  0.1407 -1.5309
 6120SOL     OW29995   3.924   4.652  11.673  0.0907 -0.4517 -0.0255
 6120SOL    HW129996   3.961   4.687  11.754  0.9548  0.4123 -0.7890
 6120SOL    HW229997   3.861   4.586  11.702 -0.7737  0.9190  1.2496
 6121SOL     OW29998   1.283   2.447   2.169  0.0420 -0.1771 -0.2395
 6121SOL    HW129999   1.369   2.453   2.211  1.5439 -0.4408 -3.3009
 6121SOL    HW230000   1.236   2.405   2.241  0.1479  0.5461  0.2529
 6122SOL     OW30001   2.651   0.658   0.611  0.1653  0.5134  1.1114
 6122SOL    HW130002   2.558   0.649   0.592  0.5021 -1.3986  0.4005
 6122SOL    HW230003   2.692   0.586   0.564  1.5138  0.6272  2.1111
 6123SOL     OW30004   0.476   1.864   2.812  0.0079  0.0850  0.0507
 6123SOL    HW130005   0.568   1.837   2.811 -0.1262 -0.3374 -0.7656
 6123SOL    HW230006   0.425   1.787   2.836 -1.0621 -0.0464 -2.6105
 6124SOL     OW30007   1.558   2.317   7.826 -0.4504 -0.6631  0.4693
 6124SOL    HW130008   1.620   2.349   7.892 -0.0975 -1.8029  0.7009
 6124SOL    HW230009   1.532   2.389   7.769 -0.0667 -0.5147  0.4809
 6125SOL     OW30010   1.121   2.020   3.656  0.1822  0.2282  0.0891
 6125SOL    HW130011   1.100   2.014   3.563  0.2043 -0.6285  0.1403
 6125SOL    HW230012   1.137   2.115   3.659 -1.4572  0.5002 -0.0725
 6126SOL     OW30013   4.442   0.277   6.582 -0.0013  0.5783 -0.7202
 6126SOL    HW130014   4.402   0.268   6.668  0.0795  1.0882 -0.6288
 6126SOL    HW230015   4.459   0.187   6.556  2.4539  1.2820 -1.5585
 6127SOL     OW30016   1.071   1.974  12.814  0.0787  0.2305  0.3836
 6127SOL    HW130017   1.026   2.011  12.890 -0.1169  0.5836  0.0924
 6127SOL    HW230018   1.149   2.030  12.813  0.4979 -0.3002  2.7010
 6128SOL     OW30019   0.001   1.133  16.520  0.6365  0.6983  0.0435
 6128SOL    HW130020   4.649   1.171  16.524  0.6729  1.0820 -2.6180
 6128SOL    HW230021   4.708   1.045  16.496 -1.0423  1.5619 -1.1125
 6129SOL     OW30022   4.259   3.798   1.047  0.3322 -0.2309 -0.0416
 6129SOL    HW130023   4.344   3.781   1.088  1.3317  1.3263 -1.4581
 6129SOL    HW230024   4.260   3.763   0.958 -0.5265  0.0563 -0.1665
 6130SOL     OW30025   2.802   3.656   2.502 -0.7011 -0.1806  0.4271
 6130SOL    HW130026   2.888   3.647   2.543  0.7093  0.4613 -2.3927
 6130SOL    HW230027   2.796   3.748   2.527  1.8447 -0.0229  0.4769
 6131SOL     OW30028   4.381   0.048   7.810  0.3031 -0.4311 -0.5771
 6131SOL    HW130029   4.389   0.045   7.905  1.9583  0.4391 -0.6870
 6131SOL    HW230030   4.470   0.018   7.788  0.1887 -0.7403 -0.6196
 6132SOL     OW30031   0.482   2.138  16.229  0.0639 -0.2728 -0.3680
 6132SOL    HW130032   0.539   2.180  16.294 -2.4318  2.1693  0.2113
 6132SOL    HW230033   0.398   2.173  16.257  0.6992  0.3167  0.8247
 6133SOL     OW30034   0.092   2.510   3.733 -0.2702  0.3622  0.2430
 6133SOL    HW130035   0.049   2.579   3.682 -0.8880 -0.8365 -0.8597
 6133SOL    HW230036   0.105   2.442   3.667 -2.0862 -0.5169  0.7935
 6134SOL     OW30037   1.059   2.758   4.656 -1.0292  0.1845 -0.7415
 6134SOL    HW130038   0.995   2.829   4.659  1.1974  2.1959 -0.9399
 6134SOL    HW230039   1.144   2.801   4.658  0.5244 -2.8385 -1.4590
 6135SOL     OW30040   2.450   0.357   9.454 -0.3673 -0.3424 -0.1061
 6135SOL    HW130041   2.440   0.451   9.439  0.4137 -0.2168  0.1983
 6135SOL    HW230042   2.480   0.372   9.544 -1.2165 -2.4967  0.5280
 6136SOL     OW30043   3.177   2.024   2.645 -0.1133  0.1545 -0.2942
 6136SOL    HW130044   3.208   2.014   2.735 -1.0352  0.2343  0.0362
 6136SOL    HW230045   3.102   2.084   2.649 -0.6654 -0.7044  2.5131
 6137SOL     OW30046   3.076   3.233  12.671  0.1281 -0.2204  0.3217
 6137SOL    HW130047   2.993   3.209  12.713 -1.1439  0.0299 -2.0473
 6137SOL    HW230048   3.052   3.305  12.613 -0.4246 -0.1997  0.5679
 6138SOL     OW30049   3.719   0.952   4.245  0.2156 -0.7165 -0.2756
 6138SOL    HW130050   3.737   0.924   4.335  0.3440  1.7062  0.4637
 6138SOL    HW230051   3.635   0.907   4.241  0.2728 -0.9390  1.1624
 6139SOL     OW30052   4.161   0.682  15.883  0.1718 -0.6773  0.2553
 6139SOL    HW130053   4.163   0.756  15.944 -2.4486  0.4194 -1.0071
 6139SOL    HW230054   4.105   0.616  15.923 -0.3829  0.7267  1.8027
 6140SOL     OW30055   0.488   3.116  15.376 -0.2567 -0.3077  0.0097
 6140SOL    HW130056   0.505   3.089  15.286 -0.9131 -1.1916  0.1518
 6140SOL    HW230057   0.416   3.056  15.394  0.7807 -2.1140 -1.8481
 6141SOL     OW30058   0.220   3.260   5.550  0.3198  0.7310 -0.1805
 6141SOL    HW130059   0.182   3.189   5.498  0.8634  2.2375 -2.6498
 6141SOL    HW230060   0.171   3.337   5.520 -1.2274 -0.3367 -0.3984
 6142SOL     OW30061   3.524   2.343   5.897  0.3166 -0.1079  0.4538
 6142SOL    HW130062   3.562   2.419   5.941  1.4964 -0.1964 -0.4218
 6142SOL    HW230063   3.602   2.309   5.855 -0.5625  0.5523 -1.7054
 6143SOL     OW30064   4.726   0.813   5.661  0.1189 -0.2285 -0.0416
 6143SOL    HW130065   4.700   0.758   5.588 -2.0035  2.4283 -1.2579
 6143SOL    HW230066   0.053   0.755   5.704 -1.5610  0.2291  3.0564
 6144SOL     OW30067   1.276   3.473  12.899  0.1135 -0.4832 -0.1949
 6144SOL    HW130068   1.276   3.377  12.899 -1.0134 -0.4838 -0.2333
 6144SOL    HW230069   1.254   3.509  12.985 -0.2745 -1.4252  0.1056
 6145SOL     OW30070   1.241   4.203   7.479 -1.2745  0.6204  0.1057
 6145SOL    HW130071   1.271   4.281   7.433 -0.4158  0.1658 -0.1122
 6145SOL    HW230072   1.316   4.194   7.538  0.2950  2.5378 -1.6178
 6146SOL     OW30073   3.379   3.609   9.403 -0.3616  0.2889 -0.2540
 6146SOL    HW130074   3.345   3.698   9.389  0.5247  0.3922 -1.7385
 6146SOL    HW230075   3.302   3.553   9.393  0.2228 -0.3183 -1.2626
 6147SOL     OW30076   4.526   1.625   0.257  0.0951  0.6205  0.6315
 6147SOL    HW130077   4.605   1.582   0.224  0.2703  1.1809  0.3217
 6147SOL    HW230078   4.480   1.549   0.293 -0.1203  0.7528  0.6401
 6148SOL     OW30079   1.091   2.032   5.537  0.8782  1.0760  0.0976
 6148SOL    HW130080   1.090   1.976   5.615  0.1200 -0.6567 -1.1462
 6148SOL    HW230081   1.051   1.976   5.471  1.7497 -0.2371  0.6801
 6149SOL     OW30082   1.746   3.870  10.600 -0.8878 -0.0754 -0.2337
 6149SOL    HW130083   1.669   3.896  10.550  1.2356  1.2340 -2.8079
 6149SOL    HW230084   1.781   3.797  10.548 -0.0093 -0.0348  0.2905
 6150SOL     OW30085   1.130   2.765   2.041 -0.0933  0.2391 -0.6317
 6150SOL    HW130086   1.037   2.763   2.061  0.5861 -0.2329  2.5919
 6150SOL    HW230087   1.125   2.832   1.974 -2.3529  1.4278  0.7573
 6151SOL     OW30088   1.050   0.660   6.335 -0.9105 -0.2231  0.0662
 6151SOL    HW130089   1.123   0.608   6.367 -0.1460  0.2645 -0.8956
 6151SOL    HW230090   1.043   0.633   6.244  2.3336  0.0805 -0.2495
 6152SOL     OW30091   3.737   3.570   5.922 -0.3565  0.1811  0.2125
 6152SOL    HW130092   3.748   3.511   5.848 -1.5754  0.2490 -0.0094
 6152SOL    HW230093   3.645   3.585   5.902 -0.2555 -1.2904 -1.3511
 6153SOL     OW30094   4.367   3.983   8.948 -0.0176 -0.1123 -0.1158
 6153SOL    HW130095   4.408   3.934   9.020 -1.6538 -1.1060  0.1629
 6153SOL    HW230096   4.376   4.071   8.985 -0.6388 -0.2466  0.3582
 6154SOL     OW30097   4.313   1.183   6.384 -0.0284  0.4012  0.1697
 6154SOL    HW130098   4.370   1.172   6.460  2.0170  2.4536 -1.0472
 6154SOL    HW230099   4.354   1.119   6.326  0.2587  0.6910  0.0527
 6155SOL     OW30100   1.319   3.480   7.838  0.0773  0.3180  0.0136
 6155SOL    HW130101   1.405   3.517   7.815  0.3192  0.4871  1.2235
 6155SOL    HW230102   1.302   3.417   7.767 -0.5766  2.6650 -1.9227
 6156SOL     OW30103   3.301   1.805   0.701  0.8921  0.3827  0.0260
 6156SOL    HW130104   3.362   1.732   0.687  0.0294 -0.2698 -0.3302
 6156SOL    HW230105   3.277   1.773   0.788 -1.2396 -0.1845 -0.7725
 6157SOL     OW30106   1.449   2.713   8.277 -0.1819  0.2312  0.3028
 6157SOL    HW130107   1.355   2.700   8.283 -0.4605  0.9892 -2.0847
 6157SOL    HW230108   1.481   2.660   8.350 -0.9507  0.8934  1.1108
 6158SOL     OW30109   2.791   3.929   2.538  0.4999 -0.0574 -0.8187
 6158SOL    HW130110   2.722   3.937   2.604  1.5748 -0.9651  0.4294
 6158SOL    HW230111   2.754   3.981   2.467  1.1109 -0.2394 -1.2630
 6159SOL     OW30112   0.579   1.392   7.301  0.0458 -0.1232  0.3433
 6159SOL    HW130113   0.618   1.319   7.253 -0.3432  0.3514 -0.7080
 6159SOL    HW230114   0.649   1.390   7.366 -1.8479  1.7272  2.4357
 6160SOL     OW30115   2.329   0.143   4.389 -0.1022  0.3566  0.2156
 6160SOL    HW130116   2.371   0.186   4.314  0.7658  1.3211  1.2594
 6160SOL    HW230117   2.322   0.203   4.463 -0.6894  0.9072 -0.2807
 6161SOL     OW30118   0.560   2.506   7.266  0.2040 -0.1916 -1.0236
 6161SOL    HW130119   0.641   2.557   7.261 -1.0697  1.9376  0.1021
 6161SOL    HW230120   0.497   2.577   7.276 -1.7094 -1.7714 -2.0904
 6162SOL     OW30121   2.512   0.271  12.574 -0.6216  0.2300 -0.4712
 6162SOL    HW130122   2.489   0.180  12.559  1.0988 -0.5420  1.5614
 6162SOL    HW230123   2.521   0.298  12.483  1.3442  2.3083  0.3278
 6163SOL     OW30124   2.191   4.354  17.568 -0.6901  0.1225  0.4026
 6163SOL    HW130125   2.246   4.303  17.509 -0.5266  0.3729  0.3380
 6163SOL    HW230126   2.102   4.333  17.541 -0.9343 -1.1038  2.1901
 6164SOL     OW30127   0.459   3.774  11.262  0.6002  0.3420  0.6573
 6164SOL    HW130128   0.463   3.787  11.357 -1.0460  1.3127  0.5872
 6164SOL    HW230129   0.386   3.713  11.250  0.2391  0.9925 -0.4114
 6165SOL     OW30130   2.490   3.739   0.847 -0.0016  0.6072 -0.5386
 6165SOL    HW130131   2.458   3.775   0.930 -2.0519  1.6012 -1.7685
 6165SOL    HW230132   2.494   3.814   0.787 -1.3911  2.3609  1.5442
 6166SOL     OW30133   2.745   4.236   8.385 -0.9103  0.0035  0.0338
 6166SOL    HW130134   2.837   4.243   8.361 -1.3630 -2.4326 -2.4644
 6166SOL    HW230135   2.744   4.214   8.479 -0.9128 -0.5740 -0.1019
 6167SOL     OW30136   0.403   1.580   4.450  0.2048  0.3782  0.0985
 6167SOL    HW130137   0.389   1.566   4.544 -0.5903  0.9535  0.0601
 6167SOL    HW230138   0.325   1.631   4.429  0.1343  0.3785  0.3551
 6168SOL     OW30139   2.450   2.140   4.605 -0.1912  0.4744 -0.0459
 6168SOL    HW130140   2.406   2.102   4.681  0.0906 -0.5999 -0.4128
 6168SOL    HW230141   2.445   2.231   4.635  1.1491  1.0578 -1.6288
 6169SOL     OW30142   2.546   0.215  12.858 -0.2456 -0.2896  0.2132
 6169SOL    HW130143   2.532   0.234  12.951 -2.1388  0.6273 -0.2672
 6169SOL    HW230144   2.462   0.178  12.829 -0.1362 -1.1720  1.0182
 6170SOL     OW30145   3.556   0.794   4.616  0.5634  0.3025 -0.2828
 6170SOL    HW130146   3.507   0.711   4.611 -0.5770  0.9039  0.9988
 6170SOL    HW230147   3.499   0.840   4.555 -1.9415  0.3592  2.1252
 6171SOL     OW30148   1.668   0.315  16.113 -0.1900 -0.4000 -0.0969
 6171SOL    HW130149   1.611   0.367  16.057 -0.1181 -1.2261 -0.9348
 6171SOL    HW230150   1.701   0.252  16.049  0.8482  0.8638 -0.8167
 6172SOL     OW30151   1.453   4.070  10.215  0.2753 -0.6402  0.1449
 6172SOL    HW130152   1.485   4.036  10.131  2.3024  0.3170  0.5325
 6172SOL    HW230153   1.507   4.149  10.216  0.2632 -0.6571  1.3763
 6173SOL     OW30154   1.982   3.287  15.969 -0.1415  0.0001  0.0345
 6173SOL    HW130155   1.980   3.211  16.026 -0.0681  0.3183  0.4628
 6173SOL    HW230156   1.935   3.345  16.029 -0.5275 -0.4295  0.1452
 6174SOL     OW30157   3.021   0.294   6.820  0.5555  0.1974 -0.3279
 6174SOL    HW130158   3.058   0.239   6.888 -0.2989 -0.1027 -0.1125
 6174SOL    HW230159   3.030   0.230   6.749 -1.2571 -1.4606  0.9464
 6175SOL     OW30160   0.254   1.161   7.041 -0.2492  0.0519 -0.2624
 6175SOL    HW130161   0.224   1.228   6.980  0.3797 -0.0424 -0.6702
 6175SOL    HW230162   0.338   1.144   6.998  0.3719  2.2362  0.0701
 6176SOL     OW30163   2.545   0.525  14.173  0.0919 -0.3505  0.0876
 6176SOL    HW130164   2.548   0.505  14.267  0.2080  0.2989  0.2261
 6176SOL    HW230165   2.557   0.619  14.186 -1.1973 -0.0098 -1.2176
 6177SOL     OW30166   0.683   0.653  10.073 -0.1773  0.0995  0.1723
 6177SOL    HW130167   0.601   0.645  10.122  0.4603 -2.6413  0.7757
 6177SOL    HW230168   0.645   0.700   9.998 -1.0743 -0.1577  0.4627
 6178SOL     OW30169   0.805   2.411  12.795 -0.2224 -0.1116  0.6113
 6178SOL    HW130170   0.763   2.342  12.744 -2.3184  0.0109  2.2016
 6178SOL    HW230171   0.739   2.479  12.783  0.9284  1.0896  1.0143
 6179SOL     OW30172   3.827   2.167   5.336  0.4433  0.1602 -0.3983
 6179SOL    HW130173   3.879   2.153   5.415  1.8442 -0.0202 -1.3607
 6179SOL    HW230174   3.812   2.261   5.344 -2.5953 -0.3065 -0.6648
 6180SOL     OW30175   0.081   1.385  12.905  0.3497 -0.1555 -0.2245
 6180SOL    HW130176   0.017   1.316  12.922  0.8517 -0.7230 -0.6225
 6180SOL    HW230177   0.033   1.427  12.834  1.4577  1.3147 -0.0918
 6181SOL     OW30178   1.435   1.343  11.012  0.2705 -0.4076  0.1074
 6181SOL    HW130179   1.459   1.415  11.070 -0.5063  0.1177 -0.2341
 6181SOL    HW230180   1.344   1.364  10.996  0.6698  1.4144  0.2699
 6182SOL     OW30181   2.256   0.611   9.692  0.2476 -0.4281 -0.0395
 6182SOL    HW130182   2.344   0.582   9.715  0.0405 -1.2259 -0.2519
 6182SOL    HW230183   2.212   0.572   9.768 -0.5221  2.5089  1.0133
 6183SOL     OW30184   2.380   2.601  16.395  0.1188  0.1770  0.5224
 6183SOL    HW130185   2.408   2.572  16.309 -2.6458 -0.7357 -0.0887
 6183SOL    HW230186   2.357   2.520  16.441 -0.2204 -1.1246 -1.9657
 6184SOL     OW30187   3.630   3.634   3.776 -0.2665  0.0438  0.3608
 6184SOL    HW130188   3.611   3.592   3.859 -1.0294 -1.5488 -0.6176
 6184SOL    HW230189   3.559   3.697   3.792 -0.7999 -0.6534  0.7563
 6185SOL     OW30190   3.164   3.778  11.448  0.1368  0.3446  0.4321
 6185SOL    HW130191   3.070   3.764  11.461  0.3699 -0.6913  0.9421
 6185SOL    HW230192   3.197   3.696  11.485  0.3366 -0.4377 -1.4987
 6186SOL     OW30193   3.205   2.599   7.166 -0.2959 -0.5434  0.0981
 6186SOL    HW130194   3.222   2.672   7.107 -1.0500  0.2350  0.8351
 6186SOL    HW230195   3.166   2.543   7.098 -1.0210  0.9908 -0.7554
 6187SOL     OW30196   1.379   3.425   8.120 -0.1693 -0.3662  0.1218
 6187SOL    HW130197   1.379   3.418   8.025  1.8521 -2.8632  0.2938
 6187SOL    HW230198   1.407   3.515   8.134  1.5022 -0.6831 -1.1457
 6188SOL     OW30199   3.441   2.502   4.727 -0.4997 -0.2527  0.1054
 6188SOL    HW130200   3.355   2.470   4.752 -0.9765  1.6745  0.9119
 6188SOL    HW230201   3.493   2.423   4.708  2.6958  1.4122  1.8698
 6189SOL     OW30202   2.872   3.116  15.190 -0.1631 -0.1754 -0.4209
 6189SOL    HW130203   2.912   3.120  15.103 -0.9583  2.6619 -0.6678
 6189SOL    HW230204   2.950   3.122  15.245  0.2414 -1.4792 -0.8550
 6190SOL     OW30205   2.909   2.994  11.140 -0.6152 -0.0898  0.0154
 6190SOL    HW130206   2.892   3.083  11.110  0.4111 -0.2852 -1.1178
 6190SOL    HW230207   2.817   2.966  11.136 -0.8139  0.6676 -0.8087
 6191SOL     OW30208   2.980   3.705   3.131 -0.3509  0.3248  0.6046
 6191SOL    HW130209   2.892   3.673   3.116 -0.0460  0.0701 -0.6049
 6191SOL    HW230210   2.974   3.736   3.221 -2.4909 -1.7022  1.1656
 6192SOL     OW30211   1.634   0.369   3.535  0.0209 -0.1465  0.5124
 6192SOL    HW130212   1.577   0.406   3.467  0.2572 -1.5196 -0.4251
 6192SOL    HW230213   1.659   0.282   3.505  1.4888  1.3904 -2.8236
 6193SOL     OW30214   0.323   2.377  14.242  0.4651 -0.8092  0.2225
 6193SOL    HW130215   0.385   2.443  14.211  0.1293 -0.5619  0.0805
 6193SOL    HW230216   0.308   2.336  14.157  1.7133  0.2897 -0.5254
 6194SOL     OW30217   4.553   1.491   4.256  0.0255  0.0910 -0.2927
 6194SOL    HW130218   4.614   1.417   4.253  0.7902  0.6011  2.7955
 6194SOL    HW230219   4.587   1.564   4.205 -0.1918  0.2379 -0.2287
 6195SOL     OW30220   3.080   2.967  13.072  0.4426 -0.2232 -0.1592
 6195SOL    HW130221   3.156   2.909  13.067  2.1395  2.1069 -1.5348
 6195SOL    HW230222   3.057   2.968  12.979  2.9625 -0.3587 -0.7695
 6196SOL     OW30223   0.382   0.892  10.429 -0.1696  0.0500  0.1789
 6196SOL    HW130224   0.402   0.800  10.415 -0.9616 -0.0721 -0.1430
 6196SOL    HW230225   0.402   0.934  10.346  2.1970  1.4549  1.4488
 6197SOL     OW30226   0.152   0.810   1.610 -0.4036  0.1411  0.1170
 6197SOL    HW130227   0.099   0.861   1.549  0.4646  1.0233  0.1190
 6197SOL    HW230228   0.089   0.744   1.640 -0.2546  0.8694  2.0061
 6198SOL     OW30229   1.990   4.659   1.743 -0.4381 -0.3390 -0.2047
 6198SOL    HW130230   1.928   4.725   1.713  0.0652  1.2731  2.2750
 6198SOL    HW230231   1.947   4.643   1.827 -1.1685 -0.7388 -0.6581
 6199SOL     OW30232   1.662   3.908   6.603 -0.1803 -0.0227 -0.0828
 6199SOL    HW130233   1.598   3.964   6.647 -0.8118 -0.4804 -0.4217
 6199SOL    HW230234   1.605   3.842   6.563 -0.0604  0.5520 -1.1973
 6200SOL     OW30235   4.342   4.456   8.218 -0.4946 -0.2141 -0.0825
 6200SOL    HW130236   4.288   4.422   8.290 -0.3385  0.8632  0.5343
 6200SOL    HW230237   4.428   4.446   8.259 -0.0155  1.6419 -0.6392
 6201SOL     OW30238   2.621   2.626   4.165  0.3428  0.7976  1.2323
 6201SOL    HW130239   2.556   2.584   4.222 -1.3953  3.8427  1.4832
 6201SOL    HW230240   2.611   2.716   4.196  0.7006  0.1147  3.3593
 6202SOL     OW30241   3.375   1.235   6.634 -0.3420 -0.0885 -0.2881
 6202SOL    HW130242   3.288   1.235   6.594  0.4942 -1.6791 -2.1152
 6202SOL    HW230243   3.356   1.284   6.714 -0.5520  1.2327 -1.1448
 6203SOL     OW30244   2.291   2.177   6.512 -0.1898  0.2959  0.2265
 6203SOL    HW130245   2.299   2.228   6.593  1.4285  0.1986  0.1313
 6203SOL    HW230246   2.244   2.237   6.455  0.5789 -0.7153 -1.4820
 6204SOL     OW30247   1.910   1.323  13.887 -0.0505  0.0863  0.3547
 6204SOL    HW130248   1.953   1.290  13.966 -0.8085  2.2650  1.6873
 6204SOL    HW230249   1.822   1.292  13.907 -0.3301  1.0235  0.5631
 6205SOL     OW30250   0.454   0.492  12.484 -0.1148  0.3355  0.7071
 6205SOL    HW130251   0.383   0.428  12.487  0.1141  0.1196  1.4698
 6205SOL    HW230252   0.417   0.567  12.530  3.4296  2.6102 -0.1599
 6206SOL     OW30253   3.842   1.084  13.654  0.8298  0.5901 -0.2899
 6206SOL    HW130254   3.875   1.096  13.743 -0.8377  3.3330 -0.0326
 6206SOL    HW230255   3.925   1.073  13.608 -1.3517 -0.1816 -4.0603
 6207SOL     OW30256   4.410   3.534  14.008  0.9608 -0.0862 -0.1353
 6207SOL    HW130257   4.467   3.610  13.996 -0.5169  1.0433 -0.0019
 6207SOL    HW230258   4.331   3.553  13.957  0.0669 -3.4600 -0.0448
 6208SOL     OW30259   0.921   0.883   0.490 -0.0713 -0.3963 -0.3468
 6208SOL    HW130260   0.897   0.794   0.516  0.5931 -1.2827 -2.7851
 6208SOL    HW230261   0.893   0.880   0.399 -0.5731 -0.8212 -0.1789
 6209SOL     OW30262   3.663   0.077   1.650 -0.3226  0.3758  0.0396
 6209SOL    HW130263   3.598   0.007   1.650  1.2504 -1.0981  1.1990
 6209SOL    HW230264   3.628   0.130   1.722  1.4892 -0.3909  1.5104
 6210SOL     OW30265   1.922   4.087   2.634 -0.1708  0.2220 -0.0272
 6210SOL    HW130266   1.877   4.056   2.555  2.8496 -2.6285 -0.6317
 6210SOL    HW230267   1.886   4.030   2.701 -0.4663  1.0040  0.4811
 6211SOL     OW30268   0.765   2.522   0.679  0.5104 -0.1125 -0.1960
 6211SOL    HW130269   0.689   2.581   0.682  0.1535 -0.5350 -0.9050
 6211SOL    HW230270   0.797   2.532   0.769  1.2433 -0.0661 -0.4602
 6212SOL     OW30271   2.139   0.736   0.943  0.7755  0.5072 -0.3162
 6212SOL    HW130272   2.159   0.821   0.982  0.7930 -0.7747  2.4707
 6212SOL    HW230273   2.206   0.678   0.979  0.1127  0.8024  1.3967
 6213SOL     OW30274   1.516   0.174   6.330 -0.6112  0.5271  0.1891
 6213SOL    HW130275   1.523   0.235   6.256 -1.2167  0.3929  0.0196
 6213SOL    HW230276   1.604   0.183   6.366  0.0524 -0.5677 -1.1988
 6214SOL     OW30277   1.403   3.455  11.965 -0.1501  0.4289  0.0544
 6214SOL    HW130278   1.375   3.375  12.009 -1.3573  0.3417 -0.8843
 6214SOL    HW230279   1.466   3.422  11.901 -0.1757 -0.7665  0.6601
 6215SOL     OW30280   4.708   4.264   7.220  0.2780 -0.2120 -0.1990
 6215SOL    HW130281   0.000   4.290   7.307 -2.4158  0.1573  0.5665
 6215SOL    HW230282   0.025   4.322   7.166 -0.1499  0.4834  0.1350
 6216SOL     OW30283   1.669   2.140   2.863  0.3250 -0.5600 -0.6420
 6216SOL    HW130284   1.675   2.147   2.959 -0.7114  1.3932 -0.7286
 6216SOL    HW230285   1.596   2.197   2.841  0.3029 -1.0600 -1.8530
 6217SOL     OW30286   2.149   4.615   2.426 -0.0245  0.5545  0.2791
 6217SOL    HW130287   2.184   4.697   2.392  0.5776 -0.4944 -1.6474
 6217SOL    HW230288   2.223   4.556   2.414 -0.4688 -0.1623  1.1167
 6218SOL     OW30289   1.649   0.525   0.275  0.5254  0.3825  0.2435
 6218SOL    HW130290   1.641   0.616   0.246  0.4169  0.0994 -0.5983
 6218SOL    HW230291   1.560   0.513   0.308  0.3631  1.0049  0.0299
 6219SOL     OW30292   1.248   1.831  14.641 -0.0887 -0.4503  0.5767
 6219SOL    HW130293   1.225   1.924  14.650 -2.7679 -1.1041  0.2453
 6219SOL    HW230294   1.342   1.847  14.631 -0.4922  2.5298  1.4122
 6220SOL     OW30295   4.619   2.739   4.234  0.0502  0.4720  0.0107
 6220SOL    HW130296   4.641   2.797   4.307 -0.5739  0.1668  0.4408
 6220SOL    HW230297   4.638   2.651   4.266  0.7229  0.6067 -0.0142
 6221SOL     OW30298   3.588   2.827   5.115 -0.1440 -0.6295 -0.1910
 6221SOL    HW130299   3.504   2.791   5.088  0.7375 -1.9097 -1.2464
 6221SOL    HW230300   3.563   2.852   5.204 -1.0169  0.4776 -0.7482
 6222SOL     OW30301   1.202   1.759   9.680 -0.1443  0.0238  0.5908
 6222SOL    HW130302   1.238   1.788   9.597 -0.5564  1.0061  0.7622
 6222SOL    HW230303   1.127   1.818   9.688  0.3764  0.7898 -0.3048
 6223SOL     OW30304   2.473   2.473   3.584 -0.2531  0.2107  0.1178
 6223SOL    HW130305   2.527   2.472   3.663 -1.5754 -0.3232  1.0104
 6223SOL    HW230306   2.429   2.390   3.602 -2.9284  1.6761  0.2642
 6224SOL     OW30307   1.208   1.021   3.548 -0.1653 -0.6745 -0.3044
 6224SOL    HW130308   1.255   1.006   3.630 -0.2010  0.4206 -0.0940
 6224SOL    HW230309   1.218   1.115   3.537  3.0961 -0.7037  2.3083
 6225SOL     OW30310   1.203   2.489  10.437  0.6329  0.3131 -0.7425
 6225SOL    HW130311   1.167   2.401  10.426 -1.4306  0.8280  1.8517
 6225SOL    HW230312   1.143   2.545  10.388 -0.9396 -0.0696  0.7415
 6226SOL     OW30313   4.576   0.369  12.246 -0.3167  0.0290  0.0485
 6226SOL    HW130314   4.557   0.353  12.339 -1.1958  2.4632  0.2934
 6226SOL    HW230315   4.593   0.279  12.221  1.3734  0.6479 -1.0949
 6227SOL     OW30316   4.033   3.584   5.806  0.4009  0.3245 -0.5819
 6227SOL    HW130317   4.000   3.495   5.793  2.2544 -0.5144  0.4900
 6227SOL    HW230318   3.973   3.635   5.751 -1.6468  0.7748  2.0509
 6228SOL     OW30319   2.590   0.098  14.599  0.3757 -0.2730  0.2217
 6228SOL    HW130320   2.579   0.033  14.668  1.5621 -1.6145 -0.8782
 6228SOL    HW230321   2.526   0.163  14.629  0.6849 -0.0326  0.3597
 6229SOL     OW30322   1.743   4.189   6.801  0.1844 -0.1392  0.0549
 6229SOL    HW130323   1.651   4.164   6.813 -0.8882  2.3770 -2.7401
 6229SOL    HW230324   1.801   4.124   6.840 -0.6127 -2.2997 -2.3073
 6230SOL     OW30325   0.409   2.603   6.484  0.0166 -0.1190  0.3536
 6230SOL    HW130326   0.336   2.650   6.444  1.1971 -0.6567 -2.4474
 6230SOL    HW230327   0.365   2.552   6.552 -1.7088  0.4003 -0.3950
 6231SOL     OW30328   0.057   2.569  16.018  0.3805  0.0257  0.2630
 6231SOL    HW130329   0.047   2.650  16.068  0.9299  1.4280 -1.9164
 6231SOL    HW230330   0.126   2.533  16.074  0.2016 -2.7362 -1.2955
 6232SOL     OW30331   1.152   1.783   7.368 -0.5522 -0.3071  0.0463
 6232SOL    HW130332   1.187   1.832   7.294 -0.4802  1.0906  1.0014
 6232SOL    HW230333   1.198   1.826   7.440 -0.7796 -1.0612  0.6382
 6233SOL     OW30334   0.570   2.087   6.382  0.2253  0.2622  0.0818
 6233SOL    HW130335   0.630   2.093   6.457 -1.2575  0.4802  1.2490
 6233SOL    HW230336   0.590   2.004   6.339 -2.2287  0.0586 -0.6628
 6234SOL     OW30337   4.113   0.242   7.283 -0.4725 -0.8051  0.2572
 6234SOL    HW130338   4.197   0.286   7.273 -1.1862  0.7305  0.8406
 6234SOL    HW230339   4.087   0.240   7.191  0.0147  0.3899  0.0901
 6235SOL     OW30340   0.853   3.741   4.725 -0.0952  0.3964  0.4709
 6235SOL    HW130341   0.899   3.809   4.775  1.1258  0.8019 -1.2192
 6235SOL    HW230342   0.832   3.795   4.649  1.3288 -0.3566 -0.4452
 6236SOL     OW30343   1.177   0.030   8.909 -0.0406 -0.0966 -0.3545
 6236SOL    HW130344   1.190   4.708   8.983 -0.6674 -1.3883 -1.2679
 6236SOL    HW230345   1.258   0.079   8.901 -0.2015 -0.1562 -2.3846
 6237SOL     OW30346   2.102   3.286   4.902 -0.0490  0.1336  0.2474
 6237SOL    HW130347   2.109   3.293   4.998  0.5134 -1.2896  0.3132
 6237SOL    HW230348   2.010   3.297   4.878  0.0318  1.6374  0.6247
 6238SOL     OW30349   4.002   2.647   8.894 -0.2399 -0.3054  0.1145
 6238SOL    HW130350   3.956   2.721   8.853 -0.9839 -0.7716  0.1137
 6238SOL    HW230351   4.045   2.688   8.970 -2.7271  1.3049  0.6608
 6239SOL     OW30352   2.109   2.607   4.281  0.2715 -0.7257 -0.0852
 6239SOL    HW130353   2.162   2.683   4.258  1.2103 -1.9400 -1.8963
 6239SOL    HW230354   2.047   2.595   4.210 -1.0646 -1.1397  1.1501
 6240SOL     OW30355   2.764   2.836   4.980 -0.6353  0.4191  0.7042
 6240SOL    HW130356   2.757   2.815   5.073 -0.8361 -2.2874  0.0696
 6240SOL    HW230357   2.854   2.806   4.967 -0.8214  0.4812 -0.7393
 6241SOL     OW30358   3.068   2.813   8.257  0.5525  0.0865  0.0141
 6241SOL    HW130359   3.040   2.732   8.300 -1.0671  1.2012  1.0715
 6241SOL    HW230360   3.023   2.813   8.173  0.6586 -1.3914 -0.0428
 6242SOL     OW30361   0.292   2.563  13.133  0.1337 -0.1059 -0.5018
 6242SOL    HW130362   0.267   2.523  13.217 -0.7466  1.7498  0.1075
 6242SOL    HW230363   0.247   2.503  13.073 -0.1518 -0.1655 -0.2263
 6243SOL     OW30364   3.548   4.562  14.164 -0.2791 -0.0121 -0.0960
 6243SOL    HW130365   3.529   4.507  14.088 -2.3222 -1.6078  1.5752
 6243SOL    HW230366   3.459   4.584  14.190  0.7181  3.0519  0.6697
 6244SOL     OW30367   1.723   3.817  14.910 -0.1623 -0.3488 -0.2011
 6244SOL    HW130368   1.721   3.728  14.946 -1.7628 -1.2405 -2.5313
 6244SOL    HW230369   1.817   3.832  14.923  0.2213 -0.4621 -2.8866
 6245SOL     OW30370   0.858   4.644  13.285 -0.2509 -0.3258 -0.7001
 6245SOL    HW130371   0.931   4.703  13.269 -0.9457  1.0469  1.2666
 6245SOL    HW230372   0.893   4.583  13.351  0.4427  0.5097 -0.2999
 6246SOL     OW30373   2.408   0.792  14.528 -0.2141  0.3453  0.5558
 6246SOL    HW130374   2.447   0.877  14.547 -0.6434  0.0576  2.8498
 6246SOL    HW230375   2.342   0.797  14.597 -0.1414 -0.6662  0.7010
 6247SOL     OW30376   1.770   0.459   0.520 -0.6740  0.6226 -0.4496
 6247SOL    HW130377   1.714   0.508   0.579 -0.0169  0.1919  0.5372
 6247SOL    HW230378   1.735   0.479   0.433  0.2642  1.7235 -0.5591
 6248SOL     OW30379   2.052   0.339  16.440 -0.5206  0.0937 -0.0024
 6248SOL    HW130380   2.049   0.298  16.353 -2.1331  0.1814  0.0172
 6248SOL    HW230381   1.960   0.360  16.456  0.0263  1.9374  0.6624
 6249SOL     OW30382   0.232   2.633  12.053  0.1513 -0.0144 -0.3628
 6249SOL    HW130383   0.143   2.669  12.060  0.0294 -0.1614 -1.1679
 6249SOL    HW230384   0.259   2.671  11.970 -1.1269  2.4187  0.3198
 6250SOL     OW30385   0.977   1.024   1.934  0.3468 -0.3470  0.1774
 6250SOL    HW130386   0.973   1.058   1.845 -0.3543 -0.0291  0.3267
 6250SOL    HW230387   1.023   1.089   1.986 -1.6402  0.1805  1.2824
 6251SOL     OW30388   3.002   0.243   6.409  0.0590  0.3495  0.2501
 6251SOL    HW130389   2.962   0.177   6.466  1.6557  0.1736  1.1740
 6251SOL    HW230390   3.057   0.193   6.349 -1.2908 -0.3485 -0.4021
 6252SOL     OW30391   0.043   1.432   2.010 -0.3989 -0.1227 -0.4869
 6252SOL    HW130392   4.714   1.451   2.078 -1.2640 -0.8673 -1.1038
 6252SOL    HW230393   4.736   1.365   1.957 -0.4212 -0.4945  0.0069
 6253SOL     OW30394   4.344   2.805  14.119 -0.4214  0.3858 -0.0712
 6253SOL    HW130395   4.280   2.788  14.049 -0.6284 -0.3035  0.2845
 6253SOL    HW230396   4.425   2.762  14.091 -0.2313 -1.2595  2.9874
 6254SOL     OW30397   2.276   0.194  13.109  0.2230  0.6769 -0.5801
 6254SOL    HW130398   2.323   0.191  13.192  2.3167  0.1495 -1.7977
 6254SOL    HW230399   2.220   0.116  13.112 -1.1265  1.6577 -0.1292
 6255SOL     OW30400   0.176   3.191   4.858 -0.6186 -0.1655 -0.2007
 6255SOL    HW130401   0.106   3.241   4.900  1.2405  1.3224  1.1213
 6255SOL    HW230402   0.141   3.197   4.769  0.7770  1.6321 -0.6227
 6256SOL     OW30403   4.628   0.510   2.970 -0.2623 -0.2618 -0.0995
 6256SOL    HW130404   4.598   0.425   3.001  0.5502 -0.7286 -0.5826
 6256SOL    HW230405   4.666   0.550   3.048 -1.9757 -0.1790  0.6929
 6257SOL     OW30406   4.542   2.412   7.334 -0.2565 -0.0013  0.0815
 6257SOL    HW130407   4.608   2.437   7.399 -1.0967  2.0498  0.1484
 6257SOL    HW230408   4.472   2.476   7.351  0.2158  1.0401 -1.8570
 6258SOL     OW30409   3.918   4.668  11.408 -0.3849  0.3641 -0.4062
 6258SOL    HW130410   3.923   4.667  11.504 -2.5273 -0.8969 -0.3021
 6258SOL    HW230411   3.871   0.011  11.382  0.0785  0.4960 -0.8484
 6259SOL     OW30412   3.737   0.639   2.254 -0.2047  0.2650  0.8100
 6259SOL    HW130413   3.800   0.646   2.182  1.4759 -1.4828  2.1082
 6259SOL    HW230414   3.792   0.646   2.331  1.8156 -2.9792 -0.3200
 6260SOL     OW30415   2.159   3.117   0.153 -0.1758 -0.7668 -0.7764
 6260SOL    HW130416   2.160   3.143   0.246  1.1130  2.5677 -1.6965
 6260SOL    HW230417   2.178   3.024   0.164  2.4294 -0.0818  0.5342
 6261SOL     OW30418   3.468   2.060   6.372 -0.2818 -0.5612 -0.7344
 6261SOL    HW130419   3.441   2.052   6.280 -2.6236  0.3902 -0.1368
 6261SOL    HW230420   3.380   2.040   6.405  0.2090 -1.8427 -0.1976
 6262SOL     OW30421   3.930   1.738   4.502 -0.3664  0.2409 -0.7847
 6262SOL    HW130422   3.908   1.730   4.409 -0.3468 -0.4890 -0.7240
 6262SOL    HW230423   4.008   1.794   4.497  1.1935 -1.8608 -0.0516
 6263SOL     OW30424   1.695   0.281   4.079 -0.0288 -0.2940  0.4892
 6263SOL    HW130425   1.774   0.245   4.039 -0.5772 -1.9987  0.9810
 6263SOL    HW230426   1.683   0.361   4.027  2.7438  0.2113  0.6081
 6264SOL     OW30427   0.273   1.624  10.591  0.3171  0.0423  0.1957
 6264SOL    HW130428   0.320   1.686  10.535  1.4836 -1.2062 -0.1923
 6264SOL    HW230429   0.237   1.685  10.656  1.2092  2.9833 -2.0562
 6265SOL     OW30430   1.442   2.357   8.698  0.0233  0.5033  0.3145
 6265SOL    HW130431   1.432   2.364   8.603 -1.0890 -0.1362  0.3762
 6265SOL    HW230432   1.495   2.277   8.688  1.0557  1.1936  0.2868
 6266SOL     OW30433   2.064   2.856   0.857  0.7906  0.0286 -0.6216
 6266SOL    HW130434   2.068   2.933   0.801 -2.6936  1.0295  0.4917
 6266SOL    HW230435   2.153   2.847   0.892  0.4827 -0.2800  0.0846
 6267SOL     OW30436   3.335   4.022  11.813 -0.5294 -0.1922  0.3121
 6267SOL    HW130437   3.423   3.989  11.792 -1.1544  0.0651 -2.6124
 6267SOL    HW230438   3.284   3.941  11.812  0.0167 -0.5175 -0.8225
 6268SOL     OW30439   4.533   2.313   3.700 -0.3990 -0.1422 -0.3331
 6268SOL    HW130440   4.586   2.388   3.674  0.0280 -0.7764 -1.3138
 6268SOL    HW230441   4.547   2.250   3.629  3.8632  1.5860 -1.0507
 6269SOL     OW30442   3.249   0.812  14.058 -0.0142 -0.3385  0.7605
 6269SOL    HW130443   3.222   0.904  14.058 -1.2073 -0.6889 -1.3162
 6269SOL    HW230444   3.273   0.801  13.966 -0.6180  1.3508  0.3943
 6270SOL     OW30445   3.909   1.990  14.620  0.6839 -0.3565 -0.0757
 6270SOL    HW130446   3.962   2.051  14.570 -0.8982  1.2653  0.2092
 6270SOL    HW230447   3.825   2.001  14.575  1.0278 -1.8539 -1.0635
 6271SOL     OW30448   3.585   0.090   6.267  0.8391  0.8706 -0.2755
 6271SOL    HW130449   3.561   0.182   6.278 -1.2191  0.1144  1.6581
 6271SOL    HW230450   3.632   0.081   6.184 -0.1686  2.1780 -0.9806
 6272SOL     OW30451   4.278   4.328   3.100  0.5194  0.2169  0.2691
 6272SOL    HW130452   4.219   4.403   3.090  2.7509  1.6908 -2.0766
 6272SOL    HW230453   4.214   4.259   3.111 -0.4415  0.6899 -2.4678
 6273SOL     OW30454   2.104   0.239  11.234 -0.1649  0.1507  0.4817
 6273SOL    HW130455   2.101   0.331  11.264 -0.4037 -0.1398  1.3579
 6273SOL    HW230456   2.199   0.230  11.227 -0.3310 -1.9141  0.8724
 6274SOL     OW30457   3.199   2.572   6.085 -0.0131  0.0261 -0.1063
 6274SOL    HW130458   3.230   2.519   6.159 -0.6181  2.4620  1.8861
 6274SOL    HW230459   3.275   2.617   6.047  0.0531  0.5408  0.6370
 6275SOL     OW30460   1.753   3.111  14.945 -0.2234 -0.2277  0.5594
 6275SOL    HW130461   1.745   3.022  14.911  2.0236  0.2845 -1.3302
 6275SOL    HW230462   1.770   3.092  15.037 -0.2957 -2.2568  0.1677
 6276SOL     OW30463   2.098   1.199   2.213 -0.9608  0.0775  0.3514
 6276SOL    HW130464   2.160   1.271   2.225 -0.4646 -0.1795 -0.7009
 6276SOL    HW230465   2.037   1.228   2.280 -0.0274  0.6818  0.9417
 6277SOL     OW30466   4.217   4.399   7.941  0.1306 -0.2977 -0.3027
 6277SOL    HW130467   4.184   4.483   7.910 -0.4414 -0.1319  0.7362
 6277SOL    HW230468   4.177   4.392   8.028  1.6521  0.6111  0.4683
 6278SOL     OW30469   1.832   3.977   7.895  0.4595 -0.4521 -0.3539
 6278SOL    HW130470   1.778   4.004   7.821  1.7192 -0.0823 -1.1331
 6278SOL    HW230471   1.789   3.896   7.923 -3.1158  1.4694 -0.2904
 6279SOL     OW30472   2.336   2.442   0.290 -0.7830  0.0197 -0.7208
 6279SOL    HW130473   2.247   2.478   0.297 -0.3635  0.7438  0.8692
 6279SOL    HW230474   2.338   2.397   0.374 -0.9475 -0.7332 -1.1181
 6280SOL     OW30475   0.878   4.147  14.408 -0.2861  0.2901  0.6287
 6280SOL    HW130476   0.788   4.127  14.380 -0.0226  0.3243 -0.2388
 6280SOL    HW230477   0.910   4.060  14.430 -1.2615 -0.1596  0.2838
 6281SOL     OW30478   0.213   3.480   4.808  0.8213 -0.7070  0.0159
 6281SOL    HW130479   0.188   3.436   4.889 -2.9133 -0.1168 -0.7715
 6281SOL    HW230480   0.284   3.430   4.769  1.1568 -0.3100  0.1226
 6282SOL     OW30481   0.004   1.018   7.976 -0.2599  0.5367 -0.7900
 6282SOL    HW130482   4.685   1.032   7.899 -0.3782  0.8059 -0.6571
 6282SOL    HW230483   4.705   0.942   8.022 -0.3539  1.3194  0.4271
 6283SOL     OW30484   2.111   2.323   8.327 -0.8958 -0.3359  0.3890
 6283SOL    HW130485   2.152   2.407   8.348 -0.4811 -0.3419 -0.4040
 6283SOL    HW230486   2.061   2.345   8.248  0.0908 -0.9450 -0.3963
 6284SOL     OW30487   0.939   3.457  12.979  0.5872 -0.1212  0.0548
 6284SOL    HW130488   1.018   3.461  12.925  1.5282 -2.5021  1.2456
 6284SOL    HW230489   0.926   3.551  12.989 -0.1276 -0.2920  0.7471
 6285SOL     OW30490   0.988   3.624   5.527  0.4050 -0.3254  0.2289
 6285SOL    HW130491   0.934   3.680   5.584  0.5048  1.4430 -1.3918
 6285SOL    HW230492   0.926   3.551   5.529  1.9251 -1.6343 -0.6117
 6286SOL     OW30493   2.512   1.372  15.518 -0.6432  0.5339  0.0170
 6286SOL    HW130494   2.463   1.380  15.600 -0.7899 -1.0746  0.0743
 6286SOL    HW230495   2.445   1.402  15.456  1.8497  0.5980 -2.6753
 6287SOL     OW30496   0.551   1.388  13.061  0.0375 -0.0314 -0.1076
 6287SOL    HW130497   0.493   1.448  13.016  1.1036 -0.0180 -1.4694
 6287SOL    HW230498   0.602   1.357  12.986  0.0816  0.5751 -0.3217
 6288SOL     OW30499   3.201   4.563   4.651 -0.2350  0.0540 -0.5980
 6288SOL    HW130500   3.205   4.514   4.733 -0.0876  0.9112 -0.0891
 6288SOL    HW230501   3.264   4.532   4.586 -0.0236  1.6634 -1.1722
 6289SOL     OW30502   2.807   1.866   4.200 -0.3797 -0.1918  0.3326
 6289SOL    HW130503   2.780   1.924   4.129  1.8020 -1.4296 -1.5432
 6289SOL    HW230504   2.825   1.790   4.144 -1.2306  0.0967 -0.3327
 6290SOL     OW30505   1.445   3.697   8.138  0.0946 -0.3401  0.1445
 6290SOL    HW130506   1.462   3.775   8.190 -1.4148 -0.2842  0.5596
 6290SOL    HW230507   1.505   3.703   8.063 -0.7405 -1.0192 -0.5726
 6291SOL     OW30508   1.855   3.380   5.454 -0.6314 -0.4048 -0.0350
 6291SOL    HW130509   1.767   3.418   5.465  0.0661  0.2621  3.4097
 6291SOL    HW230510   1.858   3.369   5.359 -0.2076  1.0293 -0.1832
 6292SOL     OW30511   2.859   1.808   2.683 -0.2099 -0.1497 -0.0563
 6292SOL    HW130512   2.840   1.901   2.686  3.2976  0.4154  3.2200
 6292SOL    HW230513   2.878   1.782   2.773  0.9626  1.0524  0.0239
 6293SOL     OW30514   3.498   1.773   5.842 -0.1376  0.1085  0.2456
 6293SOL    HW130515   3.479   1.858   5.804 -1.6602 -0.4443 -0.2133
 6293SOL    HW230516   3.453   1.779   5.926  0.1712 -2.1545  0.5817
 6294SOL     OW30517   3.645   2.469   0.615  0.5955  0.2710  0.0683
 6294SOL    HW130518   3.624   2.376   0.628 -1.6574  0.8479  0.4352
 6294SOL    HW230519   3.733   2.480   0.651  0.7445  0.9220 -0.5145
 6295SOL     OW30520   0.105   0.096   7.340 -0.2609 -0.4017 -0.2344
 6295SOL    HW130521   0.108   0.184   7.378 -1.4188  0.4400 -2.0750
 6295SOL    HW230522   0.040   0.107   7.270 -0.5004  1.1363  0.2261
 6296SOL     OW30523   2.190   0.430  11.800 -0.2169 -0.2872  0.1398
 6296SOL    HW130524   2.205   0.505  11.743  1.3593 -1.5868 -1.1629
 6296SOL    HW230525   2.185   0.363  11.732 -2.2407  1.2819 -1.2372
 6297SOL     OW30526   1.332   3.882   1.490  0.1971  0.3269  0.2446
 6297SOL    HW130527   1.256   3.932   1.462  0.5643  0.6088 -0.2582
 6297SOL    HW230528   1.405   3.939   1.465  0.9698 -1.4359 -1.4896
 6298SOL     OW30529   2.402   0.606   9.270  0.0017  0.6807 -0.1500
 6298SOL    HW130530   2.409   0.665   9.195 -1.5747  2.8213  1.4167
 6298SOL    HW230531   2.371   0.671   9.332 -0.1848  1.7822 -1.3992
 6299SOL     OW30532   2.343   1.746   3.201 -0.2868  0.2231  0.4314
 6299SOL    HW130533   2.249   1.763   3.195 -0.1708  1.2450  1.6748
 6299SOL    HW230534   2.363   1.734   3.293 -1.4690 -1.1236  0.5083
 6300SOL     OW30535   1.009   3.520   6.172 -0.2787 -0.2843  0.0699
 6300SOL    HW130536   1.025   3.552   6.260 -2.0796 -1.0442  0.6729
 6300SOL    HW230537   0.935   3.459   6.176  0.0862 -0.6744  0.7786
 6301SOL     OW30538   1.947   1.204   7.403  0.3015  0.0361  0.4117
 6301SOL    HW130539   1.942   1.297   7.379 -0.4384 -0.2386 -0.5116
 6301SOL    HW230540   2.040   1.190   7.417  0.0310 -1.6539  0.4650
 6302SOL     OW30541   2.859   1.847   0.030  0.0398  0.4057  0.3370
 6302SOL    HW130542   2.831   1.773   0.084 -0.9073 -0.8435 -1.8564
 6302SOL    HW230543   2.877   1.810  17.688 -3.1310  0.6533 -0.4388
 6303SOL     OW30544   4.090   2.803   5.633 -0.2141 -0.4333  0.4442
 6303SOL    HW130545   3.994   2.810   5.638 -0.2027  2.7712 -4.5941
 6303SOL    HW230546   4.090   2.709   5.650  1.2605 -0.2799  1.2357
 6304SOL     OW30547   0.869   3.402   2.036  0.1643  0.0534  0.1843
 6304SOL    HW130548   0.944   3.460   2.028  1.3834 -1.3209  1.6134
 6304SOL    HW230549   0.810   3.458   2.085  0.6810  1.0683 -0.3629
 6305SOL     OW30550   1.030   1.191   5.180 -0.6041 -0.2984  0.2561
 6305SOL    HW130551   1.086   1.251   5.229 -1.1465  1.2117 -0.9674
 6305SOL    HW230552   0.941   1.218   5.205 -1.3764 -2.2982 -0.3457
 6306SOL     OW30553   3.060   3.841   7.727  0.6956 -0.1789  0.1947
 6306SOL    HW130554   3.155   3.851   7.726  0.8583 -1.6054  1.4246
 6306SOL    HW230555   3.057   3.833   7.632 -2.2648  0.3439  0.2549
 6307SOL     OW30556   2.314   0.147  15.766  0.9204 -0.5222  0.1612
 6307SOL    HW130557   2.355   0.135  15.681 -1.0481 -2.2158 -0.5562
 6307SOL    HW230558   2.388   0.188  15.810 -1.1219  4.3051 -0.8582
 6308SOL     OW30559   4.415   2.443   1.721  0.1057  0.0031  0.7012
 6308SOL    HW130560   4.378   2.361   1.687  1.3766 -0.6714  0.9381
 6308SOL    HW230561   4.506   2.438   1.692  0.0247  1.7446  0.1102
 6309SOL     OW30562   3.154   4.408   2.678  0.0725  0.1994 -0.1882
 6309SOL    HW130563   3.242   4.406   2.640 -0.0945 -1.6508 -0.4359
 6309SOL    HW230564   3.120   4.488   2.638 -1.2260  1.7476  4.0370
 6310SOL     OW30565   3.771   0.914   1.948 -0.3042 -0.1548  0.0639
 6310SOL    HW130566   3.782   1.006   1.928 -1.8265 -0.2153 -1.0318
 6310SOL    HW230567   3.820   0.878   1.874 -2.0517  2.0967 -2.1453
 6311SOL     OW30568   3.149   1.652   3.939 -0.0704  0.0527  0.3148
 6311SOL    HW130569   3.158   1.565   3.901  1.1338  0.4461 -0.2802
 6311SOL    HW230570   3.237   1.687   3.929 -1.1385  2.5561 -0.6599
 6312SOL     OW30571   2.209   4.654   6.611 -0.2445  0.3026 -0.5742
 6312SOL    HW130572   2.142   4.625   6.549 -1.8284 -0.6587  1.5970
 6312SOL    HW230573   2.168   4.641   6.697 -0.4110 -0.4878 -0.7692
 6313SOL     OW30574   3.725   3.601   8.229 -0.1406  0.0387 -0.2276
 6313SOL    HW130575   3.773   3.607   8.147 -1.4285  0.1327 -0.9576
 6313SOL    HW230576   3.741   3.687   8.267  0.6010  1.0400 -2.8280
 6314SOL     OW30577   0.209   2.507   2.166 -0.1133 -0.3237 -0.1964
 6314SOL    HW130578   0.122   2.543   2.145  0.7578  1.8258 -0.1302
 6314SOL    HW230579   0.194   2.454   2.244 -0.3230  0.0714  0.0317
 6315SOL     OW30580   2.124   3.405   2.821 -0.6933 -0.9898 -0.1992
 6315SOL    HW130581   2.080   3.321   2.810 -1.3546 -0.2576 -3.1314
 6315SOL    HW230582   2.196   3.391   2.759  0.3776  1.5706  0.4755
 6316SOL     OW30583   1.375   4.067   1.140  0.0172 -0.3868  0.6791
 6316SOL    HW130584   1.413   4.034   1.221 -2.2274 -1.0327  1.4602
 6316SOL    HW230585   1.372   4.160   1.160 -2.4705 -0.1375 -0.8914
 6317SOL     OW30586   0.154   3.026   4.523 -0.6093 -0.3186  0.4326
 6317SOL    HW130587   0.163   3.060   4.434 -0.6971  2.2412  1.4020
 6317SOL    HW230588   0.231   3.075   4.554  0.0186 -0.4503 -0.9209
 6318SOL     OW30589   3.568   0.413   3.456  0.1168 -0.2819  0.0061
 6318SOL    HW130590   3.482   0.441   3.487 -0.2353 -1.4255  0.0543
 6318SOL    HW230591   3.557   0.443   3.365  2.7523  1.0931  0.1231
 6319SOL     OW30592   2.277   2.323  15.806  0.2883 -0.1707 -0.2634
 6319SOL    HW130593   2.320   2.397  15.764  1.0434  0.7048  2.0455
 6319SOL    HW230594   2.300   2.249  15.750  0.9556 -0.6959  0.6935
 6320SOL     OW30595   2.149   4.376   1.201  0.4473  0.1673  0.3178
 6320SOL    HW130596   2.235   4.404   1.233  0.4438 -0.2148  0.6694
 6320SOL    HW230597   2.163   4.333   1.117 -1.4374  0.8033 -0.3246
 6321SOL     OW30598   4.662   1.775   5.999  0.5913 -0.1460  0.0174
 6321SOL    HW130599   4.622   1.854   6.035  0.5407 -0.6741  1.1381
 6321SOL    HW230600   0.019   1.795   6.002  0.5167  0.1646  0.2808
 6322SOL     OW30601   2.177   2.756   4.696 -0.1061  0.0009  0.2226
 6322SOL    HW130602   2.101   2.734   4.643 -1.0845  0.7630  1.2955
 6322SOL    HW230603   2.142   2.776   4.783  0.9158 -1.0449  0.8789
 6323SOL     OW30604   3.927   3.341   1.703  0.2229  0.1637 -0.3006
 6323SOL    HW130605   3.869   3.274   1.740  0.1819  0.4046  0.0758
 6323SOL    HW230606   4.000   3.280   1.711 -1.3152 -1.4368  1.5234
 6324SOL     OW30607   4.048   3.859   7.421 -0.3124  0.6331  0.4355
 6324SOL    HW130608   4.056   3.868   7.516  0.8983 -3.4734  0.7232
 6324SOL    HW230609   4.137   3.828   7.405 -0.5990 -0.4646  0.9859
 6325SOL     OW30610   3.292   0.426   4.100  0.3428 -0.1307  0.3505
 6325SOL    HW130611   3.312   0.374   4.023  0.4652  0.0128  0.2863
 6325SOL    HW230612   3.226   0.487   4.068 -0.3914 -1.0532  0.1305
 6326SOL     OW30613   3.815   1.832  14.317  0.3792  0.3513 -0.0494
 6326SOL    HW130614   3.754   1.871  14.379  1.8327  2.2899  0.1723
 6326SOL    HW230615   3.858   1.910  14.281  0.7783  0.4287  0.6012
 6327SOL     OW30616   0.948   2.250   5.431 -0.6627  0.1357 -0.2707
 6327SOL    HW130617   1.026   2.300   5.409  1.2928 -1.9824  1.8954
 6327SOL    HW230618   0.983   2.182   5.489 -0.2923  0.8825  0.3697
 6328SOL     OW30619   3.124   4.141   6.646  0.7483 -0.4710 -0.1392
 6328SOL    HW130620   3.122   4.207   6.576  0.1005 -0.1018  0.2238
 6328SOL    HW230621   3.172   4.180   6.720 -1.8053 -0.6390  1.6162
 6329SOL     OW30622   0.008   1.565  12.717  0.5925  0.0974 -1.0018
 6329SOL    HW130623   4.712   1.597  12.633  0.7521 -1.2407 -1.5705
 6329SOL    HW230624   0.012   1.645  12.770  1.6290 -0.1476 -0.6984
 6330SOL     OW30625   1.997   4.321   5.405 -0.2348  0.0747 -0.1406
 6330SOL    HW130626   2.028   4.230   5.402  1.8249  0.7681  0.9585
 6330SOL    HW230627   1.997   4.336   5.499 -1.6207 -1.6533  0.1418
 6331SOL     OW30628   0.407   2.810   9.502  0.7219  0.4486  0.0241
 6331SOL    HW130629   0.339   2.800   9.569  2.3645 -0.5753  1.5547
 6331SOL    HW230630   0.485   2.833   9.553  1.0667 -0.2856 -0.1786
 6332SOL     OW30631   0.835   1.882   3.079 -0.5634  0.5382  0.6193
 6332SOL    HW130632   0.789   1.804   3.047  1.1351 -0.0270 -0.4430
 6332SOL    HW230633   0.791   1.904   3.161 -1.9591  0.8451 -0.2204
 6333SOL     OW30634   4.111   4.050  11.317 -0.2947  0.7942  0.5227
 6333SOL    HW130635   4.078   4.071  11.229 -0.8896 -0.6695  0.4009
 6333SOL    HW230636   4.041   4.000  11.359 -1.3959  3.0788  1.4135
 6334SOL     OW30637   0.521   3.011   2.682  0.0710  0.6232  0.4696
 6334SOL    HW130638   0.451   3.059   2.728 -0.4345 -1.6664  2.1167
 6334SOL    HW230639   0.480   2.947   2.624  1.3909  0.5007 -0.3288
 6335SOL     OW30640   2.073   2.355   6.113  0.0121  0.1566 -0.2476
 6335SOL    HW130641   2.002   2.393   6.063 -0.4079  0.9655  0.9733
 6335SOL    HW230642   2.150   2.404   6.084  0.7491 -1.4988 -1.1357
 6336SOL     OW30643   1.599   0.767   4.905 -0.3289  0.1550  0.2833
 6336SOL    HW130644   1.574   0.821   4.830 -3.1365 -0.1372  1.0168
 6336SOL    HW230645   1.668   0.710   4.870 -0.9909 -0.0306 -0.7455
 6337SOL     OW30646   2.531   2.954   4.891  0.1511 -0.0648 -0.1642
 6337SOL    HW130647   2.599   2.893   4.920  0.9171  1.3152  0.9446
 6337SOL    HW230648   2.586   3.006   4.832 -1.4492  0.8511 -0.8508
 6338SOL     OW30649   1.541   0.372   1.844 -0.0256  0.0346 -0.7453
 6338SOL    HW130650   1.627   0.330   1.834 -0.7637 -1.9335  1.1804
 6338SOL    HW230651   1.560   0.443   1.906  0.5570  0.9306 -1.9582
 6339SOL     OW30652   3.034   1.858  13.789  0.2211 -0.5529  0.6348
 6339SOL    HW130653   3.019   1.877  13.696 -0.5358 -1.0887  0.6430
 6339SOL    HW230654   3.107   1.915  13.811 -1.5927  2.1168 -0.1720
 6340SOL     OW30655   0.542   4.081   1.710  0.3593 -0.4700 -0.1070
 6340SOL    HW130656   0.599   4.067   1.635  0.5938  1.8216 -0.3741
 6340SOL    HW230657   0.478   4.010   1.709  0.0008 -0.1634  0.4651
 6341SOL     OW30658   1.697   0.138   3.408 -0.5974 -0.0593 -0.7616
 6341SOL    HW130659   1.715   0.085   3.330  0.1745 -1.5673  0.4442
 6341SOL    HW230660   1.679   0.067   3.469 -0.3043  1.1564  0.7694
 6342SOL     OW30661   4.469   1.286  14.760  0.1515 -0.5168  0.4891
 6342SOL    HW130662   4.379   1.316  14.747  1.0510  0.6104 -3.1190
 6342SOL    HW230663   4.462   1.193  14.779  4.4141 -0.7971  0.6318
 6343SOL     OW30664   1.465   1.154   4.328 -0.1852  0.4482 -0.3032
 6343SOL    HW130665   1.510   1.088   4.382 -1.2133  0.8179  1.0066
 6343SOL    HW230666   1.439   1.103   4.251  1.3911 -1.2661  0.3002
 6344SOL     OW30667   3.757   2.092   4.581  0.2918 -0.2184  0.0826
 6344SOL    HW130668   3.797   2.071   4.666 -0.1289 -1.4112 -0.0083
 6344SOL    HW230669   3.837   2.114   4.533  1.5195 -0.1030  2.1761
 6345SOL     OW30670   2.533   0.117   1.143  0.5848  0.2079  0.0653
 6345SOL    HW130671   2.622   0.097   1.173 -0.0667 -0.8454  1.2943
 6345SOL    HW230672   2.522   0.040   1.086 -0.2902  0.1139  0.3593
 6346SOL     OW30673   3.260   3.825   8.444 -0.1868  0.1117 -0.1474
 6346SOL    HW130674   3.221   3.766   8.379 -0.1562  0.6996 -0.7037
 6346SOL    HW230675   3.351   3.794   8.445 -0.5190 -0.8745 -0.3231
 6347SOL     OW30676   3.921   1.848  12.929 -0.2875  0.1568 -0.0798
 6347SOL    HW130677   3.934   1.835  12.835  1.7697 -0.1183  0.2351
 6347SOL    HW230678   3.907   1.943  12.923 -0.5923  0.2433  1.8835
 6348SOL     OW30679   3.047   2.426  17.425  0.3003 -0.7907  0.4890
 6348SOL    HW130680   3.006   2.448  17.341  0.6850 -0.4780  0.3848
 6348SOL    HW230681   3.000   2.490  17.478  1.5653 -0.6649  1.4574
 6349SOL     OW30682   0.336   3.609   4.140  0.4887  0.5414 -0.2509
 6349SOL    HW130683   0.322   3.692   4.095  2.9714  1.2113  0.2150
 6349SOL    HW230684   0.250   3.581   4.171 -0.0313  0.9325 -1.3444
 6350SOL     OW30685   1.352   1.911   5.502  0.2488 -0.1518 -0.2551
 6350SOL    HW130686   1.406   1.984   5.529  0.9279 -0.2630 -1.3222
 6350SOL    HW230687   1.265   1.950   5.514  0.5334  0.0421  1.1453
 6351SOL     OW30688   0.392   4.385   7.445 -0.2449 -0.4507 -0.6867
 6351SOL    HW130689   0.356   4.473   7.456  0.4408 -0.0825 -1.3893
 6351SOL    HW230690   0.306   4.344   7.436 -2.0653  2.6031  2.8772
 6352SOL     OW30691   2.448   2.359   2.226  0.0945  0.2101  0.4217
 6352SOL    HW130692   2.516   2.423   2.244  2.3163 -1.2295 -2.8506
 6352SOL    HW230693   2.478   2.299   2.158  2.7418  0.2609  1.5732
 6353SOL     OW30694   2.100   4.504   4.619 -0.5711  0.1652  0.0352
 6353SOL    HW130695   2.083   4.559   4.542 -1.0358  1.2603  0.9338
 6353SOL    HW230696   2.159   4.565   4.664  1.0250  1.3950 -3.6724
 6354SOL     OW30697   0.430   1.163   5.336 -0.1102  0.5874  0.2684
 6354SOL    HW130698   0.505   1.145   5.279 -0.6094 -1.0242  0.1389
 6354SOL    HW230699   0.381   1.082   5.327 -1.4720  1.3147  1.0811
 6355SOL     OW30700   1.556   4.391   3.390 -0.3856 -0.5202  0.1704
 6355SOL    HW130701   1.645   4.376   3.359 -0.8014 -0.2012 -1.1464
 6355SOL    HW230702   1.502   4.378   3.313 -0.4179  0.0023  0.1064
 6356SOL     OW30703   4.676   1.863   4.286 -0.2636  0.1833  0.8969
 6356SOL    HW130704   4.710   1.948   4.257 -1.8053  0.7662  0.7740
 6356SOL    HW230705   4.642   1.836   4.201  1.3585  0.1993  0.2524
 6357SOL     OW30706   1.251   0.533   8.171 -0.3002  0.6979 -0.2474
 6357SOL    HW130707   1.328   0.492   8.210 -0.5786 -1.4261 -1.9251
 6357SOL    HW230708   1.252   0.611   8.227  1.2751 -0.1034  0.8289
 6358SOL     OW30709   1.974   1.164  11.291  0.0478 -0.3621  0.5007
 6358SOL    HW130710   2.008   1.229  11.229  1.2050  0.1940  1.6955
 6358SOL    HW230711   1.927   1.221  11.351  1.4960  0.1044  1.2087
 6359SOL     OW30712   3.216   0.771   6.186 -0.4029 -0.0063  0.2717
 6359SOL    HW130713   3.223   0.701   6.122  0.4913  1.2090 -0.9538
 6359SOL    HW230714   3.131   0.812   6.172 -0.0845  0.3778 -0.5691
 6360SOL     OW30715   0.438   0.578  12.890 -0.1971 -0.0063 -0.3015
 6360SOL    HW130716   0.423   0.654  12.946  1.2297  1.2753 -1.6243
 6360SOL    HW230717   0.451   0.500  12.944  0.3381  0.8693  0.8355
 6361SOL     OW30718   1.409   3.628  16.302  0.4161  0.0517  0.2955
 6361SOL    HW130719   1.422   3.606  16.394  0.3007 -0.9990  0.0615
 6361SOL    HW230720   1.454   3.553  16.264 -0.5278 -0.8601  0.9635
 6362SOL     OW30721   2.704   4.083   9.510  0.2954 -0.0913  0.1842
 6362SOL    HW130722   2.775   4.021   9.526  1.2425  0.4220 -1.9205
 6362SOL    HW230723   2.636   4.025   9.475 -0.3143  0.6705  0.1030
 6363SOL     OW30724   2.936   4.585   9.254 -0.2084  0.2808  0.8906
 6363SOL    HW130725   2.884   4.639   9.195 -0.5012 -1.5084 -0.5005
 6363SOL    HW230726   3.023   4.591   9.216 -0.8420  2.2443 -0.2687
 6364SOL     OW30727   1.385   4.104   4.555  0.3772  0.0104  0.4231
 6364SOL    HW130728   1.379   4.074   4.464 -1.6530 -1.7835  1.1401
 6364SOL    HW230729   1.445   4.178   4.557 -1.9716  1.9680 -0.9968
 6365SOL     OW30730   2.765   2.130   8.885 -0.0670 -0.0974 -0.0987
 6365SOL    HW130731   2.809   2.061   8.936  1.3719  1.4742  0.7769
 6365SOL    HW230732   2.680   2.094   8.860 -0.9480  1.3172  0.8529
 6366SOL     OW30733   1.380   0.352   4.366  0.2588 -0.2166 -0.2406
 6366SOL    HW130734   1.399   0.412   4.439 -1.4955  2.0873 -1.7066
 6366SOL    HW230735   1.370   0.418   4.297  1.2885 -0.9106 -1.0603
 6367SOL     OW30736   1.687   1.963   3.452 -0.3621 -0.0911  0.0525
 6367SOL    HW130737   1.704   1.940   3.543  0.9069 -0.0723 -0.1834
 6367SOL    HW230738   1.595   1.987   3.462 -0.0126  1.5474 -0.7116
 6368SOL     OW30739   3.240   3.867   7.058  0.1113  0.4026  0.0729
 6368SOL    HW130740   3.296   3.795   7.028  1.3021  1.3962 -0.1107
 6368SOL    HW230741   3.303   3.930   7.095  0.0163 -0.7349  2.1251
 6369SOL     OW30742   4.359   0.958   6.235 -0.4783 -0.3028 -0.5125
 6369SOL    HW130743   4.312   0.991   6.159  1.3046 -0.7404 -1.7952
 6369SOL    HW230744   4.392   0.875   6.201 -2.2167 -1.2007 -0.0153
 6370SOL     OW30745   1.494   2.225   5.862 -0.6007  0.0768  0.1707
 6370SOL    HW130746   1.522   2.169   5.934 -0.2566  1.8551  1.4231
 6370SOL    HW230747   1.399   2.222   5.875 -0.9752  1.0086 -2.3677
 6371SOL     OW30748   2.958   0.802   2.212 -0.3018  0.5232  0.3518
 6371SOL    HW130749   3.034   0.847   2.176  2.0518 -1.8217  2.3912
 6371SOL    HW230750   2.885   0.852   2.175  0.2286  1.1664  0.1964
 6372SOL     OW30751   0.643   3.842   5.014 -0.5105  0.3331  1.0179
 6372SOL    HW130752   0.567   3.788   4.990 -1.0609  0.3461  2.7382
 6372SOL    HW230753   0.613   3.929   4.987 -5.0018 -1.4062  0.3004
 6373SOL     OW30754   3.699   0.599  14.569  0.1031 -0.0676  0.1033
 6373SOL    HW130755   3.751   0.570  14.644  0.0009 -2.6972 -0.8525
 6373SOL    HW230756   3.625   0.640  14.613 -0.2101 -2.0424  1.3859
 6374SOL     OW30757   3.664   2.196   2.119 -0.0684 -0.6074 -0.5815
 6374SOL    HW130758   3.685   2.277   2.072 -2.0654 -0.8146 -1.8003
 6374SOL    HW230759   3.594   2.212   2.181  2.1380  1.3152  1.4272
 6375SOL     OW30760   2.499   0.580  11.590 -0.2368 -0.1757  0.6673
 6375SOL    HW130761   2.569   0.517  11.572 -0.3856  0.3241 -1.7059
 6375SOL    HW230762   2.541   0.644  11.648  0.6433 -1.0374  0.9716
 6376SOL     OW30763   0.831   3.978   1.679 -0.5036  0.0638 -0.2393
 6376SOL    HW130764   0.788   3.910   1.627 -3.5648  2.3903 -0.7880
 6376SOL    HW230765   0.921   3.946   1.682 -0.6614 -0.3021  0.6921
 6377SOL     OW30766   0.259   0.762   2.772 -0.2263 -0.0413  0.2044
 6377SOL    HW130767   0.212   0.820   2.712  1.0792  0.5596 -0.2340
 6377SOL    HW230768   0.186   0.704   2.792 -0.7360  0.3277 -0.5966
 6378SOL     OW30769   0.068   0.080   2.608  0.2451 -0.1272  0.2069
 6378SOL    HW130770   0.113   0.162   2.587 -0.9133  0.2078 -0.9859
 6378SOL    HW230771   0.136   0.016   2.585  0.1212 -0.6551  1.3538
 6379SOL     OW30772   1.902   2.416   3.779 -0.3635  0.4328  0.1633
 6379SOL    HW130773   1.991   2.389   3.758 -0.3289 -0.0177  0.8696
 6379SOL    HW230774   1.855   2.338   3.748 -0.5916  0.5085  0.3185
 6380SOL     OW30775   1.950   2.437   7.118  0.2705  0.2258  0.2816
 6380SOL    HW130776   1.949   2.533   7.119 -0.1428  0.2216  0.5174
 6380SOL    HW230777   1.989   2.418   7.033 -1.0667 -0.3151 -0.2174
 6381SOL     OW30778   0.356   0.736   8.409 -0.2006 -0.2628  0.0675
 6381SOL    HW130779   0.292   0.742   8.339  0.2900 -1.7279 -0.5095
 6381SOL    HW230780   0.344   0.644   8.432  2.0732 -0.3110  1.0564
 6382SOL     OW30781   2.979   4.567   2.247  0.7309 -0.0108  0.3065
 6382SOL    HW130782   3.061   4.528   2.277  1.6373  0.0036 -2.1510
 6382SOL    HW230783   2.931   4.489   2.220  0.8999  0.2233 -0.6621
 6383SOL     OW30784   1.549   2.293  14.095 -0.1077 -0.0529 -0.0154
 6383SOL    HW130785   1.622   2.330  14.045 -1.4982  0.0907 -1.9157
 6383SOL    HW230786   1.561   2.202  14.070 -0.7274  0.0259 -0.6115
 6384SOL     OW30787   0.905   4.551   3.371 -0.2531 -0.1617  0.0476
 6384SOL    HW130788   0.858   4.575   3.451  0.8062  1.6445  0.1366
 6384SOL    HW230789   0.964   4.624   3.353  1.0487 -0.8180  1.5984
 6385SOL     OW30790   0.103   1.515  16.738  0.1578 -0.6161 -0.2769
 6385SOL    HW130791   0.126   1.428  16.705  2.1770 -0.6362  1.1631
 6385SOL    HW230792   0.189   1.540  16.772  0.0926 -1.2924  0.4103
 6386SOL     OW30793   4.092   1.766  10.243 -0.1305  0.0056  0.4719
 6386SOL    HW130794   4.157   1.697  10.229  0.8043  1.0157 -0.2115
 6386SOL    HW230795   4.016   1.716  10.272  0.4325 -1.7034 -1.0161
 6387SOL     OW30796   2.010   1.336   5.570  0.0622 -0.0330  0.2398
 6387SOL    HW130797   2.087   1.392   5.563 -0.4740  0.5941 -0.5120
 6387SOL    HW230798   1.993   1.315   5.479 -1.5168  0.2890  0.4591
 6388SOL     OW30799   2.301   4.444   3.303 -0.1244 -0.0603  0.8177
 6388SOL    HW130800   2.387   4.405   3.288  0.1186  0.2729  1.3337
 6388SOL    HW230801   2.239   4.372   3.291 -0.0036  0.1163 -0.8829
 6389SOL     OW30802   4.097   2.470   7.582  0.0920 -0.0341  0.2842
 6389SOL    HW130803   4.084   2.549   7.634 -0.0967  2.0575 -2.8968
 6389SOL    HW230804   4.177   2.486   7.531  1.0320 -0.5323  1.5948
 6390SOL     OW30805   2.691   4.249   4.874  0.1393 -0.7752 -0.3989
 6390SOL    HW130806   2.604   4.266   4.911 -1.1122 -0.3710 -3.5386
 6390SOL    HW230807   2.683   4.293   4.789 -3.5862 -1.4140 -0.3703
 6391SOL     OW30808   0.428   2.084   6.982  0.3292 -0.6956  0.2664
 6391SOL    HW130809   0.446   2.120   6.895 -0.8426 -1.6708 -0.3686
 6391SOL    HW230810   0.418   2.168   7.029 -0.3329 -1.0114  0.6814
 6392SOL     OW30811   3.853   0.527   7.202  0.0055 -0.0012 -0.0012
 6392SOL    HW130812   3.849   0.556   7.111 -0.9208  0.3501  0.1471
 6392SOL    HW230813   3.808   0.444   7.187 -1.9341  1.0766 -0.1446
 6393SOL     OW30814   3.308   1.789   6.062  0.3944  0.5501 -0.0895
 6393SOL    HW130815   3.351   1.858   6.113 -0.9460  1.5236 -0.2441
 6393SOL    HW230816   3.284   1.723   6.127  2.6851  0.1912  0.3929
 6394SOL     OW30817   1.044   0.619   1.975  0.4254  0.2485  0.0899
 6394SOL    HW130818   1.111   0.597   1.911  0.3443  1.6959 -0.4965
 6394SOL    HW230819   1.089   0.698   2.006  2.1986  0.0247 -1.8910
 6395SOL     OW30820   2.682   1.118   5.543 -0.1899 -0.2856  0.1950
 6395SOL    HW130821   2.620   1.162   5.484  0.2155  1.3653  0.9893
 6395SOL    HW230822   2.659   1.028   5.521  1.4334 -0.9596  1.2496
 6396SOL     OW30823   3.069   4.019   1.947  0.3979  0.2643  0.5972
 6396SOL    HW130824   3.164   4.018   1.939  0.2459  1.8986 -1.4118
 6396SOL    HW230825   3.050   4.101   1.993 -1.1358  0.6293 -0.7061
 6397SOL     OW30826   3.696   3.712   9.317 -0.0341  1.1487  0.0170
 6397SOL    HW130827   3.780   3.749   9.344  0.4206 -0.3581  0.6205
 6397SOL    HW230828   3.690   3.621   9.346  1.9509  1.2105  0.5905
 6398SOL     OW30829   4.351   0.508  14.969  1.2197  0.6824 -0.2096
 6398SOL    HW130830   4.428   0.556  14.936  2.0442 -0.3433  0.2160
 6398SOL    HW230831   4.304   0.515  14.886  1.5618 -1.2072 -0.5546
 6399SOL     OW30832   0.766   1.198   2.886 -1.1191  0.2066 -0.0735
 6399SOL    HW130833   0.830   1.268   2.897 -0.3695 -0.2359 -1.5920
 6399SOL    HW230834   0.684   1.248   2.886  0.1765  2.2890 -1.2086
 6400SOL     OW30835   3.696   4.620   9.546  0.0995 -0.5091 -0.1674
 6400SOL    HW130836   3.710   4.528   9.568 -2.0957 -0.5649  0.9747
 6400SOL    HW230837   3.698   4.622   9.450  2.0120 -1.8133 -0.1511
 6401SOL     OW30838   3.019   2.043   4.907  0.0666 -0.3887  0.4557
 6401SOL    HW130839   3.019   1.961   4.957 -0.1604 -1.3477 -1.1023
 6401SOL    HW230840   3.111   2.035   4.882 -0.0232  1.9266 -0.6433
 6402SOL     OW30841   3.590   4.131   9.795  0.4757  0.1397  0.1152
 6402SOL    HW130842   3.589   4.154   9.702  2.2445 -2.2372 -0.5105
 6402SOL    HW230843   3.644   4.052   9.790 -2.4251 -1.8722  0.9220
 6403SOL     OW30844   0.679   2.077   5.500  0.2185 -0.4884  0.1653
 6403SOL    HW130845   0.734   2.005   5.470 -0.7943 -1.3608  0.4341
 6403SOL    HW230846   0.701   2.153   5.445 -1.2211  0.7394  1.3037
 6404SOL     OW30847   3.099   1.134  11.616  0.1790  0.0094  0.4883
 6404SOL    HW130848   3.054   1.084  11.548 -1.6253  1.8604  0.3057
 6404SOL    HW230849   3.166   1.178  11.564 -1.3724 -0.9960 -2.3249
 6405SOL     OW30850   0.741   2.531   3.179 -0.4952  0.0489 -0.2941
 6405SOL    HW130851   0.743   2.548   3.085  3.2296 -0.7947 -0.3748
 6405SOL    HW230852   0.662   2.479   3.195 -0.1511 -0.2854  0.3480
 6406SOL     OW30853   1.293   1.271   3.572 -0.3822  0.0489 -0.0571
 6406SOL    HW130854   1.328   1.278   3.661  2.4700  0.1018 -1.1847
 6406SOL    HW230855   1.218   1.329   3.572 -0.2381  0.2365 -0.3922
 6407SOL     OW30856   3.581   1.926   2.032  0.4333 -0.6075  0.1721
 6407SOL    HW130857   3.626   2.010   2.021  1.4863 -1.1466  0.2985
 6407SOL    HW230858   3.516   1.950   2.098 -1.8239 -0.1313 -2.2076
 6408SOL     OW30859   1.328   3.598  10.334  0.3834  0.3485  0.1149
 6408SOL    HW130860   1.279   3.656  10.393  1.3621 -0.2002  1.4817
 6408SOL    HW230861   1.318   3.513  10.377 -1.5799  0.4017 -0.2505
 6409SOL     OW30862   3.460   3.961   1.983  0.3229  0.5754  0.7902
 6409SOL    HW130863   3.463   3.920   1.897 -2.7769  2.2550 -0.1044
 6409SOL    HW230864   3.468   3.887   2.044  2.9032  1.1754  1.1765
 6410SOL     OW30865   3.159   2.827   1.040 -0.5205  0.2431  0.2372
 6410SOL    HW130866   3.185   2.741   1.073 -1.2099  0.3425  1.0374
 6410SOL    HW230867   3.242   2.875   1.037 -0.9519  0.9205 -0.9199
 6411SOL     OW30868   2.623   0.610  17.142 -0.1295  0.5532  0.3128
 6411SOL    HW130869   2.542   0.579  17.102 -0.5680 -1.3118  2.6241
 6411SOL    HW230870   2.603   0.631  17.233 -1.0205  1.7502 -0.1667
 6412SOL     OW30871   4.165   0.420   8.158  0.3033  0.0642 -0.4003
 6412SOL    HW130872   4.231   0.487   8.139  0.5528 -0.5271 -1.6189
 6412SOL    HW230873   4.109   0.475   8.212  2.6494 -0.3144  2.4293
 6413SOL     OW30874   1.298   2.017  16.827 -0.0325 -0.2224 -0.3073
 6413SOL    HW130875   1.353   2.023  16.905 -1.4019 -3.5941  0.9413
 6413SOL    HW230876   1.215   2.041  16.869  0.0028 -1.7904  0.6620
 6414SOL     OW30877   3.954   1.315   8.598  0.0200  0.2250 -0.1499
 6414SOL    HW130878   3.892   1.246   8.576  1.0857 -0.9088  0.4572
 6414SOL    HW230879   3.896   1.392   8.593 -0.7730 -0.2678  1.3695
 6415SOL     OW30880   1.005   4.095  12.802  0.3161 -1.2844 -0.0172
 6415SOL    HW130881   0.939   4.137  12.747  1.3845  0.7969  0.3038
 6415SOL    HW230882   0.978   4.146  12.878 -2.1699  0.1821 -1.8932
 6416SOL     OW30883   4.732   0.225   6.603  0.0010 -0.3140  0.0510
 6416SOL    HW130884   0.058   0.294   6.580 -0.1967 -0.1186  0.0973
 6416SOL    HW230885   4.657   0.269   6.565  0.4082 -1.2353 -1.8103
 6417SOL     OW30886   1.954   4.729   6.853 -0.1699  0.2842  0.2645
 6417SOL    HW130887   1.895   4.728   6.928  0.5504 -0.4044  0.8344
 6417SOL    HW230888   2.012   0.065   6.876  0.6082  0.7810 -3.2383
 6418SOL     OW30889   1.838   4.519   3.000  0.1868  0.4654  0.2364
 6418SOL    HW130890   1.920   4.482   3.034  0.2417 -0.6192 -1.0387
 6418SOL    HW230891   1.774   4.479   3.059  0.6776  0.9338  1.0880
 6419SOL     OW30892   2.608   1.911  17.477  0.3277  0.0616 -0.0035
 6419SOL    HW130893   2.657   1.833  17.449  1.8840  1.5710 -1.4725
 6419SOL    HW230894   2.533   1.903  17.417 -1.4615  0.5495  2.1653
 6420SOL     OW30895   3.450   1.237   4.598  0.3480  0.2632  0.0909
 6420SOL    HW130896   3.436   1.327   4.627 -0.1760  0.8159 -1.8821
 6420SOL    HW230897   3.404   1.243   4.515 -1.9600 -1.7372  1.1949
 6421SOL     OW30898   2.361   0.842   8.306 -0.1220  0.1532 -0.6772
 6421SOL    HW130899   2.432   0.801   8.257 -0.7015 -0.5236 -0.9369
 6421SOL    HW230900   2.381   0.809   8.394 -0.6813  0.1807 -0.5373
 6422SOL     OW30901   0.954   3.458  11.243 -0.2861  0.0985  0.2249
 6422SOL    HW130902   0.896   3.497  11.178 -0.4207 -0.1424  0.1999
 6422SOL    HW230903   1.005   3.409  11.179  1.1084  1.8666 -0.0205
 6423SOL     OW30904   0.833   2.875   4.864 -0.1558 -0.0754  0.3193
 6423SOL    HW130905   0.890   2.944   4.899 -0.2351  0.0126  0.2739
 6423SOL    HW230906   0.852   2.894   4.772  1.6273 -0.3484  0.6243
 6424SOL     OW30907   3.716   3.804  11.090  0.0873  0.0775 -0.6460
 6424SOL    HW130908   3.651   3.837  11.028  0.6206  0.1463 -1.1677
 6424SOL    HW230909   3.665   3.740  11.139  2.4668 -1.3764 -0.0721
 6425SOL     OW30910   0.193   2.431  13.343 -0.3202  0.3720  0.4864
 6425SOL    HW130911   0.148   2.358  13.301  0.9369  1.4917 -2.7856
 6425SOL    HW230912   0.230   2.383  13.417 -2.6291 -0.4488  1.0970
 6426SOL     OW30913   2.119   4.347   4.301 -0.6605 -0.4092 -0.1979
 6426SOL    HW130914   2.050   4.280   4.297  1.1643 -2.0984 -3.6753
 6426SOL    HW230915   2.069   4.411   4.251 -0.0905  1.5296  1.6910
 6427SOL     OW30916   4.264   2.417   6.371  0.1494 -0.1749 -0.6301
 6427SOL    HW130917   4.235   2.395   6.460  1.6455  1.8024  0.3472
 6427SOL    HW230918   4.208   2.358   6.321 -2.6308  1.4377  0.6046
 6428SOL     OW30919   2.858   3.515   7.245 -0.1321 -0.3028  0.2460
 6428SOL    HW130920   2.842   3.606   7.221  2.3317 -0.6252 -2.5880
 6428SOL    HW230921   2.953   3.518   7.247 -0.0956  0.9326 -2.8231
 6429SOL     OW30922   2.656   0.901   7.714  0.3808  0.1107  0.1987
 6429SOL    HW130923   2.647   0.967   7.645  0.2927  1.7017  1.7175
 6429SOL    HW230924   2.679   0.960   7.786  1.2998  0.5985 -0.4891
 6430SOL     OW30925   1.202   3.030   4.854  0.2813  0.3154 -0.1380
 6430SOL    HW130926   1.118   3.064   4.885 -0.6316 -1.5364 -0.5386
 6430SOL    HW230927   1.235   3.113   4.820  1.2491 -0.3797 -0.9050
 6431SOL     OW30928   2.537   1.639  17.059 -0.0893 -0.0458  0.0266
 6431SOL    HW130929   2.619   1.642  17.009  0.5956 -2.7009  1.0006
 6431SOL    HW230930   2.482   1.684  16.995  0.1408 -1.6625 -1.3402
 6432SOL     OW30931   3.680   3.797  15.050  0.1880 -0.4082 -0.4636
 6432SOL    HW130932   3.667   3.793  14.955 -1.1048  1.8365 -0.3876
 6432SOL    HW230933   3.729   3.714  15.054  1.3102  0.4026  2.2858
 6433SOL     OW30934   4.507   4.019   4.254 -0.5888  0.2749  0.1046
 6433SOL    HW130935   4.594   3.986   4.231 -2.0068 -3.4110  0.0052
 6433SOL    HW230936   4.507   4.023   4.349  0.2099 -0.9456  0.1603
 6434SOL     OW30937   3.988   2.576   6.191 -0.1288  0.2039 -0.2903
 6434SOL    HW130938   3.987   2.631   6.269 -0.2204 -0.0278 -0.1263
 6434SOL    HW230939   3.966   2.493   6.233 -3.1158  0.4398 -1.3991
 6435SOL     OW30940   2.112   4.416   2.219 -0.4737 -0.3677 -0.2129
 6435SOL    HW130941   2.167   4.479   2.171 -1.3526  0.3791 -0.2471
 6435SOL    HW230942   2.024   4.442   2.191  0.2742  1.9986 -0.4284
 6436SOL     OW30943   2.726   0.989   2.175  0.2502 -0.8432  0.1389
 6436SOL    HW130944   2.736   1.084   2.185 -2.7626 -0.3161 -1.9819
 6436SOL    HW230945   2.639   0.984   2.136  1.0609 -0.2866 -1.7293
 6437SOL     OW30946   2.790   0.674   5.872  0.2784  0.1892 -0.1827
 6437SOL    HW130947   2.886   0.676   5.867  0.3189 -0.1286  0.4281
 6437SOL    HW230948   2.754   0.655   5.785  1.5884  0.3787 -0.7599
 6438SOL     OW30949   0.543   0.325   7.927 -0.5568 -0.4821 -0.5277
 6438SOL    HW130950   0.587   0.407   7.949  1.8663 -1.5511 -1.4010
 6438SOL    HW230951   0.584   0.267   7.991  0.3232  0.4551 -0.2515
 6439SOL     OW30952   4.050   3.156   2.715 -0.0971  0.2409 -0.0327
 6439SOL    HW130953   3.968   3.114   2.740  1.6462 -1.6054  2.7603
 6439SOL    HW230954   4.065   3.202   2.798 -0.6231  0.9177 -0.3180
 6440SOL     OW30955   1.648   3.461  14.576 -0.0716  0.0343 -0.5598
 6440SOL    HW130956   1.607   3.394  14.522  0.4480 -1.9817  1.5125
 6440SOL    HW230957   1.685   3.405  14.644 -0.7961  0.0177 -0.1859
 6441SOL     OW30958   3.898   0.200   1.220 -0.0795 -0.3078 -0.0588
 6441SOL    HW130959   3.938   0.114   1.232 -0.3148 -0.6676 -1.7385
 6441SOL    HW230960   3.884   0.235   1.307 -0.9705 -0.3957 -0.1733
 6442SOL     OW30961   4.076   1.115  13.017 -0.5719 -0.1512  0.1461
 6442SOL    HW130962   4.141   1.131  12.949 -1.1480  0.2635 -0.3065
 6442SOL    HW230963   3.996   1.112  12.964  1.0200  0.0032 -2.2447
 6443SOL     OW30964   0.070   3.934   8.586 -0.1225  0.1699  0.6257
 6443SOL    HW130965   0.018   3.904   8.661  1.0654  2.7070  2.4759
 6443SOL    HW230966   0.008   3.998   8.552  0.0057  0.8561  1.6823
 6444SOL     OW30967   0.508   0.247  12.080  0.0758 -0.5144  0.3640
 6444SOL    HW130968   0.499   0.153  12.067 -2.9781 -0.3360  1.1932
 6444SOL    HW230969   0.600   0.261  12.058  0.1183 -2.4313 -0.6086
 6445SOL     OW30970   0.598   2.033   3.724 -0.4561  0.5199  0.1138
 6445SOL    HW130971   0.596   2.013   3.818  1.9485  0.8100  0.2166
 6445SOL    HW230972   0.567   1.948   3.693  0.0779  0.1262  0.6648
 6446SOL     OW30973   3.983   3.057  11.272 -0.4468 -0.0432  0.1015
 6446SOL    HW130974   3.964   3.043  11.180 -1.2985 -0.2844  0.3154
 6446SOL    HW230975   3.924   2.996  11.316  2.0363 -1.6585  1.1843
 6447SOL     OW30976   1.811   3.788   1.112  0.0439 -0.2837 -1.2706
 6447SOL    HW130977   1.863   3.720   1.156  1.7064  0.8098 -1.5633
 6447SOL    HW230978   1.756   3.730   1.060  1.1000  1.1611 -3.9598
 6448SOL     OW30979   0.096   4.542   3.445 -0.3749 -0.3495 -0.6778
 6448SOL    HW130980   0.118   4.630   3.412 -2.7570  0.0189 -1.2890
 6448SOL    HW230981   0.074   4.562   3.536  1.5278  0.1564 -0.3302
 6449SOL     OW30982   4.551   3.079  12.693  0.2530 -0.2513  0.6103
 6449SOL    HW130983   4.574   3.085  12.786 -0.2670  0.3148  0.7043
 6449SOL    HW230984   4.459   3.102  12.706  0.4193  1.7751 -1.7879
 6450SOL     OW30985   4.404   0.519   7.501 -0.3909 -0.0774  0.3535
 6450SOL    HW130986   4.426   0.432   7.533  0.7919 -0.6303 -2.0436
 6450SOL    HW230987   4.337   0.554   7.560  1.5820  1.1544  1.8693
 6451SOL     OW30988   0.430   3.284   3.575  0.1471  0.3527  0.7956
 6451SOL    HW130989   0.352   3.248   3.533  2.2774 -2.7128 -0.5467
 6451SOL    HW230990   0.502   3.242   3.528 -1.1914 -0.6837 -0.3198
 6452SOL     OW30991   2.232   2.892   2.967 -0.2896  0.2490  0.1804
 6452SOL    HW130992   2.199   2.882   3.057 -0.0715  0.6897  0.3124
 6452SOL    HW230993   2.179   2.829   2.919  1.7138 -1.6751  0.4963
 6453SOL     OW30994   1.755   0.876  10.722 -0.6614 -0.7572 -0.6436
 6453SOL    HW130995   1.772   0.827  10.642 -1.3843 -0.7170 -0.8246
 6453SOL    HW230996   1.843   0.898  10.752 -0.6326  0.2017 -1.4188
 6454SOL     OW30997   1.281   0.102   0.396 -0.3540 -0.1089  0.5927
 6454SOL    HW130998   1.308   0.183   0.438  1.6026 -0.0105 -0.8508
 6454SOL    HW230999   1.338   0.105   0.319  0.1694  0.9491  1.0239
 6455SOL     OW31000   2.832   0.471   0.512  0.1340  0.3715  0.2155
 6455SOL    HW131001   2.924   0.486   0.486  0.2681 -0.1367  0.4082
 6455SOL    HW231002   2.846   0.451   0.604  0.8570 -0.2611 -0.0338
 6456SOL     OW31003   1.844   3.875  12.742  0.0314  0.2028 -0.7399
 6456SOL    HW131004   1.811   3.818  12.673 -1.5096  1.2589 -0.8855
 6456SOL    HW231005   1.918   3.915  12.697 -1.4746  1.6065 -1.9905
 6457SOL     OW31006   3.444   4.642   1.671 -0.0519 -0.0846  0.0937
 6457SOL    HW131007   3.360   4.653   1.717  0.5539  4.0099  0.2869
 6457SOL    HW231008   3.416   4.562   1.627 -0.6664  0.3847 -0.3794
 6458SOL     OW31009   3.824   2.845   5.591 -0.1261 -0.4745  0.0496
 6458SOL    HW131010   3.795   2.936   5.587  0.1579 -0.3441  1.1552
 6458SOL    HW231011   3.814   2.798   5.508  0.0147 -0.9783  0.3199
 6459SOL     OW31012   0.920   3.889   0.812 -0.1819  0.2095 -0.4609
 6459SOL    HW131013   0.900   3.801   0.843  0.0596 -0.3339 -1.8417
 6459SOL    HW231014   0.952   3.915   0.898  0.7756  2.3635 -1.4644
 6460SOL     OW31015   2.285   1.062  17.321  0.1174 -0.3640 -0.4491
 6460SOL    HW131016   2.234   1.096  17.247  3.0265  3.3099 -0.8222
 6460SOL    HW231017   2.296   1.148  17.363 -2.5741  0.9328 -2.3785
 6461SOL     OW31018   1.193   2.760   3.591 -0.5585  0.0626 -0.1355
 6461SOL    HW131019   1.259   2.723   3.650 -1.5484 -2.2338 -0.4962
 6461SOL    HW231020   1.248   2.772   3.514 -0.6783  2.8851  0.1865
 6462SOL     OW31021   3.449   0.065   7.303 -0.1303  0.0870  0.3877
 6462SOL    HW131022   3.488   0.104   7.225  0.8569  0.6291  1.1515
 6462SOL    HW231023   3.405   0.142   7.338 -0.0565  0.1835  0.2680
 6463SOL     OW31024   3.529   3.247   1.720  0.1419  0.1082 -0.2079
 6463SOL    HW131025   3.611   3.200   1.738 -0.0541 -0.4355 -0.7533
 6463SOL    HW231026   3.460   3.186   1.695  1.8172 -2.5806  1.6665
 6464SOL     OW31027   2.378   0.692   0.287  0.0406  0.2355  0.2083
 6464SOL    HW131028   2.332   0.753   0.229 -0.2621 -0.7403 -0.5792
 6464SOL    HW231029   2.464   0.732   0.301  0.5106 -0.2630 -1.2265
 6465SOL     OW31030   1.547   4.701   0.630  0.6506  0.5715  0.9336
 6465SOL    HW131031   1.537   4.658   0.716  2.2274 -1.8537 -0.1088
 6465SOL    HW231032   1.529   0.057   0.647  1.3946  0.9585 -0.4705
 6466SOL     OW31033   4.109   3.065   5.734  0.0611  0.2501  0.1404
 6466SOL    HW131034   4.053   3.019   5.796 -1.1483 -0.8439 -1.7695
 6466SOL    HW231035   4.118   2.998   5.667  1.0414  1.8439 -1.3148
 6467SOL     OW31036   3.578   3.084   2.409 -0.1044  0.2630 -0.6843
 6467SOL    HW131037   3.513   3.066   2.341  0.3020 -1.5310 -0.5878
 6467SOL    HW231038   3.592   3.178   2.402 -0.6722  0.4294  0.4461
 6468SOL     OW31039   4.421   0.392   6.145  0.2395  0.3961  0.3684
 6468SOL    HW131040   4.480   0.403   6.071 -0.2920 -0.2941 -0.1611
 6468SOL    HW231041   4.483   0.358   6.209 -0.3698 -1.8050 -0.2167
 6469SOL     OW31042   2.655   1.700   2.032 -0.1663 -0.0398  0.2563
 6469SOL    HW131043   2.706   1.678   1.954 -1.8060  2.7729 -1.6309
 6469SOL    HW231044   2.566   1.704   1.995  0.1619 -3.5082 -0.9232
 6470SOL     OW31045   0.805   1.516   5.013 -0.5787 -0.2200 -0.5669
 6470SOL    HW131046   0.882   1.465   4.986  1.4239  1.3953  2.0918
 6470SOL    HW231047   0.774   1.542   4.926 -1.2446  1.0526  0.0431
 6471SOL     OW31048   2.782   3.323   3.136 -0.6078 -0.1703 -0.2418
 6471SOL    HW131049   2.762   3.358   3.223  0.8978  0.1441 -0.0302
 6471SOL    HW231050   2.698   3.348   3.096  0.3791  0.1874 -2.1216
 6472SOL     OW31051   2.144   0.312   5.575 -0.0259  0.2746  0.4347
 6472SOL    HW131052   2.209   0.242   5.582  0.6798  0.7760 -1.1294
 6472SOL    HW231053   2.188   0.396   5.591  0.6240  0.1061 -0.4836
 6473SOL     OW31054   4.273   1.794   1.958 -0.7809  0.1956 -0.2749
 6473SOL    HW131055   4.263   1.878   2.004  0.7420  0.2306 -0.0030
 6473SOL    HW231056   4.180   1.784   1.939 -1.0900 -0.2033  1.4809
 6474SOL     OW31057   3.897   1.643  15.347 -0.3476  0.2689  0.4071
 6474SOL    HW131058   3.906   1.610  15.257 -1.5064 -1.3288  0.8878
 6474SOL    HW231059   3.947   1.579  15.397 -0.1714  0.4878  0.5153
 6475SOL     OW31060   1.965   2.996   4.617 -0.0379 -0.0128  0.2782
 6475SOL    HW131061   1.959   2.905   4.585 -0.3823 -0.5425  1.8644
 6475SOL    HW231062   2.039   3.006   4.676 -1.0928  1.6809  1.3033
 6476SOL     OW31063   1.728   1.122   3.261 -0.3025  0.3176  0.4589
 6476SOL    HW131064   1.809   1.167   3.239  0.0950  0.4867  2.3424
 6476SOL    HW231065   1.766   1.041   3.294  0.5889  0.0541 -1.2180
 6477SOL     OW31066   4.464   1.007   1.739 -0.0933  0.7122  0.0222
 6477SOL    HW131067   4.397   1.027   1.674 -1.0936 -0.8995  0.5639
 6477SOL    HW231068   4.536   1.070   1.729  0.0518  0.4206 -0.8193
 6478SOL     OW31069   0.620   2.645   5.389  0.5841  0.2440  0.6530
 6478SOL    HW131070   0.601   2.622   5.298 -0.2183 -1.6057  1.2850
 6478SOL    HW231071   0.542   2.611   5.433  0.3610  0.5130  0.4637
 6479SOL     OW31072   4.283   3.510   8.470  0.5016 -0.0662  0.6110
 6479SOL    HW131073   4.281   3.507   8.565 -0.8412  4.2787  0.7004
 6479SOL    HW231074   4.355   3.571   8.457 -1.1559  1.7589  0.0231
 6480SOL     OW31075   4.335   3.984   7.033  0.0238  0.3594 -0.3256
 6480SOL    HW131076   4.408   4.030   6.991  0.8840 -0.7218 -0.0202
 6480SOL    HW231077   4.316   3.920   6.964 -1.6095 -1.5603  1.9177
 6481SOL     OW31078   4.553   1.431   6.906  0.3394 -0.2999 -0.3004
 6481SOL    HW131079   4.576   1.339   6.918 -2.5880 -1.0804 -0.7625
 6481SOL    HW231080   4.527   1.427   6.814  0.1642  0.6480 -0.2952
 6482SOL     OW31081   3.503   4.011   3.603 -0.0022 -0.2810  0.5225
 6482SOL    HW131082   3.570   3.943   3.604 -0.2321 -0.5182 -0.5715
 6482SOL    HW231083   3.451   3.982   3.528  0.3872  0.2184  0.0583
 6483SOL     OW31084   1.084   1.968   4.081 -0.1488  0.0452  0.1578
 6483SOL    HW131085   1.016   1.983   4.015  1.8070  1.3889 -1.5241
 6483SOL    HW231086   1.050   1.884   4.112  1.9264 -0.3071  1.5230
 6484SOL     OW31087   4.660   3.861   8.111  0.0242 -0.3850 -0.4506
 6484SOL    HW131088   4.734   3.811   8.145  0.1142  0.6935  0.9495
 6484SOL    HW231089   4.594   3.793   8.125  0.9468 -1.6111 -1.9632
 6485SOL     OW31090   0.695   0.313   6.479 -0.3885 -0.0606 -0.8397
 6485SOL    HW131091   0.782   0.346   6.500 -0.5625  0.4811 -0.9771
 6485SOL    HW231092   0.703   0.279   6.389  1.8263 -0.8837 -0.3256
 6486SOL     OW31093   3.024   0.249   3.062 -0.1137 -0.1507  0.6944
 6486SOL    HW131094   3.091   0.212   3.005  0.4901  2.1315 -0.0862
 6486SOL    HW231095   2.953   0.186   3.050  0.6359 -0.8555  0.0025
 6487SOL     OW31096   0.072   4.449   0.374 -0.3204  0.2703  0.5350
 6487SOL    HW131097   0.026   4.381   0.325 -0.5262  1.0890 -0.4239
 6487SOL    HW231098   0.145   4.402   0.414 -0.0147  1.3491  1.2413
 6488SOL     OW31099   0.021   0.914   1.409  0.3811 -0.5170  0.1312
 6488SOL    HW131100   0.039   0.886   1.319  0.3510  0.2769 -0.1147
 6488SOL    HW231101   4.661   0.915   1.414  0.3424  0.8090 -0.9934
 6489SOL     OW31102   3.537   1.048   6.502 -0.5221  0.0799 -0.0421
 6489SOL    HW131103   3.528   1.132   6.548 -2.4778 -0.2514  0.1627
 6489SOL    HW231104   3.458   1.046   6.449 -1.8154  1.4446  1.8303
 6490SOL     OW31105   2.829   3.304   3.872  0.0795  0.0807 -0.3534
 6490SOL    HW131106   2.751   3.360   3.872  0.9454  1.2812 -1.1270
 6490SOL    HW231107   2.804   3.222   3.914 -2.3987  0.4666 -1.0689
 6491SOL     OW31108   1.625   3.498   1.682 -1.1809  0.2896  0.1931
 6491SOL    HW131109   1.623   3.590   1.709 -0.9046 -0.0632  1.3902
 6491SOL    HW231110   1.632   3.498   1.586 -2.0800  1.6157  0.1387
 6492SOL     OW31111   0.559   0.525   6.985  0.2169  0.2359  0.2350
 6492SOL    HW131112   0.549   0.556   6.895  0.4099 -0.6998 -0.1126
 6492SOL    HW231113   0.643   0.561   7.013  0.4124  0.7971 -1.0831
 6493SOL     OW31114   2.074   3.132  16.418 -0.1970 -0.1776 -0.0575
 6493SOL    HW131115   2.000   3.190  16.403 -0.3796 -0.0286  1.4168
 6493SOL    HW231116   2.032   3.046  16.422 -4.0957  1.7959  0.5185
 6494SOL     OW31117   1.142   2.424   8.818 -0.0029  0.3257 -0.3757
 6494SOL    HW131118   1.186   2.432   8.903  1.7775  2.0273 -1.4596
 6494SOL    HW231119   1.222   2.430   8.766  2.3003 -1.5874  2.9507
 6495SOL     OW31120   3.875   4.185   9.455  0.3182  0.1399  0.6640
 6495SOL    HW131121   3.860   4.104   9.405  0.8333 -0.7209  1.9133
 6495SOL    HW231122   3.913   4.247   9.393  0.9381  0.4303  1.3351
 6496SOL     OW31123   1.928   4.525  10.899 -0.1050  0.4171  0.4048
 6496SOL    HW131124   1.868   4.554  10.831 -0.6964 -1.9348 -0.0692
 6496SOL    HW231125   1.967   4.608  10.929 -1.0053  1.4555 -1.3173
 6497SOL     OW31126   2.610   0.250   4.748  0.0047  0.2742  0.1344
 6497SOL    HW131127   2.658   0.315   4.801 -0.6122  1.0719 -0.2794
 6497SOL    HW231128   2.524   0.266   4.787 -0.0684  1.1461 -0.3749
 6498SOL     OW31129   3.200   4.638  11.157  0.2832 -0.1549 -0.5314
 6498SOL    HW131130   3.133   4.580  11.196  0.6094 -0.1304  0.0556
 6498SOL    HW231131   3.261   4.650  11.229  1.1443  2.4304 -1.7108
 6499SOL     OW31132   2.452   4.572   7.853  0.2407  0.0538 -0.1040
 6499SOL    HW131133   2.358   4.589   7.849  0.2020  0.2421  1.5821
 6499SOL    HW231134   2.495   4.656   7.872  1.1054 -1.0804  2.9064
 6500SOL     OW31135   2.778   0.837  17.522  0.3281  0.1851  0.4536
 6500SOL    HW131136   2.708   0.820  17.585 -1.2317 -1.5710 -1.7306
 6500SOL    HW231137   2.713   0.838  17.451  1.1765 -1.4683 -0.3714
 6501SOL     OW31138   1.256   2.922  10.547  0.3045  0.2351  0.1594
 6501SOL    HW131139   1.184   2.860  10.557  0.7236 -0.1348  0.9815
 6501SOL    HW231140   1.211   2.987  10.495 -1.1437 -1.3509 -0.5647
 6502SOL     OW31141   2.143   4.712   4.102  0.1408 -0.3406 -0.3584
 6502SOL    HW131142   2.103   4.627   4.120  2.3686 -1.5118 -0.9148
 6502SOL    HW231143   2.238   4.706   4.100  0.0641 -0.7894 -2.6947
 6503SOL     OW31144   2.645   0.543   2.250 -0.2464 -0.2080  0.0374
 6503SOL    HW131145   2.551   0.551   2.236 -0.7798 -2.8359  2.2004
 6503SOL    HW231146   2.660   0.520   2.159 -0.5975 -0.3480  0.0152
 6504SOL     OW31147   1.841   0.684   6.853 -0.3889 -0.3610  0.0127
 6504SOL    HW131148   1.910   0.675   6.918  0.7396 -2.8967 -1.5316
 6504SOL    HW231149   1.816   0.775   6.867  1.2900  0.2671 -1.0843
 6505SOL     OW31150   4.465   0.923   1.353 -0.0290 -0.6157 -0.4622
 6505SOL    HW131151   4.500   1.010   1.375 -0.8605 -0.4155  0.0678
 6505SOL    HW231152   4.481   0.923   1.259  0.1752  0.6862 -0.4214
 6506SOL     OW31153   4.353   1.998   2.343  0.1201  0.0955  0.1771
 6506SOL    HW131154   4.416   1.947   2.394 -0.2287  0.6694  1.1848
 6506SOL    HW231155   4.300   2.048   2.405 -0.2951 -0.5522  0.3382
 6507SOL     OW31156   4.140   0.316   5.922 -0.0406  0.3368 -0.1253
 6507SOL    HW131157   4.192   0.371   5.864 -1.5922  0.5884 -1.2827
 6507SOL    HW231158   4.182   0.322   6.008  0.3622 -0.2938 -0.2748
 6508SOL     OW31159   1.125   2.955   2.823  0.5590 -0.3051 -0.1758
 6508SOL    HW131160   1.113   2.881   2.763 -0.8606 -0.5745  0.4255
 6508SOL    HW231161   1.050   3.011   2.804  1.0952  0.2995 -0.5122
 6509SOL     OW31162   1.185   0.056   5.143  0.0494 -0.7303  0.4905
 6509SOL    HW131163   1.202   0.011   5.226  1.0547  0.0227  0.6931
 6509SOL    HW231164   1.249   0.018   5.084 -1.2749 -1.4289 -0.4943
 6510SOL     OW31165   2.793   0.044   9.093  0.2961  0.2367  0.3033
 6510SOL    HW131166   2.699   0.039   9.071  0.4465  1.3131 -0.5573
 6510SOL    HW231167   2.774   0.079   9.179 -0.4539  1.3432 -0.3110
 6511SOL     OW31168   0.870   0.572  16.116 -0.2363 -1.1071 -0.5359
 6511SOL    HW131169   0.838   0.536  16.199 -0.2203 -0.2507 -0.1529
 6511SOL    HW231170   0.809   0.536  16.052 -2.0526  2.8990 -1.0841
 6512SOL     OW31171   4.427   3.440   8.117 -0.1558  0.5652  0.7461
 6512SOL    HW131172   4.366   3.391   8.173 -1.1444 -3.0896 -3.5018
 6512SOL    HW231173   4.380   3.446   8.034 -1.4321 -0.9609  1.3652
 6513SOL     OW31174   1.041   4.381   6.171 -0.2442 -0.6290 -0.2478
 6513SOL    HW131175   1.062   4.320   6.100  0.9233 -1.7687  1.0845
 6513SOL    HW231176   1.079   4.329   6.242  0.0886 -1.2048 -0.8454
 6514SOL     OW31177   4.560   0.955   2.658 -0.2957 -0.6515  0.0512
 6514SOL    HW131178   4.512   1.031   2.688  1.0978  0.3128 -0.1560
 6514SOL    HW231179   4.502   0.899   2.606  0.2155 -1.2312  0.0944
 6515SOL     OW31180   2.619   2.313  16.774 -0.0537 -0.1641  0.7982
 6515SOL    HW131181   2.670   2.360  16.839  2.4604 -2.7239  0.6867
 6515SOL    HW231182   2.691   2.258  16.742 -1.2254 -2.0872  1.4580
 6516SOL     OW31183   0.635   3.008   5.910 -0.2697  0.1773  0.3687
 6516SOL    HW131184   0.560   3.062   5.886 -1.5633 -1.2289  1.2779
 6516SOL    HW231185   0.602   2.955   5.982  1.5608 -2.1591 -0.4993
 6517SOL     OW31186   1.218   0.554   4.981 -0.1353 -0.6077  0.1398
 6517SOL    HW131187   1.218   0.472   4.933  1.7753  0.1251 -1.1315
 6517SOL    HW231188   1.226   0.618   4.910 -1.3318 -0.8375 -0.1923
 6518SOL     OW31189   1.089   0.584  10.153  0.5403  0.4772  0.0432
 6518SOL    HW131190   1.098   0.679  10.146 -2.3009  0.9104  2.0123
 6518SOL    HW231191   1.149   0.556  10.084 -0.5342  0.2747 -0.8010
 6519SOL     OW31192   2.803   4.208   4.416 -0.3226  0.1822 -0.3632
 6519SOL    HW131193   2.882   4.256   4.440 -0.3544  0.7116 -1.3312
 6519SOL    HW231194   2.768   4.265   4.348  0.3998  0.9017 -0.1313
 6520SOL     OW31195   3.943   3.416   0.848 -0.1968  0.0102 -0.0821
 6520SOL    HW131196   3.928   3.363   0.769 -2.3578 -0.9227  0.9537
 6520SOL    HW231197   3.911   3.504   0.832 -2.1163 -0.5737  0.5037
 6521SOL     OW31198   1.227   2.995   8.201 -0.5587 -0.6183  0.2004
 6521SOL    HW131199   1.262   2.933   8.265  1.9346  0.3691 -0.2295
 6521SOL    HW231200   1.155   3.038   8.248  0.4544  1.2895  0.0096
 6522SOL     OW31201   2.404   0.572  16.980 -0.3003 -0.1813 -0.1891
 6522SOL    HW131202   2.316   0.536  16.995  0.7898 -3.0655 -0.8071
 6522SOL    HW231203   2.390   0.667  16.977 -1.9666 -0.3463  2.3254
 6523SOL     OW31204   3.802   1.115   3.919 -0.1064 -0.0234  0.7241
 6523SOL    HW131205   3.779   1.183   3.983  1.2357 -0.1760  1.3659
 6523SOL    HW231206   3.887   1.089   3.952  0.1809 -0.5541 -0.4318
 6524SOL     OW31207   2.130   4.648  16.734  0.1740 -0.3730 -0.1668
 6524SOL    HW131208   2.062   4.610  16.678  0.4986  2.4162 -2.4969
 6524SOL    HW231209   2.151   4.728  16.685  1.2646  1.1006  2.6667
 6525SOL     OW31210   3.380   3.491  14.271  0.1872  0.0757  0.7636
 6525SOL    HW131211   3.463   3.455  14.240  0.5042 -0.2268  1.9858
 6525SOL    HW231212   3.411   3.534  14.350 -0.6647  1.5887  0.2764
 6526SOL     OW31213   4.240   2.967   8.827 -0.0131  0.6100  0.1766
 6526SOL    HW131214   4.172   3.030   8.801 -0.5163  0.9958  2.4326
 6526SOL    HW231215   4.219   2.963   8.920  2.7104 -1.0037  0.6850
 6527SOL     OW31216   4.652   0.296   7.338  0.3394  0.3060  0.2713
 6527SOL    HW131217   4.605   0.258   7.264  2.4044 -1.6423 -0.0559
 6527SOL    HW231218   4.693   0.367   7.288  0.1732 -0.4164 -0.8769
 6528SOL     OW31219   4.719   3.575  16.764  0.1852  0.2471  0.6710
 6528SOL    HW131220   4.660   3.506  16.796 -0.2687  2.1565  3.9835
 6528SOL    HW231221   0.019   3.614  16.843  1.6360  0.2925 -0.0211
 6529SOL     OW31222   4.502   1.071   2.142  0.3319  0.9704  0.9453
 6529SOL    HW131223   4.593   1.043   2.156  0.1394 -0.1322  0.0034
 6529SOL    HW231224   4.478   1.114   2.225 -1.5589  0.0885  0.8616
 6530SOL     OW31225   1.400   4.446   4.472  0.1117  0.6486  0.2248
 6530SOL    HW131226   1.331   4.390   4.437 -0.6224  2.3189 -1.0299
 6530SOL    HW231227   1.362   4.529   4.442  0.4196  0.9186  0.5818
 6531SOL     OW31228   0.535   3.423  17.685 -0.2120 -0.5967 -0.0399
 6531SOL    HW131229   0.472   3.386  17.624  0.1345  0.8733 -1.3015
 6531SOL    HW231230   0.485   3.403   0.020  0.7952 -1.7868  0.2949
 6532SOL     OW31231   2.084   3.927   4.249 -0.9296  0.1386 -0.5983
 6532SOL    HW131232   2.054   3.856   4.307  2.0104 -0.5871  0.0165
 6532SOL    HW231233   2.170   3.932   4.290 -0.7155 -1.0475 -0.8886
 6533SOL     OW31234   3.457   0.776   7.584 -0.5631  1.1980  0.2156
 6533SOL    HW131235   3.397   0.802   7.654 -1.0137  0.3609  0.1428
 6533SOL    HW231236   3.461   0.862   7.543  1.4107  0.6027 -0.8568
 6534SOL     OW31237   3.235   2.661   2.744 -0.2656  0.1098 -0.2407
 6534SOL    HW131238   3.179   2.676   2.668  0.4899  1.0736 -0.6223
 6534SOL    HW231239   3.171   2.654   2.815 -0.7022  1.0835 -0.5278
 6535SOL     OW31240   3.013   2.702   2.968 -0.0971  0.1367 -0.1978
 6535SOL    HW131241   3.036   2.698   3.061 -0.1652 -0.7968 -0.2277
 6535SOL    HW231242   2.961   2.781   2.955 -1.5415 -0.5218  1.5484
 6536SOL     OW31243   4.189   3.744   3.479  0.7932 -0.4478 -0.2157
 6536SOL    HW131244   4.281   3.754   3.503 -0.3060  1.0219  3.2950
 6536SOL    HW231245   4.155   3.833   3.484 -0.5654 -1.0032  0.3466
 6537SOL     OW31246   3.451   3.602   3.104 -0.0600 -0.3293  0.0096
 6537SOL    HW131247   3.482   3.679   3.151 -1.2385 -0.5773  1.2086
 6537SOL    HW231248   3.476   3.626   3.015 -3.0745 -1.2547 -1.0635
 6538SOL     OW31249   3.720   0.472   1.071  0.3790  0.8698  0.1655
 6538SOL    HW131250   3.724   0.380   1.044 -0.1169  0.3556  1.7859
 6538SOL    HW231251   3.662   0.473   1.148 -1.7109  1.7847 -1.4109
 6539SOL     OW31252   3.011   2.301   2.489 -0.6866  0.3179 -0.0363
 6539SOL    HW131253   3.088   2.343   2.526 -0.6179 -1.1436  1.4915
 6539SOL    HW231254   2.965   2.374   2.447  1.2020  0.1966 -2.3434
 6540SOL     OW31255   2.755   0.383   5.823 -0.6328 -0.6855  0.1859
 6540SOL    HW131256   2.737   0.308   5.765 -1.0621 -0.8788  0.5671
 6540SOL    HW231257   2.674   0.431   5.809 -0.7672 -1.2241 -0.8980
 6541SOL     OW31258   1.490   0.543   0.556 -0.3282  0.0413 -0.0295
 6541SOL    HW131259   1.451   0.618   0.513 -0.0755  2.0843  3.2560
 6541SOL    HW231260   1.555   0.594   0.605  0.0070 -1.1072  0.7289
 6542SOL     OW31261   1.152   4.529   7.595 -0.2835  0.1958  0.2045
 6542SOL    HW131262   1.085   4.531   7.527  0.0382  0.7455 -0.0987
 6542SOL    HW231263   1.104   4.581   7.660  0.0051  0.1815  0.4273
 6543SOL     OW31264   3.236   1.413   3.820 -0.0875 -0.7657 -0.6284
 6543SOL    HW131265   3.323   1.414   3.781  1.2042  0.8790  2.2774
 6543SOL    HW231266   3.210   1.324   3.796 -0.2834 -1.0129  0.4922
 6544SOL     OW31267   2.007   0.774  13.481 -0.0313 -0.2393  0.7641
 6544SOL    HW131268   2.026   0.816  13.564 -2.2265  1.9446  0.1572
 6544SOL    HW231269   2.088   0.788  13.432  0.3883 -0.6412  1.3417
 6545SOL     OW31270   1.857   3.282  16.356  0.3957  0.4989 -0.4581
 6545SOL    HW131271   1.848   3.336  16.434 -1.1644  0.9695 -0.9717
 6545SOL    HW231272   1.836   3.350  16.293 -0.5527 -0.2142 -0.9032
 6546SOL     OW31273   4.318   2.200   2.745 -0.4295  0.0518  0.2436
 6546SOL    HW131274   4.255   2.236   2.807  0.2833 -1.9188  2.1428
 6546SOL    HW231275   4.377   2.157   2.807 -1.8034 -1.5122  0.4700
 6547SOL     OW31276   3.424   2.724  12.728  0.3292  0.1996 -0.0249
 6547SOL    HW131277   3.486   2.776  12.779  2.4144  0.2904 -2.6882
 6547SOL    HW231278   3.471   2.742  12.647 -0.9607  0.1986 -0.7712
 6548SOL     OW31279   0.025   1.039  13.856 -0.5013 -0.3131 -0.3784
 6548SOL    HW131280   0.048   1.061  13.766 -2.5071  0.6414 -0.6547
 6548SOL    HW231281   0.089   1.099  13.893 -0.7971  0.9019 -1.8383
 6549SOL     OW31282   3.454   2.022   7.992  0.2796 -0.3929 -0.0777
 6549SOL    HW131283   3.455   2.035   8.087  3.1158 -0.1067 -0.1513
 6549SOL    HW231284   3.548   2.022   7.975  0.5823 -0.3152  1.6113
 6550SOL     OW31285   3.351   2.752   5.490 -0.4039 -0.2422 -0.0064
 6550SOL    HW131286   3.286   2.704   5.541 -1.7713  2.3482  0.7092
 6550SOL    HW231287   3.314   2.742   5.402  0.2650  0.4970 -0.3761
 6551SOL     OW31288   0.039   4.231   0.852  0.0264  0.3766  0.3714
 6551SOL    HW131289   0.079   4.300   0.906  2.8540 -0.4931 -0.5985
 6551SOL    HW231290   0.011   4.277   0.774  0.2964  2.1597  1.3263
 6552SOL     OW31291   1.270   3.996   7.838 -0.0540  0.4111  0.1731
 6552SOL    HW131292   1.258   3.929   7.905  0.2111 -0.5518 -0.7490
 6552SOL    HW231293   1.188   3.991   7.789 -0.2833 -1.8514  0.8063
 6553SOL     OW31294   4.274   2.555   4.113  0.0827  0.1705  0.1103
 6553SOL    HW131295   4.257   2.499   4.189 -0.2096  0.8762  0.5604
 6553SOL    HW231296   4.334   2.494   4.071  1.5085  2.0871 -0.6325
 6554SOL     OW31297   2.498   2.628   8.709 -0.1147 -0.4090  0.2234
 6554SOL    HW131298   2.588   2.630   8.679 -0.1132 -0.4575  0.2251
 6554SOL    HW231299   2.499   2.687   8.785  1.5744  0.1413 -0.2333
 6555SOL     OW31300   0.210   2.427  14.743  0.2574 -0.6983 -0.0111
 6555SOL    HW131301   0.198   2.351  14.686 -1.8325  0.0308 -0.5379
 6555SOL    HW231302   0.164   2.405  14.825 -0.5084  1.4800  0.1484
 6556SOL     OW31303   2.122   1.052   1.597 -0.0265 -0.2240 -0.2734
 6556SOL    HW131304   2.185   1.109   1.554 -1.6748  1.7793 -0.0293
 6556SOL    HW231305   2.074   1.117   1.649  1.5055 -0.3733  1.3337
 6557SOL     OW31306   1.783   3.438  16.128 -0.3610  0.4749 -0.0398
 6557SOL    HW131307   1.767   3.527  16.162  1.9925  0.4627  1.0528
 6557SOL    HW231308   1.723   3.443  16.053 -0.3385 -0.3155 -0.1041
 6558SOL     OW31309   3.140   1.075  15.688  0.2430  0.0155  0.1549
 6558SOL    HW131310   3.116   0.989  15.722  0.1585 -0.1659 -0.3675
 6558SOL    HW231311   3.067   1.123  15.728 -0.5633 -2.2118  1.3232
 6559SOL     OW31312   0.343   3.919   9.836  0.1099  0.3352  0.2370
 6559SOL    HW131313   0.367   3.956   9.920  1.1912  0.2642 -0.0368
 6559SOL    HW231314   0.343   3.989   9.771 -0.5851 -1.8443 -2.1264
 6560SOL     OW31315   4.734   0.292   1.922  0.1516 -0.1587 -0.3696
 6560SOL    HW131316   0.069   0.245   1.881  2.3228  3.1597 -0.3439
 6560SOL    HW231317   4.655   0.276   1.870  0.0065 -0.9180  0.0851
 6561SOL     OW31318   1.420   3.768   8.493 -0.0821 -0.3939 -0.0307
 6561SOL    HW131319   1.337   3.807   8.466  1.2368  1.3389 -1.6178
 6561SOL    HW231320   1.479   3.801   8.425 -0.9856  0.2211 -0.5192
 6562SOL     OW31321   2.931   0.868   6.750  0.2846 -0.3607 -0.1071
 6562SOL    HW131322   2.907   0.795   6.806  0.7125  1.8643  2.9714
 6562SOL    HW231323   2.978   0.831   6.675  1.7317 -0.1570  0.6914
 6563SOL     OW31324   2.582   0.797   4.686  0.0412  0.0280  0.6735
 6563SOL    HW131325   2.622   0.718   4.650 -0.5491  1.2125 -2.5688
 6563SOL    HW231326   2.606   0.782   4.778 -0.9241 -0.0200  0.9187
 6564SOL     OW31327   2.788   1.000   9.787  0.4561 -0.4037  0.4481
 6564SOL    HW131328   2.750   0.912   9.781 -1.6840  0.4512  1.6053
 6564SOL    HW231329   2.733   1.039   9.855  2.0010  1.7289  0.4596
 6565SOL     OW31330   0.365   2.441   4.083 -0.6180 -0.5231 -0.0795
 6565SOL    HW131331   0.444   2.470   4.037  0.8300  0.8623  3.2489
 6565SOL    HW231332   0.348   2.364   4.029  0.1153 -0.7516  0.0016
 6566SOL     OW31333   4.375   1.781   5.342  0.3688 -0.1323  0.7726
 6566SOL    HW131334   4.469   1.762   5.351  0.9627  2.2560 -0.4274
 6566SOL    HW231335   4.336   1.744   5.421  0.4869 -0.2841  0.7612
 6567SOL     OW31336   2.384   4.206   5.298 -0.6316  0.4772  0.1507
 6567SOL    HW131337   2.477   4.216   5.320 -0.5860 -1.5772  0.8826
 6567SOL    HW231338   2.355   4.296   5.285 -0.1395  0.7142  0.6869
 6568SOL     OW31339   1.756   1.851   1.779 -0.1819 -0.0847  0.4293
 6568SOL    HW131340   1.727   1.798   1.853 -0.6735  0.3844  0.5677
 6568SOL    HW231341   1.679   1.898   1.748  0.8805 -0.9565 -3.5632
 6569SOL     OW31342   1.389   1.929   6.973  0.0148 -0.5398 -0.9771
 6569SOL    HW131343   1.450   1.973   7.031 -1.3464  0.7388 -0.5262
 6569SOL    HW231344   1.444   1.900   6.900 -0.4745 -2.2599 -0.6762
 6570SOL     OW31345   2.950   3.713   6.875 -0.2293 -0.4019 -0.2209
 6570SOL    HW131346   3.035   3.670   6.883  0.1529  0.6215  1.2336
 6570SOL    HW231347   2.913   3.728   6.962  0.6869  0.9888 -0.0656
 6571SOL     OW31348   1.339   1.928   8.437 -0.1476  0.0611 -0.2784
 6571SOL    HW131349   1.252   1.910   8.473 -0.8920  0.3178 -1.9643
 6571SOL    HW231350   1.373   1.986   8.505 -1.2358  2.3492 -1.7173
 6572SOL     OW31351   4.673   3.495   7.969  0.5306 -0.0348 -0.3819
 6572SOL    HW131352   4.615   3.514   7.895 -0.4380 -2.3155 -0.1834
 6572SOL    HW231353   4.610   3.446   8.022  0.6391 -1.4563 -1.5722
 6573SOL     OW31354   1.148   1.524   8.226  0.3363 -0.7555  0.0720
 6573SOL    HW131355   1.104   1.487   8.303  0.8720 -1.0576  0.2351
 6573SOL    HW231356   1.076   1.519   8.163 -2.0242 -1.4689  2.8349
 6574SOL     OW31357   2.007   2.283  14.744  0.6473  0.5922  0.1279
 6574SOL    HW131358   1.920   2.301  14.779  0.6720 -0.5589  0.7927
 6574SOL    HW231359   1.992   2.189  14.745 -2.1055  1.0240 -2.9460
 6575SOL     OW31360   1.332   0.333   0.554  0.0544  0.5314 -0.0657
 6575SOL    HW131361   1.392   0.300   0.620 -2.2022  1.8121  2.6191
 6575SOL    HW231362   1.373   0.420   0.547 -0.2535  0.3528 -4.5254
 6576SOL     OW31363   2.693   1.922   3.772 -0.1809 -0.2007  0.3568
 6576SOL    HW131364   2.766   1.984   3.771 -0.1136 -0.2865 -0.0570
 6576SOL    HW231365   2.680   1.904   3.865 -1.9730 -2.2744 -0.3165
 6577SOL     OW31366   4.084   2.996   3.764  0.2516  0.0798 -0.0552
 6577SOL    HW131367   4.023   2.933   3.725 -1.1862 -0.1231  2.5047
 6577SOL    HW231368   4.049   3.083   3.747 -1.0050 -0.0117  2.0057
 6578SOL     OW31369   3.681   3.626   5.208 -0.5682  0.3589  0.2862
 6578SOL    HW131370   3.615   3.696   5.203  0.4086  1.2941  0.3284
 6578SOL    HW231371   3.630   3.548   5.189  0.7977 -0.6488  0.7429
 6579SOL     OW31372   2.855   2.854   7.372 -0.1081 -0.2044 -0.6202
 6579SOL    HW131373   2.915   2.824   7.440  0.5144  1.4188 -0.4529
 6579SOL    HW231374   2.797   2.777   7.367  1.8120 -1.6310 -1.0360
 6580SOL     OW31375   0.673   0.285  14.951 -0.2626  0.0655  0.1114
 6580SOL    HW131376   0.757   0.330  14.965 -0.9357  1.4228 -0.2042
 6580SOL    HW231377   0.662   0.256  15.041 -0.2149 -2.1566 -0.5961
 6581SOL     OW31378   2.331   0.405   9.073  0.1695 -0.2112  0.2769
 6581SOL    HW131379   2.391   0.470   9.110 -0.0783 -0.2227  0.6963
 6581SOL    HW231380   2.271   0.466   9.031 -1.5313  0.8336  4.1802
 6582SOL     OW31381   4.303   1.540   5.115 -0.3616  0.4373 -0.2978
 6582SOL    HW131382   4.310   1.609   5.181  1.3528  0.5736 -0.6004
 6582SOL    HW231383   4.300   1.600   5.040 -2.2757  1.7542  0.8429
 6583SOL     OW31384   4.477   4.085   1.878 -0.3138 -0.5187  0.1181
 6583SOL    HW131385   4.445   4.032   1.951  0.0163 -0.6551  0.1643
 6583SOL    HW231386   4.553   4.132   1.911 -0.2199 -1.3223  1.0384
 6584SOL     OW31387   3.129   2.338   1.999  0.3875  0.5730  0.3993
 6584SOL    HW131388   3.060   2.284   2.037  1.7575 -3.0704 -2.3252
 6584SOL    HW231389   3.123   2.304   1.910  2.0601  0.2510  0.4178
 6585SOL     OW31390   0.358   2.338   7.500 -0.5556 -0.2890  0.3597
 6585SOL    HW131391   0.302   2.336   7.422  3.7060  0.5866 -2.7145
 6585SOL    HW231392   0.435   2.293   7.466 -0.0945  1.3864 -0.8309
 6586SOL     OW31393   3.531   2.890   7.727  0.3403 -0.0851 -0.1556
 6586SOL    HW131394   3.487   2.855   7.650  0.4004  1.5726 -0.9363
 6586SOL    HW231395   3.597   2.830   7.760 -0.3189  0.5720  2.3956
 6587SOL     OW31396   2.196   0.862   0.195  0.0922 -0.0492 -0.1183
 6587SOL    HW131397   2.145   0.805   0.253  2.4690 -1.4086  0.6538
 6587SOL    HW231398   2.171   0.950   0.223  0.4648 -0.0028  0.0624
 6588SOL     OW31399   0.119   4.340   3.262 -0.2571  0.1546  0.0819
 6588SOL    HW131400   0.124   4.433   3.282 -0.3699 -0.4414  2.8046
 6588SOL    HW231401   0.036   4.317   3.304  0.5131  0.3671  1.7166
 6589SOL     OW31402   2.771   3.349   8.352 -0.3786 -0.3450 -0.0324
 6589SOL    HW131403   2.773   3.316   8.262 -2.2262 -0.6646  0.0499
 6589SOL    HW231404   2.689   3.399   8.355 -0.8131 -1.0387 -0.2277
 6590SOL     OW31405   2.477   3.730   4.477 -0.6901 -0.2898 -0.0196
 6590SOL    HW131406   2.570   3.741   4.460 -0.5947  1.4492  1.6847
 6590SOL    HW231407   2.486   3.716   4.571 -2.4821  3.1832  0.6453
 6591SOL     OW31408   1.270   2.401   8.314 -0.0415 -0.3829  0.9026
 6591SOL    HW131409   1.229   2.396   8.400 -2.4546 -1.5915 -0.3241
 6591SOL    HW231410   1.362   2.404   8.343  0.4024  0.3237 -0.5837
 6592SOL     OW31411   2.988   0.293  10.792  0.2306 -0.4555  0.5554
 6592SOL    HW131412   2.961   0.378  10.825 -2.9016 -0.9661 -0.6876
 6592SOL    HW231413   3.083   0.300  10.788  0.4326 -2.9990  0.6787
 6593SOL     OW31414   2.982   3.734   5.376 -0.1616 -0.3592 -1.0258
 6593SOL    HW131415   2.964   3.733   5.470 -1.3072  0.5904 -1.2244
 6593SOL    HW231416   2.930   3.811   5.352  0.9881  1.0336  0.9579
 6594SOL     OW31417   3.210   0.354   9.777  0.0217 -0.0951  0.2503
 6594SOL    HW131418   3.250   0.309   9.851 -2.4978 -1.7691  0.5968
 6594SOL    HW231419   3.286   0.408   9.754  1.5603 -2.6226 -0.5427
 6595SOL     OW31420   0.677   1.232   7.085 -0.1527 -0.3290  0.2353
 6595SOL    HW131421   0.711   1.142   7.090  0.0339 -0.2015  1.1749
 6595SOL    HW231422   0.734   1.270   7.018  0.3709 -0.6442  0.5005
 6596SOL     OW31423   0.052   1.879  13.747 -0.7393 -0.0421  0.2151
 6596SOL    HW131424   0.014   1.818  13.810  2.2963 -2.0713  0.0307
 6596SOL    HW231425   0.143   1.890  13.773 -1.0113 -0.1590  1.2004
 6597SOL     OW31426   3.795   3.172  11.481 -0.0400 -0.0029  1.3214
 6597SOL    HW131427   3.878   3.188  11.435 -0.0307 -0.0074  1.3362
 6597SOL    HW231428   3.801   3.234  11.553  2.2489  1.0030  0.2885
 6598SOL     OW31429   4.544   3.991  14.742  0.1908 -0.0109 -0.2874
 6598SOL    HW131430   4.476   3.926  14.760 -1.0360  1.3139 -0.1408
 6598SOL    HW231431   4.598   3.945  14.678  0.2570  1.0427 -0.9753
 6599SOL     OW31432   2.549   2.255   0.571  0.3695  0.0658 -0.1167
 6599SOL    HW131433   2.464   2.252   0.525 -0.5119 -0.2037  1.5356
 6599SOL    HW231434   2.548   2.173   0.620 -1.7244 -0.7216 -1.4675
 6600SOL     OW31435   0.167   0.302   2.163  0.3059 -0.8177  0.4201
 6600SOL    HW131436   0.175   0.207   2.172 -0.5109 -1.0116 -0.8980
 6600SOL    HW231437   0.117   0.295   2.082 -1.0741  0.2913  1.1766
 6601SOL     OW31438   2.791   4.675   1.570 -0.8765 -0.3948  0.1651
 6601SOL    HW131439   2.698   4.691   1.583 -1.1328  0.8355 -3.0445
 6601SOL    HW231440   2.794   4.580   1.578 -0.3972 -0.6802 -3.2165
 6602SOL     OW31441   2.074   2.243   9.145 -0.1738 -0.5188  0.0979
 6602SOL    HW131442   1.992   2.219   9.189 -0.7391 -1.9065 -1.7307
 6602SOL    HW231443   2.040   2.236   9.056  1.3851 -0.7623 -0.4753
 6603SOL     OW31444   0.976   3.094   4.993 -0.0593 -0.1688  0.2725
 6603SOL    HW131445   0.894   3.107   5.041 -1.0776 -1.9033 -1.0069
 6603SOL    HW231446   1.024   3.174   5.014 -0.9132  0.3456  0.2424
 6604SOL     OW31447   3.405   1.038   7.158 -0.1673 -0.6940 -0.2670
 6604SOL    HW131448   3.342   0.968   7.178  1.5244 -2.4981 -1.3288
 6604SOL    HW231449   3.492   1.000   7.168 -0.3932 -1.3191 -0.6666
 6605SOL     OW31450   0.353   4.494   2.764 -0.3171 -0.0303  0.2705
 6605SOL    HW131451   0.367   4.585   2.789 -0.2970 -0.1542  0.7108
 6605SOL    HW231452   0.275   4.469   2.812  0.1178 -0.3297  0.8273
 6606SOL     OW31453   2.873   2.759   9.463  0.0690 -0.5423 -0.1717
 6606SOL    HW131454   2.954   2.716   9.436  1.1037 -0.9009  3.4392
 6606SOL    HW231455   2.896   2.836   9.411  0.1468 -0.4914 -0.0619
 6607SOL     OW31456   1.391   0.562   9.757  0.0677 -0.5643  0.7082
 6607SOL    HW131457   1.464   0.562   9.819  1.6228 -2.8619 -1.1319
 6607SOL    HW231458   1.441   0.548   9.676 -0.5348  2.3101 -0.1596
 6608SOL     OW31459   3.920   0.692   7.689  0.2390  0.5313 -0.3819
 6608SOL    HW131460   3.926   0.734   7.603 -2.3386 -0.7820 -1.1953
 6608SOL    HW231461   4.011   0.707   7.716  0.4506  3.1383 -2.4361
 6609SOL     OW31462   0.474   3.027  11.895 -0.5754 -0.0222  0.2482
 6609SOL    HW131463   0.407   3.096  11.901 -0.8227 -0.0545 -1.8170
 6609SOL    HW231464   0.421   2.948  11.909 -0.5202 -0.0005  0.5749
 6610SOL     OW31465   0.044   4.556  14.063 -0.1162  0.7608 -0.5001
 6610SOL    HW131466   4.695   4.514  14.065  1.1798 -1.7240  2.2890
 6610SOL    HW231467   0.020   4.642  14.098 -0.5844  0.4746 -0.1143
 6611SOL     OW31468   3.245   0.995   8.662 -0.0304  0.0838 -0.5907
 6611SOL    HW131469   3.167   1.018   8.711  0.6210 -1.4581  1.1822
 6611SOL    HW231470   3.291   1.078   8.673  0.9180 -0.5113 -0.0747
 6612SOL     OW31471   3.002   0.897   5.679 -0.6919  0.6415 -0.3526
 6612SOL    HW131472   2.984   0.808   5.707 -2.3716  1.6389  1.7505
 6612SOL    HW231473   2.927   0.935   5.725 -1.1429 -0.2081 -0.4039
 6613SOL     OW31474   1.263   0.671   7.556 -0.4588  0.2086  0.6596
 6613SOL    HW131475   1.341   0.616   7.557 -1.5064 -1.2860  0.0289
 6613SOL    HW231476   1.281   0.711   7.641  2.9471 -1.0475  0.5136
 6614SOL     OW31477   0.392   3.156   8.129  0.9120 -0.3786 -0.1163
 6614SOL    HW131478   0.343   3.091   8.078 -0.1151  0.0582  0.3185
 6614SOL    HW231479   0.327   3.226   8.126  1.3560  0.0216 -0.3444
 6615SOL     OW31480   0.087   3.920   5.594 -0.2461  0.0688 -0.2106
 6615SOL    HW131481   0.163   3.961   5.553  1.4965 -2.5547  0.3845
 6615SOL    HW231482   0.021   3.981   5.563 -0.1329  0.3328  0.0606
 6616SOL     OW31483   4.690   3.035   1.454  0.2139  0.0848  0.8957
 6616SOL    HW131484   4.669   3.127   1.435  0.1056 -0.2142 -0.4522
 6616SOL    HW231485   0.026   3.057   1.512  1.2794  0.8707 -0.7194
 6617SOL     OW31486   2.707   2.167   7.029  0.3274  0.5603  0.1310
 6617SOL    HW131487   2.647   2.114   6.976  1.3074 -1.8060  1.3975
 6617SOL    HW231488   2.685   2.258   7.005 -2.0987 -0.0604 -0.0744
 6618SOL     OW31489   1.565   0.912   7.129  0.1052  0.1652 -0.2240
 6618SOL    HW131490   1.585   0.965   7.206  1.6745 -2.2578  1.0393
 6618SOL    HW231491   1.486   0.866   7.157  0.8048 -0.7937  0.1893
 6619SOL     OW31492   4.362   0.803   8.881 -0.5937 -0.1991 -0.1164
 6619SOL    HW131493   4.416   0.782   8.804 -0.9072  2.3115 -1.0016
 6619SOL    HW231494   4.312   0.880   8.854  2.2310  1.2812 -1.1096
 6620SOL     OW31495   0.533   1.188   3.974 -0.0586  0.3536  0.5153
 6620SOL    HW131496   0.539   1.093   3.970  2.8821  0.5854 -1.1347
 6620SOL    HW231497   0.572   1.189   4.062  1.4000  1.2656 -0.1378
 6621SOL     OW31498   4.062   3.478  14.946  0.3818  0.2026  0.7150
 6621SOL    HW131499   4.127   3.458  14.879 -0.0628 -1.1166  0.6636
 6621SOL    HW231500   3.988   3.500  14.890 -2.1951 -6.0793  1.5812
 6622SOL     OW31501   1.978   4.469  16.604 -0.0461 -0.2275  0.3075
 6622SOL    HW131502   2.013   4.425  16.527  0.6603 -0.9578  1.0407
 6622SOL    HW231503   1.890   4.431  16.607 -1.0322  1.8908 -1.9888
 6623SOL     OW31504   1.927   4.147   8.966 -0.0256 -0.2669 -0.2887
 6623SOL    HW131505   2.018   4.140   8.996 -1.3551 -1.9340  3.3668
 6623SOL    HW231506   1.878   4.070   8.995 -1.5195  0.3136 -1.2633
 6624SOL     OW31507   1.742   1.707   6.538  0.3052  0.1544  0.1928
 6624SOL    HW131508   1.832   1.739   6.541 -0.4718  2.5745 -2.5713
 6624SOL    HW231509   1.765   1.615   6.550  3.3245  0.7721 -0.8899
 6625SOL     OW31510   0.077   4.133   3.853  0.2021  0.3680  0.8574
 6625SOL    HW131511   0.166   4.145   3.886  1.2292  0.3747 -1.8435
 6625SOL    HW231512   0.033   4.180   3.923 -0.4469  1.6809 -0.4292
 6626SOL     OW31513   4.187   0.798  15.598  0.4359 -1.1412 -0.1763
 6626SOL    HW131514   4.148   0.777  15.683  0.6857 -2.0247 -0.2779
 6626SOL    HW231515   4.191   0.893  15.605  0.3562 -0.8484 -4.1115
 6627SOL     OW31516   1.721   2.845  14.924 -0.2353  0.2973 -0.0654
 6627SOL    HW131517   1.672   2.825  15.003 -3.0033 -1.6991 -2.2939
 6627SOL    HW231518   1.707   2.776  14.859 -1.0857  0.0734  0.3655
 6628SOL     OW31519   3.982   0.865   9.257  0.4606  0.2950  0.8759
 6628SOL    HW131520   3.911   0.905   9.308 -0.3938  0.2307 -0.2657
 6628SOL    HW231521   3.956   0.779   9.223 -0.3329  0.8137  0.1973
 6629SOL     OW31522   1.492   2.918   6.988  0.8771  0.1161 -0.0390
 6629SOL    HW131523   1.441   2.854   6.939  0.6147  0.9792 -0.8922
 6629SOL    HW231524   1.416   2.974   7.001  1.0641 -0.0736  1.9120
 6630SOL     OW31525   1.829   1.207   6.871  0.6568 -0.1917 -0.3940
 6630SOL    HW131526   1.899   1.166   6.821  1.0405 -0.3948  0.3103
 6630SOL    HW231527   1.773   1.131   6.886  1.6833 -0.5769  1.4724
 6631SOL     OW31528   2.931   3.344  17.428 -0.1671 -0.8837  0.0437
 6631SOL    HW131529   3.014   3.363  17.385 -0.5463 -0.9956 -0.7392
 6631SOL    HW231530   2.960   3.296  17.506  1.2336 -1.3616 -0.7755
 6632SOL     OW31531   4.033   3.745   6.373  0.6937  0.2002  0.0105
 6632SOL    HW131532   3.937   3.744   6.369  0.6895 -0.4348  0.2788
 6632SOL    HW231533   4.067   3.710   6.291  0.4146 -0.7272  0.2872
 6633SOL     OW31534   0.572   4.561   4.363 -0.0037 -0.2358 -0.5723
 6633SOL    HW131535   0.649   4.518   4.399  0.0751 -0.3169 -0.8342
 6633SOL    HW231536   0.534   4.569   4.451  0.6563 -1.4031 -0.1850
 6634SOL     OW31537   1.934   3.123   3.276 -0.2269 -0.1887 -0.1463
 6634SOL    HW131538   2.008   3.178   3.250  0.6184 -0.0230  2.6001
 6634SOL    HW231539   1.892   3.108   3.191  1.8008 -1.5242 -0.8994
 6635SOL     OW31540   1.796   4.544   9.093 -0.4207 -0.5654 -0.1691
 6635SOL    HW131541   1.860   4.511   9.031 -0.8784 -0.5537 -0.6539
 6635SOL    HW231542   1.834   4.631   9.104 -1.2029 -0.3585  0.8632
 6636SOL     OW31543   0.621   2.016   4.296  0.4562 -0.0822  0.0470
 6636SOL    HW131544   0.657   2.087   4.243 -1.3713  0.3452 -0.6107
 6636SOL    HW231545   0.654   2.042   4.383  1.8517  0.3484 -0.6060
 6637SOL     OW31546   4.417   3.817   2.913 -0.3717  0.3764 -0.1357
 6637SOL    HW131547   4.370   3.881   2.966 -1.4750  0.4210 -1.1853
 6637SOL    HW231548   4.505   3.844   2.936 -0.6758  1.8913 -0.7800
 6638SOL     OW31549   1.874   4.207   3.105 -0.1051  0.3726 -0.6696
 6638SOL    HW131550   1.832   4.215   3.019 -2.3100  1.3553  0.4819
 6638SOL    HW231551   1.807   4.154   3.148 -0.0083  0.5140 -0.3504
 6639SOL     OW31552   2.346   1.138  12.694  0.3181 -0.3360 -0.2558
 6639SOL    HW131553   2.400   1.170  12.766  0.8465 -2.7834  0.4430
 6639SOL    HW231554   2.363   1.204  12.626  1.8410  0.2516  0.6961
 6640SOL     OW31555   1.382   2.063   6.332  0.0864  0.4017 -0.1685
 6640SOL    HW131556   1.432   2.083   6.411 -1.0827 -0.1525  0.7102
 6640SOL    HW231557   1.322   1.992   6.358  1.3264 -0.7193 -0.3630
 6641SOL     OW31558   4.176   1.977   2.148 -0.2765  0.3314 -0.3310
 6641SOL    HW131559   4.240   1.980   2.219  1.6292  3.8301 -2.1870
 6641SOL    HW231560   4.088   1.989   2.182  0.4229  0.7176  1.3211
 6642SOL     OW31561   1.640   0.378   9.646  0.3340 -0.0141 -0.9537
 6642SOL    HW131562   1.705   0.448   9.647  1.3240 -0.9443  1.2910
 6642SOL    HW231563   1.646   0.349   9.737 -2.4322 -1.4644 -1.2223
 6643SOL     OW31564   0.141   1.418  17.143 -0.3389  0.3363  0.4329
 6643SOL    HW131565   0.176   1.506  17.154 -1.4416  0.6130  1.7108
 6643SOL    HW231566   0.047   1.433  17.134 -0.4649 -0.3597  0.5751
 6644SOL     OW31567   3.061   2.348   4.234 -0.0229 -0.1808 -0.4442
 6644SOL    HW131568   3.156   2.350   4.220 -0.0485 -0.6005 -0.6553
 6644SOL    HW231569   3.058   2.261   4.272 -0.8151  0.6153  1.3529
 6645SOL     OW31570   3.839   2.998   4.801  0.3616  0.0732 -0.1081
 6645SOL    HW131571   3.835   3.092   4.816  1.1260 -0.3872  2.8379
 6645SOL    HW231572   3.900   2.989   4.728  0.0513  0.8924 -0.4685
 6646SOL     OW31573   3.583   1.898  17.733  0.4357  0.2590  0.0127
 6646SOL    HW131574   3.640   1.870   0.060  2.2609  1.5016 -0.9406
 6646SOL    HW231575   3.519   1.940   0.046 -0.2458  0.6687 -1.0380
 6647SOL     OW31576   1.716   2.130   7.173 -0.2472  0.2368 -0.6553
 6647SOL    HW131577   1.805   2.145   7.139  0.4351 -1.0027  0.5986
 6647SOL    HW231578   1.742   2.072   7.244  0.1410  1.1163 -0.0718
 6648SOL     OW31579   1.137   4.011   6.916 -0.2370  0.1443 -0.2585
 6648SOL    HW131580   1.097   4.092   6.884  1.6076 -0.1186 -3.3488
 6648SOL    HW231581   1.059   3.959   6.935  0.2701 -0.2682  0.6854
 6649SOL     OW31582   2.902   3.922   8.595 -0.7577  0.8060 -0.1661
 6649SOL    HW131583   2.923   3.830   8.611  0.9766  1.3105  0.4982
 6649SOL    HW231584   2.925   3.933   8.503 -0.3702 -0.6522 -0.2499
 6650SOL     OW31585   1.232   2.949   2.485  0.1651 -0.0562  0.4939
 6650SOL    HW131586   1.303   2.915   2.430  0.8056  2.4939 -0.2435
 6650SOL    HW231587   1.195   2.867   2.519  0.5820 -1.1605 -1.6744
 6651SOL     OW31588   4.424   0.707   5.779 -0.0602 -0.5832 -0.5363
 6651SOL    HW131589   4.388   0.733   5.695  0.7038 -4.2665 -1.9793
 6651SOL    HW231590   4.516   0.705   5.754  0.4198  1.8714  0.9869
 6652SOL     OW31591   2.932   0.836  17.178 -0.0923 -0.1889  0.1482
 6652SOL    HW131592   2.926   0.745  17.208 -0.2898 -0.9342 -2.1461
 6652SOL    HW231593   2.939   0.891  17.255 -1.7971  0.7961 -0.3905
 6653SOL     OW31594   2.196   1.622   6.920 -0.4298 -0.2945 -0.1362
 6653SOL    HW131595   2.260   1.643   6.989  0.6604 -1.4218 -0.8031
 6653SOL    HW231596   2.242   1.654   6.842  0.8969 -1.3926  0.1885
 6654SOL     OW31597   2.887   1.991  16.653  0.3939 -0.4462  0.1914
 6654SOL    HW131598   2.814   1.937  16.683  1.5234 -0.2650  3.2026
 6654SOL    HW231599   2.862   2.077  16.685 -0.7325 -0.5437 -0.4287
 6655SOL     OW31600   1.350   0.826   1.742  0.3242 -0.0037 -0.4471
 6655SOL    HW131601   1.335   0.793   1.654  2.1428  0.7617 -1.0387
 6655SOL    HW231602   1.416   0.895   1.743  0.9363 -0.5805 -1.4992
 6656SOL     OW31603   3.360   1.895   4.197  0.0425  0.1378 -0.4520
 6656SOL    HW131604   3.397   1.907   4.109 -1.8567  1.7764 -1.0393
 6656SOL    HW231605   3.425   1.945   4.247 -2.0101  1.6625  0.7021
 6657SOL     OW31606   1.325   3.594   2.701  0.1060  0.4529 -0.1660
 6657SOL    HW131607   1.318   3.589   2.797  1.5996  0.3493 -0.0599
 6657SOL    HW231608   1.299   3.683   2.679  0.4202  0.1752 -1.6128
 6658SOL     OW31609   3.701   4.207   2.821 -0.0517 -0.3315  0.2788
 6658SOL    HW131610   3.659   4.293   2.816  2.3573  0.8849  1.2982
 6658SOL    HW231611   3.702   4.186   2.728 -2.5397  0.7395 -0.0092
 6659SOL     OW31612   3.474   3.538  14.866  0.9269  0.2188  0.0215
 6659SOL    HW131613   3.464   3.455  14.820 -2.9548 -0.1280  1.5307
 6659SOL    HW231614   3.385   3.533  14.899  0.9224  1.6319  0.2150
 6660SOL     OW31615   4.220   1.287   5.226 -0.3679  0.2615  0.1120
 6660SOL    HW131616   4.314   1.270   5.225 -0.9844 -3.6282  3.3997
 6660SOL    HW231617   4.228   1.373   5.186 -3.3739  0.9993  1.0845
 6661SOL     OW31618   2.973   0.175  12.946 -0.4093 -0.2074  0.1569
 6661SOL    HW131619   3.042   0.180  12.880 -2.0725 -0.6636 -1.6557
 6661SOL    HW231620   2.935   0.089  12.927 -0.3247 -0.0547 -0.7068
 6662SOL     OW31621   2.956   2.912   1.167  0.6762  0.1840  0.5710
 6662SOL    HW131622   3.030   2.883   1.114  1.7766 -0.8473  2.6420
 6662SOL    HW231623   2.894   2.879   1.103 -0.0833  3.3164 -0.3045
 6663SOL     OW31624   4.041   4.631   5.234 -0.4500  0.0255  0.1974
 6663SOL    HW131625   4.084   4.672   5.158  0.1343  2.5840  1.9086
 6663SOL    HW231626   4.104   4.657   5.301  1.5657  0.3549 -1.8282
 6664SOL     OW31627   3.551   1.424   8.155  0.6489  0.2966 -0.6125
 6664SOL    HW131628   3.524   1.433   8.246  0.9640 -0.0356 -0.4869
 6664SOL    HW231629   3.614   1.352   8.159  0.6607  0.4560  1.8231
 6665SOL     OW31630   3.583   2.920   6.431 -0.2378 -0.3506  0.1802
 6665SOL    HW131631   3.511   2.962   6.477 -1.3891 -1.7216 -0.3403
 6665SOL    HW231632   3.542   2.868   6.361 -0.4495  1.7660 -1.2466
 6666SOL     OW31633   4.422   1.470  10.929  0.4249 -0.1617 -0.0268
 6666SOL    HW131634   4.442   1.392  10.982 -1.7978 -0.9502 -0.3168
 6666SOL    HW231635   4.384   1.431  10.851  0.5453 -0.7820  0.2181
 6667SOL     OW31636   0.116   1.348   4.630 -0.5791  0.4509 -0.0295
 6667SOL    HW131637   0.136   1.261   4.595 -1.0794  0.6428 -0.7920
 6667SOL    HW231638   0.083   1.320   4.715  1.8683 -0.0274  0.7752
 6668SOL     OW31639   3.716   4.220  10.106  0.1175  0.0756 -0.1348
 6668SOL    HW131640   3.732   4.126  10.103 -3.3188 -0.5175  1.2559
 6668SOL    HW231641   3.747   4.254  10.022  0.3868 -0.8916 -0.4273
 6669SOL     OW31642   0.028   1.183   3.658 -0.3162 -0.1642 -0.5642
 6669SOL    HW131643   0.031   1.178   3.562 -0.3537  0.8131 -0.6207
 6669SOL    HW231644   0.060   1.272   3.675  1.0138 -0.7806  0.1621
 6670SOL     OW31645   1.895   0.774   1.647  0.7432  0.1518 -0.1127
 6670SOL    HW131646   1.890   0.834   1.721 -0.6269 -0.7441  0.5372
 6670SOL    HW231647   1.990   0.782   1.636  0.5169  2.8134  0.0085
 6671SOL     OW31648   2.088   2.033   8.677  0.2369 -0.3396 -0.3624
 6671SOL    HW131649   2.131   2.106   8.722 -0.4563  0.6118 -1.2572
 6671SOL    HW231650   2.152   2.005   8.612 -0.3337  0.0398 -1.0841
 6672SOL     OW31651   1.971   4.548   5.260 -0.5678 -0.5609  0.0408
 6672SOL    HW131652   1.968   4.481   5.329 -0.5404 -0.5628  0.0400
 6672SOL    HW231653   1.928   4.624   5.300  1.5343 -0.3476  1.8373
 6673SOL     OW31654   1.909   2.535   6.016 -0.4037  0.4899  0.0791
 6673SOL    HW131655   1.819   2.563   5.999 -0.3841  1.3165  1.3725
 6673SOL    HW231656   1.964   2.612   6.001 -2.0910  1.8545  0.7692
 6674SOL     OW31657   4.282   3.948   5.759 -0.2340  0.0618 -0.6135
 6674SOL    HW131658   4.360   3.910   5.718 -1.0823 -1.4390 -0.8524
 6674SOL    HW231659   4.235   3.986   5.685  1.0661  0.2112 -1.3621
 6675SOL     OW31660   1.858   1.571   5.983  0.2967  0.5106 -0.3380
 6675SOL    HW131661   1.843   1.527   5.899  3.1181 -1.4060  0.1891
 6675SOL    HW231662   1.888   1.656   5.949  0.4009  0.9829  0.9448
 6676SOL     OW31663   2.625   4.426   4.299 -0.8221  0.1999  0.8575
 6676SOL    HW131664   2.592   4.405   4.211 -1.9499  1.6766  0.9516
 6676SOL    HW231665   2.571   4.503   4.314  1.2114  2.1183 -1.8011
 6677SOL     OW31666   2.411   2.145   4.162 -0.1310  0.3402  0.3402
 6677SOL    HW131667   2.387   2.079   4.227  2.3393  0.4994  1.4313
 6677SOL    HW231668   2.417   2.218   4.224  1.8626 -0.2823  0.9046
 6678SOL     OW31669   0.058   4.563   5.774  0.8097  0.1566 -0.0874
 6678SOL    HW131670   0.031   4.651   5.747  1.2892  1.0519  2.3309
 6678SOL    HW231671   0.062   4.525   5.686  0.4960  1.6185 -0.7242
 6679SOL     OW31672   0.010   2.030   0.500 -0.0739 -0.0845  0.2816
 6679SOL    HW131673   0.071   2.052   0.570  0.9764  1.9312 -1.2856
 6679SOL    HW231674   4.712   1.943   0.520 -1.2607  0.4849  0.7207
 6680SOL     OW31675   1.206   1.859   4.908  0.3432  0.2019  0.1391
 6680SOL    HW131676   1.122   1.903   4.902  1.1285  1.6282 -0.5354
 6680SOL    HW231677   1.260   1.938   4.898  3.2470 -1.7024  0.6086
 6681SOL     OW31678   4.538   1.112  16.242  0.1421  0.3854  0.0523
 6681SOL    HW131679   4.536   1.161  16.324 -1.4915  1.9366 -0.9235
 6681SOL    HW231680   4.581   1.173  16.182  0.1137 -0.0749 -0.4357
 6682SOL     OW31681   3.731   2.503  11.251 -0.1488  0.0031  0.2211
 6682SOL    HW131682   3.723   2.417  11.292  0.1074 -0.1992 -0.1509
 6682SOL    HW231683   3.690   2.492  11.165  2.0498  1.3958 -1.0110
 6683SOL     OW31684   0.680   3.808  13.515 -0.2874  0.1809 -0.7995
 6683SOL    HW131685   0.700   3.826  13.424  0.2564 -0.3543 -0.7806
 6683SOL    HW231686   0.770   3.827  13.543 -0.9680  0.9404  0.8980
 6684SOL     OW31687   1.122   2.083   3.129  0.0821 -0.3978  0.0573
 6684SOL    HW131688   1.123   2.008   3.069  0.7228  0.2797 -0.7664
 6684SOL    HW231689   1.032   2.111   3.115  0.9743  2.6973  0.5813
 6685SOL     OW31690   4.693   0.227   6.888 -0.6984  0.1482 -0.3665
 6685SOL    HW131691   4.713   0.188   6.802  0.6009  1.7582 -0.8060
 6685SOL    HW231692   0.003   0.310   6.875 -1.2059  0.3954 -0.6269
 6686SOL     OW31693   1.433   0.307  17.553 -0.0642  0.6852  0.2019
 6686SOL    HW131694   1.463   0.325  17.643 -2.3715  1.0930  0.8946
 6686SOL    HW231695   1.454   0.392  17.514  1.0820  0.8103  1.1071
 6687SOL     OW31696   3.543   0.819   6.024  0.1666  0.7314 -0.0039
 6687SOL    HW131697   3.547   0.764   5.946  1.2109 -0.4792  0.9013
 6687SOL    HW231698   3.618   0.877   6.008  0.7651 -0.3990 -1.3187
 6688SOL     OW31699   4.593   0.278   3.746 -0.1098 -1.0273  0.0302
 6688SOL    HW131700   4.640   0.223   3.809  0.5266 -1.7555 -1.0850
 6688SOL    HW231701   4.668   0.308   3.695 -1.8765 -0.2993 -2.1193
 6689SOL     OW31702   3.303   2.416   7.601  0.1567  0.2687 -0.5609
 6689SOL    HW131703   3.333   2.334   7.641  0.3007  0.0291 -1.1579
 6689SOL    HW231704   3.208   2.407   7.600  0.4257 -2.7218 -0.8271
 6690SOL     OW31705   2.790   3.906  15.654 -0.0914  0.3070 -0.1636
 6690SOL    HW131706   2.857   3.952  15.603 -0.5549  0.9214 -0.2261
 6690SOL    HW231707   2.714   3.930  15.601 -0.1975 -1.0988 -0.6316
 6691SOL     OW31708   2.376   0.303  17.105  0.5629  0.0223  0.4794
 6691SOL    HW131709   2.295   0.255  17.121  1.0763 -0.1299  2.6276
 6691SOL    HW231710   2.357   0.382  17.155 -0.9189 -0.2507  0.3414
 6692SOL     OW31711   0.184   0.652   4.308  0.9089  0.1233  0.6897
 6692SOL    HW131712   0.176   0.638   4.214 -2.4349  3.0081  0.5634
 6692SOL    HW231713   0.130   0.731   4.316 -0.4394 -0.6160 -1.2776
 6693SOL     OW31714   1.872   0.962   8.147 -0.0408 -0.1228 -0.3829
 6693SOL    HW131715   1.939   0.897   8.167  1.3859  2.1203  2.0978
 6693SOL    HW231716   1.911   1.030   8.202 -0.2222 -0.7689  0.5352
 6694SOL     OW31717   2.701   3.622   5.256 -0.2811 -0.0708  0.4554
 6694SOL    HW131718   2.697   3.527   5.270 -0.2795  0.1203  1.6946
 6694SOL    HW231719   2.696   3.668   5.340 -1.5694 -1.6605  1.2350
 6695SOL     OW31720   4.573   4.103   7.017 -0.0096 -0.2660 -0.2354
 6695SOL    HW131721   4.618   4.021   6.996  1.7541  1.2185 -2.1181
 6695SOL    HW231722   4.629   4.150   7.078  1.4271  0.6229 -2.2555
 6696SOL     OW31723   0.790   4.411   2.472 -0.0844 -0.0405 -0.3023
 6696SOL    HW131724   0.809   4.456   2.555 -0.2047  1.0185 -0.8416
 6696SOL    HW231725   0.725   4.345   2.498  0.1125  0.8274  2.4579
 6697SOL     OW31726   2.944   2.129   3.144  0.0347 -0.1780 -0.4814
 6697SOL    HW131727   2.950   2.198   3.210  1.9987 -0.9911  0.1882
 6697SOL    HW231728   3.016   2.149   3.084  1.2226  0.8750  1.3050
 6698SOL     OW31729   3.191   4.442  13.847 -0.1084  0.2704 -0.0301
 6698SOL    HW131730   3.115   4.400  13.887 -0.3853  0.1466 -0.6818
 6698SOL    HW231731   3.215   4.381  13.776  0.1437  0.0615  0.2333
 6699SOL     OW31732   2.721   2.756   2.096  0.2360  0.5620  0.4568
 6699SOL    HW131733   2.791   2.807   2.136  1.4059 -1.2574  0.7734
 6699SOL    HW231734   2.750   2.763   2.005 -0.7769 -3.8899 -0.2358
 6700SOL     OW31735   4.180   3.592   4.371 -0.1589 -0.2092 -0.0456
 6700SOL    HW131736   4.174   3.656   4.300  0.9061 -0.9528 -0.8017
 6700SOL    HW231737   4.097   3.618   4.412  0.5676  0.9331  0.6999
 6701SOL     OW31738   3.472   0.012   2.093 -0.6369 -0.1717  0.1281
 6701SOL    HW131739   3.514   4.701   2.021  1.1790  0.6421  0.6402
 6701SOL    HW231740   3.398   4.688   2.093  0.7273 -1.8256 -0.4426
 6702SOL     OW31741   2.956   0.578  10.857 -0.2463 -0.3031 -0.7029
 6702SOL    HW131742   2.887   0.632  10.895  0.9914  0.4207  0.5310
 6702SOL    HW231743   3.008   0.645  10.813 -1.8333  0.7036 -1.0087
 6703SOL     OW31744   4.595   1.844   7.211 -0.1149 -0.5798 -0.4333
 6703SOL    HW131745   4.573   1.921   7.158  0.1290 -1.7862 -2.2934
 6703SOL    HW231746   4.587   1.774   7.147 -0.3836  0.2950 -1.3725
 6704SOL     OW31747   3.050   2.712   2.003  0.3471 -0.6004 -0.1755
 6704SOL    HW131748   3.048   2.676   2.092  2.2424 -0.7879 -0.2156
 6704SOL    HW231749   2.965   2.709   1.959  1.0595 -0.3494 -1.5517
 6705SOL     OW31750   3.636   4.486  11.752  0.1424  0.2689 -0.1721
 6705SOL    HW131751   3.689   4.406  11.756 -0.5447 -0.0824  2.1969
 6705SOL    HW231752   3.577   4.475  11.827  1.3526 -0.3926  0.6850
 6706SOL     OW31753   3.008   1.663   1.759 -0.1433  0.3129  0.2800
 6706SOL    HW131754   3.049   1.601   1.821 -0.6196 -2.8990 -2.6201
 6706SOL    HW231755   3.083   1.719   1.743 -2.3819  3.4999  0.8071
 6707SOL     OW31756   2.068   2.526   0.339 -0.2100 -0.0137 -0.4191
 6707SOL    HW131757   2.003   2.571   0.285 -1.6726 -1.8484 -0.1752
 6707SOL    HW231758   2.017   2.496   0.414 -1.2436 -0.0502 -1.1487
 6708SOL     OW31759   0.554   3.816   6.709 -0.2889 -0.3622 -0.0855
 6708SOL    HW131760   0.592   3.895   6.746  0.3910  1.0022 -3.7845
 6708SOL    HW231761   0.613   3.752   6.750 -1.8379 -2.6569 -1.4357
 6709SOL     OW31762   1.084   2.692   0.741  0.1588 -0.2449 -0.2087
 6709SOL    HW131763   1.007   2.748   0.731 -0.0805 -0.5133  0.1697
 6709SOL    HW231764   1.127   2.711   0.657  0.0017  0.6034 -0.0955
 6710SOL     OW31765   1.482   1.223   8.517 -0.0458 -0.3561 -0.1104
 6710SOL    HW131766   1.435   1.207   8.436 -0.3392  3.3811 -0.6796
 6710SOL    HW231767   1.567   1.200   8.480 -0.2244 -1.6333  0.2634
 6711SOL     OW31768   1.296   2.679   4.066  0.1134 -0.2003 -0.1738
 6711SOL    HW131769   1.252   2.601   4.033  0.0785  0.2757 -1.2374
 6711SOL    HW231770   1.347   2.643   4.139 -0.5213 -1.8673 -0.5529
 6712SOL     OW31771   1.676   0.659   0.711 -0.2246 -0.4108  0.0462
 6712SOL    HW131772   1.713   0.738   0.672  0.8000 -0.3239  1.2127
 6712SOL    HW231773   1.758   0.610   0.717 -0.4158 -0.6639  0.6014
 6713SOL     OW31774   2.188   4.454   8.453  0.0983 -0.1327 -0.0306
 6713SOL    HW131775   2.205   4.390   8.522 -1.9861 -0.4020  0.2256
 6713SOL    HW231776   2.134   4.399   8.397  0.8371 -1.1490  0.2507
 6714SOL     OW31777   4.595   3.701   0.967  1.0939  1.2597 -0.0290
 6714SOL    HW131778   4.565   3.744   1.046  1.0330  0.2742  0.4837
 6714SOL    HW231779   4.640   3.776   0.929  2.2302  0.8405  0.5012
 6715SOL     OW31780   0.277   4.542  14.275  0.1196 -0.1705  0.3730
 6715SOL    HW131781   0.222   4.534  14.197 -0.6249  2.1100  0.6620
 6715SOL    HW231782   0.346   4.485  14.241 -2.0698 -2.0058 -1.0371
 6716SOL     OW31783   0.414   4.066   4.370  0.8682  0.4773 -0.2415
 6716SOL    HW131784   0.324   4.045   4.394  0.5584  2.2218  0.1420
 6716SOL    HW231785   0.404   4.119   4.291 -1.0096  1.7805  0.8535
 6717SOL     OW31786   1.325   4.414  11.195  0.4078 -0.3504 -0.9881
 6717SOL    HW131787   1.414   4.443  11.215 -0.4990  1.0348  1.0136
 6717SOL    HW231788   1.308   4.460  11.113 -1.8971 -1.0943 -0.9364
 6718SOL     OW31789   0.731   0.636   4.991 -0.2493 -0.2127  0.2663
 6718SOL    HW131790   0.805   0.576   5.001  0.9531  1.4802  1.5638
 6718SOL    HW231791   0.670   0.595   4.930 -0.6263 -1.5322  1.5270
 6719SOL     OW31792   3.581   3.700  17.393  0.2882  0.6595 -0.1205
 6719SOL    HW131793   3.675   3.684  17.381  0.6313  1.5317  1.3801
 6719SOL    HW231794   3.566   3.794  17.383 -0.0844  0.5394 -0.7327
 6720SOL     OW31795   4.013   2.928   6.555 -0.2923  0.5693 -0.8188
 6720SOL    HW131796   3.947   2.994   6.577  0.0773  1.2926 -1.8872
 6720SOL    HW231797   4.084   2.973   6.599  0.1602  0.9283 -1.9146
 6721SOL     OW31798   1.651   3.009   2.098  0.2052 -0.2674  0.0851
 6721SOL    HW131799   1.577   3.060   2.063  1.1547  1.8729  1.2052
 6721SOL    HW231800   1.600   2.941   2.142 -0.6586 -0.7298 -1.6378
 6722SOL     OW31801   4.155   3.568  13.747 -0.5912  0.0950 -1.1877
 6722SOL    HW131802   4.141   3.662  13.736  0.7350  0.6623  2.1280
 6722SOL    HW231803   4.247   3.557  13.723 -0.5419 -0.8160 -0.5946
 6723SOL     OW31804   2.258   3.985   1.859  0.1040  0.1143 -0.2575
 6723SOL    HW131805   2.317   3.914   1.835  1.0617  0.7773  0.1275
 6723SOL    HW231806   2.253   4.031   1.775  0.5379  0.8703  0.1283
 6724SOL     OW31807   1.656   2.539   5.389  0.6219 -0.3002 -0.0700
 6724SOL    HW131808   1.562   2.561   5.391  1.0411  1.4379  0.9037
 6724SOL    HW231809   1.651   2.451   5.354  2.4137 -0.7256  0.7865
 6725SOL     OW31810   4.383   4.397   0.834 -0.4172  0.3774 -0.0953
 6725SOL    HW131811   4.375   4.301   0.838  1.1961  0.3323  2.0018
 6725SOL    HW231812   4.386   4.406   0.930  0.3467  2.0524 -0.2756
 6726SOL     OW31813   0.335   3.768   2.965 -0.5800 -0.1559  0.1209
 6726SOL    HW131814   0.294   3.692   3.007  1.2755 -1.1410  0.1134
 6726SOL    HW231815   0.367   3.810   3.044 -0.5685  0.3701 -0.1620
 6727SOL     OW31816   2.758   2.223   6.369  0.1998  0.7931 -0.2827
 6727SOL    HW131817   2.688   2.288   6.381  0.9114  1.2920  1.1843
 6727SOL    HW231818   2.791   2.243   6.282 -0.7995  1.5536 -0.4969
 6728SOL     OW31819   3.561   0.757   4.348  0.2125  0.2536 -0.2147
 6728SOL    HW131820   3.518   0.673   4.334 -0.0926 -0.0546  2.7532
 6728SOL    HW231821   3.628   0.718   4.404  0.5680  1.2549  0.0542
 6729SOL     OW31822   2.835   2.370   5.847  0.1810  0.7057 -0.7152
 6729SOL    HW131823   2.872   2.348   5.761  2.7308  0.6263  0.4049
 6729SOL    HW231824   2.742   2.371   5.825  0.5853  0.0508 -2.5222
 6730SOL     OW31825   1.212   4.516  10.931 -0.4950 -0.3370 -0.2491
 6730SOL    HW131826   1.281   4.568  10.891 -0.6349 -0.2096 -0.3268
 6730SOL    HW231827   1.183   4.460  10.859 -1.8824 -0.0134  0.0383
 6731SOL     OW31828   1.573   0.559  11.627  0.8739 -0.5897 -0.0568
 6731SOL    HW131829   1.572   0.648  11.592  1.1840 -0.8727 -0.7744
 6731SOL    HW231830   1.667   0.541  11.633  1.0556  0.2786 -0.2855
 6732SOL     OW31831   1.429   4.220   8.752 -0.6899  0.2954 -0.4317
 6732SOL    HW131832   1.447   4.128   8.733 -1.9461  0.0960 -0.6344
 6732SOL    HW231833   1.515   4.239   8.791 -0.0863  0.3852 -1.8057
 6733SOL     OW31834   0.967   3.401   2.564 -0.4303  0.0504  0.2865
 6733SOL    HW131835   0.994   3.400   2.656 -0.5925 -1.9121  0.3113
 6733SOL    HW231836   0.974   3.492   2.536  1.0871 -1.1950 -3.3264
 6734SOL     OW31837   3.341   2.131   4.392 -0.2540  0.2198  0.2819
 6734SOL    HW131838   3.362   2.206   4.337  1.3089 -0.1044  0.4485
 6734SOL    HW231839   3.249   2.150   4.410  0.1338  2.2507  0.1363
 6735SOL     OW31840   2.232   2.262   6.910 -0.3962  0.4536 -0.4662
 6735SOL    HW131841   2.274   2.299   6.988 -1.3878  1.5667 -0.4720
 6735SOL    HW231842   2.187   2.341   6.882 -0.7437  0.8438  1.2015
 6736SOL     OW31843   1.460   0.818   0.501  0.6716 -0.5807 -0.0774
 6736SOL    HW131844   1.402   0.882   0.541  0.6096  0.0068 -1.0940
 6736SOL    HW231845   1.540   0.815   0.553  0.5214 -1.8230  0.0844
 6737SOL     OW31846   1.145   1.269  10.993  0.1089 -0.3512 -0.4175
 6737SOL    HW131847   1.107   1.327  11.060  0.4920 -1.3260  0.6294
 6737SOL    HW231848   1.148   1.186  11.039 -2.1097 -1.3331 -2.0571
 6738SOL     OW31849   0.335   4.535   4.221 -0.3794  0.1948 -0.0578
 6738SOL    HW131850   0.249   4.495   4.211 -0.3440  0.2452 -0.5724
 6738SOL    HW231851   0.340   4.521   4.316 -2.9012  3.1018  0.4652
 6739SOL     OW31852   2.518   4.503   7.236 -0.8442 -0.0310  0.9582
 6739SOL    HW131853   2.465   4.566   7.286  0.2730  1.0400  0.7892
 6739SOL    HW231854   2.523   4.437   7.304  1.7305 -1.1618 -0.3336
 6740SOL     OW31855   2.694   3.522   8.842  0.0960 -0.2600 -0.4325
 6740SOL    HW131856   2.600   3.503   8.844  0.1866 -0.5450  1.7613
 6740SOL    HW231857   2.690   3.618   8.842 -0.8621 -0.3016  0.4841
 6741SOL     OW31858   4.540   4.120   2.829 -0.3463  0.2934  0.3256
 6741SOL    HW131859   4.467   4.059   2.837 -0.6189  0.7280  1.2331
 6741SOL    HW231860   4.511   4.178   2.900 -1.6908 -3.1561  2.6196
 6742SOL     OW31861   3.948   4.444  14.283 -0.1191 -0.1761 -0.0030
 6742SOL    HW131862   4.032   4.405  14.305 -1.4746 -2.2157  1.5260
 6742SOL    HW231863   3.922   4.371  14.227  1.0157 -2.1557  2.0798
 6743SOL     OW31864   2.853   3.093   6.372 -0.4558  0.5827 -0.0315
 6743SOL    HW131865   2.885   3.125   6.288  1.2273 -0.5588  0.1566
 6743SOL    HW231866   2.865   3.156   6.444  0.6562 -0.5682  0.7860
 6744SOL     OW31867   4.059   2.747  12.181  0.0504 -0.3245 -0.6043
 6744SOL    HW131868   4.086   2.670  12.132 -1.0007  0.4457 -2.3922
 6744SOL    HW231869   4.116   2.812  12.140  0.9674 -1.6849 -1.4732
 6745SOL     OW31870   4.533   1.788  16.298  0.2030 -0.0330 -0.0627
 6745SOL    HW131871   4.524   1.811  16.205 -0.9054 -2.1648 -0.4862
 6745SOL    HW231872   4.582   1.706  16.290 -0.4371 -0.3893 -0.3076
 6746SOL     OW31873   4.026   3.134   5.445 -0.3008  0.3864  0.4329
 6746SOL    HW131874   4.070   3.049   5.436 -1.0196 -0.2047  2.5626
 6746SOL    HW231875   3.938   3.114   5.414  0.6360  0.5855 -2.3386
 6747SOL     OW31876   0.592   2.259  10.189 -0.0660 -0.4624 -1.0688
 6747SOL    HW131877   0.564   2.224  10.105  0.6226  0.3604 -1.6382
 6747SOL    HW231878   0.556   2.348  10.183  0.0087 -0.2606  1.3110
 6748SOL     OW31879   0.885   2.768   9.662 -0.0684  0.3016  0.1582
 6748SOL    HW131880   0.914   2.849   9.705  1.0024  0.3562 -0.6586
 6748SOL    HW231881   0.793   2.790   9.648  0.1197  1.1145  0.2073
 6749SOL     OW31882   2.138   2.352  16.484 -0.2279  0.3237  0.3958
 6749SOL    HW131883   2.197   2.382  16.552 -0.9841  1.3737  0.5818
 6749SOL    HW231884   2.204   2.314  16.426 -1.1088  0.2588 -0.5636
 6750SOL     OW31885   3.011   3.257  11.594  0.1265  0.3021 -0.0782
 6750SOL    HW131886   2.996   3.177  11.544  0.4554  0.0532  0.2183
 6750SOL    HW231887   2.964   3.243  11.676 -1.0769 -0.5406 -0.9154
 6751SOL     OW31888   0.037   3.865   3.074 -1.0094  0.1156 -0.6704
 6751SOL    HW131889   4.731   3.806   3.136  0.9610 -1.9757 -1.3417
 6751SOL    HW231890   0.080   3.927   3.132 -0.0643 -0.2589 -0.9798
 6752SOL     OW31891   1.566   2.919   9.208  0.3898 -0.1463  0.4971
 6752SOL    HW131892   1.595   2.926   9.299  0.7900  1.0022  0.2710
 6752SOL    HW231893   1.615   2.986   9.161 -0.6923  1.8644  2.2472
 6753SOL     OW31894   2.084   4.688   3.371  0.0747 -0.0969  0.6221
 6753SOL    HW131895   2.055   4.651   3.454 -0.1533  1.0935  1.0665
 6753SOL    HW231896   2.128   0.034   3.392 -2.0878  1.2795 -0.3839
 6754SOL     OW31897   1.200   2.201   1.015 -0.0378  0.3470 -0.0543
 6754SOL    HW131898   1.251   2.120   1.010  0.7721  0.8516 -0.0531
 6754SOL    HW231899   1.173   2.214   1.105  0.2890  0.6899 -0.0046
 6755SOL     OW31900   0.107   2.129   6.989  0.5304 -0.2565 -0.0667
 6755SOL    HW131901   0.128   2.169   6.905 -2.6932 -0.2077 -0.8565
 6755SOL    HW231902   0.150   2.186   7.053  1.0740  1.1196 -1.6312
 6756SOL     OW31903   3.881   2.018   4.234  0.1857 -0.4275 -0.1074
 6756SOL    HW131904   3.958   2.065   4.266 -0.3121  0.6123 -0.4271
 6756SOL    HW231905   3.921   1.933   4.216  0.9381 -0.0257 -0.3250
 6757SOL     OW31906   4.359   3.180   8.442 -0.1117 -0.2466  0.2254
 6757SOL    HW131907   4.403   3.172   8.526  0.3911  1.5793  0.1487
 6757SOL    HW231908   4.416   3.252   8.413  2.8363 -2.2233  1.1587
 6758SOL     OW31909   3.130   4.345  10.913  0.2491  0.2316 -0.0348
 6758SOL    HW131910   3.111   4.295  10.992  0.0827 -1.2034 -0.9942
 6758SOL    HW231911   3.216   4.376  10.939  1.2401 -2.1906 -0.4195
 6759SOL     OW31912   1.569   2.475   1.965  0.4507 -0.2262 -0.1777
 6759SOL    HW131913   1.479   2.508   1.965  0.9016  0.9959  0.7978
 6759SOL    HW231914   1.619   2.551   1.937  0.9176  0.2136  1.8823
 6760SOL     OW31915   0.782   1.737   4.442  0.4935 -0.2904  0.1879
 6760SOL    HW131916   0.854   1.711   4.499 -2.1534  0.9835  4.1431
 6760SOL    HW231917   0.724   1.776   4.507 -0.4531  1.6224 -1.8331
 6761SOL     OW31918   2.994   4.323   9.292  0.1395  0.2266  0.2764
 6761SOL    HW131919   2.938   4.401   9.301 -1.1831 -0.8722  1.5939
 6761SOL    HW231920   3.084   4.355   9.288 -0.2469  1.5497  2.2175
 6762SOL     OW31921   3.168   2.910   6.288 -0.1932 -0.2772  0.2661
 6762SOL    HW131922   3.109   2.908   6.213  0.4696 -1.7857 -0.2063
 6762SOL    HW231923   3.249   2.879   6.250 -0.1379  0.1066  0.0686
 6763SOL     OW31924   4.360   1.135   9.964 -0.2715 -0.9490  0.1439
 6763SOL    HW131925   4.451   1.128   9.938 -0.2215 -0.0765  0.0751
 6763SOL    HW231926   4.365   1.161  10.057  2.1469 -0.4933 -0.1157
 6764SOL     OW31927   3.401   2.637   4.491  0.2667 -0.3444  0.3980
 6764SOL    HW131928   3.314   2.610   4.462  1.2608 -2.5653 -0.5123
 6764SOL    HW231929   3.434   2.585   4.564  1.8698 -0.3666 -0.3446
 6765SOL     OW31930   0.916   3.848   9.502 -0.3549 -0.4214 -0.3778
 6765SOL    HW131931   0.861   3.901   9.559  1.9812  1.2213  0.3341
 6765SOL    HW231932   0.867   3.870   9.423  0.0280  0.3391 -0.4035
 6766SOL     OW31933   1.191   3.242   1.792  0.1984  0.5727  0.4174
 6766SOL    HW131934   1.207   3.328   1.755  1.1357 -0.1359 -0.8282
 6766SOL    HW231935   1.121   3.221   1.730  0.1425  0.7786  0.4130
 6767SOL     OW31936   3.885   0.891   8.817  0.0711  0.0203  0.1224
 6767SOL    HW131937   3.945   0.935   8.877 -1.7820  1.2180  1.1205
 6767SOL    HW231938   3.815   0.955   8.835 -1.7047 -1.3522 -2.0287
 6768SOL     OW31939   1.594   3.320   8.855  0.5916  0.0640  0.3029
 6768SOL    HW131940   1.501   3.298   8.862  0.1202  1.2546 -2.0680
 6768SOL    HW231941   1.620   3.261   8.925  3.0289  1.0878  0.2411
 6769SOL     OW31942   3.324   4.583   7.281  0.0810  0.6826 -0.0459
 6769SOL    HW131943   3.364   4.550   7.362 -1.9486  0.6683  0.9585
 6769SOL    HW231944   3.354   4.674   7.285 -1.1423  1.1787 -1.9241
 6770SOL     OW31945   0.364   3.593  17.357 -0.0524 -0.4524  0.4062
 6770SOL    HW131946   0.444   3.552  17.325  1.7810  0.5356  3.7820
 6770SOL    HW231947   0.300   3.521  17.359 -0.9857  0.3256 -1.1822
 6771SOL     OW31948   2.044   1.435   3.940  0.3118  0.0376  0.0486
 6771SOL    HW131949   2.055   1.520   3.899  0.5841  0.8381  1.7778
 6771SOL    HW231950   2.000   1.461   4.021  0.9379 -1.5835  0.9082
 6772SOL     OW31951   0.011   3.894   5.901  0.5618  0.2642  0.5095
 6772SOL    HW131952   4.660   3.922   5.877  1.0884  0.7219 -0.8626
 6772SOL    HW231953   0.056   3.909   5.818  0.3910  1.7316  0.6841
 6773SOL     OW31954   2.368   1.610   1.537 -0.1149 -0.3141 -0.4448
 6773SOL    HW131955   2.427   1.663   1.482  2.1722 -0.9438  1.4237
 6773SOL    HW231956   2.411   1.605   1.622  0.8137  0.1483 -0.8895
 6774SOL     OW31957   3.815   4.726   6.406  0.5099 -0.0817  0.4000
 6774SOL    HW131958   3.813   0.053   6.334  1.3653  1.2576  1.5593
 6774SOL    HW231959   3.726   4.715   6.439  0.1514  0.4611 -0.3832
 6775SOL     OW31960   2.106   0.469   8.500 -0.2763  0.2816 -0.1527
 6775SOL    HW131961   2.168   0.458   8.428 -1.2919 -1.0619 -0.8263
 6775SOL    HW231962   2.095   0.377   8.526  1.0580  0.6821  1.7824
 6776SOL     OW31963   3.477   0.457   0.261 -0.2045  0.0094  0.6543
 6776SOL    HW131964   3.500   0.521   0.194 -4.0458  0.3765 -0.2748
 6776SOL    HW231965   3.532   0.384   0.230  0.4597  0.2771  1.1987
 6777SOL     OW31966   1.260   3.035   7.011 -0.4833  0.3204 -0.2063
 6777SOL    HW131967   1.194   2.990   6.959  0.6311 -0.0782 -1.2522
 6777SOL    HW231968   1.215   3.118   7.028  1.1679  1.4851 -1.5535
 6778SOL     OW31969   3.569   3.779  12.723  0.0843 -0.2501 -0.0446
 6778SOL    HW131970   3.646   3.832  12.741  0.3542 -0.6819  0.0808
 6778SOL    HW231971   3.494   3.830  12.752  1.5276  2.3562 -0.9852
 6779SOL     OW31972   2.800   1.724   2.420  0.0450 -0.5291  0.1780
 6779SOL    HW131973   2.855   1.798   2.393 -1.2132  0.2051 -0.3240
 6779SOL    HW231974   2.824   1.716   2.512 -0.9796 -1.1200  0.3824
 6780SOL     OW31975   3.836   3.306  12.724 -0.4987  0.0980 -0.2715
 6780SOL    HW131976   3.865   3.370  12.660 -1.8934  0.5548 -0.4674
 6780SOL    HW231977   3.740   3.317  12.720 -0.4289  1.9844  2.6694
 6781SOL     OW31978   0.048   2.072  12.966  0.1374  0.3881  0.1071
 6781SOL    HW131979   4.692   2.082  12.987  0.4495 -0.7484  1.9840
 6781SOL    HW231980   0.084   2.086  13.053  2.0300  0.1998 -0.6447
 6782SOL     OW31981   1.573   2.971   5.526 -0.4079 -0.2347  0.5010
 6782SOL    HW131982   1.625   2.906   5.574  1.4976  0.2432 -0.9232
 6782SOL    HW231983   1.649   3.023   5.500 -1.5243  0.9441 -0.4155
 6783SOL     OW31984   0.117   1.919   2.920 -0.1799 -0.2681 -0.4340
 6783SOL    HW131985   0.100   1.985   2.854  1.0503  1.9475  1.4653
 6783SOL    HW231986   0.141   1.842   2.868  0.3503 -0.1085 -0.4244
 6784SOL     OW31987   1.771   0.613   5.681 -0.0390 -0.3762 -0.0366
 6784SOL    HW131988   1.758   0.671   5.606  0.1500 -1.3599 -0.8169
 6784SOL    HW231989   1.817   0.669   5.744  1.7200 -1.1032 -0.6816
 6785SOL     OW31990   1.167   1.053   0.981 -0.0020  0.6702  0.2197
 6785SOL    HW131991   1.199   0.976   1.027  1.0455  0.9377 -0.0673
 6785SOL    HW231992   1.071   1.053   0.980 -0.0072  0.6907  1.5546
 6786SOL     OW31993   4.184   1.111   0.427  0.1841 -0.6425  0.7039
 6786SOL    HW131994   4.248   1.096   0.357  0.8364 -0.5913  1.3005
 6786SOL    HW231995   4.117   1.154   0.374  0.5017 -0.6372  0.3082
 6787SOL     OW31996   1.863   3.368   4.263 -0.4021 -0.1641  0.3362
 6787SOL    HW131997   1.775   3.384   4.229 -0.6962 -0.0060  1.1645
 6787SOL    HW231998   1.848   3.287   4.312  0.7270 -0.5660  0.0065
 6788SOL     OW31999   1.612   3.541   4.493  0.4530 -0.0296 -0.3780
 6788SOL    HW132000   1.640   3.624   4.455 -0.5920 -0.0750 -1.2508
 6788SOL    HW232001   1.645   3.551   4.583 -1.3367 -0.9933  0.3669
 6789SOL     OW32002   0.024   3.754   3.933  0.5346 -0.1006 -0.2333
 6789SOL    HW132003   0.001   3.661   3.933  0.2294 -0.0356  1.7468
 6789SOL    HW232004   4.708   3.777   3.857 -0.2798  1.3405  0.7705
 6790SOL     OW32005   3.330   3.645  16.461  0.4483  0.0400  0.2330
 6790SOL    HW132006   3.282   3.653  16.378 -0.3641  0.5611  0.7549
 6790SOL    HW232007   3.293   3.720  16.506 -1.0910  0.0258 -1.0079
 6791SOL     OW32008   1.690   3.416   6.715 -0.3121  0.7894 -0.1008
 6791SOL    HW132009   1.777   3.429   6.677 -0.6487  1.0353 -0.7904
 6791SOL    HW232010   1.640   3.492   6.685 -2.0074 -0.5051 -0.5610
 6792SOL     OW32011   3.265   4.008   2.219 -0.1879 -0.0587  0.0498
 6792SOL    HW132012   3.329   3.986   2.151  2.5735 -0.0808  2.6735
 6792SOL    HW232013   3.249   3.921   2.256  0.8857 -1.0436 -1.7858
 6793SOL     OW32014   0.886   2.519   8.741 -0.1280  0.0658 -0.4242
 6793SOL    HW132015   0.868   2.452   8.675 -1.4094  0.3550 -0.3595
 6793SOL    HW232016   0.958   2.480   8.791  0.7751  0.8212 -1.1448
 6794SOL     OW32017   2.915   1.448   5.192  0.0338 -0.1690  0.0524
 6794SOL    HW132018   2.833   1.421   5.151 -0.8201  0.0488  1.5933
 6794SOL    HW232019   2.881   1.502   5.264  0.3562  0.5096 -0.3027
 6795SOL     OW32020   1.897   2.239   8.656 -0.1183  0.0941  0.1128
 6795SOL    HW132021   1.854   2.194   8.729 -0.8181  1.5214  0.5658
 6795SOL    HW232022   1.963   2.176   8.627  2.8413  1.9829  2.6109
 6796SOL     OW32023   1.045   4.237   4.966  0.3878  0.4785  0.1899
 6796SOL    HW132024   1.042   4.332   4.979  0.5788  0.2653  1.7043
 6796SOL    HW232025   0.951   4.221   4.967  0.0077  2.7045  0.0352
 6797SOL     OW32026   2.827   1.762   7.475 -0.2032 -0.3137  0.1215
 6797SOL    HW132027   2.822   1.667   7.460 -0.2332 -0.3542  0.3889
 6797SOL    HW232028   2.900   1.783   7.418 -1.2527  2.1627 -0.2907
 6798SOL     OW32029   4.159   3.872  15.249  1.0635 -0.9279  0.2689
 6798SOL    HW132030   4.145   3.781  15.275 -3.1703 -0.0116  1.2891
 6798SOL    HW232031   4.139   3.860  15.156  1.5688  1.3340 -0.1147
 6799SOL     OW32032   2.851   0.461   4.931  0.1006  0.2108  0.0870
 6799SOL    HW132033   2.835   0.555   4.943  0.2662  0.5196 -2.0435
 6799SOL    HW232034   2.876   0.467   4.838  0.1114  1.9866  0.1888
 6800SOL     OW32035   0.941   0.943  11.538  0.7250  0.1074 -0.4779
 6800SOL    HW132036   0.934   0.856  11.500 -2.6883  0.5942 -0.9273
 6800SOL    HW232037   0.855   0.963  11.575 -1.1661 -1.6822 -3.9028
 6801SOL     OW32038   0.425   0.423   6.602 -0.1507 -0.0001 -0.4541
 6801SOL    HW132039   0.477   0.484   6.654 -1.7182 -1.0946  2.4078
 6801SOL    HW232040   0.486   0.357   6.571 -0.0944  2.0229 -4.6610
 6802SOL     OW32041   0.703   4.424   6.339  0.5582 -0.3807  0.3936
 6802SOL    HW132042   0.644   4.412   6.264  0.4345  1.8261  0.1293
 6802SOL    HW232043   0.710   4.519   6.347 -0.8829 -0.1983 -0.4221
 6803SOL     OW32044   0.370   3.080   5.692 -0.3368 -0.0254  0.1863
 6803SOL    HW132045   0.286   3.122   5.676  0.1649  0.9854  0.2012
 6803SOL    HW232046   0.387   3.092   5.786  0.0857 -0.7056  0.1965
 6804SOL     OW32047   2.347   4.394  14.516  0.1302  0.0454 -0.3435
 6804SOL    HW132048   2.319   4.466  14.573 -1.3019  0.5585 -1.7255
 6804SOL    HW232049   2.287   4.414  14.444 -1.3253 -3.1261 -0.0103
 6805SOL     OW32050   4.230   1.532   0.036  0.6027  0.0245  0.3704
 6805SOL    HW132051   4.247   1.538  17.687  2.3112  1.4422  0.7759
 6805SOL    HW232052   4.220   1.626   0.055  0.8961 -0.0670  0.9850
 6806SOL     OW32053   4.250   1.051  15.641  0.0774 -0.1223  0.4485
 6806SOL    HW132054   4.328   1.026  15.691 -0.8836 -1.1208  1.4370
 6806SOL    HW232055   4.228   1.127  15.694  2.1712  1.9949 -1.6892
 6807SOL     OW32056   0.139   2.273   3.578  0.3418  0.6058 -0.1424
 6807SOL    HW132057   0.223   2.232   3.597 -0.4157 -0.7922  0.1754
 6807SOL    HW232058   0.151   2.275   3.483  0.4566  1.3496 -0.1093
 6808SOL     OW32059   4.621   4.591   8.997 -0.5432  0.0763 -0.4615
 6808SOL    HW132060   4.526   4.603   8.989 -0.7965 -1.2420  0.6682
 6808SOL    HW232061   4.629   4.632   9.083  1.1934 -1.2107 -0.0139
 6809SOL     OW32062   1.233   3.434  10.811  0.4527  0.3178 -0.3563
 6809SOL    HW132063   1.221   3.489  10.888 -0.8036 -0.8890  0.3277
 6809SOL    HW232064   1.265   3.352  10.849  3.3282  1.1118 -1.0676
 6810SOL     OW32065   1.225   3.241   3.017 -0.2307  0.2443  0.1874
 6810SOL    HW132066   1.312   3.211   3.042 -0.1411 -0.4954 -1.0073
 6810SOL    HW232067   1.172   3.192   3.081 -0.7267  0.3986 -0.1000
 6811SOL     OW32068   0.267   3.714   8.565 -0.0620 -0.2931 -0.0051
 6811SOL    HW132069   0.185   3.763   8.576  0.2730  0.1576  0.5116
 6811SOL    HW232070   0.242   3.651   8.498  2.3733 -0.9209 -0.3165
 6812SOL     OW32071   2.582   3.337   4.652 -0.2919 -0.3762 -0.4853
 6812SOL    HW132072   2.592   3.420   4.699 -0.6606 -0.5974 -0.0165
 6812SOL    HW232073   2.614   3.350   4.562  0.9377 -1.0975 -0.1530
 6813SOL     OW32074   4.473   0.628   7.130 -0.1823  0.4163  0.0237
 6813SOL    HW132075   4.567   0.620   7.144  0.3043  1.0145 -2.9366
 6813SOL    HW232076   4.468   0.723   7.124 -0.9824  0.4799  1.8368
 6814SOL     OW32077   2.257   4.094   3.374  0.2937 -0.0699  0.5738
 6814SOL    HW132078   2.254   4.073   3.281 -2.7449 -1.6343  1.0492
 6814SOL    HW232079   2.169   4.077   3.405  0.1431 -1.4947 -0.6612
 6815SOL     OW32080   0.329   0.695   6.987  0.3447  0.1168  0.3136
 6815SOL    HW132081   0.373   0.631   7.043 -2.2087 -0.3300  1.7852
 6815SOL    HW232082   0.372   0.775   7.016 -0.1190  0.5788 -0.2828
 6816SOL     OW32083   1.684   2.674   9.182  0.2681 -0.6486 -0.3645
 6816SOL    HW132084   1.777   2.687   9.164  0.3950 -1.3701 -0.2259
 6816SOL    HW232085   1.640   2.758   9.190  0.2470 -0.7186  0.2366
 6817SOL     OW32086   4.338   0.025   7.007 -0.6330  0.1564 -0.7872
 6817SOL    HW132087   4.348   4.708   6.929  1.2687 -0.4446 -0.1409
 6817SOL    HW232088   4.266   4.724   7.057  0.2453 -0.5760 -0.0550
 6818SOL     OW32089   2.587   3.598   4.980 -0.0285  0.2269 -0.4480
 6818SOL    HW132090   2.593   3.502   4.979  0.1207  0.2397 -1.1390
 6818SOL    HW232091   2.625   3.617   5.065 -1.7977  1.3726  0.0841
 6819SOL     OW32092   3.930   1.825  12.665  0.2594 -0.1018  0.9698
 6819SOL    HW132093   3.987   1.778  12.604 -0.1179  1.9749 -0.9784
 6819SOL    HW232094   3.877   1.870  12.599  1.1572  1.3907  1.2814
 6820SOL     OW32095   0.816   3.484   9.362  0.2943  0.3968  0.6445
 6820SOL    HW132096   0.808   3.530   9.446  2.5487 -0.2556  1.2167
 6820SOL    HW232097   0.790   3.559   9.308  1.4020  1.1934  1.2317
 6821SOL     OW32098   3.091   2.765   2.536 -0.0913  0.0479  0.1463
 6821SOL    HW132099   3.121   2.786   2.447  1.2376  1.3832  0.8989
 6821SOL    HW232100   2.999   2.787   2.517 -0.1363 -1.1327 -0.9668
 6822SOL     OW32101   1.567   1.909   8.287 -0.1092  0.5628 -0.2589
 6822SOL    HW132102   1.487   1.912   8.339 -0.9390 -0.2982 -1.4832
 6822SOL    HW232103   1.636   1.916   8.353  0.5150 -1.3643 -0.6993
 6823SOL     OW32104   0.291   1.846   0.373  0.2718  0.4087  0.0540
 6823SOL    HW132105   0.379   1.809   0.371 -0.0197 -0.0587 -4.8031
 6823SOL    HW232106   0.269   1.848   0.466 -0.9936 -1.6263 -0.1945
 6824SOL     OW32107   2.682   3.418   4.404 -0.3693 -0.1948  0.6481
 6824SOL    HW132108   2.767   3.413   4.447  0.7742  0.4614 -1.5609
 6824SOL    HW232109   2.690   3.344   4.344 -1.8089  1.4661 -1.5898
 6825SOL     OW32110   0.520   0.311   0.621  0.3816  0.6423  1.3609
 6825SOL    HW132111   0.517   0.370   0.547 -1.4650 -0.4614  0.5673
 6825SOL    HW232112   0.602   0.334   0.665  1.1059 -1.3669  1.0669
 6826SOL     OW32113   0.851   3.074   0.379  0.4398  0.0425  0.1472
 6826SOL    HW132114   0.945   3.085   0.366  0.5878 -2.8943 -1.3774
 6826SOL    HW232115   0.834   2.985   0.347  0.6457  1.6678 -4.3998
 6827SOL     OW32116   1.199   0.212  12.617  0.3791 -0.0613  0.6120
 6827SOL    HW132117   1.115   0.184  12.654  1.1468 -2.9353  0.1501
 6827SOL    HW232118   1.205   0.294  12.666  1.4676  0.1840  0.0770
 6828SOL     OW32119   3.067   1.388   7.011  0.3586 -0.3937 -0.8560
 6828SOL    HW132120   3.158   1.366   7.032 -0.9151 -1.9384  3.0308
 6828SOL    HW232121   3.047   1.469   7.058 -0.8941 -0.0131 -2.0557
 6829SOL     OW32122   3.022   3.187   0.237 -0.2168 -0.1910 -0.2800
 6829SOL    HW132123   3.113   3.160   0.254 -0.3858 -0.0371  0.8337
 6829SOL    HW232124   3.005   3.239   0.316  1.6114  0.0474 -0.0321
 6830SOL     OW32125   4.259   1.058   8.789  0.1004 -0.4059 -0.0820
 6830SOL    HW132126   4.209   1.139   8.796 -1.6219 -1.3942 -1.0411
 6830SOL    HW232127   4.350   1.089   8.785  0.2221 -0.6356  0.8588
 6831SOL     OW32128   0.220   2.199   9.957 -0.2851  0.1432 -0.3785
 6831SOL    HW132129   0.312   2.172   9.967 -0.7513 -0.7389  1.5684
 6831SOL    HW232130   0.182   2.118   9.992  0.6629  0.4025  1.2320
 6832SOL     OW32131   1.351   0.684   2.198 -0.1230 -0.4248  0.2266
 6832SOL    HW132132   1.293   0.666   2.124 -0.7537 -0.3695  0.7105
 6832SOL    HW232133   1.287   0.691   2.269  1.3765  2.4908  1.2923
 6833SOL     OW32134   3.838   2.908   2.193 -0.1850  0.6951 -0.1237
 6833SOL    HW132135   3.757   2.860   2.180 -0.4605  0.2752  3.2906
 6833SOL    HW232136   3.878   2.872   2.113 -2.0006  1.5835 -1.4456
 6834SOL     OW32137   4.118   1.851   8.835 -0.6759  0.0497 -0.7762
 6834SOL    HW132138   4.125   1.802   8.753  1.0378  0.4153 -0.8587
 6834SOL    HW232139   4.097   1.780   8.896  0.4878  0.0229 -0.4053
 6835SOL     OW32140   4.646   4.288  11.164  0.3296  0.0653 -0.0159
 6835SOL    HW132141   4.720   4.317  11.218  1.6107 -1.3929 -0.9944
 6835SOL    HW232142   4.591   4.366  11.175 -0.0837 -0.3569  0.9082
 6836SOL     OW32143   0.929   3.757   6.031  0.6488 -0.0020  0.4458
 6836SOL    HW132144   0.965   3.674   6.062 -0.3214 -1.0468 -1.2462
 6836SOL    HW232145   0.917   3.813   6.108  1.5373  0.3757  0.3120
 6837SOL     OW32146   0.475   0.955   3.616  0.3166  0.4275  0.4121
 6837SOL    HW132147   0.503   1.024   3.555 -1.0064 -0.2006 -0.9040
 6837SOL    HW232148   0.515   0.880   3.573  1.6973  1.9409 -0.9767
 6838SOL     OW32149   0.762   3.455   8.385  0.1134 -0.0942 -0.0068
 6838SOL    HW132150   0.773   3.373   8.434 -0.8473 -0.2980 -0.1256
 6838SOL    HW232151   0.849   3.495   8.389  0.7196 -1.4855  1.0077
 6839SOL     OW32152   2.909   2.446   2.893  0.0182 -0.8915 -0.1953
 6839SOL    HW132153   2.944   2.534   2.910 -0.9295 -0.2965 -1.2714
 6839SOL    HW232154   2.818   2.467   2.870 -0.3871 -0.3098  1.9744
 6840SOL     OW32155   3.038   1.792   5.170  0.1409  0.1785 -0.1216
 6840SOL    HW132156   3.059   1.704   5.202  1.0231  0.3345 -0.2565
 6840SOL    HW232157   3.100   1.849   5.217 -0.5396  0.7922  0.0234
 6841SOL     OW32158   4.556   0.694   4.195 -0.3506  0.3391  0.3555
 6841SOL    HW132159   4.547   0.646   4.113 -0.9408 -0.5808  0.9543
 6841SOL    HW232160   4.466   0.727   4.193 -0.3723  0.1251 -1.9172
 6842SOL     OW32161   1.815   3.650  13.976 -0.0355  0.2416  0.3896
 6842SOL    HW132162   1.836   3.575  14.033 -3.8579  1.3166  3.2354
 6842SOL    HW232163   1.886   3.649  13.912 -1.4272  0.5499 -1.1384
 6843SOL     OW32164   1.690   2.102  10.759  0.1036 -0.2905  1.0292
 6843SOL    HW132165   1.604   2.062  10.769  0.2138 -0.9495 -0.6732
 6843SOL    HW232166   1.658   2.176  10.708  2.2802  0.1653  0.3398
 6844SOL     OW32167   4.245   3.274   5.486 -0.3722  0.0902 -0.5753
 6844SOL    HW132168   4.160   3.231   5.489  0.2558 -1.0936  0.3041
 6844SOL    HW232169   4.204   3.360   5.487 -0.5150  0.0019  0.7751
 6845SOL     OW32170   4.632   3.453  11.771  0.6371  0.5411  0.3995
 6845SOL    HW132171   4.608   3.539  11.738  2.2409  0.8350  0.0358
 6845SOL    HW232172   4.585   3.402  11.705  0.7396  1.4875 -0.3873
 6846SOL     OW32173   3.047   4.632  14.094 -0.3785  0.2353 -0.0064
 6846SOL    HW132174   3.017   4.582  14.170 -0.7041  0.7646  0.2077
 6846SOL    HW232175   2.995   4.607  14.018 -1.5365 -1.5176  1.3746
 6847SOL     OW32176   0.174   2.319   4.345  0.4119  0.5295  0.0374
 6847SOL    HW132177   0.251   2.375   4.352  1.6236 -1.3461  1.4478
 6847SOL    HW232178   0.202   2.238   4.386  1.8686  0.4954 -1.0480
 6848SOL     OW32179   2.755   3.234   9.290 -0.0667 -0.1796  0.4875
 6848SOL    HW132180   2.810   3.269   9.360  1.0498 -1.0147  0.0411
 6848SOL    HW232181   2.768   3.297   9.220 -0.9785 -0.3277  0.1855
 6849SOL     OW32182   1.525   3.269  14.444  0.6634 -0.2062 -0.5435
 6849SOL    HW132183   1.517   3.260  14.349 -0.2628 -0.8871 -0.3992
 6849SOL    HW232184   1.521   3.175  14.463 -1.2629 -0.1393 -0.6149
 6850SOL     OW32185   2.909   2.025   6.478  0.4181  0.0774  0.3436
 6850SOL    HW132186   2.865   2.098   6.433  1.6936  1.5929  1.5641
 6850SOL    HW232187   2.915   1.956   6.412 -0.0194 -0.8442  1.2681
 6851SOL     OW32188   3.593   4.422   2.313  0.2124  0.3751 -0.6736
 6851SOL    HW132189   3.674   4.421   2.263 -0.6806 -1.2981 -2.0757
 6851SOL    HW232190   3.625   4.463   2.393 -1.6354  0.2971  0.1068
 6852SOL     OW32191   1.447   2.481   4.575 -0.0759  0.0941  0.7830
 6852SOL    HW132192   1.377   2.534   4.613  0.8726  3.3241 -2.0203
 6852SOL    HW232193   1.494   2.460   4.656  0.1221  0.3986  0.7462
 6853SOL     OW32194   0.735   3.248   1.842  0.4722  0.6023  0.6346
 6853SOL    HW132195   0.774   3.306   1.908 -0.1680  0.2655  1.3164
 6853SOL    HW232196   0.670   3.200   1.893 -0.1223 -0.9048 -1.5452
 6854SOL     OW32197   4.161   2.662   3.151 -0.0642  0.0395 -0.2215
 6854SOL    HW132198   4.192   2.727   3.213 -0.3152  0.9846 -1.0917
 6854SOL    HW232199   4.102   2.716   3.099 -0.5662  1.4477  1.8707
 6855SOL     OW32200   0.805   3.410   0.791 -0.1739 -0.0091 -0.1470
 6855SOL    HW132201   0.867   3.389   0.861  1.5079 -2.1759 -2.2775
 6855SOL    HW232202   0.854   3.378   0.715  0.8214 -0.1714  0.5610
 6856SOL     OW32203   1.916   3.502   4.027 -0.5538 -0.0126 -0.3145
 6856SOL    HW132204   1.893   3.471   4.114  2.3595  1.3535  0.9552
 6856SOL    HW232205   1.899   3.426   3.971  1.7122 -0.2341 -0.7166
 6857SOL     OW32206   0.147   0.605   3.157  0.0721 -0.5322  0.2826
 6857SOL    HW132207   0.185   0.693   3.157 -0.5788 -0.2603  1.3844
 6857SOL    HW232208   0.059   0.619   3.192  0.0995  0.2323  0.0431
 6858SOL     OW32209   2.594   0.892  13.499 -0.4653 -0.3890  0.4734
 6858SOL    HW132210   2.631   0.898  13.587  0.3201  1.7374  0.0085
 6858SOL    HW232211   2.511   0.938  13.516 -1.7420 -1.4991 -2.7603
 6859SOL     OW32212   0.419   1.106   6.167  0.0103 -0.3473  0.2760
 6859SOL    HW132213   0.355   1.145   6.107  0.3100 -1.8391 -1.0292
 6859SOL    HW232214   0.472   1.043   6.119 -0.4983 -1.0005  0.5609
 6860SOL     OW32215   0.160   2.385   2.697 -0.2959  0.6649 -0.4194
 6860SOL    HW132216   0.177   2.477   2.678 -0.3330  0.1455 -2.8951
 6860SOL    HW232217   0.078   2.395   2.746  0.3236  1.1088  0.5362
 6861SOL     OW32218   1.543   2.414   9.282  0.7504 -0.0907 -0.0123
 6861SOL    HW132219   1.618   2.465   9.251  1.2354 -2.1053 -2.1975
 6861SOL    HW232220   1.522   2.438   9.372 -0.5427  2.2228 -0.9190
 6862SOL     OW32221   1.749   2.388   0.970 -0.3925 -0.0119 -0.0995
 6862SOL    HW132222   1.821   2.406   1.030 -0.0616  0.2685 -0.5809
 6862SOL    HW232223   1.697   2.344   1.037  0.2797  0.5502  0.7896
 6863SOL     OW32224   2.985   1.653   7.077 -0.1916  0.5156  0.1153
 6863SOL    HW132225   2.928   1.696   7.142 -1.3246 -0.6737 -0.0979
 6863SOL    HW232226   3.070   1.697   7.082 -0.7660  1.5198  1.2072
 6864SOL     OW32227   3.390   2.172   9.192  0.4656 -0.6095 -0.1918
 6864SOL    HW132228   3.321   2.207   9.136 -0.7745 -2.0435  0.4451
 6864SOL    HW232229   3.416   2.255   9.232  1.8783 -1.4240  0.5550
 6865SOL     OW32230   1.040   2.297   6.804 -0.5866  0.4173 -0.1430
 6865SOL    HW132231   1.035   2.258   6.891  1.0682 -3.9231 -2.0397
 6865SOL    HW232232   0.967   2.262   6.753  0.1653 -2.0796  0.5318
 6866SOL     OW32233   3.373   1.785   8.842  0.4887 -0.2014 -0.7110
 6866SOL    HW132234   3.454   1.742   8.813 -0.7033 -1.5418 -2.0542
 6866SOL    HW232235   3.309   1.720   8.814  1.6597 -2.0202  0.8226
 6867SOL     OW32236   3.827   3.943   6.313  0.1212 -0.1428  0.6916
 6867SOL    HW132237   3.881   4.019   6.291  0.8365 -0.9687 -0.4750
 6867SOL    HW232238   3.853   3.890   6.237 -0.5537  1.8044 -0.8970
 6868SOL     OW32239   2.452   3.634   4.735 -0.1643 -0.0741  0.3690
 6868SOL    HW132240   2.492   3.642   4.821  1.7626  3.3183 -0.8157
 6868SOL    HW232241   2.389   3.566   4.757 -1.2352  1.3026  1.4903
 6869SOL     OW32242   4.287   4.030  13.073  0.5086 -0.1502  0.1163
 6869SOL    HW132243   4.362   3.972  13.075  0.2751 -0.4466  0.2743
 6869SOL    HW232244   4.324   4.113  13.041 -1.3644  1.6253  2.5293
 6870SOL     OW32245   2.434   3.937  17.059  1.0460 -0.1297  0.5088
 6870SOL    HW132246   2.415   3.938  16.965 -2.0135 -2.8396  1.0827
 6870SOL    HW232247   2.392   3.855  17.086  3.2830 -2.1351 -2.0876
 6871SOL     OW32248   0.045   2.886  13.359  0.1895  0.5591  0.1507
 6871SOL    HW132249   0.125   2.836  13.373 -0.1803 -0.4843 -1.4316
 6871SOL    HW232250   4.726   2.814  13.389 -0.0602  0.7561  0.1671
 6872SOL     OW32251   2.161   1.081   4.646 -0.3942 -0.5468 -0.0447
 6872SOL    HW132252   2.208   0.999   4.634 -0.2453 -0.5187  0.3397
 6872SOL    HW232253   2.215   1.148   4.604  2.6313 -1.2893  2.6867
 6873SOL     OW32254   1.579   2.705   2.938  0.3098 -0.4223 -0.4083
 6873SOL    HW132255   1.573   2.711   2.843 -0.4053 -1.3091 -0.4225
 6873SOL    HW232256   1.511   2.766   2.966  0.3924 -0.5239  0.0169
 6874SOL     OW32257   3.910   3.922  11.442 -0.3872  0.1913 -0.3773
 6874SOL    HW132258   3.845   3.981  11.403 -0.1705  0.4001 -0.4187
 6874SOL    HW232259   3.852   3.851  11.470  2.4952 -1.1169  2.2203
 6875SOL     OW32260   1.525   2.191   9.141 -0.5353 -0.1886  0.4196
 6875SOL    HW132261   1.611   2.171   9.179  0.1516 -0.2607 -1.2017
 6875SOL    HW232262   1.521   2.274   9.188  0.7185 -1.3518  2.6047
 6876SOL     OW32263   1.872   3.279  16.711  0.0661  0.7060  0.1676
 6876SOL    HW132264   1.966   3.270  16.694  0.1325  0.5704  0.5921
 6876SOL    HW232265   1.877   3.195  16.757  1.6897  0.0573 -1.2035
 6877SOL     OW32266   3.173   2.540   8.301  0.0722 -0.3935 -0.9719
 6877SOL    HW132267   3.210   2.583   8.377 -1.0741  0.7834 -1.0701
 6877SOL    HW232268   3.079   2.531   8.319 -0.2114  0.4360 -2.0007
 6878SOL     OW32269   1.987   2.677   9.590 -0.6466  0.9145 -0.1691
 6878SOL    HW132270   1.907   2.660   9.540 -2.1032  1.6366  1.9091
 6878SOL    HW232271   2.013   2.586   9.606 -3.1063  0.2639  0.2191
 6879SOL     OW32272   0.694   4.214   0.645 -0.5937 -0.1145 -0.2909
 6879SOL    HW132273   0.671   4.173   0.728 -1.0207 -1.4015 -1.0441
 6879SOL    HW232274   0.708   4.142   0.584 -0.2220 -2.0278  2.0685
 6880SOL     OW32275   2.004   0.557   6.370 -0.1912  0.1198  0.0257
 6880SOL    HW132276   1.919   0.530   6.335 -0.1915 -1.3195  1.1613
 6880SOL    HW232277   2.046   0.474   6.390 -0.9147 -0.7176 -1.9483
 6881SOL     OW32278   2.731   2.145   4.642  0.1345 -0.1784 -0.1621
 6881SOL    HW132279   2.798   2.085   4.608  0.1942 -0.9698  1.3627
 6881SOL    HW232280   2.648   2.103   4.620 -0.8634  0.3803  2.6228
 6882SOL     OW32281   1.591   0.252   7.363 -0.2427 -1.1572  0.5932
 6882SOL    HW132282   1.530   0.189   7.400  1.4242 -2.8879  0.3804
 6882SOL    HW232283   1.663   0.236   7.424  1.2010  1.8442 -0.3376
 6883SOL     OW32284   3.412   0.831   8.504  0.5483 -0.1352  0.0201
 6883SOL    HW132285   3.437   0.781   8.582  0.7901  0.2568  0.1963
 6883SOL    HW232286   3.342   0.883   8.543  1.1992  0.1426  0.8421
 6884SOL     OW32287   3.531   0.593   7.778  0.3344  0.1372 -0.0305
 6884SOL    HW132288   3.525   0.635   7.692 -2.0855  0.5769  0.3707
 6884SOL    HW232289   3.618   0.620   7.809  0.5152  0.2315 -0.6174
 6885SOL     OW32290   1.982   3.617  16.872 -0.2736 -0.3468 -0.1314
 6885SOL    HW132291   1.950   3.664  16.795  0.7083 -0.9522 -0.9199
 6885SOL    HW232292   1.919   3.644  16.939 -1.2086  2.5986 -2.1843
 6886SOL     OW32293   4.257   3.979   9.387  0.8463 -0.0328 -0.0329
 6886SOL    HW132294   4.291   3.890   9.399 -0.6141 -1.0043 -3.0517
 6886SOL    HW232295   4.261   4.010   9.477  3.9216  0.4668 -0.3343
 6887SOL     OW32296   3.397   4.243   7.406 -0.1142  0.3481  0.2323
 6887SOL    HW132297   3.463   4.296   7.361 -0.0769 -0.1988 -0.3571
 6887SOL    HW232298   3.451   4.167   7.430 -0.2752  0.0590 -0.3197
 6888SOL     OW32299   2.638   2.495   2.857 -0.9752 -0.4244  0.3915
 6888SOL    HW132300   2.582   2.568   2.881  0.1631  0.3165  0.8003
 6888SOL    HW232301   2.574   2.436   2.817  0.9765 -1.1111 -1.7058
 6889SOL     OW32302   2.568   0.236   8.966 -0.1045 -1.0238 -0.3195
 6889SOL    HW132303   2.576   0.332   8.967  1.2672 -1.1534 -0.0154
 6889SOL    HW232304   2.595   0.223   8.875 -1.3920 -0.7426 -0.7455
 6890SOL     OW32305   0.661   2.194  12.466 -0.2163  0.1960  0.2115
 6890SOL    HW132306   0.620   2.128  12.411 -1.5595 -0.5711  2.1875
 6890SOL    HW232307   0.726   2.140  12.511  0.0721  0.5587  0.2399
 6891SOL     OW32308   0.837   1.380   9.271 -0.1562 -0.2010 -0.1260
 6891SOL    HW132309   0.926   1.357   9.297 -0.4211 -1.6699 -0.5096
 6891SOL    HW232310   0.800   1.443   9.332  1.7995 -0.6973  1.5599
 6892SOL     OW32311   4.680   1.190   1.670  0.7335  0.0769 -0.0163
 6892SOL    HW132312   0.015   1.246   1.642  1.5394 -1.3651 -0.8107
 6892SOL    HW232313   4.667   1.201   1.764  2.4267 -0.7934  0.3113
 6893SOL     OW32314   0.769   1.579   5.734  0.2556  0.1665  0.0535
 6893SOL    HW132315   0.860   1.551   5.745  0.0057 -0.5271  0.2974
 6893SOL    HW232316   0.734   1.547   5.816  0.6799  1.4440  0.7350
 6894SOL     OW32317   1.706   2.520   7.547  0.0041  0.6437  0.1568
 6894SOL    HW132318   1.780   2.575   7.573 -1.6999  2.3645  1.3784
 6894SOL    HW232319   1.727   2.474   7.466  4.7044 -2.4619  3.1940
 6895SOL     OW32320   4.416   3.335  15.035 -0.0805  1.2429  0.8443
 6895SOL    HW132321   4.356   3.280  15.085  3.0822 -1.8936  1.1959
 6895SOL    HW232322   4.438   3.268  14.971  0.6342  1.6075  0.7030
 6896SOL     OW32323   4.283   2.808  15.004 -0.5454 -0.0953  0.4789
 6896SOL    HW132324   4.254   2.726  15.045 -2.1890  1.2320  1.9651
 6896SOL    HW232325   4.376   2.802  14.979 -0.1365  1.9172  1.4818
 6897SOL     OW32326   2.133   3.119   1.564 -0.0454  0.2600  0.0696
 6897SOL    HW132327   2.103   3.041   1.612  0.0084  1.2849  1.7693
 6897SOL    HW232328   2.169   3.169   1.638  0.7807  0.4504 -0.4595
 6898SOL     OW32329   3.412   3.418   1.891  0.1113 -0.0060 -0.1664
 6898SOL    HW132330   3.386   3.346   1.949  0.6589  0.1465  0.2673
 6898SOL    HW232331   3.470   3.373   1.830  0.5274 -1.4261  1.2871
 6899SOL     OW32332   0.022   1.633   9.162 -0.4409  0.3905  0.4163
 6899SOL    HW132333   4.689   1.568   9.155 -0.2145  0.3249 -1.2885
 6899SOL    HW232334   4.714   1.701   9.211 -0.6989  0.0255  0.6910
 6900SOL     OW32335   2.664   0.360   7.498  0.0626  0.2635 -0.4442
 6900SOL    HW132336   2.682   0.400   7.412 -0.8444  0.4100 -0.5692
 6900SOL    HW232337   2.734   0.295   7.494  0.6555  0.7990  1.5496
 6901SOL     OW32338   0.690   4.713   3.123 -0.2801  0.3068  0.1856
 6901SOL    HW132339   0.741   0.055   3.102 -0.7016 -0.1657 -2.7279
 6901SOL    HW232340   0.761   4.650   3.109 -0.5638 -0.5672  2.8327
 6902SOL     OW32341   4.414   4.167   7.279  0.5978  0.2036 -0.1359
 6902SOL    HW132342   4.383   4.131   7.196 -0.5249  0.3353  0.2184
 6902SOL    HW232343   4.468   4.242   7.255  0.9016 -0.5325 -1.7055
 6903SOL     OW32344   3.199   0.952   8.245  0.3027  0.4493  0.4415
 6903SOL    HW132345   3.291   0.972   8.267  0.1261  0.5727  1.0732
 6903SOL    HW232346   3.171   1.030   8.199 -0.7700  0.1654  0.6292
 6904SOL     OW32347   4.691   1.556  17.021  0.1700  0.0150 -0.3475
 6904SOL    HW132348   4.631   1.631  17.026 -1.9797 -1.7497  0.3907
 6904SOL    HW232349   0.014   1.580  16.950  0.5139 -0.0183 -0.0681
 6905SOL     OW32350   0.206   0.522   6.059 -0.3700 -0.5702  0.1488
 6905SOL    HW132351   0.184   0.442   6.106  1.3953 -0.5296  1.0275
 6905SOL    HW232352   0.289   0.550   6.098  1.2665 -2.6357 -1.8708
 6906SOL     OW32353   2.586   4.580  15.168 -0.0078 -0.2486  0.1811
 6906SOL    HW132354   2.528   4.513  15.205 -1.1782  0.9970  0.5979
 6906SOL    HW232355   2.673   4.540  15.173  0.5570  0.7416 -1.8752
 6907SOL     OW32356   3.206   0.424   1.130  0.4222  0.5079  0.5163
 6907SOL    HW132357   3.138   0.362   1.101  1.2633 -0.3950  0.4741
 6907SOL    HW232358   3.168   0.507   1.103  0.3039 -0.5208 -2.5282
 6908SOL     OW32359   3.937   1.924   6.321 -0.0680  0.0199 -0.3761
 6908SOL    HW132360   3.953   1.874   6.402 -1.3196  0.9014  0.4269
 6908SOL    HW232361   4.028   1.925   6.293 -0.0586 -0.2961 -0.3538
 6909SOL     OW32362   3.051   0.124   0.772  0.0696 -0.0094 -0.5552
 6909SOL    HW132363   3.104   0.187   0.723 -1.7819  0.2989 -2.1633
 6909SOL    HW232364   2.967   0.170   0.760 -0.1008 -0.5969 -1.5492
 6910SOL     OW32365   1.202   1.403  10.738 -0.2355  0.4655 -0.3501
 6910SOL    HW132366   1.164   1.358  10.813  2.3151  1.0972  1.3096
 6910SOL    HW232367   1.258   1.333  10.706 -0.2424  0.7495 -1.0016
 6911SOL     OW32368   1.326   2.387  15.413 -0.4491 -0.2445  0.9824
 6911SOL    HW132369   1.297   2.474  15.440  0.3247 -0.0079  1.0256
 6911SOL    HW232370   1.398   2.407  15.354  1.2407 -2.1932  2.3654
 6912SOL     OW32371   0.686   2.752   6.890 -0.5632 -0.0761  0.4478
 6912SOL    HW132372   0.740   2.728   6.965 -0.0671  0.4710  0.2625
 6912SOL    HW232373   0.715   2.687   6.826 -0.9392 -0.2205  0.4237
 6913SOL     OW32374   3.126   1.233   7.662 -0.4653 -0.0089  0.2132
 6913SOL    HW132375   3.179   1.312   7.673 -0.4441 -0.1978  1.4696
 6913SOL    HW232376   3.144   1.217   7.570  1.8125  0.3275  0.5952
 6914SOL     OW32377   2.246   4.377   5.565  0.3341 -0.5851 -0.1181
 6914SOL    HW132378   2.184   4.448   5.585  0.6849 -1.2249  3.1117
 6914SOL    HW232379   2.327   4.427   5.573 -0.6065  1.0909 -0.8877
 6915SOL     OW32380   3.741   0.909  12.425  0.2277  0.2635 -0.3525
 6915SOL    HW132381   3.769   0.820  12.448  0.4902  0.7316  1.1480
 6915SOL    HW232382   3.810   0.953  12.475  1.4334 -0.6016 -1.2420
 6916SOL     OW32383   1.152   2.361   8.550 -0.2196  0.0053  0.2097
 6916SOL    HW132384   1.145   2.266   8.554  0.6994 -0.0928 -0.6104
 6916SOL    HW232385   1.099   2.382   8.627 -1.6298 -1.2715 -0.4053
 6917SOL     OW32386   1.155   2.226   4.758  0.3058 -0.7338 -0.2471
 6917SOL    HW132387   1.233   2.248   4.808 -0.4522 -1.8536  1.4520
 6917SOL    HW232388   1.146   2.293   4.690  1.4796  0.6194  0.9470
 6918SOL     OW32389   4.214   1.907   6.277 -0.3959  0.4362  0.4539
 6918SOL    HW132390   4.263   1.833   6.241 -0.6123 -0.1606  1.3925
 6918SOL    HW232391   4.281   1.975   6.286  0.2974 -0.2724  0.6874
 6919SOL     OW32392   4.342   1.290   4.788 -0.0334  0.1415 -0.0748
 6919SOL    HW132393   4.381   1.332   4.865  1.2018 -1.8103  0.3681
 6919SOL    HW232394   4.268   1.350   4.774  0.0129  0.0974 -0.4965
 6920SOL     OW32395   4.646   2.795   5.762 -0.4213  0.0143 -0.1634
 6920SOL    HW132396   4.568   2.750   5.795 -1.1041  0.4154 -1.1968
 6920SOL    HW232397   4.618   2.884   5.787 -0.7105 -0.3105  0.6736
 6921SOL     OW32398   1.702   3.286   8.095 -0.3054  0.3098 -0.3472
 6921SOL    HW132399   1.615   3.264   8.129  1.6252 -1.3167  3.5337
 6921SOL    HW232400   1.710   3.224   8.023  1.2016 -1.1535  1.0494
 6922SOL     OW32401   4.536   1.522   3.696 -0.0286  0.3580  0.4912
 6922SOL    HW132402   4.462   1.487   3.745  0.7462  0.0578  1.4501
 6922SOL    HW232403   4.615   1.494   3.742  0.7266  0.8264 -0.5119
 6923SOL     OW32404   0.423   3.373  12.957 -0.4862 -0.2328  0.9095
 6923SOL    HW132405   0.390   3.372  12.867 -0.4046 -0.5483  0.8833
 6923SOL    HW232406   0.507   3.329  12.945 -0.4861 -0.5615  2.1553
 6924SOL     OW32407   0.666   2.123   2.829 -0.4647 -0.5021  0.3436
 6924SOL    HW132408   0.744   2.068   2.840  0.6300  1.4444  2.1356
 6924SOL    HW232409   0.642   2.100   2.739  0.5997 -0.5009  0.0484
 6925SOL     OW32410   1.785   3.552   8.088 -0.2686  0.0525 -0.0149
 6925SOL    HW132411   1.750   3.465   8.068  3.2787 -1.0266 -1.3777
 6925SOL    HW232412   1.730   3.566   8.166  0.2842 -2.4916  0.8153
 6926SOL     OW32413   3.636   3.280  14.364  0.4903 -0.0802  0.1825
 6926SOL    HW132414   3.635   3.311  14.274  0.8335 -1.1117 -0.1775
 6926SOL    HW232415   3.670   3.192  14.351 -0.8728 -0.2702 -1.9761
 6927SOL     OW32416   1.443   3.725   6.550 -0.3284 -0.3360  0.3437
 6927SOL    HW132417   1.461   3.659   6.484 -0.8413 -1.1477  1.0115
 6927SOL    HW232418   1.348   3.724   6.566 -0.5228  1.9010 -0.6087
 6928SOL     OW32419   1.942   3.259   7.392 -0.2034  0.3370 -0.0555
 6928SOL    HW132420   1.853   3.285   7.415  0.7659  2.4335  1.2756
 6928SOL    HW232421   1.950   3.184   7.452 -0.4252  0.9916  0.7846
 6929SOL     OW32422   1.741   1.250   9.532  0.2058 -0.2038 -0.0397
 6929SOL    HW132423   1.724   1.316   9.599 -3.0945 -1.8051  0.7165
 6929SOL    HW232424   1.660   1.269   9.485  0.5738  0.2247 -0.5015
 6930SOL     OW32425   0.854   4.583   3.653 -0.1626  0.4545 -0.6166
 6930SOL    HW132426   0.891   4.633   3.726  2.7931  0.4094 -2.0642
 6930SOL    HW232427   0.884   4.497   3.681 -1.0566 -0.2945 -1.9982
 6931SOL     OW32428   0.876   1.685   6.148  0.7322 -0.1475 -0.3709
 6931SOL    HW132429   0.845   1.700   6.238 -0.6213  0.8171 -1.0007
 6931SOL    HW232430   0.967   1.673   6.174  1.2223  3.1889 -0.4970
 6932SOL     OW32431   3.865   2.160  12.875  0.1877 -0.4105 -0.1738
 6932SOL    HW132432   3.952   2.190  12.850  0.9881 -3.2302 -0.7401
 6932SOL    HW232433   3.845   2.196  12.962 -0.2745  0.5118 -0.6657
 6933SOL     OW32434   2.058   3.060  15.635 -0.2166 -0.3262 -0.0319
 6933SOL    HW132435   2.046   3.154  15.651  1.2202  0.4228 -3.2259
 6933SOL    HW232436   2.033   3.008  15.711 -1.6681 -0.9972 -0.9771
 6934SOL     OW32437   0.805   0.910   1.240 -0.3473 -0.4045 -0.1432
 6934SOL    HW132438   0.762   0.867   1.315  1.6916 -0.6325  0.8893
 6934SOL    HW232439   0.757   0.867   1.170  0.0210  1.7763 -1.7271
 6935SOL     OW32440   0.129   1.932   1.479 -0.8183  0.6775  0.2878
 6935SOL    HW132441   0.178   1.933   1.397 -2.6823 -2.0686 -0.8255
 6935SOL    HW232442   0.154   1.849   1.520 -2.8813 -0.3467 -0.5523
 6936SOL     OW32443   4.583   4.001   7.416  0.0218 -0.5166 -0.0915
 6936SOL    HW132444   4.673   4.013   7.445 -0.2077 -1.7093  1.1175
 6936SOL    HW232445   4.595   4.043   7.331 -3.9417  0.5698 -0.1497
 6937SOL     OW32446   4.446   3.981  16.665  0.8302  0.1659  0.1613
 6937SOL    HW132447   4.499   3.926  16.607 -0.4442 -0.3441 -0.5107
 6937SOL    HW232448   4.356   3.981  16.632  0.6169  2.3400  0.7262
 6938SOL     OW32449   2.991   2.238   7.423 -0.0335  0.7237 -0.0498
 6938SOL    HW132450   3.036   2.242   7.338 -0.7483  0.6335 -0.4370
 6938SOL    HW232451   3.034   2.162   7.462 -0.5383  0.4040 -0.1053
 6939SOL     OW32452   4.466   3.751   4.932 -0.3133  0.2888  0.2453
 6939SOL    HW132453   4.547   3.704   4.916  0.6361  2.7623 -2.3834
 6939SOL    HW232454   4.400   3.683   4.941 -0.5927  0.8727  2.4667
 6940SOL     OW32455   0.928   3.130   7.957 -0.6850  0.0123 -0.8976
 6940SOL    HW132456   0.839   3.122   7.991 -0.1109  0.1199  0.6185
 6940SOL    HW232457   0.971   3.195   8.013 -2.0515  1.0543 -1.0423
 6941SOL     OW32458   2.032   3.668   2.811  0.0383  0.4962  0.3584
 6941SOL    HW132459   2.070   3.591   2.769 -0.8517  0.4383 -0.3423
 6941SOL    HW232460   1.994   3.626   2.888  1.7057 -1.8113 -0.0651
 6942SOL     OW32461   3.225   1.113   7.441  0.5681 -0.1546  0.2733
 6942SOL    HW132462   3.317   1.089   7.434  0.7405 -0.6333  4.0944
 6942SOL    HW232463   3.172   1.048   7.396 -1.2607  2.1262 -0.8807
 6943SOL     OW32464   0.014   4.086  14.085  0.0293 -0.1888 -0.0332
 6943SOL    HW132465   0.030   4.111  13.994 -0.5462 -0.3427 -0.1755
 6943SOL    HW232466   0.092   4.136  14.108  1.0056  0.2778 -4.3684
 6944SOL     OW32467   1.759   3.155   7.143 -0.4646  0.5128 -0.7805
 6944SOL    HW132468   1.714   3.222   7.091  0.3015  0.9156 -0.9153
 6944SOL    HW232469   1.826   3.208   7.185 -0.8612 -0.6970  1.3926
 6945SOL     OW32470   1.174   3.493   7.153 -0.3916 -0.1176  0.3960
 6945SOL    HW132471   1.220   3.496   7.069 -0.7570  1.0269  0.2298
 6945SOL    HW232472   1.130   3.408   7.153  0.9469 -0.8123  0.8777
 6946SOL     OW32473   4.384   4.029   5.280 -0.1549 -0.4694  0.1720
 6946SOL    HW132474   4.421   3.941   5.283  0.2351 -0.3565 -1.4086
 6946SOL    HW232475   4.329   4.032   5.202  0.5472  0.3872 -0.2965
 6947SOL     OW32476   2.340   1.751   2.217  0.4422  0.7871 -0.1906
 6947SOL    HW132477   2.343   1.845   2.202  1.0283  1.0462  1.5079
 6947SOL    HW232478   2.387   1.706   2.147  2.4495  2.7391 -0.1009
 6948SOL     OW32479   4.139   0.266   6.337 -0.4650 -0.6290  0.2406
 6948SOL    HW132480   4.216   0.257   6.393  0.2024 -0.8369 -0.7124
 6948SOL    HW232481   4.097   0.182   6.352 -1.6513 -0.1160 -0.1245
 6949SOL     OW32482   3.944   4.537   3.591 -0.1570  0.0658 -0.1870
 6949SOL    HW132483   3.870   4.575   3.545  0.5926  0.4014 -1.1122
 6949SOL    HW232484   4.022   4.578   3.554  0.3367  0.5517  1.3654
 6950SOL     OW32485   2.304   4.010   3.111  0.2872 -0.0933  0.1302
 6950SOL    HW132486   2.224   3.965   3.084 -0.6130 -0.2463  3.0694
 6950SOL    HW232487   2.360   3.948   3.065 -2.0203 -0.5301 -2.0542
 6951SOL     OW32488   4.465   3.570  14.258  0.1322  0.0830 -0.2476
 6951SOL    HW132489   4.545   3.518  14.264  0.2776  0.3964  0.4707
 6951SOL    HW232490   4.442   3.553  14.166 -2.8111 -0.8892  0.6616
 6952SOL     OW32491   1.468   4.422   9.845  0.0897  0.5286  0.5214
 6952SOL    HW132492   1.502   4.364   9.778 -1.2085  1.3970 -0.8896
 6952SOL    HW232493   1.531   4.406   9.915 -0.6664  1.5477  1.4430
 6953SOL     OW32494   1.100   0.537   7.369  0.0592  0.0426  0.0173
 6953SOL    HW132495   1.168   0.548   7.437 -0.0034 -0.7782  0.2080
 6953SOL    HW232496   1.146   0.550   7.286 -1.4613  2.3878 -0.4454
 6954SOL     OW32497   0.922   2.380   7.278  0.1059  0.0694 -0.6039
 6954SOL    HW132498   0.873   2.352   7.200  1.2568 -1.9012 -0.6377
 6954SOL    HW232499   0.875   2.337   7.349  0.3846  0.2198 -0.3306
 6955SOL     OW32500   1.520   1.518   7.077  0.4792 -0.5066  0.0098
 6955SOL    HW132501   1.535   1.606   7.043  0.0033  0.7134  2.9172
 6955SOL    HW232502   1.435   1.532   7.118  2.1915  2.1178  2.7097
 6956SOL     OW32503   3.791   3.894   4.577  0.7294 -0.2247 -0.0650
 6956SOL    HW132504   3.778   3.936   4.491  1.6027 -2.5719 -1.3379
 6956SOL    HW232505   3.703   3.918   4.608  0.7440 -0.4717  0.1599
 6957SOL     OW32506   1.190   1.172  15.047 -0.7183 -0.2269 -1.0237
 6957SOL    HW132507   1.276   1.193  15.082 -0.8408 -3.8931  1.4150
 6957SOL    HW232508   1.199   1.091  14.998  1.5742  0.4222 -1.6591
 6958SOL     OW32509   2.119   3.420  13.386  0.4595  0.4286  0.0125
 6958SOL    HW132510   2.162   3.487  13.334 -0.4357 -0.6562 -2.1503
 6958SOL    HW232511   2.115   3.351  13.319  0.1354 -0.3005  0.7835
 6959SOL     OW32512   1.207   4.051  10.294  0.1021 -0.0264  0.3407
 6959SOL    HW132513   1.181   3.977  10.349 -0.0443 -0.6395 -0.5685
 6959SOL    HW232514   1.301   4.038  10.279  0.2670  0.2231  1.1251
 6960SOL     OW32515   3.051   1.010   4.447 -0.4432 -0.3530  0.2495
 6960SOL    HW132516   3.038   0.967   4.363  0.4443  0.8733 -0.5149
 6960SOL    HW232517   3.001   1.090   4.433  1.0990  0.6495  0.4630
 6961SOL     OW32518   1.037   3.915  14.414 -0.4291 -0.4300 -0.4648
 6961SOL    HW132519   1.084   3.853  14.470  1.2575  3.4313  2.3824
 6961SOL    HW232520   0.977   3.860  14.363  0.8867 -0.9166 -1.5037
 6962SOL     OW32521   1.080   4.424   1.950 -0.5254  0.5469  0.0404
 6962SOL    HW132522   1.090   4.483   2.024  0.7855 -0.0570  0.3441
 6962SOL    HW232523   1.101   4.343   1.997 -1.6488  0.0546 -0.2961
 6963SOL     OW32524   3.620   2.024  11.554 -0.2331  0.2253 -0.0248
 6963SOL    HW132525   3.661   1.939  11.542  0.4152  0.5229  0.0906
 6963SOL    HW232526   3.701   2.073  11.562 -0.1595 -0.5136  3.5299
 6964SOL     OW32527   3.693   1.320   8.918  0.0204  0.5230 -0.4412
 6964SOL    HW132528   3.640   1.345   8.842 -2.2021  1.5187  1.4404
 6964SOL    HW232529   3.726   1.407   8.944 -1.4293  0.6843  0.8777
 6965SOL     OW32530   2.666   2.063   2.410 -0.2257 -0.0656  0.4539
 6965SOL    HW132531   2.701   2.039   2.324  0.8149  2.9417  0.0249
 6965SOL    HW232532   2.574   2.082   2.390  0.2641 -0.0993 -1.8954
 6966SOL     OW32533   0.542   3.256   5.837 -0.6873 -0.1705  0.1145
 6966SOL    HW132534   0.550   3.351   5.828 -3.6074  0.0400 -0.5074
 6966SOL    HW232535   0.622   3.236   5.788 -1.2990  1.5062 -1.5698
 6967SOL     OW32536   1.182   3.810   8.384  0.0191  0.2949 -0.1186
 6967SOL    HW132537   1.096   3.816   8.424 -0.1740  1.5080 -0.7090
 6967SOL    HW232538   1.175   3.890   8.332 -2.7305  1.3579  1.9149
 6968SOL     OW32539   1.534   2.060   6.108 -0.2025 -0.0840 -0.2583
 6968SOL    HW132540   1.482   2.053   6.188  0.8448  1.5812  0.5792
 6968SOL    HW232541   1.525   1.981   6.056 -2.0143 -0.1779  0.2062
 6969SOL     OW32542   0.018   3.484   3.930 -0.3088 -0.2562  0.6157
 6969SOL    HW132543   0.068   3.490   3.848  1.1400  0.2235  1.5383
 6969SOL    HW232544   4.687   3.421   3.903  0.9971 -0.9796 -1.0218
 6970SOL     OW32545   1.615   0.405   3.804  0.3433 -0.1209 -0.2882
 6970SOL    HW132546   1.620   0.401   3.708  2.7047 -0.4219 -0.1662
 6970SOL    HW232547   1.672   0.482   3.814 -0.5612  0.2952  1.6700
 6971SOL     OW32548   2.225   0.757  11.900  0.2758  0.1092 -0.5335
 6971SOL    HW132549   2.247   0.719  11.815 -1.7876  1.7673 -1.7981
 6971SOL    HW232550   2.299   0.819  11.899  0.0941  0.3455  0.3529
 6972SOL     OW32551   4.246   1.561   9.208 -0.3636  0.8533  0.2667
 6972SOL    HW132552   4.272   1.608   9.287  1.8821 -0.3375  0.2336
 6972SOL    HW232553   4.251   1.476   9.252 -0.0231  0.8088  0.1413
 6973SOL     OW32554   0.956   1.750   4.182 -0.7110  0.2835  0.4742
 6973SOL    HW132555   0.989   1.664   4.157 -0.8336  0.5552 -0.6021
 6973SOL    HW232556   0.930   1.732   4.272 -4.0298 -0.5881 -0.6621
 6974SOL     OW32557   3.835   0.915   0.429  0.3385 -0.5096 -0.1351
 6974SOL    HW132558   3.765   0.906   0.494  0.5955  1.4809  0.4015
 6974SOL    HW232559   3.909   0.866   0.464 -0.4599 -1.4499  0.2419
 6975SOL     OW32560   3.237   2.503   2.172  0.0676  0.7342 -0.1303
 6975SOL    HW132561   3.193   2.444   2.111  0.7064  0.2324 -0.1060
 6975SOL    HW232562   3.302   2.446   2.214 -0.0556  0.6711 -0.0244
 6976SOL     OW32563   2.158   1.153  13.035  0.1416  0.3798  0.2633
 6976SOL    HW132564   2.148   1.094  12.960 -0.3797  0.5238  0.2217
 6976SOL    HW232565   2.180   1.100  13.112  0.4164 -0.3253 -0.2971
 6977SOL     OW32566   0.967   2.543  15.698 -0.0044  0.4755 -0.0014
 6977SOL    HW132567   0.996   2.594  15.622 -1.1082 -0.0384 -0.7701
 6977SOL    HW232568   0.878   2.522  15.669  0.1095  0.7191 -0.5377
 6978SOL     OW32569   0.718   0.547   8.010  0.4266  0.3376 -0.3284
 6978SOL    HW132570   0.722   0.636   8.044  0.2600  0.2471 -0.0700
 6978SOL    HW232571   0.806   0.550   7.974  1.4117 -0.7368  1.9628
 6979SOL     OW32572   3.117   0.201  15.551 -0.3130  0.6432  0.1858
 6979SOL    HW132573   3.138   0.136  15.619 -0.4054 -1.0234 -1.3662
 6979SOL    HW232574   3.202   0.215  15.508  0.2995 -2.5099  0.3506
 6980SOL     OW32575   0.562   1.202   8.315 -1.1874 -0.7824 -0.0685
 6980SOL    HW132576   0.480   1.215   8.268 -1.2077 -1.2493 -0.1547
 6980SOL    HW232577   0.545   1.117   8.356 -0.1738 -2.1536 -2.5274
 6981SOL     OW32578   1.258   4.726   8.175  0.3533  0.1613  0.6560
 6981SOL    HW132579   1.326   4.680   8.224  1.8507  0.7540 -0.9028
 6981SOL    HW232580   1.204   4.655   8.141 -0.6476  1.5405 -0.6467
 6982SOL     OW32581   2.180   2.131   0.213  0.2420  0.1658  0.7998
 6982SOL    HW132582   2.250   2.185   0.250 -0.2294  1.6306 -0.4592
 6982SOL    HW232583   2.121   2.135   0.288  0.6794  0.8175  1.1057
 6983SOL     OW32584   4.481   1.913  13.627 -0.4363  0.4961  0.3368
 6983SOL    HW132585   4.577   1.907  13.618 -0.4041  0.6488  0.5723
 6983SOL    HW232586   4.463   1.874  13.542 -0.4382  0.9494  0.1257
 6984SOL     OW32587   0.948   0.011   3.924  0.6591 -0.0877 -0.5179
 6984SOL    HW132588   1.028   4.698   3.910  0.8862 -0.0998  0.7446
 6984SOL    HW232589   0.990   0.096   3.911  1.0271 -0.0483  0.9227
 6985SOL     OW32590   1.329   1.573   9.855  0.0360 -0.4073  0.5324
 6985SOL    HW132591   1.291   1.625   9.784 -0.0019  1.3836  1.8709
 6985SOL    HW232592   1.311   1.484   9.827  0.4115 -0.6980  1.2322
 6986SOL     OW32593   4.258   4.411   3.569  0.2202 -0.4597 -0.2452
 6986SOL    HW132594   4.203   4.421   3.646 -0.2368  0.7013 -0.7208
 6986SOL    HW232595   4.203   4.426   3.492 -1.5297 -2.6028  0.5989
 6987SOL     OW32596   0.511   1.496  17.409  0.1510 -0.3157  0.5014
 6987SOL    HW132597   0.532   1.403  17.409  1.3653 -0.0280 -0.5573
 6987SOL    HW232598   0.420   1.499  17.440 -0.6606  0.7576 -1.9556
 6988SOL     OW32599   0.520   4.722   7.464 -0.3877  0.0831 -0.3374
 6988SOL    HW132600   0.495   4.647   7.518  0.3728  0.1220  0.0725
 6988SOL    HW232601   0.458   0.048   7.501 -0.8929 -0.8172  0.3368
 6989SOL     OW32602   0.713   3.717   3.056  0.3320 -0.3244  0.4184
 6989SOL    HW132603   0.701   3.699   3.149 -2.4783  1.4058  0.3909
 6989SOL    HW232604   0.778   3.653   3.028  0.1870 -0.2721 -0.0378
 6990SOL     OW32605   3.677   4.467   6.015 -0.4158 -0.2507 -0.1237
 6990SOL    HW132606   3.742   4.455   5.946 -0.8451  0.6131 -0.6905
 6990SOL    HW232607   3.667   4.562   6.007 -0.0250 -0.0805  1.4245
 6991SOL     OW32608   1.523   1.633  16.728 -0.2807 -0.2622  0.3592
 6991SOL    HW132609   1.436   1.668  16.711  0.2008  1.3055  1.1808
 6991SOL    HW232610   1.580   1.695  16.683 -0.9175 -0.6303 -0.9610
 6992SOL     OW32611   4.658   0.098  10.430  0.7904  0.0823  0.2028
 6992SOL    HW132612   4.669   0.005  10.411  0.7703  0.1651 -0.2069
 6992SOL    HW232613   4.639   0.101  10.524  0.1866  0.8045  0.0572
 6993SOL     OW32614   0.936   1.067   7.870 -0.3995  0.4093  0.0474
 6993SOL    HW132615   0.877   1.128   7.915 -0.2239  1.4373 -1.1296
 6993SOL    HW232616   0.897   0.983   7.893  0.9810 -0.8529 -2.2650
 6994SOL     OW32617   3.805   0.768   2.868 -0.2304  0.1604 -0.1899
 6994SOL    HW132618   3.815   0.819   2.948 -3.8671 -3.1087  2.2899
 6994SOL    HW232619   3.832   0.681   2.895  1.6970  1.2305  1.3684
 6995SOL     OW32620   1.664   3.119   3.391  0.5526  0.4100 -0.1007
 6995SOL    HW132621   1.758   3.099   3.387  0.5622  0.3571  0.3876
 6995SOL    HW232622   1.620   3.036   3.410  1.2996 -0.0581 -0.4212
 6996SOL     OW32623   4.734   4.067   7.941 -0.1357  0.0193  0.1600
 6996SOL    HW132624   4.670   4.037   8.006 -0.1717 -2.2902 -0.9149
 6996SOL    HW232625   4.712   4.159   7.928 -0.1055  0.0035 -0.0000
 6997SOL     OW32626   4.436   0.837   7.799 -0.2401 -0.2843  0.1173
 6997SOL    HW132627   4.477   0.924   7.795 -0.4100 -0.0126  3.5694
 6997SOL    HW232628   4.479   0.782   7.734  1.4755  0.9437  0.2033
 6998SOL     OW32629   0.794   4.149   4.951 -0.7391 -0.2239  0.7606
 6998SOL    HW132630   0.829   4.060   4.939  0.3606  0.1521  1.2555
 6998SOL    HW232631   0.701   4.131   4.938 -0.8707  0.4985  0.7200
 6999SOL     OW32632   0.973   0.718   5.437  0.1220 -0.1528  0.4096
 6999SOL    HW132633   0.982   0.811   5.454 -0.6291 -0.4948  2.7053
 6999SOL    HW232634   1.003   0.711   5.347 -2.3725  0.7914 -0.4753
 7000SOL     OW32635   2.823   1.671  13.794  0.5474 -0.0262  0.6791
 7000SOL    HW132636   2.888   1.602  13.785 -0.4163 -1.2580  3.2520
 7000SOL    HW232637   2.880   1.747  13.779 -0.0312  0.3999  0.6364
 7001SOL     OW32638   3.691   3.018  10.377  0.3009  0.1682  0.1095
 7001SOL    HW132639   3.677   3.109  10.351  1.4355 -0.0301 -1.2116
 7001SOL    HW232640   3.599   3.005  10.395  0.0259  0.9282 -0.7020
 7002SOL     OW32641   3.303   2.890   9.391 -0.0274 -0.2004 -0.1424
 7002SOL    HW132642   3.386   2.936   9.378  0.3438 -1.3689 -1.8638
 7002SOL    HW232643   3.297   2.833   9.315 -0.3815 -1.6230  0.9469
 7003SOL     OW32644   4.177   2.937  11.469 -0.5939 -0.2714 -0.6672
 7003SOL    HW132645   4.115   2.922  11.540 -0.2308  0.7746 -0.1380
 7003SOL    HW232646   4.123   2.993  11.412 -0.2446  1.1246  0.3813
 7004SOL     OW32647   4.307   1.738   9.420  1.0865 -0.1471  0.5033
 7004SOL    HW132648   4.311   1.674   9.492  2.8739  1.1943  1.5965
 7004SOL    HW232649   4.342   1.818   9.458  1.3101 -0.5719  1.1934
 7005SOL     OW32650   3.147   0.650   7.847 -0.8130 -0.6337 -0.0369
 7005SOL    HW132651   3.207   0.583   7.878  0.5939  1.1413  1.0839
 7005SOL    HW232652   3.212   0.713   7.815 -1.6147  0.1635 -0.1052
 7006SOL     OW32653   2.260   1.956   6.819  0.4057 -0.9198  0.0249
 7006SOL    HW132654   2.220   2.041   6.801  1.5412 -0.4809 -0.4130
 7006SOL    HW232655   2.349   1.976   6.847 -0.4295  2.5312  0.2410
 7007SOL     OW32656   4.137   2.450   2.278 -0.3404  0.2637 -0.1759
 7007SOL    HW132657   4.222   2.413   2.253  0.0625 -0.3479  2.1526
 7007SOL    HW232658   4.155   2.525   2.334 -1.0772 -0.0258  0.4459
 7008SOL     OW32659   0.788   2.660  14.081 -0.1738  1.1982  0.3706
 7008SOL    HW132660   0.808   2.601  14.008 -2.0858  0.4431  0.4673
 7008SOL    HW232661   0.831   2.632  14.161 -1.0463 -1.4973 -0.1208
 7009SOL     OW32662   0.978   3.019  12.363 -0.5027  0.5029 -0.2164
 7009SOL    HW132663   0.919   3.064  12.422  0.5347  0.1483  1.0953
 7009SOL    HW232664   1.004   2.940  12.411 -0.9884  0.7757  0.4804
 7010SOL     OW32665   1.187   3.772   9.001 -0.2595  0.0901 -0.1582
 7010SOL    HW132666   1.252   3.840   8.984 -1.2196  1.5287  1.9305
 7010SOL    HW232667   1.166   3.794   9.092 -1.0592  0.8170 -0.5200
 7011SOL     OW32668   2.131   1.793  11.601 -0.1720 -0.0484 -0.4674
 7011SOL    HW132669   2.130   1.886  11.625 -0.4479 -0.1044 -0.2559
 7011SOL    HW232670   2.104   1.754  11.684  1.8521  1.4144  0.8905
 7012SOL     OW32671   3.451   4.428   8.538 -0.7493 -0.0697 -0.1278
 7012SOL    HW132672   3.412   4.486   8.604 -1.0708  0.9202 -1.1849
 7012SOL    HW232673   3.462   4.499   8.474 -2.7086  0.7724  0.4519
 7013SOL     OW32674   3.903   4.427   6.912  0.3353 -0.5375 -0.3321
 7013SOL    HW132675   3.835   4.488   6.882  0.8246  0.9051  1.5039
 7013SOL    HW232676   3.966   4.481   6.959 -1.4832  0.0638  1.4030
 7014SOL     OW32677   2.771   3.649   9.990  0.0976  0.8975  0.6687
 7014SOL    HW132678   2.838   3.704   9.951  2.5235 -1.5856  1.3453
 7014SOL    HW232679   2.701   3.651   9.925  0.7333  0.0457 -0.0337
 7015SOL     OW32680   0.874   0.917   8.980  0.1508 -0.5251 -0.0921
 7015SOL    HW132681   0.814   0.857   9.026  1.0867  0.2786  2.1354
 7015SOL    HW232682   0.828   1.001   8.978  2.6802  0.8893  1.2030
 7016SOL     OW32683   2.181   0.143   8.162 -0.0959  0.6158 -0.4826
 7016SOL    HW132684   2.217   0.211   8.219  0.2459  0.5682 -0.6431
 7016SOL    HW232685   2.261   0.091   8.153  0.5575  1.9130 -2.0870
 7017SOL     OW32686   3.144   0.938   2.105 -0.3289 -0.5523 -0.4148
 7017SOL    HW132687   3.216   0.912   2.047 -0.4165  2.4276 -1.8736
 7017SOL    HW232688   3.175   1.021   2.142  0.6695 -0.9209 -0.4041
 7018SOL     OW32689   2.576   0.798  11.720 -0.2618 -0.1198  0.3186
 7018SOL    HW132690   2.531   0.853  11.784  1.1256  1.5772 -0.1770
 7018SOL    HW232691   2.556   0.840  11.637  1.2892 -1.0878 -0.5402
 7019SOL     OW32692   2.633   1.902   1.155 -0.7023 -0.0293  0.1891
 7019SOL    HW132693   2.689   1.979   1.153  0.2157 -0.7018  0.0341
 7019SOL    HW232694   2.687   1.836   1.112  0.2230  1.0537 -0.3097
 7020SOL     OW32695   2.493   3.392   8.372 -0.2810  0.1354  0.8618
 7020SOL    HW132696   2.410   3.439   8.372  0.0260  0.6743  1.8483
 7020SOL    HW232697   2.472   3.299   8.372  1.5898 -0.2744 -0.0987
 7021SOL     OW32698   2.499   1.400  14.806  0.3543  0.0153 -0.0479
 7021SOL    HW132699   2.530   1.395  14.716  0.2989 -1.4804  0.0242
 7021SOL    HW232700   2.535   1.322  14.848  0.2752  0.2133  0.3888
 7022SOL     OW32701   1.297   0.068   9.473 -0.6717 -0.0181 -1.0420
 7022SOL    HW132702   1.358   0.142   9.475 -0.6007 -0.1303  1.2141
 7022SOL    HW232703   1.370   0.006   9.469  0.8005  1.5880  0.4248
 7023SOL     OW32704   1.066   0.176   8.167 -0.1324 -0.4192  0.6121
 7023SOL    HW132705   1.039   0.197   8.078  1.1844  1.8783  0.7495
 7023SOL    HW232706   1.141   0.118   8.157  0.9944  1.0413  0.5231
 7024SOL     OW32707   1.344   0.924   8.046 -0.1440 -0.0599  0.2814
 7024SOL    HW132708   1.438   0.943   8.050  0.1802 -0.8063 -3.4842
 7024SOL    HW232709   1.310   1.008   8.017  0.1100  0.0692  0.3612
 7025SOL     OW32710   1.744   1.754   2.893  0.0036 -0.2266  0.5568
 7025SOL    HW132711   1.813   1.690   2.908 -0.4390 -0.4043  1.8289
 7025SOL    HW232712   1.758   1.819   2.962 -0.0389  1.5483 -1.1126
 7026SOL     OW32713   0.036   2.384   9.302  0.1331  0.3144 -0.0766
 7026SOL    HW132714   4.679   2.377   9.324  0.0150 -1.6857 -1.2276
 7026SOL    HW232715   0.056   2.471   9.336  0.5171  1.0449 -2.2158
 7027SOL     OW32716   1.477   4.074   6.767 -0.1649  0.0773  0.0947
 7027SOL    HW132717   1.404   4.018   6.793  0.4203 -1.2248 -1.0610
 7027SOL    HW232718   1.427   4.146   6.728  0.4295  2.2682  3.4409
 7028SOL     OW32719   4.330   3.162   2.573 -0.2119  0.0319  0.1855
 7028SOL    HW132720   4.335   3.107   2.494  0.6094 -1.6618  1.4167
 7028SOL    HW232721   4.257   3.116   2.613 -0.9592  0.1634 -1.0196
 7029SOL     OW32722   2.336   1.206   7.969 -0.2848  0.3358 -0.3044
 7029SOL    HW132723   2.315   1.296   7.993  0.1874 -0.1088  1.8234
 7029SOL    HW232724   2.249   1.167   7.973 -0.7588  1.3790 -0.5652
 7030SOL     OW32725   3.937   2.237   4.039 -0.1213  0.3044  0.2760
 7030SOL    HW132726   3.971   2.294   3.969  0.0987 -3.3343 -2.5923
 7030SOL    HW232727   3.922   2.150   4.002  1.3027 -0.2539  1.0088
 7031SOL     OW32728   4.334   2.839   9.423 -0.1318  0.3885 -0.2582
 7031SOL    HW132729   4.372   2.767   9.373 -2.2942  1.6231 -3.6884
 7031SOL    HW232730   4.404   2.904   9.432  0.5492 -0.6131  1.6864
 7032SOL     OW32731   0.450   4.254   8.529  0.1969 -0.6943 -0.3169
 7032SOL    HW132732   0.481   4.264   8.619  0.4970 -0.4701 -0.4502
 7032SOL    HW232733   0.414   4.166   8.543  0.8656 -0.9859 -0.4621
 7033SOL     OW32734   1.002   1.579   2.525  0.5710 -0.1712 -0.3987
 7033SOL    HW132735   1.047   1.525   2.590  0.9962 -0.6869 -1.1254
 7033SOL    HW232736   1.013   1.668   2.558 -1.6196 -0.3332  0.7569
 7034SOL     OW32737   0.155   2.045   8.306  0.0364 -0.3638 -0.2082
 7034SOL    HW132738   0.077   2.068   8.256 -1.0661 -1.4426  1.0072
 7034SOL    HW232739   0.226   2.050   8.242 -0.7566  1.8431 -0.9084
 7035SOL     OW32740   0.579   0.690  11.484  0.0959  0.3057 -0.3764
 7035SOL    HW132741   0.517   0.626  11.519  1.0661 -0.7899 -0.6620
 7035SOL    HW232742   0.542   0.777  11.498  1.5635  0.8051  0.3935
 7036SOL     OW32743   4.175   3.623   5.222 -0.3270 -0.2809 -0.0760
 7036SOL    HW132744   4.177   3.695   5.159 -0.7006  1.4462  1.8713
 7036SOL    HW232745   4.257   3.578   5.199  0.9584  1.1507  1.6939
 7037SOL     OW32746   4.076   4.719   3.893  0.0832 -0.2219  0.3521
 7037SOL    HW132747   4.053   0.055   3.834 -2.7369 -0.9658  0.5043
 7037SOL    HW232748   4.128   0.028   3.959  0.6251  2.1306 -1.7161
 7038SOL     OW32749   2.577   1.274   7.645  0.5080  0.3125  0.3524
 7038SOL    HW132750   2.592   1.279   7.551 -0.0208 -0.6077  0.2156
 7038SOL    HW232751   2.673   1.270   7.654  0.5638 -0.9641 -0.8758
 7039SOL     OW32752   3.143   4.727  13.831  0.4538  0.0279  0.8598
 7039SOL    HW132753   3.103   0.017  13.914 -0.3654  1.9209 -0.1489
 7039SOL    HW232754   3.173   4.641  13.860  0.9405 -0.0997 -0.0416
 7040SOL     OW32755   4.228   4.176   7.808 -0.1781 -0.1956  0.0773
 7040SOL    HW132756   4.277   4.227   7.743  1.1362  1.3980  2.3333
 7040SOL    HW232757   4.211   4.251   7.864  0.3532 -1.1763  1.5324
 7041SOL     OW32758   0.370   0.088   0.578  0.1703 -0.2516 -0.2802
 7041SOL    HW132759   0.438   0.147   0.547 -2.0476  1.7066 -1.4473
 7041SOL    HW232760   0.417   0.006   0.590 -0.0726 -0.0722  1.9607
 7042SOL     OW32761   3.992   2.105  13.331 -0.2423 -0.1117 -0.2809
 7042SOL    HW132762   4.066   2.062  13.375 -0.8117 -2.2820 -1.4415
 7042SOL    HW232763   3.980   2.028  13.275 -1.6596  0.4949 -0.8078
 7043SOL     OW32764   2.503   2.310  11.099  0.4094  0.0157 -0.1750
 7043SOL    HW132765   2.500   2.223  11.059 -0.9038 -0.7885  1.6727
 7043SOL    HW232766   2.527   2.369  11.028  0.5162  1.1429  0.7882
 7044SOL     OW32767   2.526   2.429   6.109  0.4670 -0.1633  0.4146
 7044SOL    HW132768   2.435   2.410   6.087  1.4893 -3.6955 -0.6719
 7044SOL    HW232769   2.520   2.421   6.204 -0.0649  0.8966  0.4719
 7045SOL     OW32770   3.182   3.444   9.298  0.3356 -0.1664  0.5374
 7045SOL    HW132771   3.249   3.377   9.281  1.1412  0.9785 -0.7897
 7045SOL    HW232772   3.132   3.442   9.216 -1.9713 -0.4351  1.9636
 7046SOL     OW32773   1.911   0.545   4.430  0.0585 -0.7242 -0.2589
 7046SOL    HW132774   1.869   0.484   4.490 -0.0454  0.5421  0.9433
 7046SOL    HW232775   2.002   0.548   4.459 -0.0696  0.2605  0.0205
 7047SOL     OW32776   3.343   1.070   3.709 -0.0328  0.2439 -0.3747
 7047SOL    HW132777   3.438   1.068   3.700 -0.2685  0.3069 -2.6784
 7047SOL    HW232778   3.331   1.098   3.800 -0.1891 -1.6625  0.1773
 7048SOL     OW32779   2.867   1.077  15.161 -0.1815 -0.3295 -0.0871
 7048SOL    HW132780   2.788   1.093  15.212  0.1459 -0.5873  0.4962
 7048SOL    HW232781   2.845   0.985  15.143  0.4691 -0.3283 -0.9256
 7049SOL     OW32782   4.219   3.689   7.002  0.0035  0.3312 -0.0042
 7049SOL    HW132783   4.227   3.747   6.926 -0.4440 -2.0977 -1.8727
 7049SOL    HW232784   4.289   3.629   6.979  0.4518  0.5963  0.6366
 7050SOL     OW32785   1.737   2.349   8.039  0.0318  0.2468  0.2633
 7050SOL    HW132786   1.823   2.374   8.073 -1.1323  1.3440  2.3787
 7050SOL    HW232787   1.729   2.266   8.084 -0.0521  0.8291  1.3177
 7051SOL     OW32788   1.307   2.750   5.120 -0.3603 -0.3522  0.1698
 7051SOL    HW132789   1.356   2.753   5.202  0.4826  0.6680 -0.3677
 7051SOL    HW232790   1.229   2.805   5.135 -0.2293 -0.6963  2.0435
 7052SOL     OW32791   2.643   0.076  15.332  0.3279  0.1619 -0.0011
 7052SOL    HW132792   2.608   0.036  15.411  2.3647 -0.0929  0.7781
 7052SOL    HW232793   2.611   0.015  15.266  0.2867  0.2209 -0.0354
 7053SOL     OW32794   1.383   2.510  10.632  0.2645 -0.1943  0.0914
 7053SOL    HW132795   1.417   2.599  10.620 -0.8750  0.0842 -1.1819
 7053SOL    HW232796   1.309   2.500  10.572 -0.7408 -3.1289  1.8656
 7054SOL     OW32797   0.916   2.925   0.735 -0.2899 -0.2251  0.1061
 7054SOL    HW132798   0.958   3.010   0.746 -0.1505 -0.0719 -1.6752
 7054SOL    HW232799   0.826   2.953   0.717 -0.5576 -1.7063 -0.9310
 7055SOL     OW32800   2.519   3.870   5.841  0.0571 -0.2854 -0.4982
 7055SOL    HW132801   2.573   3.800   5.805  0.7342 -0.5376  1.0189
 7055SOL    HW232802   2.590   3.934   5.850  0.0586  0.1443 -3.4532
 7056SOL     OW32803   3.341   0.610   3.511 -0.0117 -0.0274 -0.7117
 7056SOL    HW132804   3.283   0.581   3.441  0.3401 -0.6268 -0.7573
 7056SOL    HW232805   3.381   0.690   3.477  1.1847 -0.0703  0.5844
 7057SOL     OW32806   0.585   4.491   6.669  0.0559  0.1670 -0.1899
 7057SOL    HW132807   0.658   4.534   6.623 -0.8730  1.5661 -0.3506
 7057SOL    HW232808   0.589   4.552   6.743 -0.3973 -1.5257  1.2206
 7058SOL     OW32809   4.071   0.519   4.240  0.0766 -0.5367 -0.5045
 7058SOL    HW132810   4.102   0.458   4.306 -0.7032  0.9475  1.2544
 7058SOL    HW232811   4.058   0.460   4.166 -0.6997  1.1626 -1.7532
 7059SOL     OW32812   3.749   3.668  11.991  0.1340 -0.0385 -0.2440
 7059SOL    HW132813   3.734   3.611  11.916 -0.7128  0.4393 -0.4407
 7059SOL    HW232814   3.828   3.629  12.029 -0.4551 -0.8824  0.1066
 7060SOL     OW32815   1.247   0.128  12.319  0.2777  0.3895 -0.0422
 7060SOL    HW132816   1.212   0.215  12.337 -1.3203 -0.3193  0.2607
 7060SOL    HW232817   1.227   0.082  12.400  1.3303 -1.4928 -0.8426
 7061SOL     OW32818   3.415   0.942   1.367 -0.0774  0.4118  0.0076
 7061SOL    HW132819   3.473   0.927   1.441 -0.0331 -0.5749 -0.2300
 7061SOL    HW232820   3.326   0.953   1.400 -0.5031  2.0837 -1.6326
 7062SOL     OW32821   2.532   2.698  16.028 -0.2644  0.0291 -0.4289
 7062SOL    HW132822   2.547   2.657  16.113 -0.9376  1.0458  0.1774
 7062SOL    HW232823   2.605   2.759  16.028  0.9238 -1.3916  1.1977
 7063SOL     OW32824   0.952   2.033   3.427  0.3747  0.5142  0.3141
 7063SOL    HW132825   0.886   2.098   3.450  0.6420  0.8471  0.1380
 7063SOL    HW232826   0.980   2.055   3.338  2.3852  0.7829  1.0135
 7064SOL     OW32827   2.391   3.782   2.696 -0.2775 -0.3087 -0.2912
 7064SOL    HW132828   2.361   3.790   2.605  0.7413  0.8067 -0.5278
 7064SOL    HW232829   2.442   3.703   2.678 -3.0637 -2.6777  2.1866
 7065SOL     OW32830   2.234   3.608  16.831 -0.0212  0.7160  0.2636
 7065SOL    HW132831   2.139   3.610  16.832 -0.0899 -1.9816 -1.2879
 7065SOL    HW232832   2.248   3.660  16.910 -1.6809  1.1143  0.2834
 7066SOL     OW32833   4.608   0.328   8.908  0.4389 -0.2603  0.0971
 7066SOL    HW132834   4.624   0.412   8.867  1.8717 -1.4580 -1.7810
 7066SOL    HW232835   4.682   0.321   8.969  0.6766 -0.4246 -0.2105
 7067SOL     OW32836   1.774   0.817   6.563  0.4411 -0.1527 -0.2995
 7067SOL    HW132837   1.758   0.810   6.469 -1.1702 -0.2875 -0.0276
 7067SOL    HW232838   1.850   0.762   6.581 -1.7901 -2.6001  1.7210
 7068SOL     OW32839   1.739   4.680   4.150 -0.2391  0.0568 -0.4050
 7068SOL    HW132840   1.644   4.686   4.136 -0.2519 -0.6293 -0.5994
 7068SOL    HW232841   1.773   0.012   4.093 -1.2217  0.2325 -0.7857
 7069SOL     OW32842   0.723   1.611   3.781 -0.2531  0.5286  0.3556
 7069SOL    HW132843   0.708   1.519   3.801 -0.2851  0.7347  1.2642
 7069SOL    HW232844   0.696   1.646   3.866  1.5887 -0.8777  1.5027
 7070SOL     OW32845   4.392   1.537   1.894 -0.1350  0.3072 -0.6681
 7070SOL    HW132846   4.372   1.485   1.972  0.3213  0.8814 -0.1676
 7070SOL    HW232847   4.346   1.621   1.899 -1.4763 -0.4519 -0.1295
 7071SOL     OW32848   4.171   2.462   2.903 -0.1706  0.5636  0.0893
 7071SOL    HW132849   4.087   2.505   2.886 -0.8487 -0.2128  1.4760
 7071SOL    HW232850   4.156   2.422   2.989 -1.2016 -0.9552 -0.8024
 7072SOL     OW32851   4.461   3.952   6.599  0.4393 -0.1742 -0.6760
 7072SOL    HW132852   4.520   3.932   6.526 -1.9922  0.7336 -2.8626
 7072SOL    HW232853   4.375   3.928   6.566  0.6899 -2.3582  0.2743
 7073SOL     OW32854   2.556   2.029   8.476 -0.5341  0.5477  0.0560
 7073SOL    HW132855   2.546   1.987   8.391  0.3310  0.0319  0.2079
 7073SOL    HW232856   2.631   1.989   8.521  0.1042  0.0855 -1.4239
 7074SOL     OW32857   1.028   0.652   5.167  0.3364  0.6662  0.0379
 7074SOL    HW132858   1.031   0.746   5.146  1.9214  0.6016  0.0127
 7074SOL    HW232859   1.098   0.620   5.111  1.3041  2.6252  0.1180
 7075SOL     OW32860   4.589   0.209  12.476 -0.7035  0.4541 -0.9223
 7075SOL    HW132861   4.530   0.146  12.518  0.0902  0.1124 -0.3211
 7075SOL    HW232862   4.657   0.157  12.433  2.3429  1.4942  2.6998
 7076SOL     OW32863   2.953   2.511  11.881  0.4082 -0.1633 -0.3096
 7076SOL    HW132864   2.933   2.591  11.833  0.0120  1.8415  3.2383
 7076SOL    HW232865   2.964   2.443  11.815 -0.6880 -0.5173 -0.1346
 7077SOL     OW32866   1.917   0.995   6.070 -0.6020  0.0193 -0.1518
 7077SOL    HW132867   1.930   0.933   6.142  0.1371 -0.5969 -0.8166
 7077SOL    HW232868   1.962   1.069   6.110 -0.4691  0.9181 -1.9558
 7078SOL     OW32869   0.916   3.132   8.743 -0.3144 -0.2414  0.0698
 7078SOL    HW132870   0.890   3.069   8.676  2.9135 -2.8421  1.2816
 7078SOL    HW232871   0.970   3.080   8.802 -0.1775 -1.0705 -0.7865
 7079SOL     OW32872   4.134   2.334   4.216  0.1283  0.8095  0.3378
 7079SOL    HW132873   4.065   2.307   4.155  0.1349  2.6889 -0.4907
 7079SOL    HW232874   4.185   2.253   4.226 -0.9548 -0.1430 -1.9648
 7080SOL     OW32875   2.941   2.809   6.440 -0.3347 -0.0674 -0.4567
 7080SOL    HW132876   3.036   2.803   6.449 -0.2637 -0.6158 -1.5748
 7080SOL    HW232877   2.941   2.886   6.384  2.5582  0.4275  0.2413
 7081SOL     OW32878   1.290   0.706   6.745 -0.1035  0.3228  0.4376
 7081SOL    HW132879   1.289   0.617   6.710 -0.0677  0.1986  0.7548
 7081SOL    HW232880   1.385   0.718   6.745 -0.0694  0.0332 -0.0922
 7082SOL     OW32881   2.006   2.391   0.805 -0.4127 -0.3405  0.5014
 7082SOL    HW132882   1.964   2.411   0.889  0.0802  2.1546  0.1523
 7082SOL    HW232883   2.085   2.342   0.829  0.2742  0.6941  0.3240
 7083SOL     OW32884   0.931   3.542   2.977 -0.0742 -0.0357  0.4805
 7083SOL    HW132885   0.941   3.509   3.066 -0.3257 -1.3068  0.0295
 7083SOL    HW232886   0.934   3.462   2.925 -2.9355 -0.1387  0.4621
 7084SOL     OW32887   3.792   2.225   7.839 -0.0346 -1.2394 -0.2531
 7084SOL    HW132888   3.791   2.261   7.928 -2.4630 -0.6764 -0.5177
 7084SOL    HW232889   3.885   2.205   7.823  0.0230 -0.7049 -0.5851
 7085SOL     OW32890   3.921   4.289   4.075 -0.1484 -0.1401  0.0640
 7085SOL    HW132891   3.893   4.312   3.986  0.5129 -0.1439 -0.1488
 7085SOL    HW232892   3.836   4.279   4.117  0.0740 -1.8871  0.1119
 7086SOL     OW32893   0.038   1.129   3.375  1.1414 -0.3832  0.6635
 7086SOL    HW132894   0.041   1.112   3.281 -0.9454 -0.8780  0.6747
 7086SOL    HW232895   0.084   1.213   3.369 -0.4690  0.5316  0.8159
 7087SOL     OW32896   0.008   3.076  14.730  0.5631  0.4720  0.2224
 7087SOL    HW132897   0.060   3.071  14.811 -0.1519  0.3867  0.6761
 7087SOL    HW232898   4.734   2.983  14.713  1.8832  0.5808 -1.2320
 7088SOL     OW32899   0.967   2.784  12.110  0.0993  0.6132  0.2426
 7088SOL    HW132900   1.002   2.831  12.185 -1.0657 -0.8528  1.7075
 7088SOL    HW232901   1.027   2.809  12.040 -0.5527 -0.9982 -0.8925
 7089SOL     OW32902   2.893   2.239  12.991  0.0051 -0.0814  0.6088
 7089SOL    HW132903   2.856   2.170  12.936 -1.5765  1.1024  0.2075
 7089SOL    HW232904   2.851   2.223  13.075 -2.0144  0.7816 -0.2401
 7090SOL     OW32905   0.949   0.244   8.398 -0.1507 -0.1192  0.2567
 7090SOL    HW132906   0.948   0.152   8.424  2.3773 -0.2172  0.0480
 7090SOL    HW232907   1.005   0.235   8.320 -0.4543  1.7183 -0.1575
 7091SOL     OW32908   0.984   2.351   8.196 -0.3967  0.1925  0.3337
 7091SOL    HW132909   0.967   2.443   8.178 -3.4228 -0.4270  0.0737
 7091SOL    HW232910   1.078   2.359   8.213 -0.1349  1.1536 -1.5759
 7092SOL     OW32911   3.708   3.658   2.303 -0.1015 -0.0952  0.2698
 7092SOL    HW132912   3.792   3.614   2.290  0.3433 -0.1585  3.2944
 7092SOL    HW232913   3.690   3.623   2.391  0.6087  0.3903  0.6081
 7093SOL     OW32914   2.019   4.136   2.299  0.8289  0.0718 -0.1264
 7093SOL    HW132915   2.070   4.157   2.377 -1.9647  0.1795  1.6744
 7093SOL    HW232916   2.055   4.204   2.242  1.9090  1.2285  1.9615
 7094SOL     OW32917   3.842   3.771  17.343 -1.0048  0.6699 -0.1404
 7094SOL    HW132918   3.861   3.760  17.250  2.0102  0.6297  0.4521
 7094SOL    HW232919   3.839   3.866  17.344  1.1476  0.7665 -1.5240
 7095SOL     OW32920   3.237   2.203   8.461 -0.3877 -0.0769 -0.1649
 7095SOL    HW132921   3.181   2.238   8.392 -2.8413 -0.3350  1.7237
 7095SOL    HW232922   3.308   2.266   8.473 -1.7149  1.4955 -0.6295
 7096SOL     OW32923   4.368   4.394  14.791 -0.1707  0.2234  0.2378
 7096SOL    HW132924   4.448   4.345  14.807  0.2198  0.7137 -0.1889
 7096SOL    HW232925   4.377   4.413  14.697 -2.1405  2.9528  0.5841
 7097SOL     OW32926   1.056   1.506  14.382 -0.1193  0.1842  0.1808
 7097SOL    HW132927   0.993   1.542  14.446 -0.0870  1.0721 -0.2886
 7097SOL    HW232928   1.128   1.491  14.443  1.1665  0.4601 -1.2907
 7098SOL     OW32929   2.964   1.489   7.726  0.0801 -0.2668  0.6139
 7098SOL    HW132930   2.933   1.497   7.636 -0.9430 -3.9176  0.6363
 7098SOL    HW232931   2.907   1.551   7.772  0.4788  1.3778 -1.0931
 7099SOL     OW32932   4.127   2.678  11.387 -0.2479  0.1551  0.3190
 7099SOL    HW132933   4.170   2.757  11.418 -0.2633  0.4949 -0.5418
 7099SOL    HW232934   4.204   2.637  11.347 -0.9365 -0.0046 -0.8279
 7100SOL     OW32935   4.698   2.499   4.342  0.1648  0.4645 -0.1207
 7100SOL    HW132936   4.666   2.484   4.431 -1.8770  2.8613 -0.4878
 7100SOL    HW232937   0.030   2.431   4.346  0.6312  0.8032 -2.3827
 7101SOL     OW32938   2.454   2.791   8.417 -0.1675 -0.0353 -0.7054
 7101SOL    HW132939   2.542   2.825   8.402 -0.0787  0.0386 -0.0200
 7101SOL    HW232940   2.411   2.872   8.443  0.5169 -0.3979  1.5752
 7102SOL     OW32941   3.866   0.922   5.239  0.4945  0.0041  0.0426
 7102SOL    HW132942   3.800   0.949   5.303  0.1624  0.6445 -0.5678
 7102SOL    HW232943   3.825   0.956   5.160 -0.9872  0.2678  0.9190
 7103SOL     OW32944   1.840   1.640  12.142 -0.5423  0.0386 -0.6942
 7103SOL    HW132945   1.872   1.592  12.218 -0.1470  0.9895 -0.2586
 7103SOL    HW232946   1.906   1.615  12.077 -0.6363 -2.0630  0.0333
 7104SOL     OW32947   4.389   2.580   7.660  0.1497 -0.1335  0.7864
 7104SOL    HW132948   4.473   2.617   7.634  1.2914 -1.2810  2.7776
 7104SOL    HW232949   4.392   2.605   7.753  0.7295  0.5321  0.5884
 7105SOL     OW32950   2.170   0.998   4.251  0.1869  0.1781  0.2694
 7105SOL    HW132951   2.246   0.946   4.225  0.8069  1.1776  0.0706
 7105SOL    HW232952   2.118   0.939   4.306 -1.8046  0.6651 -1.1046
 7106SOL     OW32953   1.281   0.903  12.519 -0.0569 -0.2278 -0.3210
 7106SOL    HW132954   1.355   0.955  12.550 -0.5490  0.2295  0.0922
 7106SOL    HW232955   1.310   0.817  12.548 -2.6333 -0.6744  0.9546
 7107SOL     OW32956   0.336   4.084  13.847  0.1161  0.0942  0.6679
 7107SOL    HW132957   0.354   4.163  13.898  2.3677  0.0509 -0.0700
 7107SOL    HW232958   0.363   4.121  13.764  0.4568 -4.1116 -1.1022
 7108SOL     OW32959   1.981   0.781   7.911  0.5904 -0.4468  0.2156
 7108SOL    HW132960   1.889   0.805   7.922  0.4650 -0.5743 -0.6003
 7108SOL    HW232961   1.979   0.750   7.821  0.9856  0.0741  0.0284
 7109SOL     OW32962   1.126   0.051  10.169  0.3161 -0.7370 -0.4116
 7109SOL    HW132963   1.046   0.052  10.116  0.1870  1.1136 -0.1961
 7109SOL    HW232964   1.126   0.143  10.195  1.5799 -0.6213 -0.8324
 7110SOL     OW32965   2.973   4.684   6.210 -0.2561  0.3098 -0.0313
 7110SOL    HW132966   3.033   0.015   6.179 -2.0164  0.9093 -2.1201
 7110SOL    HW232967   2.889   4.730   6.209  0.0706  0.8439 -2.3674
 7111SOL     OW32968   3.623   0.583  12.715  0.1101  0.7685 -0.7103
 7111SOL    HW132969   3.656   0.536  12.792 -2.4874 -0.3237 -0.2653
 7111SOL    HW232970   3.532   0.605  12.736  0.3775 -0.4062  1.6327
 7112SOL     OW32971   3.766   1.607   4.279 -0.1678 -0.8907  0.7571
 7112SOL    HW132972   3.804   1.559   4.206  0.6646 -0.8647  1.1734
 7112SOL    HW232973   3.782   1.552   4.356 -0.2587 -0.2647  1.2228
 7113SOL     OW32974   3.661   3.116   6.274 -0.2856  0.6786  0.2225
 7113SOL    HW132975   3.642   3.024   6.291 -0.3437  0.6648  0.0839
 7113SOL    HW232976   3.640   3.154   6.359 -2.5657 -0.0138 -0.0346
 7114SOL     OW32977   1.855   2.485   8.360 -0.3782  0.2254 -0.1750
 7114SOL    HW132978   1.864   2.580   8.351  2.2995 -0.2473 -2.2030
 7114SOL    HW232979   1.908   2.458   8.285  1.3527 -1.1129  1.5297
 7115SOL     OW32980   1.626   4.589   6.825 -0.5917 -0.0959 -0.1610
 7115SOL    HW132981   1.656   4.623   6.909  1.6437 -1.4765 -0.3970
 7115SOL    HW232982   1.557   4.534   6.863 -1.9371  2.4923  1.1865
 7116SOL     OW32983   0.490   3.069   4.201  0.0258 -1.1725 -0.6538
 7116SOL    HW132984   0.529   3.116   4.275  0.7265  0.8744 -2.3223
 7116SOL    HW232985   0.424   3.128   4.165  0.6204  0.3893  0.7704
 7117SOL     OW32986   4.202   0.284  15.027 -0.1334 -0.5786  0.5979
 7117SOL    HW132987   4.258   0.362  15.024 -0.1165 -0.7011 -2.3394
 7117SOL    HW232988   4.174   0.269  15.117 -1.5643  1.4480  0.4963
 7118SOL     OW32989   1.604   4.432   0.655  0.4477 -0.5523  0.0889
 7118SOL    HW132990   1.675   4.491   0.629  0.4308 -0.6690 -0.2176
 7118SOL    HW232991   1.587   4.472   0.741  0.0250  3.4362 -1.8431
 7119SOL     OW32992   4.570   1.981   6.914 -0.1600 -0.3634 -0.5227
 7119SOL    HW132993   4.532   2.022   6.992 -2.1579 -1.2234 -1.0560
 7119SOL    HW232994   4.662   2.005   6.926 -1.0903  2.3387  1.3197
 7120SOL     OW32995   0.196   3.162   2.539 -0.0852 -0.3624  0.6547
 7120SOL    HW132996   0.144   3.242   2.533 -1.4339 -1.1343  2.3070
 7120SOL    HW232997   0.205   3.128   2.450 -0.5847 -1.3467  0.9850
 7121SOL     OW32998   2.812   3.032   7.844  0.3622  0.7523 -0.0300
 7121SOL    HW132999   2.761   2.978   7.784 -0.1665  0.6943  0.4685
 7121SOL    HW233000   2.778   3.010   7.931  0.6074  3.1127  0.6666
 7122SOL     OW33001   2.686   0.573   4.601 -0.4099 -0.3429 -0.2377
 7122SOL    HW133002   2.777   0.555   4.622 -0.1627  0.5802 -0.5612
 7122SOL    HW233003   2.651   0.492   4.561  2.0693 -1.1581 -0.7618
 7123SOL     OW33004   2.088   3.802   6.207 -0.5720 -0.6980  0.5681
 7123SOL    HW133005   2.168   3.787   6.156  0.3413  0.3545  1.6717
 7123SOL    HW233006   2.036   3.798   6.127 -2.4208  0.6380  1.7088
 7124SOL     OW33007   0.478   0.895   7.540  0.2408 -0.4634 -0.3114
 7124SOL    HW133008   0.507   0.986   7.536  1.5730 -0.8813 -0.1045
 7124SOL    HW233009   0.560   0.850   7.562  0.1545 -1.4215 -1.9665
 7125SOL     OW33010   1.525   1.682   9.359 -0.4736  0.0211  0.0121
 7125SOL    HW133011   1.541   1.622   9.432  1.2382  1.3375  0.7235
 7125SOL    HW233012   1.442   1.727   9.376  0.7344  1.2090  2.8074
 7126SOL     OW33013   0.764   0.299  10.785  0.3956 -0.2590  0.2235
 7126SOL    HW133014   0.746   0.336  10.699  1.3529 -0.4892 -0.0821
 7126SOL    HW233015   0.851   0.340  10.783 -0.4264  1.5166  1.0254
 7127SOL     OW33016   1.814   0.943   2.372 -0.4969  0.2751 -0.9932
 7127SOL    HW133017   1.861   0.861   2.382 -1.9503 -0.1441  2.5718
 7127SOL    HW233018   1.765   0.944   2.454  1.9656  2.0933  0.4746
 7128SOL     OW33019   2.807   0.536   7.708  0.6428  0.4211  0.5044
 7128SOL    HW133020   2.802   0.600   7.637  1.8218 -0.0522  0.0099
 7128SOL    HW233021   2.816   0.453   7.661 -1.2755 -0.2314  1.2725
 7129SOL     OW33022   2.893   1.704   6.798  0.7043  0.8991 -0.3907
 7129SOL    HW133023   2.946   1.636   6.755 -0.5268  0.2532 -0.8676
 7129SOL    HW233024   2.934   1.694   6.884  0.0294 -1.6058 -0.3512
 7130SOL     OW33025   4.344   4.185  11.746  0.2760 -0.0384  0.4956
 7130SOL    HW133026   4.395   4.146  11.675 -0.8558  0.1284 -0.4176
 7130SOL    HW233027   4.266   4.214  11.698 -0.6501 -2.7764  0.3020
 7131SOL     OW33028   2.292   2.790   7.596  0.5927 -0.4117 -0.3947
 7131SOL    HW133029   2.318   2.882   7.591  2.0915 -0.8457 -0.6819
 7131SOL    HW233030   2.219   2.790   7.534 -0.2909  2.1536  0.6473
 7132SOL     OW33031   0.113   0.115   0.413 -0.2760 -0.3612  0.2573
 7132SOL    HW133032   0.151   0.140   0.329 -1.2580  1.4837  0.3632
 7132SOL    HW233033   0.187   0.139   0.468  0.3320  0.0483 -0.7442
 7133SOL     OW33034   4.187   0.537   3.838 -0.2392  0.1333 -0.0649
 7133SOL    HW133035   4.280   0.513   3.839  0.7305  3.9374  2.8591
 7133SOL    HW233036   4.189   0.599   3.765 -0.9470  1.9419  1.4488
 7134SOL     OW33037   1.970   2.740   4.485  0.0562 -0.0980 -0.3987
 7134SOL    HW133038   1.899   2.677   4.471 -0.3038  0.1481  0.3762
 7134SOL    HW233039   2.031   2.707   4.419 -0.5685 -1.0528 -0.5032
 7135SOL     OW33040   0.854   2.779   5.459 -0.6546  0.2704  0.1622
 7135SOL    HW133041   0.842   2.774   5.554  0.5304 -0.2267  0.2836
 7135SOL    HW233042   0.771   2.737   5.438 -1.4567  0.5356  2.7248
 7136SOL     OW33043   2.088   2.131   4.492 -0.3108 -0.0665  0.4150
 7136SOL    HW133044   2.061   2.131   4.584  1.7220 -0.3740  1.0076
 7136SOL    HW233045   2.106   2.223   4.476 -1.8550  0.1402 -0.0486
 7137SOL     OW33046   4.216   4.304  11.171  0.7775 -0.2756  0.3184
 7137SOL    HW133047   4.195   4.393  11.141  2.8962  0.3917  0.8330
 7137SOL    HW233048   4.174   4.249  11.105 -2.2054  3.7254 -1.1237
 7138SOL     OW33049   4.357   2.233   9.616 -0.4650  0.8021 -0.5146
 7138SOL    HW133050   4.287   2.185   9.660  2.0884 -1.2509  1.2553
 7138SOL    HW233051   4.430   2.231   9.678  0.0134 -1.8701 -1.1789
 7139SOL     OW33052   4.025   0.499   3.420  0.2086 -0.0122  0.9990
 7139SOL    HW133053   3.941   0.545   3.410  1.4210  2.2152  1.1086
 7139SOL    HW233054   4.031   0.492   3.515 -1.1086 -1.0595  1.0204
 7140SOL     OW33055   3.960   3.513  15.198  0.2346  0.0256  0.3695
 7140SOL    HW133056   4.005   3.495  15.115  0.3141 -0.8833  0.6101
 7140SOL    HW233057   3.871   3.520  15.163  0.7066  0.8038 -0.6871
 7141SOL     OW33058   3.778   0.560   5.650  0.3752  0.5640  0.3120
 7141SOL    HW133059   3.788   0.467   5.673  1.1571  0.2818 -1.2101
 7141SOL    HW233060   3.866   0.595   5.659 -0.0896  1.6934  0.4923
 7142SOL     OW33061   4.139   1.851   7.663 -0.5827  0.1408  0.0552
 7142SOL    HW133062   4.080   1.835   7.737 -0.5628  0.2205  0.0878
 7142SOL    HW233063   4.095   1.912   7.604 -1.3193 -0.9019 -0.4801
 7143SOL     OW33064   1.063   4.053   8.292 -0.4840 -0.1182 -0.3911
 7143SOL    HW133065   1.033   4.063   8.201  0.3802  1.6861 -0.4934
 7143SOL    HW233066   1.155   4.080   8.282 -0.4646 -0.1995 -0.4352
 7144SOL     OW33067   2.073   4.081   6.317 -0.1308  0.0492  0.5007
 7144SOL    HW133068   2.101   4.020   6.248  0.8697 -0.6139  1.4955
 7144SOL    HW233069   1.990   4.043   6.346  1.0114 -2.0141  1.0175
 7145SOL     OW33070   0.859   4.282  12.645 -0.0628 -0.2182 -0.9499
 7145SOL    HW133071   0.919   4.262  12.574 -0.2556 -0.8630 -0.9318
 7145SOL    HW233072   0.780   4.237  12.613  0.9114 -2.6615  0.1066
 7146SOL     OW33073   4.272   1.019   2.806  0.2469  0.6322 -0.9559
 7146SOL    HW133074   4.266   1.083   2.736  0.9052  1.0354 -0.6436
 7146SOL    HW233075   4.243   0.939   2.763 -1.6574  0.1683  1.1693
 7147SOL     OW33076   3.021   4.495   8.475  0.3035  0.4691 -0.1324
 7147SOL    HW133077   2.969   4.503   8.395 -0.4313 -3.6952 -0.0609
 7147SOL    HW233078   3.051   4.405   8.482 -0.0132  0.5284  1.9461
 7148SOL     OW33079   1.880   4.559  11.729 -0.0166  0.4208  0.0878
 7148SOL    HW133080   1.825   4.486  11.758  0.3029 -0.6210 -1.8632
 7148SOL    HW233081   1.968   4.525  11.746 -1.4027 -2.0214  2.3303
 7149SOL     OW33082   0.016   0.979   2.225 -0.5564 -0.0280  0.1764
 7149SOL    HW133083   0.083   0.918   2.256 -1.8382 -0.7396  1.5864
 7149SOL    HW233084   0.071   1.033   2.170  1.5727 -2.7174 -0.3405
 7150SOL     OW33085   1.676   0.004   5.920  0.1501  0.1605 -0.1794
 7150SOL    HW133086   1.670   0.097   5.898  0.4830  0.2613  0.1571
 7150SOL    HW233087   1.590   4.702   5.941  0.5457 -0.5178  0.1822
 7151SOL     OW33088   1.827   1.881   4.882 -0.3072 -0.1318 -0.0762
 7151SOL    HW133089   1.809   1.820   4.954 -1.1738  2.2007  1.6953
 7151SOL    HW233090   1.917   1.858   4.859 -0.2964  1.2024 -1.3693
 7152SOL     OW33091   3.542   1.007   1.135  0.1456  0.1885  0.1376
 7152SOL    HW133092   3.505   1.003   1.223 -0.5832 -2.9387 -0.3140
 7152SOL    HW233093   3.539   0.917   1.103  0.2418  0.6391 -1.1586
 7153SOL     OW33094   4.574   3.981   5.526  0.5045 -0.3086  0.4681
 7153SOL    HW133095   4.538   3.910   5.578 -1.6843 -1.2233 -2.3097
 7153SOL    HW233096   4.510   4.052   5.535 -1.6707 -2.2407  0.1619
 7154SOL     OW33097   4.420   3.522   2.893 -0.0114 -0.1779  0.4957
 7154SOL    HW133098   4.428   3.431   2.865  0.5070  0.4358 -1.3684
 7154SOL    HW233099   4.396   3.565   2.811 -0.5364 -0.3589  0.5555
 7155SOL     OW33100   1.726   4.269   7.079 -0.2615  0.6191 -0.4595
 7155SOL    HW133101   1.769   4.228   7.004  1.8798 -0.6450  1.4496
 7155SOL    HW233102   1.805   4.267   7.133  0.7439  3.9602 -1.7866
 7156SOL     OW33103   4.636   0.064   6.266  0.0313 -0.1777  0.2372
 7156SOL    HW133104   4.606   0.155   6.278  0.3357  0.4243 -3.5685
 7156SOL    HW233105   4.638   0.038   6.358 -1.5329  0.1801  0.3641
 7157SOL     OW33106   1.907   0.735  10.546 -0.1044 -0.1012 -0.2999
 7157SOL    HW133107   1.916   0.784  10.464 -0.9939 -0.4796 -0.6179
 7157SOL    HW233108   1.994   0.699  10.566 -0.3902 -1.4447 -1.5055
 7158SOL     OW33109   2.710   4.056  16.752 -0.3661  0.1259  0.1964
 7158SOL    HW133110   2.732   4.141  16.791 -2.0727 -0.8103  3.2080
 7158SOL    HW233111   2.765   4.000  16.806 -0.9045  0.4304  1.0573
 7159SOL     OW33112   1.926   3.768  10.787 -0.5245 -0.2775  0.1993
 7159SOL    HW133113   2.001   3.771  10.729 -0.3811  0.4344  0.4210
 7159SOL    HW233114   1.859   3.817  10.739  1.2587  1.6005 -0.3812
 7160SOL     OW33115   4.452   1.783   4.442  0.4305 -0.2231 -0.0449
 7160SOL    HW133116   4.520   1.815   4.382  0.8596  0.0721  0.5928
 7160SOL    HW233117   4.443   1.862   4.495  2.0478  1.6091 -2.4678
 7161SOL     OW33118   2.283   2.406   9.271 -0.8292  0.0600 -0.3292
 7161SOL    HW133119   2.227   2.351   9.215 -1.3786  0.6357 -0.3464
 7161SOL    HW233120   2.231   2.486   9.261 -1.1895  0.0156  1.1160
 7162SOL     OW33121   3.100   2.617   3.494 -0.1592 -0.5153  0.3495
 7162SOL    HW133122   3.152   2.690   3.529 -0.4443 -0.0197 -0.2741
 7162SOL    HW233123   3.045   2.586   3.566 -0.6176  1.1855  0.7169
 7163SOL     OW33124   4.520   1.521   6.571  0.2781 -0.2891  0.4588
 7163SOL    HW133125   4.589   1.542   6.508  0.6521  0.8177  1.2380
 7163SOL    HW233126   4.459   1.595   6.570  0.1923 -0.3775 -1.0506
 7164SOL     OW33127   1.068   3.220   9.926 -0.5558 -0.1228 -0.6628
 7164SOL    HW133128   1.092   3.199  10.017 -1.1687  0.0469 -0.4592
 7164SOL    HW233129   1.001   3.283   9.951 -0.4909 -0.8992  1.4789
 7165SOL     OW33130   2.876   0.004   2.979 -0.5212 -0.0872 -0.4611
 7165SOL    HW133131   2.853   4.652   2.949  0.1874  0.7117 -3.3064
 7165SOL    HW233132   2.799   0.045   2.940 -1.4183 -2.5297 -1.2543
 7166SOL     OW33133   0.718   3.387   7.895 -0.2520 -0.2620  0.0836
 7166SOL    HW133134   0.759   3.419   7.975  1.1799 -3.0241  0.4453
 7166SOL    HW233135   0.794   3.345   7.855  1.1772  1.3084  1.1204
 7167SOL     OW33136   4.578   3.793   7.154 -0.4450  0.1064  0.3420
 7167SOL    HW133137   4.498   3.821   7.111 -0.6109  0.9316  1.2002
 7167SOL    HW233138   4.642   3.779   7.084 -0.5571 -2.2751  0.7028
 7168SOL     OW33139   2.052   1.090   6.659  0.0555 -0.2290 -0.0596
 7168SOL    HW133140   1.991   1.035   6.611  1.0264 -1.4488  0.0840
 7168SOL    HW233141   2.134   1.079   6.611  0.9339  1.6614  1.0024
 7169SOL     OW33142   2.244   3.166   2.473 -0.3282  0.0463 -0.0901
 7169SOL    HW133143   2.186   3.220   2.419 -0.4154  0.0795  0.0372
 7169SOL    HW233144   2.278   3.241   2.523 -0.7588  0.3155 -0.1986
 7170SOL     OW33145   0.249   4.297   5.651  0.3064 -0.5031  0.0814
 7170SOL    HW133146   0.271   4.230   5.586 -0.4007 -0.3196 -0.3426
 7170SOL    HW233147   0.167   4.261   5.684  1.5380 -1.9629  1.5307
 7171SOL     OW33148   3.830   1.315  10.725 -0.3634 -0.1984  0.4485
 7171SOL    HW133149   3.865   1.256  10.792  2.0154  1.0016  0.2815
 7171SOL    HW233150   3.767   1.367  10.774  3.2288  2.3263  2.4364
 7172SOL     OW33151   0.633   2.069   8.075  0.4525  0.5006  0.4121
 7172SOL    HW133152   0.660   2.080   8.166 -2.2644  1.9365  1.0560
 7172SOL    HW233153   0.633   1.974   8.073  1.4661  0.5495 -1.9664
 7173SOL     OW33154   1.114   4.374   3.406  0.1878 -0.4341  0.2447
 7173SOL    HW133155   1.025   4.387   3.374  0.7957  0.2953 -1.1653
 7173SOL    HW233156   1.167   4.370   3.327 -0.6957 -0.5494 -0.3363
 7174SOL     OW33157   2.776   0.147   3.280 -0.2242 -0.2486 -0.0478
 7174SOL    HW133158   2.859   0.182   3.312  0.1973 -1.5881  0.3412
 7174SOL    HW233159   2.743   0.105   3.359  0.9362  0.5301  0.8561
 7175SOL     OW33160   1.703   1.830  16.614  0.2326 -0.4929  0.9986
 7175SOL    HW133161   1.658   1.834  16.529  1.6785 -1.2927  0.1853
 7175SOL    HW233162   1.798   1.827  16.601  0.1436  0.6690  0.0997
 7176SOL     OW33163   2.790   1.059   5.780  0.2870  0.5240 -0.4587
 7176SOL    HW133164   2.744   1.078   5.698 -1.0685 -1.8187 -0.2690
 7176SOL    HW233165   2.708   1.028   5.820  1.5161 -0.8589  1.0066
 7177SOL     OW33166   0.176   2.732   6.393  0.0389 -0.5250 -0.1871
 7177SOL    HW133167   0.178   2.812   6.446  1.2982 -1.6494  1.4420
 7177SOL    HW233168   0.096   2.733   6.340 -0.6177 -0.6255  0.8167
 7178SOL     OW33169   4.514   0.550   5.268  0.0770  0.3994 -0.0726
 7178SOL    HW133170   4.526   0.462   5.234  0.8146  1.4617 -2.6261
 7178SOL    HW233171   4.546   0.603   5.195  0.3822  1.4396  0.8244
 7179SOL     OW33172   3.933   0.128   5.930  1.1207  0.2089 -0.4841
 7179SOL    HW133173   4.012   0.177   5.903  0.8062  0.6240 -0.6560
 7179SOL    HW233174   3.879   0.140   5.852  2.0831 -0.1937 -1.2063
 7180SOL     OW33175   2.546   3.203  17.343  0.1758  0.3009  0.5368
 7180SOL    HW133176   2.489   3.216  17.267 -0.1479 -0.2650  0.6890
 7180SOL    HW233177   2.535   3.283  17.395 -0.3649  0.6349 -0.0870
 7181SOL     OW33178   0.273   4.672   7.200  0.8460 -0.0253 -0.0096
 7181SOL    HW133179   0.209   4.724   7.249  1.8975  0.6162  0.6923
 7181SOL    HW233180   0.348   4.679   7.260  1.1779 -1.5816 -0.2499
 7182SOL     OW33181   3.804   2.448   9.065  0.1506  0.5250 -0.4631
 7182SOL    HW133182   3.834   2.357   9.067 -2.2366 -0.1721  1.9267
 7182SOL    HW233183   3.887   2.493   9.082  0.9286 -1.2814  0.4408
 7183SOL     OW33184   2.809   2.753   0.974 -0.0993 -0.3315  0.3447
 7183SOL    HW133185   2.834   2.810   0.901  0.9653 -0.3725  0.6778
 7183SOL    HW233186   2.716   2.770   0.988 -0.7174 -3.5185  0.0113
 7184SOL     OW33187   3.089   0.049   1.430 -0.9091 -0.0086  0.4369
 7184SOL    HW133188   3.141   0.125   1.455  3.2488 -1.8876 -2.4994
 7184SOL    HW233189   3.060   0.029   1.520  0.8018 -0.4674  0.8764
 7185SOL     OW33190   2.933   0.023  15.385 -0.4330  0.3877  0.4081
 7185SOL    HW133191   2.969   0.071  15.460 -2.9871  2.8625  0.0380
 7185SOL    HW233192   2.855   0.074  15.362 -1.2101 -1.4266 -1.0075
 7186SOL     OW33193   1.261   3.286   5.787  0.1015  0.6425  0.0348
 7186SOL    HW133194   1.331   3.348   5.765  0.1005  0.7191  0.2484
 7186SOL    HW233195   1.191   3.351   5.794  1.2843  2.1938 -2.1347
 7187SOL     OW33196   3.405   2.659   7.507 -0.1291  0.3473 -0.1676
 7187SOL    HW133197   3.426   2.597   7.578 -2.5696  0.1138  0.3611
 7187SOL    HW233198   3.309   2.666   7.510 -0.0971 -0.0636  1.8211
 7188SOL     OW33199   2.903   3.842   9.832 -1.2301 -0.1066 -0.1068
 7188SOL    HW133200   2.878   3.802   9.749 -0.3526 -1.3174  0.2127
 7188SOL    HW233201   2.900   3.935   9.812 -1.2659  0.0710  0.7249
 7189SOL     OW33202   1.464   0.471  12.667  0.1256  0.5585  0.0946
 7189SOL    HW133203   1.505   0.534  12.727 -0.2334  0.1839  0.7380
 7189SOL    HW233204   1.433   0.523  12.593 -2.1788  0.1734  0.7865
 7190SOL     OW33205   1.516   1.170   7.271 -0.2798 -0.7707 -0.3174
 7190SOL    HW133206   1.598   1.123   7.281  0.3315  0.8216  2.3280
 7190SOL    HW233207   1.544   1.252   7.312 -0.5657 -0.4531 -0.7568
 7191SOL     OW33208   1.464   4.608   4.698 -0.0805  0.3991 -0.1176
 7191SOL    HW133209   1.549   4.606   4.655  0.3484  0.0366  0.7481
 7191SOL    HW233210   1.400   4.567   4.639  0.7109  2.5585 -2.4737
 7192SOL     OW33211   2.362   3.072  16.491 -0.6078 -1.0127 -0.4241
 7192SOL    HW133212   2.305   3.125  16.436 -0.5629 -0.6166 -0.0896
 7192SOL    HW233213   2.313   2.991  16.480 -0.8243 -0.9629  0.2291
 7193SOL     OW33214   2.356   2.124   2.445 -0.3744 -0.4029  0.4571
 7193SOL    HW133215   2.365   2.209   2.400 -1.2940 -1.2399 -1.3294
 7193SOL    HW233216   2.288   2.134   2.511  1.5545  3.9097  1.7695
 7194SOL     OW33217   0.778   0.771   6.782 -0.4443  0.5549 -0.4629
 7194SOL    HW133218   0.791   0.827   6.858  1.3639  0.1929 -0.5097
 7194SOL    HW233219   0.858   0.795   6.735  0.6267 -0.1018  1.0360
 7195SOL     OW33220   2.810   3.857   4.804  0.3881 -0.0939  0.0060
 7195SOL    HW133221   2.773   3.927   4.750  1.6955  0.4172 -0.2303
 7195SOL    HW233222   2.848   3.911   4.874 -1.5919 -0.5818  1.4838
 7196SOL     OW33223   0.358   4.557   2.174 -0.3892 -0.0483 -0.2077
 7196SOL    HW133224   0.411   4.559   2.253  0.2860 -0.9770 -0.6326
 7196SOL    HW233225   0.312   4.475   2.190  1.4040 -0.9247  0.4553
 7197SOL     OW33226   1.366   0.143   4.623 -0.2551 -0.3321  0.2566
 7197SOL    HW133227   1.456   0.112   4.625 -0.6070 -1.2688  1.7315
 7197SOL    HW233228   1.384   0.219   4.678 -1.3029 -0.7004  1.1114
 7198SOL     OW33229   1.618   0.891   8.116 -0.2950 -0.0990 -0.4501
 7198SOL    HW133230   1.639   0.846   8.034 -0.8383 -1.4658  0.1745
 7198SOL    HW233231   1.706   0.917   8.144 -0.1317 -1.0423 -0.1037
 7199SOL     OW33232   1.857   4.049  13.093  0.3503  0.1771  0.4263
 7199SOL    HW133233   1.937   4.046  13.040  0.0238 -0.6495 -0.0383
 7199SOL    HW233234   1.809   3.971  13.063 -0.6973  1.0778 -0.2556
 7200SOL     OW33235   3.070   0.092   7.440  0.2442 -0.1014  0.5040
 7200SOL    HW133236   3.079   0.004   7.403  2.3144  0.5029 -0.4864
 7200SOL    HW233237   3.155   0.137   7.442  0.4288 -0.2057 -3.4126
 7201SOL     OW33238   1.066   1.844   2.642  0.3901 -0.5009 -0.1967
 7201SOL    HW133239   1.102   1.914   2.696 -0.3126 -0.4743  0.2460
 7201SOL    HW233240   1.096   1.865   2.553 -1.8515 -2.0674 -1.3399
 7202SOL     OW33241   0.534   4.382   3.365  0.0236  0.4565  0.1030
 7202SOL    HW133242   0.549   4.442   3.438  1.6231 -0.8893  0.8976
 7202SOL    HW233243   0.457   4.429   3.333  0.1637  0.7893  0.2596
 7203SOL     OW33244   1.836   4.601  14.488  0.4916 -0.3856 -0.1205
 7203SOL    HW133245   1.770   4.635  14.427  0.5960 -0.9936 -0.5749
 7203SOL    HW233246   1.778   4.553  14.547  2.4863 -2.2209  0.3286
 7204SOL     OW33247   0.063   3.728  15.140  0.0671 -0.5964 -0.8243
 7204SOL    HW133248   0.040   3.801  15.083 -1.2237 -0.5315 -0.2040
 7204SOL    HW233249   4.724   3.714  15.197 -0.3664  0.1703 -1.2130
 7205SOL     OW33250   1.694   4.162   4.796 -0.2806 -0.6517  0.0150
 7205SOL    HW133251   1.748   4.091   4.762 -1.3648 -1.8090  0.7376
 7205SOL    HW233252   1.684   4.216   4.717  2.1478  0.9159  0.7684
 7206SOL     OW33253   1.205   0.437  11.045  0.3795  0.4608 -0.2269
 7206SOL    HW133254   1.181   0.521  11.084 -1.5205 -0.3681  0.3510
 7206SOL    HW233255   1.117   0.420  11.011  1.3628 -0.5311 -2.2641
 7207SOL     OW33256   0.297   4.042   8.736 -0.5618  0.4632 -0.4269
 7207SOL    HW133257   0.303   4.018   8.828 -0.4875  1.1262 -0.2627
 7207SOL    HW233258   0.217   4.004   8.700 -0.4441  0.6942 -0.9485
 7208SOL     OW33259   0.885   3.165   7.692 -0.4266  0.1679  0.2315
 7208SOL    HW133260   0.932   3.117   7.760 -0.6791 -0.5419 -0.1061
 7208SOL    HW233261   0.824   3.101   7.656  0.6894 -0.8750  0.2034
 7209SOL     OW33262   2.571   3.860  14.777 -0.2731 -0.6079  0.0446
 7209SOL    HW133263   2.643   3.923  14.775  0.9236 -1.9467  1.0222
 7209SOL    HW233264   2.499   3.902  14.729  0.1206  1.3648  1.1965
 7210SOL     OW33265   4.595   3.876   5.168 -0.3950  0.0947  0.0041
 7210SOL    HW133266   4.630   3.912   5.087  1.0405 -2.1106 -0.3645
 7210SOL    HW233267   4.516   3.829   5.141  0.2913  0.3937 -2.5266
 7211SOL     OW33268   0.551   4.366   2.987 -0.0132 -0.0779  0.0149
 7211SOL    HW133269   0.511   4.451   3.004  0.0073  0.2307 -1.5169
 7211SOL    HW233270   0.477   4.307   2.970  1.4121 -1.3283 -1.7714
 7212SOL     OW33271   4.620   1.753   6.326  0.6864 -0.1531  0.0100
 7212SOL    HW133272   4.646   1.754   6.418 -1.0986 -0.8038  0.5313
 7212SOL    HW233273   4.624   1.848   6.316 -0.2409 -0.3716 -2.3680
 7213SOL     OW33274   1.339   2.761   3.362  0.5683  0.2560 -0.6915
 7213SOL    HW133275   1.371   2.801   3.281 -1.0276 -0.1253 -1.5134
 7213SOL    HW233276   1.398   2.685   3.364 -0.1604 -0.3257 -1.2609
 7214SOL     OW33277   0.936   2.742   3.003 -0.3563 -0.3980  0.1017
 7214SOL    HW133278   0.920   2.801   3.077  2.9869  0.7762 -0.1332
 7214SOL    HW233279   1.007   2.791   2.963 -0.7794 -0.7679 -1.1006
 7215SOL     OW33280   3.518   0.804   8.259  0.3301 -0.1850  0.2164
 7215SOL    HW133281   3.606   0.836   8.275  1.2996 -2.0418 -1.3987
 7215SOL    HW233282   3.476   0.806   8.346  4.1903 -0.2254  2.0682
 7216SOL     OW33283   2.352   0.283   8.596  0.5708  0.0526 -0.1005
 7216SOL    HW133284   2.376   0.191   8.599 -1.1751 -0.3288  1.9699
 7216SOL    HW233285   2.309   0.286   8.681  1.3849  1.9763  0.2515
 7217SOL     OW33286   3.661   3.013   1.952 -0.1177  0.3422 -0.0058
 7217SOL    HW133287   3.603   3.053   2.016 -1.3932 -1.3967 -0.0824
 7217SOL    HW233288   3.625   2.925   1.947 -2.9778  1.5778 -0.8076
 7218SOL     OW33289   3.449   3.759   5.127  0.2779 -0.3488 -0.4854
 7218SOL    HW133290   3.372   3.735   5.179 -1.2590  2.3501 -1.4821
 7218SOL    HW233291   3.406   3.730   5.046 -2.7469  1.0829  0.5883
 7219SOL     OW33292   1.537   0.136   9.179  0.0473  0.3740 -0.1068
 7219SOL    HW133293   1.535   0.226   9.146 -2.6246 -0.6175 -2.6749
 7219SOL    HW233294   1.533   0.163   9.271  0.4801 -0.6996  0.2268
 7220SOL     OW33295   0.178   3.526   0.191  0.1814 -0.0514 -0.4304
 7220SOL    HW133296   0.222   3.500   0.272  1.1095 -2.8161 -1.8424
 7220SOL    HW233297   0.170   3.622   0.195 -0.3083 -0.1830  1.8850
 7221SOL     OW33298   2.683   0.844   0.040 -0.2846 -0.4198  0.4851
 7221SOL    HW133299   2.652   0.829   0.130 -3.0660  1.4020 -0.1832
 7221SOL    HW233300   2.620   0.786  17.742  0.4798  0.7411 -2.2005
 7222SOL     OW33301   1.402   3.503   1.834  0.0105 -0.0087  0.5840
 7222SOL    HW133302   1.329   3.517   1.774 -0.0008 -2.3030  0.0557
 7222SOL    HW233303   1.469   3.465   1.777  1.8041  0.4760  2.3567
 7223SOL     OW33304   3.650   3.154   3.111 -0.3059  0.2123 -0.4979
 7223SOL    HW133305   3.720   3.132   3.172  1.2669  3.1750 -1.2502
 7223SOL    HW233306   3.630   3.245   3.135 -0.9864 -0.2117  0.5715
 7224SOL     OW33307   1.994   2.473   8.108  0.0721 -0.5089  0.0426
 7224SOL    HW133308   1.970   2.562   8.082 -0.1724 -0.5497  0.1346
 7224SOL    HW233309   2.069   2.463   8.048 -0.7238  4.0161 -1.6861
 7225SOL     OW33310   0.014   4.006  12.720  0.2968 -0.1835 -0.2378
 7225SOL    HW133311   4.714   3.959  12.645  1.5625 -2.1256  0.3541
 7225SOL    HW233312   0.089   3.950  12.742  1.3631  0.4268 -2.3348
 7226SOL     OW33313   0.445   1.533   2.810  0.0984  1.2395 -0.3946
 7226SOL    HW133314   0.454   1.496   2.722  0.4753  0.9887 -0.2514
 7226SOL    HW233315   0.439   1.455   2.865  1.6189  1.6021  0.2851
 7227SOL     OW33316   4.734   1.903   7.944  0.0619  0.5153  0.3727
 7227SOL    HW133317   4.703   1.878   7.858  0.6280  0.6134  0.1400
 7227SOL    HW233318   0.084   1.929   7.912  0.2433  0.3431  0.7152
 7228SOL     OW33319   1.130   2.352   2.383  0.1597  0.5034 -0.4332
 7228SOL    HW133320   1.125   2.261   2.353  0.0848 -0.4652  2.5589
 7228SOL    HW233321   1.037   2.375   2.378 -0.2646 -1.5894 -2.0701
 7229SOL     OW33322   3.722   4.502  10.201  0.2190  0.2263 -0.5055
 7229SOL    HW133323   3.693   4.417  10.169 -1.0787  0.6172 -0.3424
 7229SOL    HW233324   3.678   4.560  10.139 -2.6934 -1.2994  0.1426
 7230SOL     OW33325   0.742   1.126   7.603  0.1411 -0.0001 -0.3610
 7230SOL    HW133326   0.775   1.046   7.562 -0.4171 -0.6002  0.3596
 7230SOL    HW233327   0.735   1.089   7.691 -1.8488  0.4200 -0.3360
 7231SOL     OW33328   0.375   1.973   0.877 -0.0662 -0.4349 -0.4784
 7231SOL    HW133329   0.450   1.933   0.920  0.4059 -0.1458 -1.0290
 7231SOL    HW233330   0.375   2.052   0.931  2.6884 -0.3144 -0.6530
 7232SOL     OW33331   1.367   0.806   7.312 -0.2733  0.1423  0.2606
 7232SOL    HW133332   1.313   0.746   7.363 -0.7305 -0.5490 -1.0298
 7232SOL    HW233333   1.355   0.888   7.360 -1.4185 -0.1623  0.5021
 7233SOL     OW33334   4.284   3.563   4.072  0.4390 -0.1828 -0.4766
 7233SOL    HW133335   4.201   3.521   4.093  1.0510 -1.3306 -0.3290
 7233SOL    HW233336   4.274   3.560   3.977 -0.4778 -1.3286 -0.3434
 7234SOL     OW33337   3.366   3.998   7.808 -0.1192 -0.2943  0.3520
 7234SOL    HW133338   3.315   4.015   7.887  0.8091  0.4303  0.7888
 7234SOL    HW233339   3.448   3.967   7.845 -0.2083  2.0099  2.4894
 7235SOL     OW33340   2.173   0.920   7.358  0.0100 -0.0584  0.2233
 7235SOL    HW133341   2.200   0.999   7.406  0.8194  0.7686 -1.6068
 7235SOL    HW233342   2.167   0.948   7.267 -0.5439 -0.5875  0.0999
 7236SOL     OW33343   3.051   1.603   1.105 -0.1242  0.4454  0.2418
 7236SOL    HW133344   3.093   1.638   1.184 -1.0276 -4.4750  2.8680
 7236SOL    HW233345   3.111   1.532   1.085 -1.4582 -0.3216 -1.0447
 7237SOL     OW33346   1.965   3.080   3.920 -0.5331 -0.3228 -0.1669
 7237SOL    HW133347   1.900   3.016   3.888  2.5201 -2.6362 -1.7422
 7237SOL    HW233348   1.909   3.154   3.896  1.3448  0.6225 -1.5554
 7238SOL     OW33349   3.050   3.595   2.604 -0.0106  0.2533  0.1586
 7238SOL    HW133350   3.077   3.547   2.682  0.1633  0.1646  0.0431
 7238SOL    HW233351   3.071   3.535   2.533 -3.0493  1.5593 -1.8582
 7239SOL     OW33352   4.077   3.640  17.409  0.6381  0.1965  0.0438
 7239SOL    HW133353   3.997   3.676  17.370  0.9511  0.4874 -0.3322
 7239SOL    HW233354   4.077   3.681  17.495 -0.8189 -0.8317  0.5256
 7240SOL     OW33355   0.284   4.044   5.418 -0.2504 -0.3351  0.3708
 7240SOL    HW133356   0.217   4.033   5.351  0.7767 -0.3993 -0.6398
 7240SOL    HW233357   0.351   3.986   5.382 -1.8373 -1.0283 -1.4733
 7241SOL     OW33358   2.630   3.702   9.194 -0.3063 -0.2925  0.0703
 7241SOL    HW133359   2.656   3.756   9.120 -1.3122 -1.1553 -0.9184
 7241SOL    HW233360   2.698   3.636   9.185  0.4240  0.7942 -2.3340
 7242SOL     OW33361   4.564   0.276   5.190  0.1205 -0.3280  0.2489
 7242SOL    HW133362   4.638   0.216   5.181  2.2143  2.3402 -0.2074
 7242SOL    HW233363   4.531   0.229   5.266  1.3212  0.8932  1.5167
 7243SOL     OW33364   3.820   2.574   1.526  0.0279  0.2940 -0.5241
 7243SOL    HW133365   3.799   2.517   1.453  0.1719 -0.0612 -0.2857
 7243SOL    HW233366   3.903   2.613   1.499  0.9099 -1.5639 -0.5027
 7244SOL     OW33367   3.187   0.305   0.632 -0.2967  0.0455  0.0283
 7244SOL    HW133368   3.276   0.340   0.627 -1.2069  2.3758  0.0406
 7244SOL    HW233369   3.167   0.311   0.539  0.8474  3.4312 -0.0203
 7245SOL     OW33370   3.289   4.032   9.072  0.1171  0.7088  0.0362
 7245SOL    HW133371   3.202   4.010   9.039 -0.2259  0.0660  1.3849
 7245SOL    HW233372   3.316   4.100   9.010 -0.1738 -0.0438 -0.9041
 7246SOL     OW33373   4.510   0.035   2.383  0.1939  0.1237  0.3874
 7246SOL    HW133374   4.501   4.720   2.463 -0.8794 -0.6857 -0.2483
 7246SOL    HW233375   4.602   0.030   2.359 -0.2746 -0.2205 -1.3285
 7247SOL     OW33376   4.098   2.811   0.026  0.4393 -0.6201  0.2298
 7247SOL    HW133377   4.040   2.740  17.740  0.0988  0.0555 -0.6720
 7247SOL    HW233378   4.100   2.857  17.687  1.0603  0.1508  0.6786
 7248SOL     OW33379   2.443   3.992   3.729  0.3748 -0.4323 -0.7956
 7248SOL    HW133380   2.372   4.055   3.741  0.9723  0.2068 -0.5531
 7248SOL    HW233381   2.420   3.939   3.653  2.5993 -1.7970 -0.5129
 7249SOL     OW33382   4.001   3.086  12.719 -0.3109 -0.1910 -0.0450
 7249SOL    HW133383   3.930   3.037  12.677 -0.1254 -0.8482  0.4084
 7249SOL    HW233384   3.952   3.167  12.733  2.4532  1.5145 -0.1103
 7250SOL     OW33385   2.551   3.487   9.528 -0.3456  0.1466  0.1729
 7250SOL    HW133386   2.638   3.523   9.545 -0.3140  0.9966 -1.7475
 7250SOL    HW233387   2.542   3.452   9.616  1.3247  1.2492  0.7892
 7251SOL     OW33388   1.485   4.095   7.963  0.5285 -0.3026 -0.7582
 7251SOL    HW133389   1.412   4.052   7.918 -0.4907 -0.2506  0.8496
 7251SOL    HW233390   1.555   4.030   7.957  0.0974 -0.7197 -1.2809
 7252SOL     OW33391   3.349   3.095   3.337  0.1860 -0.1863  0.2363
 7252SOL    HW133392   3.319   3.134   3.255 -1.2678 -1.3758  0.2054
 7252SOL    HW233393   3.353   3.003   3.310  1.2828  0.5135 -1.9984
 7253SOL     OW33394   4.173   0.263  16.995  0.1930 -0.3821  0.2940
 7253SOL    HW133395   4.148   0.179  17.035  1.2302 -0.6964  0.2711
 7253SOL    HW233396   4.258   0.257  16.953 -0.1866  0.4066 -0.5608
 7254SOL     OW33397   3.384   3.796   0.367  0.7658  0.0945  0.3219
 7254SOL    HW133398   3.373   3.885   0.402  0.7588 -0.7547  2.4526
 7254SOL    HW233399   3.311   3.800   0.306  2.0863  0.3095 -1.2436
 7255SOL     OW33400   4.303   2.648   6.188 -0.1370  0.2978  0.1513
 7255SOL    HW133401   4.264   2.581   6.245 -0.5120  0.0857 -0.3523
 7255SOL    HW233402   4.326   2.709   6.258  0.7290 -0.0328  0.1521
 7256SOL     OW33403   1.505   0.218   8.621  0.5253 -0.0971 -0.5086
 7256SOL    HW133404   1.453   0.158   8.674 -0.7366 -0.5448 -2.2652
 7256SOL    HW233405   1.453   0.225   8.541  1.6276  2.4188 -1.0141
 7257SOL     OW33406   3.909   4.470  12.338 -0.2853 -0.6213  0.0665
 7257SOL    HW133407   3.959   4.546  12.367 -2.0299  0.2825  0.6926
 7257SOL    HW233408   3.978   4.405  12.323  1.0085  0.9992 -1.0356
 7258SOL     OW33409   4.263   3.533   2.668 -0.2190  0.2703  0.3524
 7258SOL    HW133410   4.182   3.584   2.678  0.3731  1.6313 -1.8248
 7258SOL    HW233411   4.227   3.444   2.665  0.8080 -0.1855  1.6021
 7259SOL     OW33412   3.877   2.227   6.062 -0.8942 -0.1483  0.5191
 7259SOL    HW133413   3.825   2.202   5.985 -1.4894 -1.1237  1.2299
 7259SOL    HW233414   3.828   2.191   6.135 -1.4709 -0.1236  0.1433
 7260SOL     OW33415   1.235   3.169   6.034 -0.1676  0.2035 -0.4636
 7260SOL    HW133416   1.264   3.078   6.027  3.2336  1.2776 -0.0860
 7260SOL    HW233417   1.240   3.201   5.944  2.2645 -0.7714 -0.6618
 7261SOL     OW33418   2.198   0.044  11.676  0.1895 -0.0217 -0.0061
 7261SOL    HW133419   2.187   0.121  11.620  1.0975  0.1298  0.0213
 7261SOL    HW233420   2.123   0.044  11.736  0.7669 -0.7899  0.7162
 7262SOL     OW33421   0.570   1.952   1.297  0.1012 -0.1107 -0.1790
 7262SOL    HW133422   0.657   1.962   1.258  0.3784  0.4997  0.6046
 7262SOL    HW233423   0.588   1.960   1.391 -0.7699 -0.5527  0.0251
 7263SOL     OW33424   3.920   3.417   6.174 -0.4436 -0.2113 -0.3036
 7263SOL    HW133425   3.895   3.427   6.082  0.7336 -0.2524 -0.6332
 7263SOL    HW233426   3.833   3.412   6.214  0.7394  1.6206  2.4649
 7264SOL     OW33427   2.940   1.789   2.969  0.2870  0.3990  0.1149
 7264SOL    HW133428   2.947   1.759   3.059 -0.3297  1.2477  0.4393
 7264SOL    HW233429   2.878   1.861   2.978  1.2633  1.2721 -0.1316
 7265SOL     OW33430   2.872   0.850   7.486 -0.0704  0.8071  0.7092
 7265SOL    HW133431   2.941   0.794   7.520  0.3020  1.7514  1.4895
 7265SOL    HW233432   2.828   0.880   7.565  0.4008  0.4204  1.1169
 7266SOL     OW33433   0.688   2.137   7.778  0.2338 -0.5110  0.5886
 7266SOL    HW133434   0.610   2.163   7.827 -0.2977 -1.9096  0.4590
 7266SOL    HW233435   0.756   2.156   7.843 -0.5270  0.2057  1.1755
 7267SOL     OW33436   3.879   1.563  12.869  0.7232 -0.3958  0.9393
 7267SOL    HW133437   3.866   1.657  12.884 -1.8111 -0.8507  1.5164
 7267SOL    HW233438   3.972   1.541  12.863  1.0221  1.7316 -2.4600
 7268SOL     OW33439   0.732   1.784   2.705 -0.5388 -0.7798  0.7659
 7268SOL    HW133440   0.695   1.728   2.637  0.7141  2.1964 -2.3410
 7268SOL    HW233441   0.819   1.786   2.667 -1.0054  1.4444 -0.1728
 7269SOL     OW33442   2.518   3.369   3.109  0.4557 -0.6817  0.0467
 7269SOL    HW133443   2.515   3.424   3.031  0.7522 -1.6978 -0.6738
 7269SOL    HW233444   2.451   3.307   3.080  1.7847 -2.2376  0.2464
 7270SOL     OW33445   0.205   4.402   6.285  0.6545  0.0936  0.1862
 7270SOL    HW133446   0.298   4.422   6.285  0.5614  0.5271  0.9362
 7270SOL    HW233447   0.180   4.416   6.193  0.5250 -0.7313  0.0975
 7271SOL     OW33448   2.394   3.670  17.092 -0.2671  1.1002 -0.2027
 7271SOL    HW133449   2.313   3.624  17.117  0.4933  0.5542  1.2229
 7271SOL    HW233450   2.464   3.608  17.113 -0.0131  1.4456 -0.0452
 7272SOL     OW33451   3.804   4.710   7.487 -0.5866  0.9249  0.1761
 7272SOL    HW133452   3.821   4.654   7.412 -1.4047  1.6715 -0.5642
 7272SOL    HW233453   3.843   0.055   7.457  2.7185 -0.8431 -0.2729
 7273SOL     OW33454   1.397   1.335   3.826 -0.0451 -0.0270 -0.4370
 7273SOL    HW133455   1.318   1.353   3.877  0.9000  1.4031  0.5074
 7273SOL    HW233456   1.446   1.412   3.855 -0.6282 -0.4406  1.6761
 7274SOL     OW33457   4.071   2.389   3.836  0.0148  0.2108 -0.1853
 7274SOL    HW133458   4.146   2.448   3.824  0.3609 -0.2457 -0.2773
 7274SOL    HW233459   4.018   2.419   3.762  1.2818  1.1365 -0.7290
 7275SOL     OW33460   0.693   1.367  12.320  0.4094  0.1930  0.2438
 7275SOL    HW133461   0.734   1.351  12.405  1.2917  0.2883 -0.1621
 7275SOL    HW233462   0.768   1.372  12.261 -0.5414  0.9456 -0.9142
 7276SOL     OW33463   4.093   4.446  10.751  0.0824 -0.3906 -0.0279
 7276SOL    HW133464   4.117   4.504  10.679 -0.4696  2.7456  2.2674
 7276SOL    HW233465   4.124   4.497  10.826 -2.3433 -0.7155  1.2163
 7277SOL     OW33466   3.834   1.714   8.075 -0.1499  0.0123 -0.3411
 7277SOL    HW133467   3.859   1.726   8.166 -0.7941  2.1444 -0.4366
 7277SOL    HW233468   3.778   1.791   8.062  1.3001  1.1863  0.3307
 7278SOL     OW33469   3.400   0.056   8.113 -0.7455 -0.8165 -0.3154
 7278SOL    HW133470   3.400   4.716   8.056 -0.5200 -0.9964 -0.0730
 7278SOL    HW233471   3.429   0.128   8.057 -0.3736 -1.0276 -0.3988
 7279SOL     OW33472   3.504   0.683   5.248  0.8404 -0.3607 -0.4940
 7279SOL    HW133473   3.555   0.642   5.178  1.7052  0.4548 -0.3424
 7279SOL    HW233474   3.493   0.765   5.201  0.7701 -1.1083 -1.7612
 7280SOL     OW33475   2.348   0.136   3.667  0.1064 -0.0208  0.2442
 7280SOL    HW133476   2.361   0.043   3.649 -1.1145 -0.4422  1.4351
 7280SOL    HW233477   2.304   0.154   3.584 -0.9657  1.6212  1.1621
 7281SOL     OW33478   4.209   1.656   3.962 -0.2883 -0.1786 -0.4398
 7281SOL    HW133479   4.284   1.597   3.954  1.6104  2.1694 -0.1864
 7281SOL    HW233480   4.146   1.587   3.982 -1.6041  1.2653  0.3562
 7282SOL     OW33481   4.179   4.735   2.170 -0.6339 -0.1501 -0.3486
 7282SOL    HW133482   4.232   4.685   2.107  1.6135 -1.4522  2.5700
 7282SOL    HW233483   4.119   0.040   2.109 -0.1213  0.8004 -0.2120
 7283SOL     OW33484   3.488   0.575   2.329  0.6194  0.2560 -0.2170
 7283SOL    HW133485   3.560   0.627   2.294  0.2853  0.8118 -0.0649
 7283SOL    HW233486   3.548   0.506   2.359  0.5888 -0.6965 -2.3395
 7284SOL     OW33487   4.019   0.927   6.233 -0.2194  0.3207 -0.2326
 7284SOL    HW133488   4.031   0.947   6.325 -0.4298 -0.6050 -0.0065
 7284SOL    HW233489   3.923   0.927   6.227 -0.2834  1.1228  0.8078
 7285SOL     OW33490   3.825   0.625   6.813  0.1602 -0.2591 -0.1980
 7285SOL    HW133491   3.849   0.538   6.782  1.7779  0.2755 -0.4493
 7285SOL    HW233492   3.915   0.657   6.804  1.1279 -2.7638  0.7019
 7286SOL     OW33493   1.995   3.505   9.395 -0.1134 -0.3865  0.1122
 7286SOL    HW133494   1.933   3.446   9.352 -0.5569 -0.1091  0.3607
 7286SOL    HW233495   1.994   3.580   9.334  1.0808 -1.2609 -0.9849
 7287SOL     OW33496   3.172   1.965   8.276  0.4183 -0.0088 -0.4043
 7287SOL    HW133497   3.259   2.004   8.284 -0.0094  0.4141  2.1658
 7287SOL    HW233498   3.145   2.009   8.195 -2.7457  0.7118  1.0466
 7288SOL     OW33499   0.299   4.408   8.815 -0.1719 -0.2911  1.1300
 7288SOL    HW133500   0.325   4.418   8.907  0.4499 -0.1250  0.9346
 7288SOL    HW233501   0.378   4.363   8.784 -0.0310  0.5654  0.2472
 7289SOL     OW33502   3.316   0.872  15.227  0.1536  0.8012  0.1327
 7289SOL    HW133503   3.389   0.812  15.242 -0.0374  0.3343 -0.8306
 7289SOL    HW233504   3.304   0.912  15.313 -1.3269 -0.9369  0.7419
 7290SOL     OW33505   0.632   1.261   2.314 -0.3267 -0.4206  0.0103
 7290SOL    HW133506   0.720   1.271   2.351 -0.3734  0.1672 -0.0417
 7290SOL    HW233507   0.651   1.285   2.224 -0.3769 -0.8848 -0.1229
 7291SOL     OW33508   1.581   3.725  14.572 -0.4004 -0.2850  0.5220
 7291SOL    HW133509   1.608   3.633  14.565  1.0973  0.2229 -0.3638
 7291SOL    HW233510   1.535   3.715  14.656  2.3540 -0.0841  2.0741
 7292SOL     OW33511   4.001   4.227   8.818 -0.3119  0.0837  0.3036
 7292SOL    HW133512   3.942   4.297   8.846 -0.7730 -1.0559  2.1166
 7292SOL    HW233513   3.946   4.173   8.762 -0.4323  0.3655  0.1508
 7293SOL     OW33514   1.757   4.166  15.852  0.0483  0.2255  0.0183
 7293SOL    HW133515   1.671   4.193  15.883 -0.3623 -1.0357 -0.0085
 7293SOL    HW233516   1.779   4.219  15.775  0.1867 -0.1487 -0.2016
 7294SOL     OW33517   3.520   0.601   7.373 -0.6349  0.3211  0.1123
 7294SOL    HW133518   3.523   0.651   7.454 -2.5866 -1.9562  1.5965
 7294SOL    HW233519   3.571   0.524   7.399  0.8484  0.8532 -1.2058
 7295SOL     OW33520   1.889   2.221   4.226  0.3360  0.5383  0.4490
 7295SOL    HW133521   1.974   2.232   4.268  0.7252  0.9185 -0.4532
 7295SOL    HW233522   1.914   2.189   4.140 -0.0958  1.3226  0.0331
 7296SOL     OW33523   2.842   3.123   3.646 -0.3105  0.3841  0.2437
 7296SOL    HW133524   2.813   3.160   3.729  0.8807  0.5085  0.6106
 7296SOL    HW233525   2.793   3.041   3.652  2.3445 -1.3194 -1.3851
 7297SOL     OW33526   2.700   1.118  17.710 -0.3093 -0.2771  0.0400
 7297SOL    HW133527   2.606   1.127  17.723 -0.4435 -1.3978 -0.1757
 7297SOL    HW233528   2.708   1.023  17.721 -0.1505  0.0741  2.8614
 7298SOL     OW33529   2.748   4.471   7.063  0.8356  0.0787 -0.1990
 7298SOL    HW133530   2.700   4.392   7.037 -0.1800  1.1533 -1.5831
 7298SOL    HW233531   2.682   4.500   7.126 -1.2163 -1.8797 -1.4379
 7299SOL     OW33532   2.578   1.680   4.958  0.7274 -0.1423  0.5536
 7299SOL    HW133533   2.511   1.640   4.904  0.3710 -0.5443  1.2956
 7299SOL    HW233534   2.565   1.775   4.953  1.5099 -0.0255  0.7109
 7300SOL     OW33535   2.957   2.288   8.572  0.1172 -0.0383  0.4402
 7300SOL    HW133536   2.983   2.195   8.571  3.3960  0.8959 -0.9983
 7300SOL    HW233537   2.890   2.302   8.505  0.7714  0.6763 -0.0710
 7301SOL     OW33538   3.204   4.532   0.242 -0.2969  0.1651 -0.1345
 7301SOL    HW133539   3.286   4.540   0.290  0.7364 -0.8752 -1.7069
 7301SOL    HW233540   3.154   4.504   0.318 -0.6368 -0.0375 -0.4322
 7302SOL     OW33541   1.754   0.560   6.274  0.0977  0.2258  0.1730
 7302SOL    HW133542   1.664   0.579   6.302  0.3651 -0.6473  1.6367
 7302SOL    HW233543   1.747   0.576   6.180 -3.6089 -1.5961  0.1344
 7303SOL     OW33544   0.294   2.994   6.965  0.3165  0.4520  0.4506
 7303SOL    HW133545   0.357   2.947   7.019  1.7679 -0.9663 -2.5087
 7303SOL    HW233546   0.208   2.962   6.992  0.7603 -0.0655  1.2693
 7304SOL     OW33547   1.849   0.502  11.642  0.1356  0.3658 -0.2880
 7304SOL    HW133548   1.839   0.414  11.678 -1.3220  0.1675 -1.1916
 7304SOL    HW233549   1.879   0.548  11.721  0.6029 -1.4593  0.5953
 7305SOL     OW33550   0.007   0.908   2.918 -0.2597 -0.0768 -0.4306
 7305SOL    HW133551   4.657   0.946   2.905 -0.2006  0.8857  1.9152
 7305SOL    HW233552   0.002   0.827   2.868  2.0424 -0.8416  0.5995
 7306SOL     OW33553   3.129   1.124   1.587 -0.0639 -0.0923 -0.0022
 7306SOL    HW133554   3.147   1.042   1.542  0.1628 -0.9813  1.6915
 7306SOL    HW233555   3.033   1.122   1.596  0.0918 -2.6066  1.0162
 7307SOL     OW33556   2.180   4.667  16.174 -0.5050  0.1098 -0.1599
 7307SOL    HW133557   2.204   4.612  16.099 -2.3041 -0.5428 -0.2585
 7307SOL    HW233558   2.182   0.014  16.127  1.5992  0.9746  1.4687
 7308SOL     OW33559   2.190   3.345   6.772 -0.2572 -0.2547  0.7834
 7308SOL    HW133560   2.268   3.297   6.799  1.1580  1.0440 -1.0010
 7308SOL    HW233561   2.228   3.421   6.727 -0.8253 -0.8722 -0.7254
 7309SOL     OW33562   0.000   0.240   8.311  0.5976  0.2779 -0.1625
 7309SOL    HW133563   4.690   0.309   8.264 -0.0102 -0.5579 -0.7752
 7309SOL    HW233564   4.682   0.166   8.286  0.6652  0.2735 -0.2990
 7310SOL     OW33565   3.527   4.205  12.587 -0.3594 -0.1587  0.0723
 7310SOL    HW133566   3.620   4.190  12.569 -0.0802  1.2843  0.3055
 7310SOL    HW233567   3.524   4.219  12.682  1.9072 -0.9926  0.2675
 7311SOL     OW33568   1.864   2.362   9.410 -0.7580  0.1556 -0.1659
 7311SOL    HW133569   1.812   2.422   9.464 -0.5709  0.7606 -0.6563
 7311SOL    HW233570   1.930   2.338   9.476  0.3653  2.2469 -0.5442
 7312SOL     OW33571   4.266   3.843   4.239  0.4662 -0.2990  0.2161
 7312SOL    HW133572   4.200   3.911   4.250  0.7890  0.2093 -1.0207
 7312SOL    HW233573   4.327   3.849   4.312  1.7194  3.1354 -1.1040
 7313SOL     OW33574   3.092   3.030   3.660  0.0812 -0.2305 -0.2954
 7313SOL    HW133575   3.140   3.109   3.684 -0.1314 -0.7440  1.8461
 7313SOL    HW233576   3.003   3.065   3.660  0.5266  0.8848  0.1963
 7314SOL     OW33577   3.521   4.345   9.201  0.1917  0.1168 -0.2204
 7314SOL    HW133578   3.493   4.430   9.236  1.3102 -0.6182  2.5076
 7314SOL    HW233579   3.441   4.293   9.199  0.8013 -0.9839  3.0760
 7315SOL     OW33580   2.436   1.218  17.725 -0.4120 -0.2814  0.9033
 7315SOL    HW133581   2.398   1.133  17.706  2.1862 -1.2196  0.0089
 7315SOL    HW233582   2.409   1.263  17.645  0.5533  1.3620  1.5051
 7316SOL     OW33583   0.201   2.773  12.730 -0.0258 -0.0968 -0.3303
 7316SOL    HW133584   0.139   2.792  12.800  1.3927  0.2503  0.8459
 7316SOL    HW233585   0.144   2.765  12.654  1.5933 -1.0840 -1.4410
 7317SOL     OW33586   1.542   2.756   1.168  0.3212  0.2004  0.1369
 7317SOL    HW133587   1.524   2.842   1.129 -0.6386 -0.6724 -1.3675
 7317SOL    HW233588   1.587   2.715   1.094 -0.9132  2.8293 -2.0805
 7318SOL     OW33589   4.522   4.016   4.540 -0.1001  0.2104 -0.0299
 7318SOL    HW133590   4.491   3.926   4.532 -0.8997  0.4031  0.8478
 7318SOL    HW233591   4.455   4.061   4.591  0.6579 -2.1124  3.0167
 7319SOL     OW33592   1.205   3.623  11.017 -0.4131  0.4238  0.2203
 7319SOL    HW133593   1.280   3.668  10.979  1.4941 -2.6756  0.3229
 7319SOL    HW233594   1.203   3.667  11.102 -0.8204  0.6832  0.0736
 7320SOL     OW33595   0.303   3.215  14.579  0.4466  0.1902 -0.2251
 7320SOL    HW133596   0.368   3.154  14.543 -0.9492 -1.2434 -0.3367
 7320SOL    HW233597   0.270   3.156  14.647  0.2810 -1.3037 -1.6128
 7321SOL     OW33598   0.627   1.839   6.335  0.1123  0.5064 -0.2071
 7321SOL    HW133599   0.664   1.800   6.415  2.2381  0.8797 -1.0164
 7321SOL    HW233600   0.559   1.776   6.312  0.3412  0.0060  0.4588
 7322SOL     OW33601   4.564   2.178   1.883  0.0009 -0.1286 -0.4762
 7322SOL    HW133602   4.625   2.248   1.908 -2.1474  0.8532  2.0053
 7322SOL    HW233603   4.542   2.144   1.970 -0.2362 -0.3512 -0.6231
 7323SOL     OW33604   2.448   0.223   1.963 -0.3452 -0.6132  0.2111
 7323SOL    HW133605   2.480   0.157   1.901  1.9121  0.1179  0.6017
 7323SOL    HW233606   2.529   0.239   2.013 -1.1617  4.1170 -0.0209
 7324SOL     OW33607   0.618   0.008   8.650 -0.3396 -0.1513  0.2421
 7324SOL    HW133608   0.647   0.097   8.672  1.9423 -1.1932  1.4977
 7324SOL    HW233609   0.561   0.020   8.574  0.5415 -1.4229 -0.6314
 7325SOL     OW33610   1.400   4.569   8.341 -0.6824 -0.1777  0.0844
 7325SOL    HW133611   1.353   4.486   8.342 -0.5120 -0.2982 -1.5444
 7325SOL    HW233612   1.385   4.596   8.431 -2.3154 -0.0646 -0.2253
 7326SOL     OW33613   4.191   0.578   0.945  0.0398  0.5429  0.2093
 7326SOL    HW133614   4.140   0.549   1.020 -3.4318 -0.1863 -2.4140
 7326SOL    HW233615   4.231   0.497   0.914 -0.9558 -0.5537  1.7868
 7327SOL     OW33616   1.719   2.634   4.448 -0.1660  0.3336 -0.2538
 7327SOL    HW133617   1.628   2.636   4.419  0.5543 -2.0823 -2.6297
 7327SOL    HW233618   1.712   2.616   4.542  0.3792  1.6402  0.0256
 7328SOL     OW33619   4.571   3.733   3.235 -0.0086 -0.0158  0.0801
 7328SOL    HW133620   4.530   3.818   3.254 -1.7153 -0.7422 -0.4137
 7328SOL    HW233621   4.515   3.671   3.283  0.1816  0.0454  0.3850
 7329SOL     OW33622   0.079   1.401  13.755 -0.5921  0.4042 -0.6521
 7329SOL    HW133623   0.150   1.339  13.774  0.7586  1.6994 -1.4720
 7329SOL    HW233624   4.736   1.372  13.798  1.1176 -1.4014  1.3176
 7330SOL     OW33625   3.498   0.367   3.842  0.1793  0.0006 -0.1259
 7330SOL    HW133626   3.558   0.315   3.789 -1.5419 -2.0678 -0.0459
 7330SOL    HW233627   3.550   0.439   3.877 -0.1469  0.6569 -0.9824
 7331SOL     OW33628   0.054   1.708   2.213  0.3743 -0.3310  0.2557
 7331SOL    HW133629   0.008   1.625   2.222 -1.0059  0.3178 -1.0271
 7331SOL    HW233630   4.733   1.742   2.145 -0.2224 -0.2684  0.7887
 7332SOL     OW33631   0.683   1.961  13.756  0.0677 -0.3015  0.0097
 7332SOL    HW133632   0.715   1.975  13.667 -3.3657  1.9054 -0.8898
 7332SOL    HW233633   0.631   2.038  13.780 -0.5603 -1.3034  1.8814
 7333SOL     OW33634   3.093   0.582   6.888 -0.2760 -0.6114  0.4038
 7333SOL    HW133635   3.009   0.611   6.922  0.2167  2.3088 -0.9314
 7333SOL    HW233636   3.061   0.496   6.860  1.8282 -1.6507  1.1566
 7334SOL     OW33637   0.244   0.954   8.061  0.0842  0.0279 -0.0146
 7334SOL    HW133638   0.160   0.991   8.035  0.6200  0.3958 -1.2326
 7334SOL    HW233639   0.286   0.946   7.975 -1.8323 -0.3634 -0.9054
 7335SOL     OW33640   2.940   1.375  11.253  0.3502  0.4810  0.4383
 7335SOL    HW133641   2.992   1.452  11.276  3.2318 -1.0569 -0.9515
 7335SOL    HW233642   2.894   1.393  11.171 -0.1620 -1.9085  0.1838
 7336SOL     OW33643   2.450   3.539   9.296  0.1186 -0.5990  0.1262
 7336SOL    HW133644   2.507   3.595   9.243  1.1952 -1.4463  0.3894
 7336SOL    HW233645   2.474   3.543   9.389  0.4925 -1.3850  0.0610
 7337SOL     OW33646   0.149   4.368   1.286 -0.0614  0.7241  0.2850
 7337SOL    HW133647   0.243   4.383   1.281  0.4226 -2.3774 -0.3628
 7337SOL    HW233648   0.120   4.308   1.354 -1.4732 -0.2147 -1.1265
 7338SOL     OW33649   3.220   2.691  13.929 -0.6831 -0.2016  0.1979
 7338SOL    HW133650   3.193   2.608  13.968 -0.7920 -0.1763  0.1744
 7338SOL    HW233651   3.169   2.692  13.849  1.0945 -0.5663 -0.9413
 7339SOL     OW33652   1.405   1.241   2.598  0.4804 -0.3046 -0.0538
 7339SOL    HW133653   1.414   1.147   2.585 -0.6190 -0.6241  1.4851
 7339SOL    HW233654   1.466   1.274   2.532  1.3501 -2.8283 -0.5268
 7340SOL     OW33655   3.889   2.354   8.659  0.0714 -0.2239  0.0094
 7340SOL    HW133656   3.838   2.411   8.716  1.5545 -0.4858  1.5873
 7340SOL    HW233657   3.965   2.408   8.639  0.7077 -2.0259 -2.4583
 7341SOL     OW33658   2.868   1.592   1.451 -0.2078 -0.3257  0.3358
 7341SOL    HW133659   2.943   1.534   1.467 -1.9151 -2.1897  1.4847
 7341SOL    HW233660   2.903   1.678   1.429 -1.3708 -0.3599 -1.5999
 7342SOL     OW33661   1.015   3.421   4.795 -0.6641  0.0182  0.3988
 7342SOL    HW133662   1.046   3.377   4.874 -2.0249  2.6544  2.4022
 7342SOL    HW233663   1.081   3.383   4.736 -0.9540  0.5977 -0.2975
 7343SOL     OW33664   1.529   3.251  11.366  0.1372  0.1516 -0.6906
 7343SOL    HW133665   1.508   3.212  11.282  2.0375  2.5432 -2.2881
 7343SOL    HW233666   1.612   3.290  11.338  1.2889 -0.8043  1.3877
 7344SOL     OW33667   4.613   4.711   3.563  0.1119  0.1802 -0.0953
 7344SOL    HW133668   4.581   0.030   3.634 -1.4343 -0.3422 -0.3760
 7344SOL    HW233669   4.684   0.024   3.523 -0.1670  2.8156  2.6748
 7345SOL     OW33670   1.341   4.346   8.462 -0.1325  0.5231  0.5248
 7345SOL    HW133671   1.418   4.366   8.514 -1.1393 -1.2319  2.6937
 7345SOL    HW233672   1.284   4.315   8.532 -2.6102  4.6851  0.3749
 7346SOL     OW33673   0.328   1.981   5.104  0.1336  0.0211 -0.7092
 7346SOL    HW133674   0.411   1.968   5.058  1.1433  1.6947  0.6568
 7346SOL    HW233675   0.357   2.017   5.188  0.8784 -1.4719 -0.3264
 7347SOL     OW33676   1.360   0.414   7.503  0.0877  0.2247 -0.2826
 7347SOL    HW133677   1.447   0.375   7.494  0.3121  0.6773 -0.0734
 7347SOL    HW233678   1.303   0.361   7.448  1.8607 -0.8549 -1.0636
 7348SOL     OW33679   0.913   3.296   0.556 -0.1585  0.0989 -0.0052
 7348SOL    HW133680   1.002   3.303   0.523 -0.4610 -0.8698 -1.0437
 7348SOL    HW233681   0.886   3.225   0.498  0.7442 -0.8398  0.7335
 7349SOL     OW33682   2.676   3.416   5.598  0.6365  0.0235 -0.3606
 7349SOL    HW133683   2.708   3.397   5.510 -3.3255 -1.2565 -1.5068
 7349SOL    HW233684   2.594   3.367   5.600 -1.0812  2.8152 -1.9768
 7350SOL     OW33685   1.244   0.704   8.397  0.2290 -0.6325 -0.1873
 7350SOL    HW133686   1.309   0.649   8.440  0.2239 -0.8660 -0.4821
 7350SOL    HW233687   1.283   0.790   8.415 -1.2091 -0.1514  0.5788
 7351SOL     OW33688   4.596   1.241   6.565  0.0458 -0.0585  0.0594
 7351SOL    HW133689   4.525   1.191   6.608  1.9846 -0.5163  2.7498
 7351SOL    HW233690   4.560   1.329   6.558 -2.1095 -1.1788 -3.0816
 7352SOL     OW33691   2.996   2.150   6.046 -0.4253 -0.4819  0.2327
 7352SOL    HW133692   2.931   2.217   6.064  0.1664  0.7393 -2.1002
 7352SOL    HW233693   3.048   2.165   6.124  2.5959 -0.2021 -1.8292
 7353SOL     OW33694   2.462   3.139   7.826 -0.1196 -0.5166 -0.0024
 7353SOL    HW133695   2.500   3.138   7.914  0.7157 -0.4264 -0.3719
 7353SOL    HW233696   2.405   3.063   7.816 -0.2206 -0.2511 -1.4822
 7354SOL     OW33697   2.231   0.289  11.536 -0.0086  0.2382 -0.0374
 7354SOL    HW133698   2.323   0.287  11.507 -0.0602  2.3314 -0.4018
 7354SOL    HW233699   2.181   0.322  11.461  1.5161 -0.3932 -1.3340
 7355SOL     OW33700   3.886   0.914  15.446 -0.2672  0.4662 -0.2166
 7355SOL    HW133701   3.967   0.922  15.397  0.1248 -0.9779  0.1900
 7355SOL    HW233702   3.828   0.902  15.371  1.2539 -0.1064 -1.2864
 7356SOL     OW33703   0.355   3.079   6.703 -0.1359 -0.1028 -0.0730
 7356SOL    HW133704   0.291   3.059   6.634  0.1858 -0.2845 -0.3199
 7356SOL    HW233705   0.322   3.049   6.788 -0.0385  0.4042  0.1439
 7357SOL     OW33706   2.009   1.897  15.112 -0.1145 -0.3635 -0.5067
 7357SOL    HW133707   2.053   1.840  15.050  0.2751 -0.2361 -0.3434
 7357SOL    HW233708   2.039   1.857  15.194  0.4618  2.1913  0.5313
 7358SOL     OW33709   2.780   2.774   5.878 -0.6833 -0.2954 -0.5654
 7358SOL    HW133710   2.707   2.741   5.931  2.2470 -2.8021  1.8424
 7358SOL    HW233711   2.850   2.712   5.899 -0.5490 -0.3599 -1.1849
 7359SOL     OW33712   4.131   0.039   6.537  0.1100  0.3202  0.6569
 7359SOL    HW133713   4.048   0.019   6.580  0.0418 -2.0933 -0.6304
 7359SOL    HW233714   4.194   0.018   6.605 -0.4006  0.3096  1.1279
 7360SOL     OW33715   2.601   2.671   6.045  0.1378 -0.2117 -0.9019
 7360SOL    HW133716   2.572   2.581   6.060 -1.8482  0.8101  1.4064
 7360SOL    HW233717   2.546   2.705   6.116  2.8845 -0.5239  1.3585
 7361SOL     OW33718   2.546   1.308  14.570  0.1441  0.3881 -0.6827
 7361SOL    HW133719   2.638   1.301  14.596  0.7741  5.3255 -1.6136
 7361SOL    HW233720   2.554   1.317  14.475  1.3974  1.3383 -0.4860
 7362SOL     OW33721   0.827   4.642   4.249  0.0015  0.2054 -0.3660
 7362SOL    HW133722   0.746   4.603   4.279  1.0475 -0.7951  1.1549
 7362SOL    HW233723   0.869   4.566   4.207 -1.8685 -1.5654  1.0254
 7363SOL     OW33724   2.043   2.371   9.624 -0.0130 -0.1069 -0.5243
 7363SOL    HW133725   2.126   2.336   9.591  0.3085 -0.1651  0.3191
 7363SOL    HW233726   2.050   2.345   9.716  0.5479  0.1735 -0.4898
 7364SOL     OW33727   3.329   4.490   3.474 -0.5767 -0.2801 -0.0957
 7364SOL    HW133728   3.347   4.418   3.535  3.0130  0.2552 -0.4984
 7364SOL    HW233729   3.308   4.440   3.394 -1.5934  1.2576 -0.7698
 7365SOL     OW33730   0.078   3.107   9.280 -0.2704  0.1685  0.1388
 7365SOL    HW133731   0.076   3.129   9.187 -1.1233 -0.1521  0.0786
 7365SOL    HW233732   0.173   3.117   9.288 -0.2652  1.9002 -1.7692
 7366SOL     OW33733   1.147   2.360   0.790 -0.0867 -0.2615 -0.1711
 7366SOL    HW133734   1.173   2.449   0.811 -1.1644  0.6351 -2.6044
 7366SOL    HW233735   1.173   2.319   0.872  1.7304 -0.5763 -0.9014
 7367SOL     OW33736   4.333   0.787  14.049 -0.1936 -0.1749 -0.3151
 7367SOL    HW133737   4.393   0.785  13.974 -1.2198  0.4384 -1.1494
 7367SOL    HW233738   4.254   0.834  14.020 -0.5186  0.2498  1.2453
 7368SOL     OW33739   3.146   4.291   2.088  0.5123 -0.1291 -0.8713
 7368SOL    HW133740   3.208   4.289   2.160 -0.0657 -0.0500 -0.3774
 7368SOL    HW233741   3.189   4.244   2.016 -1.0200 -0.9574 -1.2564
 7369SOL     OW33742   2.833   3.098   0.551  0.1453 -0.2759  0.2050
 7369SOL    HW133743   2.908   3.152   0.525  0.1279  0.4061  1.5812
 7369SOL    HW233744   2.772   3.142   0.492  0.5210  0.9790  0.7393
 7370SOL     OW33745   3.885   4.583   5.566  0.6854  0.3060  0.0959
 7370SOL    HW133746   3.800   4.617   5.538  0.4534 -1.3620 -1.2048
 7370SOL    HW233747   3.941   4.647   5.523  0.3624  0.8114  0.4305
 7371SOL     OW33748   0.777   2.033   9.243  0.0532  0.0728 -0.4967
 7371SOL    HW133749   0.793   2.082   9.162  2.1669  3.1996  1.8155
 7371SOL    HW233750   0.729   1.960   9.204  0.3926 -1.1134  1.3025
 7372SOL     OW33751   3.275   3.837   9.278 -0.0440 -0.6273  0.0526
 7372SOL    HW133752   3.279   3.918   9.227 -3.0666  0.5928  1.7999
 7372SOL    HW233753   3.305   3.780   9.207 -0.8253 -2.9769  1.6459
 7373SOL     OW33754   4.129   3.370  13.219  0.5486 -0.1064 -0.0127
 7373SOL    HW133755   4.175   3.298  13.177  0.4233 -0.5007  0.5223
 7373SOL    HW233756   4.186   3.446  13.210 -0.7620  1.1597  2.2382
 7374SOL     OW33757   2.293   2.835  15.697  0.7445 -0.2289 -0.6623
 7374SOL    HW133758   2.263   2.924  15.676  1.8875  0.4024  0.4569
 7374SOL    HW233759   2.314   2.832  15.790  0.3829 -0.6559 -0.5959
 7375SOL     OW33760   2.344   1.378   2.699  0.1321 -0.4126  0.1783
 7375SOL    HW133761   2.269   1.345   2.748 -0.5910 -0.0922 -0.7038
 7375SOL    HW233762   2.298   1.448   2.653 -0.3150 -1.1222 -0.4535
 7376SOL     OW33763   3.420   2.801   8.958 -0.3348 -0.6124 -0.6666
 7376SOL    HW133764   3.476   2.879   8.964  0.7896 -1.6615  2.1952
 7376SOL    HW233765   3.398   2.817   8.866 -0.3195 -1.7185 -0.8553
 7377SOL     OW33766   2.595   2.762   6.981 -0.0397  0.2492 -0.4150
 7377SOL    HW133767   2.516   2.783   7.031 -0.8305 -1.1451 -1.0614
 7377SOL    HW233768   2.588   2.831   6.915 -0.6715  1.1214  0.5562
 7378SOL     OW33769   1.991   2.029   2.652  0.6894  0.8023  0.4781
 7378SOL    HW133770   1.944   2.042   2.735 -0.0687 -1.1850  0.3571
 7378SOL    HW233771   2.044   1.951   2.668  0.6734  0.7739  0.3884
 7379SOL     OW33772   1.769   2.234   0.486  0.0969 -0.5351 -0.3829
 7379SOL    HW133773   1.824   2.308   0.510 -0.8261  0.4245 -1.2146
 7379SOL    HW233774   1.681   2.270   0.469  0.1027 -1.7403 -2.8754
 7380SOL     OW33775   1.083   4.042   4.240 -0.2513  0.4901 -0.1134
 7380SOL    HW133776   1.170   4.024   4.204 -1.1906 -0.5365 -1.8487
 7380SOL    HW233777   1.084   3.999   4.326 -0.5981 -1.1546 -0.9355
 7381SOL     OW33778   3.466   4.430   4.105  0.3171  0.1269  0.0333
 7381SOL    HW133779   3.472   4.486   4.028 -0.1271 -1.6095 -1.2566
 7381SOL    HW233780   3.457   4.504   4.165 -2.1847  0.4106 -0.6980
 7382SOL     OW33781   1.737   4.330  11.834 -0.8901  0.1108  0.4657
 7382SOL    HW133782   1.707   4.240  11.846 -1.6537  0.4921  1.4210
 7382SOL    HW233783   1.686   4.379  11.898  1.6529  1.5646  1.3835
 7383SOL     OW33784   1.756   1.928   8.471 -0.1289 -0.0547  0.6153
 7383SOL    HW133785   1.761   1.881   8.554  2.1560  0.5758  0.8412
 7383SOL    HW233786   1.851   1.929   8.458  0.1066 -0.3792  2.3724
 7384SOL     OW33787   3.987   3.503   7.015  0.2704  0.1350 -0.1178
 7384SOL    HW133788   3.973   3.497   7.110  0.9649  1.9497  0.0958
 7384SOL    HW233789   4.071   3.549   7.015  1.2884 -1.7171 -0.5795
 7385SOL     OW33790   2.507   4.653   4.376 -0.2950  0.5537  0.3657
 7385SOL    HW133791   2.514   4.633   4.469  0.0568 -0.6357  0.0970
 7385SOL    HW233792   2.484   0.009   4.377  1.5439  1.0210 -1.3620
 7386SOL     OW33793   0.926   1.998  11.942 -0.5675  0.1652 -0.3109
 7386SOL    HW133794   0.998   1.936  11.956  1.5601  2.5746 -0.5418
 7386SOL    HW233795   0.950   2.070  12.000 -0.8964  1.1317 -1.3704
 7387SOL     OW33796   3.405   1.849  16.209  0.0646  0.2264 -0.2596
 7387SOL    HW133797   3.453   1.886  16.135  0.8360  1.9085  1.0898
 7387SOL    HW233798   3.404   1.758  16.178 -0.4457 -0.5455  2.0717
 7388SOL     OW33799   4.396   0.396   9.083  0.6341  0.1663 -0.3574
 7388SOL    HW133800   4.468   0.349   9.041 -0.1299 -0.1624 -1.2869
 7388SOL    HW233801   4.334   0.380   9.013  0.2358  0.8922 -0.1679
 7389SOL     OW33802   1.662   4.050   3.104 -0.4190 -0.3364 -0.3275
 7389SOL    HW133803   1.626   3.991   3.170  0.0742  0.9443  1.0940
 7389SOL    HW233804   1.615   4.019   3.027 -0.1687  1.5208 -1.2344
 7390SOL     OW33805   3.805   4.093  15.942 -0.3179 -0.1981  0.3271
 7390SOL    HW133806   3.836   4.182  15.957  0.4730 -0.6393  1.2687
 7390SOL    HW233807   3.781   4.090  15.849 -1.0309  1.7520  0.4703
 7391SOL     OW33808   2.322   2.884   5.904 -0.4675  0.9861 -0.7724
 7391SOL    HW133809   2.393   2.821   5.892 -0.6811  1.1371 -2.7414
 7391SOL    HW233810   2.358   2.924   5.983  0.3396  0.9404 -1.1097
 7392SOL     OW33811   0.898   4.018   0.578  0.2287  0.1198 -0.4933
 7392SOL    HW133812   0.812   3.988   0.550  0.8466 -1.1263 -1.0696
 7392SOL    HW233813   0.904   3.985   0.667 -1.3166  0.1661 -0.3706
 7393SOL     OW33814   1.014   2.508   3.210  0.1672 -0.4645 -0.1178
 7393SOL    HW133815   0.988   2.592   3.173 -0.0333 -0.8583 -0.8764
 7393SOL    HW233816   0.929   2.464   3.218 -1.1023  2.3934  2.2020
 7394SOL     OW33817   0.458   1.846   2.405 -0.8413 -0.6218  0.2895
 7394SOL    HW133818   0.457   1.806   2.318 -0.9313 -0.9184  0.4292
 7394SOL    HW233819   0.475   1.772   2.462 -1.0913 -1.5110 -0.7919
 7395SOL     OW33820   2.570   0.528  12.697  0.3428  0.1403  0.3060
 7395SOL    HW133821   2.609   0.609  12.666  0.6150 -0.3699 -0.7086
 7395SOL    HW233822   2.524   0.506  12.615 -2.1207  0.8510  1.4953
 7396SOL     OW33823   1.354   2.141   3.282  0.9774 -0.7993  0.3460
 7396SOL    HW133824   1.282   2.131   3.220  1.7920  1.4902 -0.9527
 7396SOL    HW233825   1.340   2.228   3.319 -2.2429 -1.1347 -0.1225
 7397SOL     OW33826   1.131   3.314   5.040 -0.4840 -0.0023 -0.1850
 7397SOL    HW133827   1.192   3.275   5.103  1.5838  0.1530 -2.1121
 7397SOL    HW233828   1.127   3.397   5.087  0.7408  0.2878 -0.6054
 7398SOL     OW33829   3.169   2.404  13.327 -0.0109  0.5348 -0.4466
 7398SOL    HW133830   3.123   2.360  13.256  1.1249  2.2651 -2.2716
 7398SOL    HW233831   3.200   2.475  13.271  1.5532 -2.4494 -3.3086
 7399SOL     OW33832   2.874   2.027   5.837  0.3282 -0.4836  0.3938
 7399SOL    HW133833   2.793   2.069   5.864  0.6861  1.7100 -1.8238
 7399SOL    HW233834   2.922   2.044   5.918  1.8402 -0.2460 -0.5495
 7400SOL     OW33835   4.700   0.571   1.742  0.9322  0.2952  0.3493
 7400SOL    HW133836   4.677   0.498   1.799  0.9305  0.0908  0.0904
 7400SOL    HW233837   4.615   0.603   1.712  0.6520 -0.6204  0.1603
 7401SOL     OW33838   0.504   3.736  11.526 -0.4774  0.0187 -0.0348
 7401SOL    HW133839   0.483   3.643  11.525  1.0463 -0.3323  0.5143
 7401SOL    HW233840   0.576   3.760  11.585 -0.3032  1.2382 -0.7532
 7402SOL     OW33841   3.654   2.952  14.555 -0.6613  0.1046 -0.1044
 7402SOL    HW133842   3.672   2.922  14.465 -0.3900  0.2604 -0.1014
 7402SOL    HW233843   3.600   2.880  14.587  1.2552 -0.3340  2.0752
 7403SOL     OW33844   2.004   0.684   3.483 -0.2398  0.2189 -0.7641
 7403SOL    HW133845   1.994   0.601   3.436  0.9479  0.1456 -0.8762
 7403SOL    HW233846   1.912   0.691   3.510 -0.2866  0.5206 -1.0051
 7404SOL     OW33847   0.877   1.763   1.845 -0.4162  0.4627 -0.2905
 7404SOL    HW133848   0.938   1.836   1.852 -0.1643  0.2876 -0.7268
 7404SOL    HW233849   0.937   1.689   1.840  2.0249  2.5332 -1.1880
 7405SOL     OW33850   0.068   3.493  16.505  0.0424  0.3647  0.5544
 7405SOL    HW133851   0.044   3.510  16.596 -0.9219 -1.1730  0.5761
 7405SOL    HW233852   0.161   3.516  16.510  0.2170  0.0666 -1.2589
 7406SOL     OW33853   4.403   0.502  16.885 -0.2559 -0.2692  0.2313
 7406SOL    HW133854   4.478   0.512  16.943 -0.2858 -1.4751  0.4792
 7406SOL    HW233855   4.398   0.408  16.868 -1.6039 -0.1571  0.0663
 7407SOL     OW33856   2.948   0.641   5.372  0.3440  0.3230 -0.5457
 7407SOL    HW133857   2.973   0.733   5.380 -1.2180  0.7090 -0.1222
 7407SOL    HW233858   3.028   0.598   5.341 -0.2962  0.3169 -2.1897
 7408SOL     OW33859   1.931   0.073   6.066 -0.8257 -0.6235  0.5475
 7408SOL    HW133860   1.867   0.012   6.028  0.7428  0.5096 -3.9669
 7408SOL    HW233861   1.895   0.150   6.023  0.1776  0.1972  1.1936
 7409SOL     OW33862   0.049   3.245   5.221 -0.3432 -0.2029 -0.4074
 7409SOL    HW133863   0.030   3.191   5.298  1.1279 -0.2091 -0.0423
 7409SOL    HW233864   4.703   3.291   5.206 -0.6112 -0.7967 -0.7258
 7410SOL     OW33865   1.365   0.159   3.145  0.0005 -0.0306 -0.3317
 7410SOL    HW133866   1.289   0.112   3.112 -0.1248 -0.9580  1.3173
 7410SOL    HW233867   1.370   0.129   3.235 -0.0223 -0.4103 -0.4557
 7411SOL     OW33868   0.078   0.318   5.850  0.3820 -0.3982 -0.4082
 7411SOL    HW133869   0.141   0.324   5.778  0.2506 -3.0283 -0.7175
 7411SOL    HW233870   0.144   0.296   5.915  0.4238 -2.9275 -1.3270
 7412SOL     OW33871   1.114   0.190  14.262 -0.2469 -0.0489  0.1217
 7412SOL    HW133872   1.075   0.102  14.264 -1.2275  0.4039  0.9910
 7412SOL    HW233873   1.081   0.234  14.185 -1.3964 -0.2320  0.5113
 7413SOL     OW33874   0.809   1.246   6.035 -0.2418  0.4954  0.1927
 7413SOL    HW133875   0.889   1.240   6.087  1.3184  1.5797 -2.1097
 7413SOL    HW233876   0.765   1.304   6.098 -0.6247 -0.1546  0.5293
 7414SOL     OW33877   0.695   0.170  17.210  0.7653 -0.0372 -0.0878
 7414SOL    HW133878   0.710   0.253  17.255  0.1631  1.3393 -2.4227
 7414SOL    HW233879   0.701   0.111  17.285 -1.7785  1.0677  0.9852
 7415SOL     OW33880   4.630   0.556   3.260  0.6660 -0.0877  0.1149
 7415SOL    HW133881   4.601   0.470   3.288 -0.1882  0.1109 -0.1784
 7415SOL    HW233882   4.594   0.605   3.334 -0.8907  1.2331 -1.5133
 7416SOL     OW33883   3.636   2.070   3.278 -0.0071 -0.6386 -0.6134
 7416SOL    HW133884   3.655   1.977   3.294  2.2001  0.0364  0.6311
 7416SOL    HW233885   3.545   2.071   3.309  0.5282  1.8366  0.8833
 7417SOL     OW33886   3.541   0.103   2.613 -1.0134 -0.2680  0.5958
 7417SOL    HW133887   3.474   0.162   2.580  0.6607  1.7131  0.7420
 7417SOL    HW233888   3.621   0.145   2.582 -1.2805 -0.7874 -0.8045
 7418SOL     OW33889   1.822   2.604   3.566  0.1370  0.2116 -0.3534
 7418SOL    HW133890   1.800   2.584   3.657  1.1711  2.1643  0.3129
 7418SOL    HW233891   1.911   2.569   3.553  0.8358  0.9290  2.6076
 7419SOL     OW33892   3.728   1.537  12.620 -0.4992 -0.2313 -0.2416
 7419SOL    HW133893   3.771   1.546  12.705  0.4422 -0.2691 -0.7157
 7419SOL    HW233894   3.734   1.619  12.571 -0.4966  0.3120  0.6844
 7420SOL     OW33895   3.861   1.944   7.614 -0.1724  0.1065 -0.1893
 7420SOL    HW133896   3.825   1.900   7.537  2.5161 -0.2314 -1.2475
 7420SOL    HW233897   3.788   1.995   7.650  0.6094  0.7505  0.4784
 7421SOL     OW33898   0.104   1.630   7.784  0.4886 -0.0320 -0.0944
 7421SOL    HW133899   0.080   1.543   7.752  0.6663 -0.2136  0.2680
 7421SOL    HW233900   0.035   1.689   7.753  0.9131  0.8606  0.6607
 7422SOL     OW33901   3.760   2.581  10.265 -0.1893  0.4638 -0.1885
 7422SOL    HW133902   3.677   2.623  10.288 -0.1443  0.9008 -0.8382
 7422SOL    HW233903   3.747   2.488  10.284 -0.8401  0.6993  0.5218
 7423SOL     OW33904   0.994   1.679  10.904 -0.1507  0.0288  0.4175
 7423SOL    HW133905   0.915   1.633  10.876  0.3625 -0.6620  0.1048
 7423SOL    HW233906   1.037   1.610  10.955 -3.6744 -2.4105  0.1310
 7424SOL     OW33907   1.768   1.945   6.739 -0.2192 -0.0794 -0.0441
 7424SOL    HW133908   1.792   2.027   6.782  2.1595 -1.2895  0.9365
 7424SOL    HW233909   1.852   1.900   6.728  0.2499  0.6411  0.6244
 7425SOL     OW33910   0.252   0.847   4.842  0.0669  0.0131 -0.2574
 7425SOL    HW133911   0.243   0.752   4.853 -0.7497  0.1780  0.4808
 7425SOL    HW233912   0.162   0.864   4.813  0.6952 -0.5306 -2.4911
 7426SOL     OW33913   0.779   2.557   8.380 -0.6476 -0.5104 -0.4037
 7426SOL    HW133914   0.874   2.549   8.364 -0.0311 -0.1153  3.2126
 7426SOL    HW233915   0.771   2.505   8.460 -0.4237  0.7709  0.4477
 7427SOL     OW33916   2.785   2.534   6.715 -0.3069  0.4185  0.4843
 7427SOL    HW133917   2.718   2.508   6.779 -0.8593 -0.9352 -0.6530
 7427SOL    HW233918   2.850   2.466   6.732  0.1749  0.9374  0.7276
 7428SOL     OW33919   2.295   0.731   3.100 -0.4316 -0.6823  0.3701
 7428SOL    HW133920   2.225   0.793   3.121  0.7704  0.2963  1.5109
 7428SOL    HW233921   2.257   0.674   3.034  1.1201 -0.6682 -0.5268
 7429SOL     OW33922   2.213   3.174   0.437  0.4204  0.7393  0.2141
 7429SOL    HW133923   2.308   3.175   0.430  0.2367  2.4289 -2.0394
 7429SOL    HW233924   2.202   3.268   0.451 -1.6078  0.5332  0.0658
 7430SOL     OW33925   2.363   1.584   2.446  0.1465  0.2017 -0.0559
 7430SOL    HW133926   2.336   1.622   2.363 -1.0996 -3.0807 -1.1649
 7430SOL    HW233927   2.375   1.667   2.491  1.7679 -0.5728  0.9322
 7431SOL     OW33928   4.245   0.361   8.849 -0.5161 -0.0013  0.2934
 7431SOL    HW133929   4.210   0.445   8.880 -0.2405  0.0734  0.3998
 7431SOL    HW233930   4.283   0.380   8.763 -3.6170  1.0491 -0.8740
 7432SOL     OW33931   1.906   0.435   5.281 -0.4056  0.9068  0.0260
 7432SOL    HW133932   1.904   0.433   5.186 -2.5698 -4.4198  0.1916
 7432SOL    HW233933   1.864   0.350   5.294  0.0195  0.6722 -0.1309
 7433SOL     OW33934   4.489   2.611   9.392  0.1322  0.0785 -0.5295
 7433SOL    HW133935   4.514   2.519   9.396  1.1583  0.3689 -0.2553
 7433SOL    HW233936   4.480   2.626   9.486 -3.6199 -3.4778 -0.3605
 7434SOL     OW33937   1.420   4.502  10.334 -0.1712  0.3078  0.3554
 7434SOL    HW133938   1.463   4.521  10.418  0.4463 -0.6781  0.2562
 7434SOL    HW233939   1.471   4.425  10.309 -0.6039 -0.9612  3.3125
 7435SOL     OW33940   2.677   0.912   6.383  0.4628 -0.5713  0.0560
 7435SOL    HW133941   2.707   0.829   6.421 -0.3066 -0.4455  0.9400
 7435SOL    HW233942   2.675   0.969   6.459 -0.5245  0.4778 -0.7734
 7436SOL     OW33943   0.371   2.018   8.992  0.7163 -0.3530  0.0010
 7436SOL    HW133944   0.345   1.994   9.081  2.1165 -1.2137  0.1846
 7436SOL    HW233945   0.384   2.112   9.001 -0.4659 -0.1462 -0.5178
 7437SOL     OW33946   0.296   1.658   5.906  0.2279 -0.2939  0.8066
 7437SOL    HW133947   0.262   1.735   5.952  1.6431  2.4384 -2.6551
 7437SOL    HW233948   0.302   1.603   5.984 -0.0436  0.4295  1.3396
 7438SOL     OW33949   1.606   4.626   0.895 -0.7994 -0.2047  0.0354
 7438SOL    HW133950   1.581   4.694   0.957  2.2591  1.6773 -0.7805
 7438SOL    HW233951   1.628   4.548   0.946  3.4338  0.1588 -1.2596
 7439SOL     OW33952   0.793   0.281   3.198 -0.5016  0.2404 -0.5354
 7439SOL    HW133953   0.855   0.354   3.190 -0.3205 -0.0080 -1.4061
 7439SOL    HW233954   0.759   0.295   3.110 -2.9101  0.0819  0.3948
 7440SOL     OW33955   1.091   1.262   6.118  0.6798  0.5926  0.1323
 7440SOL    HW133956   1.163   1.239   6.058 -0.3532  0.3671 -1.0164
 7440SOL    HW233957   1.130   1.260   6.205  1.2837  0.6922 -0.1339
 7441SOL     OW33958   2.144   1.475   2.935  0.1340 -0.0674 -0.1576
 7441SOL    HW133959   2.130   1.487   2.841 -0.6493 -0.2435 -0.0634
 7441SOL    HW233960   2.234   1.508   2.943  0.4222 -0.7833 -0.4813
 7442SOL     OW33961   0.590   1.378   5.849  0.4263  0.3799 -0.6146
 7442SOL    HW133962   0.653   1.317   5.889  0.5651  0.2214 -1.0733
 7442SOL    HW233963   0.555   1.324   5.778  2.9447  0.4405 -1.9081
 7443SOL     OW33964   3.377   2.837   2.361 -0.6755  0.1713 -0.1479
 7443SOL    HW133965   3.385   2.860   2.453  0.4218  0.6959 -0.3720
 7443SOL    HW233966   3.360   2.923   2.323  0.5606  0.4330 -0.1094
 7444SOL     OW33967   2.793   0.951   0.549 -0.2004  0.1553 -0.0636
 7444SOL    HW133968   2.741   1.031   0.559 -0.3068 -0.2561  2.6709
 7444SOL    HW233969   2.867   0.984   0.498  0.8379 -0.2936  1.1619
 7445SOL     OW33970   2.783   2.327   6.131 -0.1868 -0.2647 -0.2784
 7445SOL    HW133971   2.807   2.356   6.043 -3.0080 -0.5471 -1.1589
 7445SOL    HW233972   2.711   2.390   6.142  1.0926  1.1741 -0.0641
 7446SOL     OW33973   1.047   1.205  10.314 -0.0463 -0.5736  1.0753
 7446SOL    HW133974   1.063   1.244  10.228  0.5645 -0.2372  1.3378
 7446SOL    HW233975   1.052   1.285  10.366  0.5542  1.1679 -1.6375
 7447SOL     OW33976   1.849   4.678   1.985 -0.2444 -0.3551 -0.2957
 7447SOL    HW133977   1.758   4.706   1.973 -0.8402 -1.5404  1.4557
 7447SOL    HW233978   1.879   0.021   2.030 -1.5488  0.0863 -0.1939
 7448SOL     OW33979   4.109   2.512   8.679 -0.1528  0.2865  0.3964
 7448SOL    HW133980   4.201   2.512   8.705 -0.4789 -0.2318  1.5575
 7448SOL    HW233981   4.071   2.561   8.752 -0.2068 -1.4246  1.5294
 7449SOL     OW33982   4.617   0.361   6.326  0.6066  0.4285  0.0936
 7449SOL    HW133983   4.620   0.436   6.385  1.3148  0.7021 -0.2880
 7449SOL    HW233984   4.709   0.370   6.299  0.9008 -0.4985  0.7908
 7450SOL     OW33985   4.259   0.622   7.950 -0.0894  0.2813 -0.5589
 7450SOL    HW133986   4.234   0.704   7.994 -1.7352 -0.8984  0.7138
 7450SOL    HW233987   4.352   0.637   7.931  0.0554  0.5578  0.3683
 7451SOL     OW33988   2.057   3.629   2.155 -0.1198  0.0983 -0.2302
 7451SOL    HW133989   2.039   3.723   2.153  0.1709  0.1439 -0.7374
 7451SOL    HW233990   1.987   3.609   2.094 -0.7270 -1.2473  0.9150
 7452SOL     OW33991   1.304   0.955   8.447 -0.8339 -0.1183  0.7134
 7452SOL    HW133992   1.221   0.988   8.481 -1.6176 -0.4381 -0.8677
 7452SOL    HW233993   1.313   1.023   8.380 -1.3319 -0.4608  0.2941
 7453SOL     OW33994   0.019   4.584   4.075 -0.1642  0.3412  0.5115
 7453SOL    HW133995   0.086   4.652   4.073 -0.0209  0.2631  2.1726
 7453SOL    HW233996   0.069   4.502   4.071 -2.4839 -1.0659  0.0377
 7454SOL     OW33997   0.555   2.253   8.536 -0.5067  0.2804  0.0647
 7454SOL    HW133998   0.576   2.160   8.539 -1.4438  0.0701  0.1206
 7454SOL    HW233999   0.488   2.272   8.601  0.8574 -1.4425  1.9650
 7455SOL     OW34000   2.300   0.335   8.322  0.2157  0.3581  0.1995
 7455SOL    HW134001   2.340   0.409   8.276  2.5762 -1.8946 -1.3531
 7455SOL    HW234002   2.353   0.342   8.402 -0.5329 -0.2279  0.7510
 7456SOL     OW34003   3.609   3.460   9.391 -0.5803  0.1868 -0.5615
 7456SOL    HW134004   3.598   3.412   9.473 -0.8296 -1.0234 -1.3026
 7456SOL    HW234005   3.526   3.506   9.381  0.6696  2.4673 -0.3476
 7457SOL     OW34006   4.441   1.119   9.583  0.2755 -0.1256  0.2159
 7457SOL    HW134007   4.494   1.121   9.663  1.2582  1.4741 -0.4890
 7457SOL    HW234008   4.369   1.176   9.612  0.4465 -1.7523  3.8602
 7458SOL     OW34009   0.159   3.884   0.621 -0.0212 -0.4129  0.5492
 7458SOL    HW134010   0.102   3.934   0.563  0.9497  0.5226  0.4070
 7458SOL    HW234011   0.155   3.795   0.585 -3.4599  0.7271 -1.8266
 7459SOL     OW34012   2.980   3.124   3.255 -0.0227 -0.3892 -0.2860
 7459SOL    HW134013   2.913   3.160   3.196  0.6991 -0.7218 -1.3107
 7459SOL    HW234014   2.954   3.033   3.241 -0.4667 -0.6773  2.3899
 7460SOL     OW34015   3.753   2.587  12.549 -0.4970  0.1694  0.0137
 7460SOL    HW134016   3.838   2.608  12.587 -1.4391  0.3859  1.9891
 7460SOL    HW234017   3.728   2.522  12.615 -0.7587 -0.3731 -0.6212
 7461SOL     OW34018   2.956   3.793   4.035  0.6611 -0.0940 -0.4959
 7461SOL    HW134019   2.941   3.757   3.948 -1.8252  0.4965 -0.3178
 7461SOL    HW234020   2.993   3.731   4.098  2.2863  1.3354 -0.0184
 7462SOL     OW34021   2.683   4.175   0.423 -0.5254 -0.2001  0.1373
 7462SOL    HW134022   2.755   4.230   0.453 -0.9317 -0.8236  2.2528
 7462SOL    HW234023   2.649   4.144   0.507 -0.2281  1.4939  0.8760
 7463SOL     OW34024   1.592   3.009  11.522  0.1653 -0.1537 -0.2069
 7463SOL    HW134025   1.585   3.087  11.467 -1.3018 -0.2199 -0.1112
 7463SOL    HW234026   1.533   3.034  11.593  2.0139 -1.2339  1.7106
 7464SOL     OW34027   4.011   0.155   2.018 -0.1708 -0.3377  0.1125
 7464SOL    HW134028   3.967   0.230   2.056 -0.2319 -0.0335 -0.5476
 7464SOL    HW234029   3.945   0.086   2.022  0.3577 -0.8761 -0.2889
 7465SOL     OW34030   3.428   2.937   4.208  0.6346  0.2752  0.6146
 7465SOL    HW134031   3.496   2.893   4.259  0.9656  0.9818  0.7734
 7465SOL    HW234032   3.354   2.876   4.213  1.1855 -0.3056  1.7477
 7466SOL     OW34033   0.050   3.535  10.956 -0.3075  0.5508  0.6422
 7466SOL    HW134034   0.134   3.489  10.959 -1.3061 -1.3615 -1.2078
 7466SOL    HW234035   0.035   3.549  10.863 -2.0923 -1.4770  0.6334
 7467SOL     OW34036   3.140   0.152   7.028 -0.2641 -0.0410 -0.2487
 7467SOL    HW134037   3.122   0.075   7.082 -0.0598  0.0560 -0.0416
 7467SOL    HW234038   3.153   0.222   7.092  1.2675 -0.8624  0.3325
 7468SOL     OW34039   2.640   1.528   3.865 -0.0633  1.0737 -0.0398
 7468SOL    HW134040   2.708   1.522   3.932 -0.5200 -2.2898  0.1163
 7468SOL    HW234041   2.622   1.439   3.835  1.4805  1.1564 -1.1920
 7469SOL     OW34042   3.495   2.294   2.292  0.1795  0.2487 -0.0321
 7469SOL    HW134043   3.502   2.282   2.387 -0.3230 -1.1180 -0.1608
 7469SOL    HW234044   3.415   2.242   2.290  1.5288 -1.7231 -2.7897
 7470SOL     OW34045   2.815   1.141  11.371 -0.2571 -0.7682 -0.5795
 7470SOL    HW134046   2.873   1.070  11.398  1.4621  0.4471 -1.0346
 7470SOL    HW234047   2.885   1.192  11.330  1.4593 -0.9866  2.0409
 7471SOL     OW34048   3.601   3.539   2.534  0.2490 -0.5270 -0.4082
 7471SOL    HW134049   3.681   3.514   2.581 -0.4708  1.0872  1.6795
 7471SOL    HW234050   3.539   3.471   2.557 -1.1176  0.3778 -1.4433
 7472SOL     OW34051   1.367   3.169  13.912  0.2817  0.0708  1.1662
 7472SOL    HW134052   1.331   3.116  13.841 -2.2593  2.0391  0.9889
 7472SOL    HW234053   1.310   3.246  13.904 -0.1284 -0.5597 -2.0988
 7473SOL     OW34054   4.113   1.557   6.581 -0.1257 -0.3960 -0.0989
 7473SOL    HW134055   4.073   1.485   6.629 -0.4718 -0.0471  0.1296
 7473SOL    HW234056   4.155   1.512   6.507  1.0030 -1.6834  1.3331
 7474SOL     OW34057   0.708   1.120  16.838 -0.1517  0.4636  0.3900
 7474SOL    HW134058   0.662   1.063  16.777  1.7301 -0.3440 -0.2735
 7474SOL    HW234059   0.638   1.165  16.885 -0.5191 -0.2639  0.5472
 7475SOL     OW34060   0.283   0.757   8.841 -0.1969  0.4214 -0.0002
 7475SOL    HW134061   0.309   0.680   8.791  0.7393 -0.0011  1.1262
 7475SOL    HW234062   0.306   0.828   8.781  0.5151  0.8432  0.7706
 7476SOL     OW34063   3.598   1.557  15.012 -0.2022 -0.1572 -0.2721
 7476SOL    HW134064   3.620   1.467  15.034  1.1620 -0.0640 -1.2770
 7476SOL    HW234065   3.606   1.586  15.103 -1.1922  1.2561 -0.6322
 7477SOL     OW34066   0.957   4.681   9.877 -0.1000  0.1204  0.1819
 7477SOL    HW134067   1.038   4.638   9.905 -0.8777 -0.7375  1.1354
 7477SOL    HW234068   0.972   4.698   9.784  1.0791 -0.6026  0.2297
 7478SOL     OW34069   3.077   0.367   1.776  0.0465  0.1294 -0.0303
 7478SOL    HW134070   3.166   0.391   1.753  0.3609 -1.3948 -0.3935
 7478SOL    HW234071   3.070   0.402   1.865 -0.1948 -0.6108  0.2487
 7479SOL     OW34072   4.118   3.988  17.521 -0.4846 -0.3495  0.1843
 7479SOL    HW134073   4.127   3.910  17.576 -0.8171  0.4587  1.3667
 7479SOL    HW234074   4.185   4.049  17.552  0.0234 -0.6319 -0.3448
 7480SOL     OW34075   0.383   1.840   3.738  0.2712 -0.1286  0.0842
 7480SOL    HW134076   0.363   1.871   3.827  1.3219  1.3266 -0.2012
 7480SOL    HW234077   0.305   1.870   3.692 -0.0904  0.7137  1.2541
 7481SOL     OW34078   0.764   2.880   2.403 -0.4316 -0.1267 -0.1037
 7481SOL    HW134079   0.751   2.963   2.450  0.5202  0.1525 -0.3306
 7481SOL    HW234080   0.822   2.824   2.455  2.7121  1.2155 -2.1131
 7482SOL     OW34081   3.315   4.463   1.265 -0.2380  0.1047 -0.4340
 7482SOL    HW134082   3.350   4.538   1.313  2.2166 -0.8678 -0.7631
 7482SOL    HW234083   3.234   4.501   1.230  0.6902  2.2145 -0.2988
 7483SOL     OW34084   2.166   3.589  14.214  0.4748  0.4944 -0.4674
 7483SOL    HW134085   2.089   3.593  14.157 -0.0986 -0.1783  0.2472
 7483SOL    HW234086   2.151   3.516  14.274  2.5700  0.6450  0.2456
 7484SOL     OW34087   0.386   2.832  12.205 -0.2438 -0.1279  0.0945
 7484SOL    HW134088   0.358   2.799  12.119  0.1967  1.5860 -0.7064
 7484SOL    HW234089   0.422   2.752  12.244 -2.8661 -1.3816 -0.0916
 7485SOL     OW34090   2.456   2.546  17.000 -0.2818  0.3321 -0.1636
 7485SOL    HW134091   2.533   2.601  16.988  0.4497 -0.8213 -0.7435
 7485SOL    HW234092   2.456   2.544  17.096 -0.7210 -0.4923 -0.1859
 7486SOL     OW34093   1.277   4.136   2.742 -0.1429 -0.1934 -0.2115
 7486SOL    HW134094   1.251   4.217   2.786  0.1564  0.9328 -2.0764
 7486SOL    HW234095   1.312   4.173   2.661 -1.6921  2.1168  0.1671
 7487SOL     OW34096   3.618   2.530  15.807 -0.6276  0.2674  0.3772
 7487SOL    HW134097   3.658   2.608  15.769 -0.4613  0.5721  1.1811
 7487SOL    HW234098   3.651   2.459  15.752  1.0597 -0.1539  1.9329
 7488SOL     OW34099   3.502   0.729   8.747  0.7143  0.0053 -0.1207
 7488SOL    HW134100   3.434   0.668   8.774  0.2218  0.1192 -1.1051
 7488SOL    HW234101   3.578   0.671   8.746  0.3144 -0.5137 -0.1913
 7489SOL     OW34102   2.283   0.667   7.415 -0.2050 -0.0484 -0.8665
 7489SOL    HW134103   2.247   0.753   7.393 -0.6146  0.6434  2.5916
 7489SOL    HW234104   2.371   0.684   7.448 -0.4057  1.6216 -1.1769
 7490SOL     OW34105   1.336   3.083   0.451  0.2639 -0.5766 -0.1923
 7490SOL    HW134106   1.430   3.062   0.456  0.4692  0.0755 -1.3326
 7490SOL    HW234107   1.327   3.081   0.356 -0.6063 -2.6350 -0.0490
 7491SOL     OW34108   2.860   3.002   9.262  0.2349 -0.5826  0.5101
 7491SOL    HW134109   2.922   3.046   9.319  0.6276 -1.8018  1.0249
 7491SOL    HW234110   2.796   3.073   9.265 -1.3027 -1.9774  1.1151
 7492SOL     OW34111   0.489   2.411   3.243  0.2034 -0.5056 -0.1712
 7492SOL    HW134112   0.469   2.357   3.167  1.0894  1.4986 -1.8476
 7492SOL    HW234113   0.419   2.475   3.252  0.4189 -0.0969 -1.4126
 7493SOL     OW34114   0.469   1.664  11.775  0.3040  0.2051 -0.1001
 7493SOL    HW134115   0.502   1.754  11.777  0.2840  0.2859 -2.6802
 7493SOL    HW234116   0.380   1.673  11.808 -0.4899  0.0572 -2.2060
 7494SOL     OW34117   0.702   2.374   5.469 -0.3308  0.4677  0.2936
 7494SOL    HW134118   0.787   2.335   5.450 -0.6321  0.0145 -0.1023
 7494SOL    HW234119   0.715   2.468   5.456  1.6532  0.4259  1.7862
 7495SOL     OW34120   2.329   0.486  17.318 -0.2681  0.0129 -0.0864
 7495SOL    HW134121   2.349   0.442  17.401  0.3901 -1.3650 -0.9708
 7495SOL    HW234122   2.367   0.570  17.344 -2.1184  1.2871 -1.5631
 7496SOL     OW34123   2.799   1.664   1.063 -0.2589  0.1768  0.0244
 7496SOL    HW134124   2.811   1.719   0.985  0.8824  1.1239  0.8642
 7496SOL    HW234125   2.889   1.636   1.079 -0.1630 -0.2503 -1.2504
 7497SOL     OW34126   0.092   0.871  16.864  0.0054 -0.3446 -0.2343
 7497SOL    HW134127   0.144   0.942  16.825  0.2465  0.3292  1.2783
 7497SOL    HW234128   0.093   0.807  16.793  0.6268  0.9526 -1.3924
 7498SOL     OW34129   1.822   3.699   8.533 -0.2436 -0.1306 -0.1976
 7498SOL    HW134130   1.818   3.792   8.557 -0.4645  0.5338 -2.8632
 7498SOL    HW234131   1.917   3.687   8.538 -0.0240  0.7822 -2.2358
 7499SOL     OW34132   2.482   0.659   3.557  0.3667 -0.5747 -0.4833
 7499SOL    HW134133   2.454   0.644   3.466 -2.2991  2.4075 -0.1563
 7499SOL    HW234134   2.414   0.618   3.610  1.3989 -0.2062  1.1144
 7500SOL     OW34135   1.977   0.700   7.649 -0.5392 -0.6066 -0.3311
 7500SOL    HW134136   2.039   0.761   7.608  1.6509 -1.4083  1.7784
 7500SOL    HW234137   1.896   0.705   7.598 -1.0651 -0.5711  0.5108
 7501SOL     OW34138   3.613   1.916   4.041  0.4122  0.2319  0.7875
 7501SOL    HW134139   3.646   1.912   4.130  0.0887 -0.1169  0.8934
 7501SOL    HW234140   3.686   1.876   3.993 -1.2180  1.4910 -2.7802
 7502SOL     OW34141   3.627   4.047   8.112  0.0775 -0.0234  0.0559
 7502SOL    HW134142   3.579   4.092   8.181 -2.4718 -0.4091 -1.4804
 7502SOL    HW234143   3.702   4.104   8.097 -0.2355  0.9667  2.2929
 7503SOL     OW34144   0.561   3.323  14.336 -0.0884  0.6984 -0.2942
 7503SOL    HW134145   0.642   3.295  14.293 -1.9774 -3.3878 -1.2302
 7503SOL    HW234146   0.514   3.251  14.378  1.0020 -0.6912 -1.4455
 7504SOL     OW34147   1.841   4.412  15.699 -0.5610  0.1856  0.0099
 7504SOL    HW134148   1.800   4.484  15.747 -0.1243 -1.8260  3.4127
 7504SOL    HW234149   1.858   4.459  15.618 -0.2802 -0.8349 -0.5207
 7505SOL     OW34150   2.713   2.139   1.818 -0.0124  0.2325  0.1582
 7505SOL    HW134151   2.705   2.212   1.757  1.2258  0.0858 -0.1707
 7505SOL    HW234152   2.726   2.070   1.753 -2.4758 -1.0282  0.9966
 7506SOL     OW34153   1.014   1.794   3.520  0.0925 -0.0693  0.6968
 7506SOL    HW134154   0.981   1.881   3.495 -0.3020 -0.0107  1.4189
 7506SOL    HW234155   1.096   1.783   3.472  0.6098 -2.4926  2.1513
 7507SOL     OW34156   2.978   0.322   5.201 -0.1743 -0.1439 -0.0613
 7507SOL    HW134157   2.914   0.345   5.134 -2.5251  0.5901  2.3944
 7507SOL    HW234158   3.056   0.346   5.151  0.7963 -1.2184  0.9476
 7508SOL     OW34159   0.072   2.748   4.946  0.0247 -0.4305  0.4914
 7508SOL    HW134160   0.158   2.734   4.986  0.6167 -0.3270 -0.7523
 7508SOL    HW234161   0.095   2.767   4.855 -0.2615 -1.2877  0.2441
 7509SOL     OW34162   3.087   1.354   5.435  0.3809 -0.4387 -0.1775
 7509SOL    HW134163   3.025   1.423   5.458  1.2053  0.1260  0.3721
 7509SOL    HW234164   3.089   1.306   5.518 -2.0844 -0.5801 -0.2004
 7510SOL     OW34165   3.738   1.168   8.559 -0.4262  0.0224 -1.0723
 7510SOL    HW134166   3.723   1.084   8.603 -1.0718  1.1220  0.8323
 7510SOL    HW234167   3.680   1.228   8.606  0.2005 -1.5028  1.6395
 7511SOL     OW34168   4.341   4.570   5.547  0.1035 -0.0873 -0.0910
 7511SOL    HW134169   4.299   4.507   5.605  0.1297 -1.6413 -1.7706
 7511SOL    HW234170   4.325   4.534   5.460  2.0186 -2.9991  0.7705
 7512SOL     OW34171   2.130   3.208  16.681  0.0812  0.5061 -0.1288
 7512SOL    HW134172   2.118   3.207  16.586 -1.7532 -1.0834  0.1109
 7512SOL    HW234173   2.160   3.117  16.687  0.6858  0.6376 -1.1619
 7513SOL     OW34174   1.065   0.872   8.062 -0.2465 -0.0463  0.0419
 7513SOL    HW134175   1.154   0.903   8.076 -0.3102  0.4583 -0.6589
 7513SOL    HW234176   1.009   0.949   8.046  0.5446  0.7405  1.0600
 7514SOL     OW34177   2.490   0.902   3.076 -0.0596 -0.2205 -0.0799
 7514SOL    HW134178   2.459   0.989   3.102 -1.7136 -0.5689 -0.8755
 7514SOL    HW234179   2.413   0.849   3.098 -0.0532  1.0144  2.9746
 7515SOL     OW34180   2.343   2.898   0.907 -0.4073 -0.3476  0.7283
 7515SOL    HW134181   2.414   2.838   0.928  0.7750  0.1223 -1.9888
 7515SOL    HW234182   2.359   2.919   0.815  2.1319 -3.1282  0.5692
 7516SOL     OW34183   1.616   1.559   8.074  0.2232  0.3155 -0.5323
 7516SOL    HW134184   1.674   1.635   8.078  1.0320 -0.4156  1.5757
 7516SOL    HW234185   1.567   1.581   8.153 -0.4506 -2.4605 -0.1811
 7517SOL     OW34186   2.867   1.726   8.021  0.2742 -0.9480  0.7160
 7517SOL    HW134187   2.962   1.721   8.030  0.5403  0.8974 -0.8813
 7517SOL    HW234188   2.841   1.659   8.084 -0.0435 -1.1832  0.3337
 7518SOL     OW34189   0.630   2.288  17.518 -0.0454 -0.4840  0.2192
 7518SOL    HW134190   0.573   2.363  17.534  1.2036  0.3549  0.7928
 7518SOL    HW234191   0.710   2.340  17.516 -0.5662  0.2751 -1.0268
 7519SOL     OW34192   2.823   3.165  12.789 -0.0088  0.3118  0.0558
 7519SOL    HW134193   2.837   3.195  12.879  0.2855 -2.9055  1.0535
 7519SOL    HW234194   2.786   3.080  12.810 -1.7981  1.4974  1.6722
 7520SOL     OW34195   4.392   4.054   3.068 -0.2752 -0.2386 -0.1530
 7520SOL    HW134196   4.343   4.133   3.088 -1.8924 -0.7402 -2.0651
 7520SOL    HW234197   4.454   4.045   3.140 -0.9588 -1.6294  0.2739
 7521SOL     OW34198   2.356   3.871   5.204 -0.3612 -0.0306 -0.1722
 7521SOL    HW134199   2.428   3.864   5.141 -0.1847  1.9511 -0.1943
 7521SOL    HW234200   2.387   3.899   5.291 -1.2497 -0.1898  0.1913
 7522SOL     OW34201   3.288   1.375   2.524 -0.1757  0.4294 -0.2118
 7522SOL    HW134202   3.204   1.359   2.481 -1.4151  0.4362  2.2515
 7522SOL    HW234203   3.322   1.449   2.473  2.5093 -0.3779  0.4121
 7523SOL     OW34204   1.387   1.034   4.101  0.1316  0.3424 -0.4322
 7523SOL    HW134205   1.325   1.082   4.046 -0.0503 -0.7467 -1.1804
 7523SOL    HW234206   1.440   0.979   4.043  0.7845  0.2149  0.3013
 7524SOL     OW34207   3.178   0.099   8.272  0.6527  0.6327 -0.1792
 7524SOL    HW134208   3.125   0.052   8.207  1.2438  0.9119 -0.8626
 7524SOL    HW234209   3.262   0.099   8.227  2.2002 -1.1686  2.7391
 7525SOL     OW34210   0.713   3.965   8.885  0.7454 -1.1090 -0.1946
 7525SOL    HW134211   0.779   3.908   8.925 -1.0949 -1.0183  2.9919
 7525SOL    HW234212   0.733   4.048   8.928 -0.2031 -1.0934  0.2151
 7526SOL     OW34213   3.162   3.781  15.098  0.7300  0.5146  0.0296
 7526SOL    HW134214   3.107   3.821  15.031  1.8678  0.0615 -1.1891
 7526SOL    HW234215   3.101   3.720  15.138 -0.7192  0.4573 -2.2655
 7527SOL     OW34216   2.944   0.272   4.552  0.0604  0.3255 -0.8440
 7527SOL    HW134217   2.936   0.183   4.587 -0.7818  0.1052 -1.5850
 7527SOL    HW234218   2.935   0.256   4.458  0.1190  1.8833 -1.1172
 7528SOL     OW34219   3.669   3.438  14.131 -0.5685  0.3122 -0.1747
 7528SOL    HW134220   3.715   3.509  14.085  0.6815 -1.2365 -1.2995
 7528SOL    HW234221   3.717   3.362  14.099 -0.9114 -0.9406  2.3145
 7529SOL     OW34222   3.656   1.167   7.327 -0.1026  0.0410  0.6600
 7529SOL    HW134223   3.593   1.236   7.348  0.5792  2.1667 -4.2041
 7529SOL    HW234224   3.680   1.194   7.238 -1.1791 -1.8252 -0.2048
 7530SOL     OW34225   0.058   2.820  16.162  0.0303  0.5902 -0.3099
 7530SOL    HW134226   0.108   2.826  16.243 -0.7222 -1.1070  0.2720
 7530SOL    HW234227   0.045   2.913  16.144 -1.3599  0.5220  0.3297
 7531SOL     OW34228   4.386   0.542   6.606  0.5787 -0.2535 -0.0550
 7531SOL    HW134229   4.425   0.456   6.593 -1.0667 -1.1425  0.9455
 7531SOL    HW234230   4.417   0.561   6.695  0.5854  0.6134 -0.2434
 7532SOL     OW34231   0.525   3.506   0.825 -0.0605  0.2638  0.1601
 7532SOL    HW134232   0.522   3.455   0.907 -1.4520 -0.4803 -0.3584
 7532SOL    HW234233   0.618   3.528   0.814  0.0874 -0.2836  0.3105
 7533SOL     OW34234   1.195   3.852   8.090  0.3225 -0.0627 -0.5409
 7533SOL    HW134235   1.150   3.792   8.031 -0.0784  0.4008 -0.6986
 7533SOL    HW234236   1.241   3.803   8.159  0.5421 -2.3385 -2.2907
 7534SOL     OW34237   4.541   4.426   2.373  0.1736  0.5480 -0.3559
 7534SOL    HW134238   4.506   4.363   2.436  0.2709  0.5604 -0.2894
 7534SOL    HW234239   4.462   4.478   2.356 -0.3938 -0.7071 -1.5930
 7535SOL     OW34240   0.170   1.625   3.884 -0.1670 -0.2714 -0.5275
 7535SOL    HW134241   0.218   1.613   3.966 -1.9440 -0.1159  0.5318
 7535SOL    HW234242   0.193   1.711   3.849 -3.8827  1.2430  0.7165
 7536SOL     OW34243   0.756   2.247   7.109 -0.4322  0.1923 -0.1573
 7536SOL    HW134244   0.751   2.164   7.062 -0.9629 -0.2903  0.7729
 7536SOL    HW234245   0.693   2.242   7.180 -1.7200 -0.5496 -1.3445
 7537SOL     OW34246   2.318   0.320  16.808  0.1570  0.3820 -0.0156
 7537SOL    HW134247   2.402   0.335  16.766 -0.2750 -0.6042 -1.2363
 7537SOL    HW234248   2.329   0.326  16.903  0.2274 -2.8379  0.1977
 7538SOL     OW34249   2.959   1.855   1.319 -0.1380 -0.4397  0.5313
 7538SOL    HW134250   3.042   1.867   1.273 -0.4794  0.2240  0.0958
 7538SOL    HW234251   2.905   1.923   1.280  0.0565 -1.4930 -1.5369
 7539SOL     OW34252   4.460   0.054  13.353 -0.1204 -0.0061  0.0396
 7539SOL    HW134253   4.552   0.081  13.359 -0.0996  0.1028 -0.8976
 7539SOL    HW234254   4.476   4.711  13.303  1.0479  0.4697 -0.3312
 7540SOL     OW34255   3.247   3.948   6.522 -0.5627  0.3941  0.2716
 7540SOL    HW134256   3.313   4.011   6.492 -3.5675  2.7298 -1.4516
 7540SOL    HW234257   3.202   4.007   6.582  1.5134  0.7877  1.4538
 7541SOL     OW34258   0.756   1.801   6.951 -0.5455  0.2640 -0.4216
 7541SOL    HW134259   0.791   1.854   7.023 -1.5283 -0.6998  0.7459
 7541SOL    HW234260   0.729   1.722   6.998 -0.6024  0.9642  0.7078
 7542SOL     OW34261   3.877   3.420   7.290  0.2078 -0.0208  0.1210
 7542SOL    HW134262   3.876   3.512   7.261 -2.0350 -0.0217  0.2307
 7542SOL    HW234263   3.790   3.388   7.269  0.8523 -1.4589 -0.3485
 7543SOL     OW34264   2.382   1.621  11.768  0.2597 -0.2626 -0.1711
 7543SOL    HW134265   2.385   1.540  11.718 -0.3196 -0.4553  0.1128
 7543SOL    HW234266   2.290   1.642  11.756 -0.6669 -3.0147  2.2336
 7544SOL     OW34267   3.678   2.221   8.168  0.4753 -0.0308  0.0781
 7544SOL    HW134268   3.703   2.314   8.167  1.7078 -0.3824 -0.8906
 7544SOL    HW234269   3.613   2.221   8.239  0.6448  0.1575  0.2335
 7545SOL     OW34270   4.072   2.377   5.199  0.1038  0.4771 -0.8374
 7545SOL    HW134271   4.046   2.405   5.287 -1.7941  1.1018 -1.6037
 7545SOL    HW234272   4.140   2.310   5.206 -1.0092 -0.6337 -0.6883
 7546SOL     OW34273   4.353   0.896   7.327 -0.1043 -0.4020 -0.4062
 7546SOL    HW134274   4.373   0.805   7.349  1.2094  0.0348  0.1537
 7546SOL    HW234275   4.390   0.900   7.238 -1.0992  1.3267 -0.7480
 7547SOL     OW34276   1.479   3.396  16.166 -0.3802  0.2225 -0.0818
 7547SOL    HW134277   1.471   3.410  16.072 -0.1606 -0.3092 -0.1752
 7547SOL    HW234278   1.490   3.302  16.181  1.6772  0.2753 -1.3368
 7548SOL     OW34279   2.178   3.302  12.362  0.4682  0.0309 -0.7237
 7548SOL    HW134280   2.178   3.327  12.269  0.7945 -2.7274 -1.4489
 7548SOL    HW234281   2.269   3.323  12.385 -0.0388  1.9431 -0.4162
 7549SOL     OW34282   1.751   1.843  12.816 -0.2703  0.3073 -0.3205
 7549SOL    HW134283   1.686   1.792  12.865 -0.0382  2.5970  2.3661
 7549SOL    HW234284   1.821   1.778  12.816 -1.1625 -0.6570 -0.1690
 7550SOL     OW34285   0.515   3.707   7.154  0.4647 -0.1307  0.7144
 7550SOL    HW134286   0.572   3.636   7.185  0.8766  0.9972  2.5370
 7550SOL    HW234287   0.575   3.768   7.111  0.8784  0.2020  1.7626
 7551SOL     OW34288   1.863   1.916  12.129 -0.4736  0.5259  0.8540
 7551SOL    HW134289   1.806   1.946  12.199 -1.0723 -1.0038  1.0156
 7551SOL    HW234290   1.862   1.824  12.155 -0.7605  1.2243  3.3028
 7552SOL     OW34291   1.952   4.155   0.061  0.4484  0.0510  0.2623
 7552SOL    HW134292   1.976   4.210   0.135  0.8179 -1.1063  0.9947
 7552SOL    HW234293   1.952   4.070   0.106  1.3104  0.3906  0.8826
 7553SOL     OW34294   2.813   4.378   7.391  0.4934 -0.0753 -0.5346
 7553SOL    HW134295   2.840   4.286   7.393  0.9893  0.0725 -0.4839
 7553SOL    HW234296   2.720   4.365   7.410  1.0716  0.9219  3.0091
 7554SOL     OW34297   3.363   0.436   8.457 -0.0170  0.4988 -0.5343
 7554SOL    HW134298   3.296   0.368   8.454  0.9094 -0.5459  1.9905
 7554SOL    HW234299   3.334   0.497   8.389 -1.7413 -0.2964 -0.5174
 7555SOL     OW34300   0.935   1.758   1.464  0.3305  0.6113  0.1716
 7555SOL    HW134301   0.924   1.666   1.486  2.0001  0.7679  1.5973
 7555SOL    HW234302   0.985   1.792   1.538  0.5828  0.6497 -0.0158
 7556SOL     OW34303   2.047   2.762   8.590  0.0492 -0.0684  0.1216
 7556SOL    HW134304   2.095   2.784   8.670  1.5228  0.7168 -0.9633
 7556SOL    HW234305   2.026   2.670   8.604 -1.1202  0.1198 -0.3556
 7557SOL     OW34306   2.352   4.492   6.106  0.2427  0.1366 -0.1553
 7557SOL    HW134307   2.339   4.420   6.168 -0.5111  3.1911  3.2673
 7557SOL    HW234308   2.263   4.526   6.119 -0.7288 -0.8701 -4.1666
 7558SOL     OW34309   1.693   1.532   7.683 -0.2732  0.1439 -0.0220
 7558SOL    HW134310   1.625   1.555   7.746 -2.2324 -1.0803 -1.6967
 7558SOL    HW234311   1.745   1.613   7.683  0.3392 -0.2555  1.4451
 7559SOL     OW34312   4.519   3.430   0.876  0.0039  0.0814  0.6776
 7559SOL    HW134313   4.547   3.519   0.894  2.4081 -0.4456 -0.4577
 7559SOL    HW234314   4.507   3.422   0.782 -0.5375 -0.1851  0.7699
 7560SOL     OW34315   3.824   0.391   8.026 -0.0572  0.0007 -0.1460
 7560SOL    HW134316   3.813   0.477   7.986 -1.4113 -0.1101 -0.0003
 7560SOL    HW234317   3.810   0.420   8.116  0.2588 -1.6645  0.4486
 7561SOL     OW34318   2.656   2.647  15.286 -0.4957  0.2920  0.2924
 7561SOL    HW134319   2.572   2.632  15.244 -1.4034 -0.6545  2.4559
 7561SOL    HW234320   2.676   2.734  15.250 -1.5555 -0.1030 -1.2423
 7562SOL     OW34321   1.740   1.321  12.261  0.0671 -0.1811 -0.3339
 7562SOL    HW134322   1.746   1.294  12.170 -3.7661  1.8680 -1.2232
 7562SOL    HW234323   1.654   1.363  12.248  1.1607  1.9340 -0.7230
 7563SOL     OW34324   0.523   0.193   1.451  0.4355 -0.3591  0.1381
 7563SOL    HW134325   0.572   0.147   1.383 -2.2515 -1.5345 -1.0131
 7563SOL    HW234326   0.437   0.208   1.411 -0.6706  0.2028  2.7074
 7564SOL     OW34327   1.813   4.606  16.312 -0.1869 -0.4975  0.6425
 7564SOL    HW134328   1.742   4.543  16.300  1.1123 -2.1952  1.8336
 7564SOL    HW234329   1.762   4.686  16.325  1.1116  0.2145  1.4509
 7565SOL     OW34330   2.124   1.591   5.351  0.6227  0.4654  0.2988
 7565SOL    HW134331   2.172   1.639   5.419  0.5346  3.9091 -2.1182
 7565SOL    HW234332   2.089   1.666   5.303  0.1986  0.8263  1.1658
 7566SOL     OW34333   1.057   3.097   2.330  0.3854 -0.5006 -0.0972
 7566SOL    HW134334   1.138   3.067   2.371  1.8201  2.1611 -0.9497
 7566SOL    HW234335   1.091   3.178   2.290  3.0681 -0.7424  1.6562
 7567SOL     OW34336   2.866   4.426   4.030  0.3046  0.6015 -0.2287
 7567SOL    HW134337   2.850   4.517   4.004  1.3241  0.7983 -0.1619
 7567SOL    HW234338   2.779   4.407   4.064  0.1006  1.1516 -0.4409
 7568SOL     OW34339   4.366   3.742  10.492 -0.2621 -0.1198  0.1786
 7568SOL    HW134340   4.438   3.728  10.554 -1.8283 -2.3132  1.5105
 7568SOL    HW234341   4.347   3.836  10.496 -2.8296 -0.6483  0.6523
 7569SOL     OW34342   4.421   1.613   5.812 -0.3539 -0.5207 -0.4394
 7569SOL    HW134343   4.451   1.524   5.797  0.1688 -0.2202 -1.1751
 7569SOL    HW234344   4.490   1.639   5.874 -2.6013  0.2891  1.7448
 7570SOL     OW34345   2.521   0.735   6.625 -0.3642 -0.0923  0.2854
 7570SOL    HW134346   2.524   0.688   6.541 -0.2863  1.8335 -0.7793
 7570SOL    HW234347   2.590   0.686   6.670  0.4852  1.0503  0.2113
 7571SOL     OW34348   2.198   0.499   0.681  0.1924  0.1454  0.5746
 7571SOL    HW134349   2.237   0.586   0.674  0.6627 -0.2837 -2.1466
 7571SOL    HW234350   2.222   0.481   0.771 -2.6617 -1.9126  0.9143
 7572SOL     OW34351   4.159   4.510  15.920  0.5219 -0.6422  0.6528
 7572SOL    HW134352   4.107   4.452  15.864 -1.4154  2.1026 -0.3802
 7572SOL    HW234353   4.137   4.596  15.883 -2.5696 -1.4784  0.5458
 7573SOL     OW34354   3.542   3.339   6.039  0.3321  0.2239 -0.2594
 7573SOL    HW134355   3.537   3.405   5.970 -2.7496 -1.1556 -1.3598
 7573SOL    HW234356   3.449   3.333   6.060  0.3884 -0.0962 -0.1038
 7574SOL     OW34357   3.534   1.472   2.051  0.0655  0.0438  0.2674
 7574SOL    HW134358   3.555   1.540   2.114  0.4104  0.5127 -0.3602
 7574SOL    HW234359   3.438   1.467   2.060  0.0130  1.4006  0.4155
 7575SOL     OW34360   1.087   2.955   5.878  0.5343  0.8533  0.0675
 7575SOL    HW134361   1.069   2.986   5.968  2.5201 -0.3695  0.8775
 7575SOL    HW234362   1.052   2.867   5.869 -0.4492  1.2243  0.2485
 7576SOL     OW34363   4.198   4.014   5.074 -0.0424 -0.1307 -0.4463
 7576SOL    HW134364   4.137   3.945   5.048 -1.6549  1.5587 -1.1642
 7576SOL    HW234365   4.141   4.088   5.054 -1.6709 -1.2847  0.0096
 7577SOL     OW34366   3.174   0.203   8.663 -0.7405 -0.7070  0.1780
 7577SOL    HW134367   3.162   0.120   8.617 -0.7467  1.1924 -3.2684
 7577SOL    HW234368   3.128   0.250   8.593 -2.6080 -1.0096  1.1909
 7578SOL     OW34369   1.908   1.256   1.652 -0.0784 -0.1920 -0.5067
 7578SOL    HW134370   1.964   1.283   1.580  0.5915  0.6178  0.3100
 7578SOL    HW234371   1.921   1.336   1.703 -0.6408  0.0924 -0.8039
 7579SOL     OW34372   0.631   1.801  14.896 -0.9565 -0.4798 -0.8084
 7579SOL    HW134373   0.714   1.850  14.895 -1.7587  0.8592 -0.7868
 7579SOL    HW234374   0.636   1.762  14.808 -0.5347 -0.2362 -0.8920
 7580SOL     OW34375   2.691   3.610   3.134 -0.6941  0.7375 -0.3506
 7580SOL    HW134376   2.631   3.680   3.159  0.2865  0.6655  2.1455
 7580SOL    HW234377   2.667   3.544   3.200  1.3403  1.2487  0.8863
 7581SOL     OW34378   2.072   4.054   1.152  0.1128 -0.9851  0.0493
 7581SOL    HW134379   2.082   3.961   1.175 -0.8061 -1.3552 -1.0700
 7581SOL    HW234380   2.001   4.061   1.089  0.6577  3.2199 -0.0750
 7582SOL     OW34381   0.532   4.619  10.533 -0.1747  0.7230 -0.2427
 7582SOL    HW134382   0.581   4.570  10.599  0.4274 -1.9405 -2.6152
 7582SOL    HW234383   0.592   4.612  10.458  0.4456  0.0767  0.3092
 7583SOL     OW34384   2.101   3.232   7.707  0.6246 -0.3050 -0.4897
 7583SOL    HW134385   2.186   3.256   7.669  1.2750 -0.5836  0.7812
 7583SOL    HW234386   2.097   3.292   7.781 -0.0854 -3.1879  1.8235
 7584SOL     OW34387   4.636   2.117   3.335  0.0713 -0.2878  0.2731
 7584SOL    HW134388   4.637   2.107   3.240 -1.2915 -1.1617  0.3507
 7584SOL    HW234389   4.718   2.166   3.339 -0.0255 -0.2293  1.6015
 7585SOL     OW34390   1.472   4.130   9.943  0.6963  0.5548 -0.2819
 7585SOL    HW134391   1.515   4.216   9.948  2.0695 -0.2290  1.3358
 7585SOL    HW234392   1.385   4.156   9.911  0.6122  0.2534 -0.2964
 7586SOL     OW34393   1.007   3.357  17.661 -0.2957 -0.1842  0.1034
 7586SOL    HW134394   0.966   3.275  17.631 -0.1700 -0.0103 -0.5454
 7586SOL    HW234395   0.930   3.414  17.665 -0.7160 -0.5298 -2.7768
 7587SOL     OW34396   1.972   1.170  12.348  0.8199 -1.0010 -0.5736
 7587SOL    HW134397   2.012   1.242  12.299  0.3699  1.1658  2.2372
 7587SOL    HW234398   1.918   1.121  12.286 -0.6028  1.1659 -1.0417
 7588SOL     OW34399   2.126   3.241   3.128 -0.1733 -0.3828  0.0523
 7588SOL    HW134400   2.201   3.228   3.070  0.1744 -1.1213  0.6699
 7588SOL    HW234401   2.057   3.207   3.071  0.7479 -2.7030  0.3000
 7589SOL     OW34402   4.703   0.436   2.565  0.0810 -0.2394  0.2695
 7589SOL    HW134403   0.030   0.377   2.527 -2.3927 -2.5199 -0.3381
 7589SOL    HW234404   4.676   0.493   2.492 -1.1766 -1.7076 -0.4066
 7590SOL     OW34405   3.864   0.117   9.617  0.4526 -0.0909  0.1854
 7590SOL    HW134406   3.945   0.067   9.619  1.5440  1.5309 -3.5391
 7590SOL    HW234407   3.804   0.043   9.605 -1.1509  0.6245  3.8519
 7591SOL     OW34408   0.272   3.175   4.056 -0.1155 -0.0102  0.3872
 7591SOL    HW134409   0.281   3.240   3.986 -0.9862  1.6049  1.7652
 7591SOL    HW234410   0.225   3.104   4.013 -2.5819  0.6128  2.0531
 7592SOL     OW34411   4.312   3.910   7.369 -0.9068  0.3562  1.1166
 7592SOL    HW134412   4.400   3.926   7.402  0.3279 -1.4765 -1.3341
 7592SOL    HW234413   4.288   3.998   7.338  0.5150  0.8318  1.4037
 7593SOL     OW34414   3.702   4.204   9.056  0.1358  0.4629 -0.6670
 7593SOL    HW134415   3.649   4.255   9.117  3.2522  3.0596 -0.1744
 7593SOL    HW234416   3.724   4.271   8.992  1.0804  0.9498  0.1783
 7594SOL     OW34417   2.135   4.674   5.033 -0.0996  0.4404  0.3923
 7594SOL    HW134418   2.207   4.693   5.092 -0.4889 -0.9690  1.3348
 7594SOL    HW234419   2.060   4.713   5.078 -1.0709 -2.5043  1.3440
 7595SOL     OW34420   3.965   0.714  16.831 -0.4885 -0.1179  0.1693
 7595SOL    HW134421   4.009   0.629  16.831 -0.6309 -0.1923  0.5531
 7595SOL    HW234422   3.992   0.751  16.915 -3.1875 -0.9782  1.4456
 7596SOL     OW34423   1.638   4.410  12.068  0.2991  1.0982  0.0065
 7596SOL    HW134424   1.671   4.466  12.137  1.0738  0.8708 -0.1756
 7596SOL    HW234425   1.542   4.410  12.075  0.3163 -2.4138  0.4735
 7597SOL     OW34426   0.749   2.097   8.809 -0.3882  0.8309  0.2717
 7597SOL    HW134427   0.783   2.016   8.846  0.0333  1.3028  0.9236
 7597SOL    HW234428   0.738   2.065   8.720 -0.7363 -0.3371  0.7287
 7598SOL     OW34429   0.870   0.360   4.421  0.3301  0.2447  0.1486
 7598SOL    HW134430   0.812   0.426   4.460 -1.2012 -1.0646  0.0472
 7598SOL    HW234431   0.832   0.277   4.448  4.1259 -1.2705  0.9094
 7599SOL     OW34432   4.492   0.917  11.854  0.3909 -0.5181 -0.0592
 7599SOL    HW134433   4.570   0.949  11.899 -0.2824  0.2780  0.5355
 7599SOL    HW234434   4.455   0.862  11.923 -0.4078  1.7312  1.3050
 7600SOL     OW34435   0.800   3.524  17.662 -0.5823 -0.7204 -0.5304
 7600SOL    HW134436   0.719   3.481  17.636 -0.8946 -2.1245  2.8060
 7600SOL    HW234437   0.784   3.606  17.615 -1.7617  0.6330  2.2097
 7601SOL     OW34438   0.992   0.300   6.617 -0.4801  0.3764  0.2120
 7601SOL    HW134439   1.010   0.327   6.707  1.4618 -0.2283  0.0093
 7601SOL    HW234440   0.966   0.386   6.585 -1.5012  0.8483  2.3355
 7602SOL     OW34441   0.887   0.764   7.813 -0.0074 -0.6660 -0.5582
 7602SOL    HW134442   0.936   0.684   7.835 -0.1016 -1.1898 -2.2354
 7602SOL    HW234443   0.918   0.776   7.723  0.9750  1.2334  0.0291
 7603SOL     OW34444   3.812   2.232  12.601  0.3606 -0.2245  0.3017
 7603SOL    HW134445   3.786   2.203  12.688 -1.1668  0.3678  0.0444
 7603SOL    HW234446   3.907   2.226  12.610  0.6273  2.2133 -0.7952
 7604SOL     OW34447   1.919   2.177   5.703  0.1750  0.2854 -0.6463
 7604SOL    HW134448   1.887   2.263   5.677 -0.7178  0.3643  0.7336
 7604SOL    HW234449   1.872   2.171   5.786 -0.2887 -2.8636 -1.1249
 7605SOL     OW34450   0.465   4.662   2.974 -0.5675  0.4646  0.0266
 7605SOL    HW134451   0.554   4.670   3.007 -0.4812  2.2293 -0.6374
 7605SOL    HW234452   0.463   0.005   2.921 -0.6813  1.2986  1.2981
 7606SOL     OW34453   1.259   3.996   4.766  0.1858 -0.4750 -0.3644
 7606SOL    HW134454   1.306   4.028   4.689 -0.1383 -0.7226 -0.6656
 7606SOL    HW234455   1.319   3.922   4.777  0.4160 -0.0483  1.3751
 7607SOL     OW34456   2.578   2.892   4.214 -0.0614 -0.2715  0.1392
 7607SOL    HW134457   2.490   2.931   4.209  0.1274  0.0550 -0.6244
 7607SOL    HW234458   2.620   2.948   4.280 -1.1372  1.3022 -0.4969
 7608SOL     OW34459   0.374   1.953   6.631  0.1540 -0.5589 -0.3062
 7608SOL    HW134460   0.371   2.046   6.609  1.1743 -0.3049  0.6103
 7608SOL    HW234461   0.323   1.908   6.564 -1.8941  0.5770  0.5013
 7609SOL     OW34462   1.331   3.828   9.327 -0.3136  0.1396  0.3541
 7609SOL    HW134463   1.361   3.747   9.367  1.6850 -0.3868 -2.2205
 7609SOL    HW234464   1.312   3.887   9.400 -1.3760  1.2533 -0.8000
 7610SOL     OW34465   1.156   0.695   0.414 -0.5050  0.2643 -0.2580
 7610SOL    HW134466   1.100   0.721   0.486 -0.0161  2.0201 -0.4998
 7610SOL    HW234467   1.106   0.731   0.340 -1.0695 -1.5464 -0.7765
 7611SOL     OW34468   4.341   1.025   9.112 -0.3103  0.9028  0.0271
 7611SOL    HW134469   4.402   1.086   9.153  1.8999  0.7935 -3.0624
 7611SOL    HW234470   4.386   0.997   9.032 -1.8816  0.1607 -0.5941
 7612SOL     OW34471   3.536   0.554   5.505 -0.1651  0.0621 -0.3011
 7612SOL    HW134472   3.538   0.601   5.422 -2.0333  0.2373 -0.2494
 7612SOL    HW234473   3.614   0.587   5.549  0.4884 -0.6708 -0.9124
 7613SOL     OW34474   2.342   3.117   1.089  0.1912  0.1308  0.0177
 7613SOL    HW134475   2.294   3.179   1.034  0.1422 -0.9249 -1.1198
 7613SOL    HW234476   2.360   3.036   1.042  1.2382  0.6182 -0.4315
 7614SOL     OW34477   4.490   3.775  11.751 -0.4795  0.0458  0.1348
 7614SOL    HW134478   4.570   3.776  11.803 -1.5521 -0.8786  1.7892
 7614SOL    HW234479   4.452   3.860  11.775 -0.1912  0.2128 -0.0064
 7615SOL     OW34480   0.756   4.195   3.558  0.7529  0.3572 -0.2100
 7615SOL    HW134481   0.713   4.263   3.508 -1.1587 -1.6116 -1.2227
 7615SOL    HW234482   0.697   4.125   3.530  1.3420 -0.4243  0.4953
 7616SOL     OW34483   1.622   4.247   6.524 -0.4112  0.7998  0.1461
 7616SOL    HW134484   1.654   4.168   6.569  1.5193  1.8302  0.5428
 7616SOL    HW234485   1.552   4.278   6.581  0.4148 -1.3939  2.3647
 7617SOL     OW34486   1.526   2.280  10.651  0.6483  0.1148  0.1825
 7617SOL    HW134487   1.505   2.373  10.651 -1.3677 -0.3335  0.1003
 7617SOL    HW234488   1.500   2.253  10.563 -0.4918 -0.1811  0.5964
 7618SOL     OW34489   4.626   0.771   8.095 -0.4132  0.6506 -0.0773
 7618SOL    HW134490   4.572   0.721   8.156 -0.1309  0.5024  0.0505
 7618SOL    HW234491   4.633   0.712   8.020 -0.5134  0.5134  0.0198
 7619SOL     OW34492   4.292   4.435   4.639 -0.0415  0.0559 -0.3589
 7619SOL    HW134493   4.247   4.501   4.586  1.6138  2.3591  1.1160
 7619SOL    HW234494   4.291   4.356   4.585 -2.0959 -1.4300  1.8709
 7620SOL     OW34495   0.780   0.898   4.072 -0.5181 -0.0100 -0.3263
 7620SOL    HW134496   0.685   0.892   4.062 -0.5019 -0.1060 -0.4280
 7620SOL    HW234497   0.798   0.934   3.985  2.3988  2.8230  1.4299
 7621SOL     OW34498   0.137   1.170  16.135 -0.4071 -0.3619  0.1300
 7621SOL    HW134499   0.143   1.140  16.045 -2.7585  0.9318 -0.4678
 7621SOL    HW234500   0.103   1.095  16.183 -2.2797 -0.1309 -0.8373
 7622SOL     OW34501   0.452   2.983   8.810 -0.2377 -0.1077 -0.4083
 7622SOL    HW134502   0.444   2.999   8.716 -0.0657 -1.9051 -0.7233
 7622SOL    HW234503   0.510   3.055   8.834 -0.9107  0.2389  0.1897
 7623SOL     OW34504   4.734   3.910   4.145 -0.7932  0.8253 -0.1849
 7623SOL    HW134505   0.090   3.907   4.122 -0.2449 -0.9486  2.1926
 7623SOL    HW234506   4.703   3.830   4.101  3.0782 -0.6903 -0.1936
 7624SOL     OW34507   3.451   2.642   7.893 -0.0149 -0.0234 -0.0384
 7624SOL    HW134508   3.489   2.576   7.835 -2.1955 -1.5725  0.2999
 7624SOL    HW234509   3.430   2.606   7.979  1.6270 -2.1163 -0.5388
 7625SOL     OW34510   1.366   3.547   7.363 -0.0015  0.6331 -0.0987
 7625SOL    HW134511   1.296   3.530   7.300 -1.9587 -1.5757  2.6546
 7625SOL    HW234512   1.443   3.517   7.315  0.4848  0.8158  0.5650
 7626SOL     OW34513   3.748   3.394  10.925 -0.2258 -0.0414 -0.6383
 7626SOL    HW134514   3.753   3.489  10.913 -1.7257  0.3634  1.9939
 7626SOL    HW234515   3.743   3.402  11.020  1.1663  0.4946 -0.6080
 7627SOL     OW34516   2.344   2.772   3.987 -0.1122  0.4003  0.3517
 7627SOL    HW134517   2.299   2.791   4.069 -0.8031  0.0284  0.0593
 7627SOL    HW234518   2.290   2.834   3.938  0.1032  1.2058  1.1266
 7628SOL     OW34519   2.759   3.045  14.174  0.1808  0.8348  0.5291
 7628SOL    HW134520   2.741   2.957  14.208 -2.6015  0.1592 -2.6946
 7628SOL    HW234521   2.785   3.100  14.247 -2.8862  0.6736  1.7571
 7629SOL     OW34522   0.876   2.401  17.213  0.6765 -0.0668 -0.8777
 7629SOL    HW134523   0.903   2.317  17.250 -3.1787 -0.1708  1.6851
 7629SOL    HW234524   0.938   2.407  17.140 -0.0565 -0.6014 -1.5423
 7630SOL     OW34525   2.247   0.645  11.655 -0.4588 -0.3520  0.4404
 7630SOL    HW134526   2.199   0.706  11.599 -0.7719 -0.1643  0.9132
 7630SOL    HW234527   2.332   0.639  11.610 -0.3006  0.2623  0.6514
 7631SOL     OW34528   1.235   3.638   7.587  0.7971  0.6461  0.3084
 7631SOL    HW134529   1.167   3.570   7.589  0.9750  0.4769  0.7702
 7631SOL    HW234530   1.289   3.612   7.512 -1.9713 -0.6078 -1.2497
 7632SOL     OW34531   3.608   2.742  17.282  0.0573 -0.4744 -0.5261
 7632SOL    HW134532   3.572   2.681  17.217  0.1331 -0.7230 -0.3387
 7632SOL    HW234533   3.593   2.825  17.238 -2.8571 -0.0983  1.1372
 7633SOL     OW34534   2.841   0.499   8.290 -0.5582  0.1663 -0.2816
 7633SOL    HW134535   2.925   0.543   8.274 -0.1829 -0.9545 -1.3971
 7633SOL    HW234536   2.785   0.573   8.312  2.1411  0.6310  4.9836
 7634SOL     OW34537   2.446   3.533  17.352 -0.0821 -0.2581  0.0780
 7634SOL    HW134538   2.379   3.601  17.362 -0.0373  0.0517 -1.5724
 7634SOL    HW234539   2.394   3.464  17.393 -0.7866  0.3241  0.1638
 7635SOL     OW34540   0.445   2.362  12.901 -0.1338 -0.1687 -0.0517
 7635SOL    HW134541   0.497   2.313  12.838 -0.1397  1.7165 -1.5447
 7635SOL    HW234542   0.494   2.443  12.915  1.0935 -0.3609 -3.3209
 7636SOL     OW34543   3.400   3.200   9.857 -0.1436 -0.1072  0.6269
 7636SOL    HW134544   3.440   3.202   9.943 -0.6307  0.0961  0.8507
 7636SOL    HW234545   3.404   3.107   9.835 -1.5249  0.2670 -1.2165
 7637SOL     OW34546   2.937   2.572  15.313 -0.1302 -0.8141 -0.1728
 7637SOL    HW134547   2.842   2.577  15.326  0.0779  2.8370 -0.2369
 7637SOL    HW234548   2.949   2.624  15.234 -0.7878 -0.1574  0.1677
 7638SOL     OW34549   2.487   3.012   2.266 -0.3655 -0.0913 -0.4730
 7638SOL    HW134550   2.519   2.938   2.318  0.6938 -0.2687 -1.3731
 7638SOL    HW234551   2.461   2.975   2.181 -0.1236  0.9673 -1.0063
 7639SOL     OW34552   2.642   3.790   8.414 -0.4769  0.3773  0.1770
 7639SOL    HW134553   2.665   3.801   8.322  3.0309 -1.5817  0.8294
 7639SOL    HW234554   2.681   3.869   8.451  1.0185 -0.4852  0.4298
 7640SOL     OW34555   2.831   4.445   3.649  0.2245  0.6886 -0.3751
 7640SOL    HW134556   2.810   4.524   3.599 -2.2258  0.9785  1.0786
 7640SOL    HW234557   2.917   4.463   3.687 -0.7231 -1.1527  2.6296
 7641SOL     OW34558   1.911   3.042   6.313 -0.3347 -0.6336 -0.4045
 7641SOL    HW134559   1.887   3.053   6.405 -0.6657  0.3279 -0.6122
 7641SOL    HW234560   1.886   3.131   6.289 -0.3754 -0.1357  1.5211
 7642SOL     OW34561   0.130   4.643   8.708 -0.7503 -0.5491 -0.5541
 7642SOL    HW134562   0.196   4.711   8.712  1.8068 -3.1662  1.6804
 7642SOL    HW234563   0.177   4.563   8.731  1.9897  0.8569 -1.3145
 7643SOL     OW34564   2.526   1.500  16.012 -0.0176 -0.2336 -0.2820
 7643SOL    HW134565   2.526   1.412  15.972  0.7831 -0.3454 -0.0239
 7643SOL    HW234566   2.602   1.543  15.973 -1.2317  2.0163 -0.1333
 7644SOL     OW34567   3.441   0.055  16.117  0.5285 -0.0074  0.1143
 7644SOL    HW134568   3.442   4.728  16.188 -0.7291 -1.4339 -1.1496
 7644SOL    HW234569   3.437   0.005  16.035  0.0653 -0.6478  0.5316
 7645SOL     OW34570   1.873   4.125   2.037 -0.4178 -0.0172 -0.2764
 7645SOL    HW134571   1.858   4.219   2.041  0.3740  0.1455 -1.1180
 7645SOL    HW234572   1.819   4.079   2.101  1.5238 -1.2228  0.4664
 7646SOL     OW34573   2.276   2.596   7.320 -0.1195  0.6260 -0.5516
 7646SOL    HW134574   2.195   2.641   7.299 -0.4708  0.3663  0.2631
 7646SOL    HW234575   2.281   2.642   7.404 -1.8037 -1.8176  0.8630
 7647SOL     OW34576   2.016   2.493   8.673 -0.0511 -0.4053  0.5236
 7647SOL    HW134577   2.108   2.476   8.653  0.2801  2.2870 -0.3059
 7647SOL    HW234578   1.978   2.419   8.625 -0.6316 -1.2076  2.2192
 7648SOL     OW34579   3.353   4.368   0.994 -0.0651 -0.0684 -0.0498
 7648SOL    HW134580   3.345   4.413   1.078 -0.6841 -0.3799  0.0574
 7648SOL    HW234581   3.344   4.277   1.024 -0.4015  0.2878  0.9299
 7649SOL     OW34582   2.994   3.268  16.438 -0.1134 -0.5024 -0.5842
 7649SOL    HW134583   3.016   3.360  16.428  0.6306 -0.5084  0.9410
 7649SOL    HW234584   2.920   3.272  16.499  0.7769 -0.1416  0.4851
 7650SOL     OW34585   2.660   2.326   4.827 -0.4419 -0.2521  0.0554
 7650SOL    HW134586   2.660   2.252   4.889 -1.2994 -0.2299  0.0945
 7650SOL    HW234587   2.698   2.287   4.748  2.8321  0.4644  1.3033
 7651SOL     OW34588   3.291   1.082   6.923  0.4676  0.7707  0.0851
 7651SOL    HW134589   3.343   1.077   7.003  0.1019  2.2706  0.4193
 7651SOL    HW234590   3.307   1.175   6.909 -0.0440  0.6827 -1.0410
 7652SOL     OW34591   1.112   4.191   1.085 -0.0742 -0.0825  0.3204
 7652SOL    HW134592   1.086   4.245   1.011  0.3384 -0.9325 -0.4505
 7652SOL    HW234593   1.193   4.236   1.108 -0.9570  1.2048  0.8810
 7653SOL     OW34594   1.630   1.926   2.706  0.1478 -0.4435 -0.1046
 7653SOL    HW134595   1.653   1.846   2.753 -1.2214 -0.1377  1.0992
 7653SOL    HW234596   1.658   1.992   2.769  0.6235 -2.0120  1.3304
 7654SOL     OW34597   0.197   0.178   5.182  0.4387 -0.0189  0.3234
 7654SOL    HW134598   0.237   0.262   5.160 -1.1740  0.8886  0.8629
 7654SOL    HW234599   0.276   0.130   5.207  1.6318 -0.1591 -3.8628
 7655SOL     OW34600   0.716   3.767   1.562 -0.4648 -0.3615 -0.2467
 7655SOL    HW134601   0.707   3.680   1.601 -2.0147  0.5803  1.4931
 7655SOL    HW234602   0.647   3.769   1.496 -0.1132 -0.5520 -0.6215
 7656SOL     OW34603   0.762   1.256   8.008  0.1737 -0.1743  0.2951
 7656SOL    HW134604   0.680   1.241   7.960  0.0829  0.5495  0.2111
 7656SOL    HW234605   0.728   1.322   8.068  2.0757  1.2958 -0.2398
 7657SOL     OW34606   1.552   2.006   1.764 -0.6863  0.3944  0.2337
 7657SOL    HW134607   1.533   2.008   1.858 -0.4039  1.1353  0.2744
 7657SOL    HW234608   1.557   2.101   1.755 -0.0336  0.2815 -0.5283
 7658SOL     OW34609   1.011   3.819  12.717  0.0022  0.1648  0.1125
 7658SOL    HW134610   0.993   3.772  12.799 -0.2134  1.7735  0.9903
 7658SOL    HW234611   1.008   3.909  12.751 -0.1232  0.5370 -0.8972
 7659SOL     OW34612   4.308   4.646  14.533  0.0841  0.2840  0.3149
 7659SOL    HW134613   4.323   4.668  14.625  0.9659 -0.8071  0.4345
 7659SOL    HW234614   4.281   4.731  14.498 -0.8404  0.6510  1.9469
 7660SOL     OW34615   2.564   1.876   8.188 -0.2741 -0.5117 -0.0617
 7660SOL    HW134616   2.644   1.912   8.151 -0.5228 -0.8360 -0.9025
 7660SOL    HW234617   2.589   1.817   8.260  1.8696  3.5748  2.5491
 7661SOL     OW34618   4.040   3.414   8.966  0.6683 -0.7678  0.5433
 7661SOL    HW134619   3.989   3.455   8.897  1.4663 -2.4439 -1.0408
 7661SOL    HW234620   3.984   3.441   9.039  1.8457  1.6658  0.5336
 7662SOL     OW34621   3.982   4.366   9.913 -0.7400 -0.1750  0.3523
 7662SOL    HW134622   3.891   4.393   9.917 -0.8049 -0.4712  0.8946
 7662SOL    HW234623   3.979   4.313   9.834  0.6918 -0.2416  0.3325
 7663SOL     OW34624   3.411   1.907   2.274 -1.0151 -0.0491  0.1049
 7663SOL    HW134625   3.436   1.942   2.360  0.4941 -0.3710 -0.2012
 7663SOL    HW234626   3.379   1.985   2.230 -1.1309  0.5908  1.3212
 7664SOL     OW34627   1.148   4.501  10.248 -0.3746  0.7923  0.8227
 7664SOL    HW134628   1.138   4.560  10.174  1.3586  1.8569  1.4461
 7664SOL    HW234629   1.241   4.507  10.269 -0.0929 -1.5630  0.2824
 7665SOL     OW34630   3.816   2.788   4.944  0.3010 -0.0773 -0.9580
 7665SOL    HW134631   3.727   2.806   4.973 -0.7351 -1.3299 -3.4158
 7665SOL    HW234632   3.825   2.869   4.893 -0.1112  0.2490 -0.5232
 7666SOL     OW34633   4.600   2.017   9.688  0.0404 -0.7440  0.1113
 7666SOL    HW134634   4.692   2.039   9.701 -0.3921  0.4144  1.2328
 7666SOL    HW234635   4.557   2.062   9.761 -2.8286 -1.8994 -0.8690
 7667SOL     OW34636   0.572   4.188   2.208  0.4969 -0.0481 -0.8516
 7667SOL    HW134637   0.587   4.205   2.301 -2.5658 -2.0942  0.0219
 7667SOL    HW234638   0.607   4.101   2.192  0.0757 -0.4151  0.2582
 7668SOL     OW34639   0.149   3.934   4.654  0.1704  0.3995  0.2615
 7668SOL    HW134640   0.200   4.013   4.671  0.8125  0.0965 -0.2061
 7668SOL    HW234641   0.179   3.883   4.729  1.5830 -0.4719 -0.8750
 7669SOL     OW34642   3.899   2.137   5.070  0.0098 -0.5408 -0.1232
 7669SOL    HW134643   3.964   2.204   5.093 -0.5110 -0.1062  0.0847
 7669SOL    HW234644   3.857   2.136   5.156 -1.3580 -1.0549 -0.7998
 7670SOL     OW34645   4.427   4.508   2.928  0.0870 -0.1672 -0.1408
 7670SOL    HW134646   4.386   4.445   2.988 -2.2192  1.0089 -0.4583
 7670SOL    HW234647   4.357   4.538   2.869  1.3128 -1.3713 -2.1887
 7671SOL     OW34648   1.106   2.920   5.171 -0.3027 -0.4568  0.0024
 7671SOL    HW134649   1.062   2.958   5.095  3.4833 -1.5146 -2.7623
 7671SOL    HW234650   1.156   2.991   5.211 -0.9346  0.0165 -0.0543
 7672SOL     OW34651   1.189   2.310   7.572 -0.2936  0.4330  0.3897
 7672SOL    HW134652   1.148   2.395   7.557  2.4304  1.5868 -0.4662
 7672SOL    HW234653   1.178   2.318   7.667  0.7173 -0.6506  0.5947
 7673SOL     OW34654   4.306   2.511  10.263  0.1464  0.6336 -0.6335
 7673SOL    HW134655   4.255   2.453  10.319 -0.1469  1.5291  0.0280
 7673SOL    HW234656   4.332   2.567  10.336 -0.1041 -0.4757  0.3016
 7674SOL     OW34657   1.124   1.525   4.660  0.5026  0.3366  0.0725
 7674SOL    HW134658   1.062   1.598   4.669 -2.3724 -1.9506 -1.3505
 7674SOL    HW234659   1.207   1.556   4.696 -0.0437  0.7504  0.9804
 7675SOL     OW34660   2.458   4.427  15.940 -0.2733 -0.4416 -0.1058
 7675SOL    HW134661   2.551   4.417  15.962 -0.0892 -1.1279 -1.1706
 7675SOL    HW234662   2.423   4.381  16.016 -2.2523  0.8442 -0.2323
 7676SOL     OW34663   0.054   4.149  13.834  0.1660  0.3820  0.2400
 7676SOL    HW134664   0.024   4.228  13.790  0.9656  0.7184  0.2980
 7676SOL    HW234665   0.104   4.095  13.773 -0.0775  0.4497 -0.0220
 7677SOL     OW34666   1.404   0.073   7.450  0.3444  0.0060  0.0298
 7677SOL    HW134667   1.344   0.107   7.516 -0.0350 -1.2415  0.3231
 7677SOL    HW234668   1.352   0.007   7.404 -0.6495  0.5151  0.4145
 7678SOL     OW34669   1.795   4.233  11.545  0.5125 -0.1617 -0.3447
 7678SOL    HW134670   1.759   4.156  11.590  1.6603 -0.5804 -0.1407
 7678SOL    HW234671   1.793   4.290  11.621  1.7808 -1.9692  1.0349
 7679SOL     OW34672   4.086   3.204   2.114  0.5666 -0.2622  0.1763
 7679SOL    HW134673   4.087   3.134   2.048 -0.4742 -0.0619 -0.0507
 7679SOL    HW234674   3.993   3.208   2.136 -0.1887  1.0129 -3.3236
 7680SOL     OW34675   0.978   0.362   8.764 -0.5261 -0.8461  0.8685
 7680SOL    HW134676   1.073   0.349   8.771 -0.1522  1.0611 -0.5718
 7680SOL    HW234677   0.951   0.355   8.856 -0.3843 -2.0814  0.8108
 7681SOL     OW34678   1.648   0.266   5.507 -0.0640  0.0552 -0.3083
 7681SOL    HW134679   1.732   0.284   5.548 -0.1300  0.6584 -0.4362
 7681SOL    HW234680   1.650   0.171   5.497 -2.9200 -0.0627  0.0420
 7682SOL     OW34681   4.696   2.445   0.978 -0.5498 -0.0218  0.1051
 7682SOL    HW134682   4.617   2.394   0.960 -0.3827 -0.9029  1.8814
 7682SOL    HW234683   4.674   2.473   1.066 -0.7298 -1.0444  0.3809
 7683SOL     OW34684   3.468   2.325   8.840  0.2920  0.4771 -0.3426
 7683SOL    HW134685   3.511   2.241   8.856 -0.7728  0.2574  1.3604
 7683SOL    HW234686   3.376   2.318   8.813 -0.0175 -0.6530  1.0416
 7684SOL     OW34687   0.693   3.899   7.343  0.3526  0.0612 -0.3823
 7684SOL    HW134688   0.624   3.834   7.358 -0.3730  1.1113  0.8752
 7684SOL    HW234689   0.663   3.979   7.388  0.6052  0.6393 -1.2382
 7685SOL     OW34690   0.794   3.883   3.976 -0.0900 -0.1358 -0.4184
 7685SOL    HW134691   0.889   3.875   3.978 -0.0076  1.1935  1.0600
 7685SOL    HW234692   0.768   3.849   3.891  1.4103  3.4263 -2.3154
 7686SOL     OW34693   0.736   2.786   7.475 -0.1372  0.1343  0.1161
 7686SOL    HW134694   0.689   2.861   7.513 -1.1251 -1.2550  1.6600
 7686SOL    HW234695   0.709   2.711   7.528 -5.0383  1.2478 -0.8423
 7687SOL     OW34696   3.422   1.159  15.241  0.1746  0.0454  0.1145
 7687SOL    HW134697   3.446   1.082  15.292  0.3024  1.4755  2.1938
 7687SOL    HW234698   3.445   1.232  15.298 -1.8061  0.7326  0.0437
 7688SOL     OW34699   0.401   1.638   8.253  0.1164  0.0719  0.0987
 7688SOL    HW134700   0.339   1.666   8.321  0.6043 -1.6398  1.2344
 7688SOL    HW234701   0.342   1.620   8.180 -0.7682 -0.8526  1.0313
 7689SOL     OW34702   2.992   2.270   9.062  0.0029  0.2550 -0.4160
 7689SOL    HW134703   2.923   2.310   9.009 -0.6197 -2.5796 -1.7966
 7689SOL    HW234704   2.974   2.176   9.059  0.3782  0.2451 -2.8956
 7690SOL     OW34705   2.509   4.598   4.626  0.2340 -0.4078 -0.0378
 7690SOL    HW134706   2.495   4.514   4.670  0.2479 -0.1928  0.3789
 7690SOL    HW234707   2.430   4.641   4.658  0.4786 -0.8781  1.2016
 7691SOL     OW34708   4.240   1.367   3.641  0.6212  0.3628 -0.0154
 7691SOL    HW134709   4.301   1.424   3.594  0.5372  0.9437  0.5727
 7691SOL    HW234710   4.308   1.308   3.674  0.6063  1.3130  1.7293
 7692SOL     OW34711   1.055   2.784  12.535  0.3862 -0.2583  0.4424
 7692SOL    HW134712   1.147   2.803  12.550  0.4111 -1.5199  1.8865
 7692SOL    HW234713   1.075   2.707  12.483  0.0906  0.5884 -0.9199
 7693SOL     OW34714   2.137   3.222   5.418  0.0644  0.0457 -0.3905
 7693SOL    HW134715   2.211   3.168   5.443  1.3697  2.0572  0.1034
 7693SOL    HW234716   2.091   3.233   5.501  0.5444 -4.2253  0.4146
 7694SOL     OW34717   1.111   1.516   2.086  0.2218  0.4862 -0.1686
 7694SOL    HW134718   1.036   1.566   2.118  0.1481  0.5056 -0.3724
 7694SOL    HW234719   1.129   1.463   2.163  0.5678  0.3881 -0.3151
 7695SOL     OW34720   3.491   2.972   5.373  0.2434  0.3006 -0.4191
 7695SOL    HW134721   3.436   2.901   5.407  1.5746 -1.2430 -1.4679
 7695SOL    HW234722   3.544   2.990   5.450 -0.6486 -0.6986  0.4355
 7696SOL     OW34723   4.348   2.303   3.903  0.8065 -0.1933 -0.2279
 7696SOL    HW134724   4.420   2.309   3.840  1.6861 -3.1574  0.4977
 7696SOL    HW234725   4.289   2.374   3.878  0.5650  0.9994  3.8224
 7697SOL     OW34726   1.962   3.039  13.968 -0.2083 -0.4107  0.1539
 7697SOL    HW134727   1.920   2.998  13.892  0.9890 -0.7690 -0.3111
 7697SOL    HW234728   1.896   3.104  13.994  0.5244  1.3351 -2.4292
 7698SOL     OW34729   4.440   1.317   7.228 -0.5926  0.4852  0.1671
 7698SOL    HW134730   4.483   1.390   7.274  0.7431 -0.1997  0.0103
 7698SOL    HW234731   4.408   1.275   7.308 -1.0293 -0.7064 -0.6422
 7699SOL     OW34732   0.073   0.079   3.365 -0.1625 -0.0717 -0.3833
 7699SOL    HW134733   0.124   0.070   3.285  0.4711  3.2056 -0.3351
 7699SOL    HW234734   0.112   0.158   3.401 -0.8282 -0.6375  1.6207
 7700SOL     OW34735   2.763   2.491   0.445  0.1310 -0.1635  0.2280
 7700SOL    HW134736   2.803   2.558   0.389 -1.1126  1.5121  1.3197
 7700SOL    HW234737   2.750   2.416   0.388 -0.2851 -1.5061  2.0810
 7701SOL     OW34738   0.697   3.511   2.377 -0.1481  1.0599  0.0971
 7701SOL    HW134739   0.664   3.421   2.382  0.9685  0.6289 -0.1589
 7701SOL    HW234740   0.684   3.530   2.284 -1.6892 -1.9451 -0.3135
 7702SOL     OW34741   4.007   0.205   8.151  0.0728  0.1812 -0.5503
 7702SOL    HW134742   4.077   0.268   8.168 -0.6137  0.9853 -0.6850
 7702SOL    HW234743   3.946   0.248   8.090 -0.7545 -1.1037 -0.6261
 7703SOL     OW34744   0.256   1.434  17.499 -0.0602 -0.1763 -0.3705
 7703SOL    HW134745   0.253   1.481  17.582 -3.0108  1.3651 -1.3508
 7703SOL    HW234746   0.164   1.410  17.492 -0.3862  1.3723 -1.3426
 7704SOL     OW34747   2.195   4.111   6.982 -0.4286  0.2768  0.0843
 7704SOL    HW134748   2.191   4.206   6.990  1.4178  0.3315  0.3195
 7704SOL    HW234749   2.276   4.091   6.935  0.1956  1.7561  0.5399
 7705SOL     OW34750   1.922   0.127   4.017 -0.1082  0.2618  0.6180
 7705SOL    HW134751   1.892   0.115   3.927  0.3778  1.8606  0.2379
 7705SOL    HW234752   2.011   0.091   4.020  0.4031  1.4231 -0.3442
 7706SOL     OW34753   3.335   1.626  14.828 -0.6088  0.1452  0.3752
 7706SOL    HW134754   3.339   1.557  14.762  0.1281  1.4781 -0.9746
 7706SOL    HW234755   3.242   1.647  14.822 -0.9052 -1.8981 -2.4157
 7707SOL     OW34756   2.298   4.395   4.047 -0.7307 -0.4320  0.6335
 7707SOL    HW134757   2.256   4.342   4.115  0.9808 -1.7008  0.7089
 7707SOL    HW234758   2.308   4.474   4.100  1.0641  0.1921 -0.6324
 7708SOL     OW34759   0.552   1.040  12.581 -0.5125 -0.0898  0.6690
 7708SOL    HW134760   0.525   1.003  12.665 -1.2012 -0.2735  0.3695
 7708SOL    HW234761   0.525   0.971  12.521 -0.6871  2.2159 -1.8753
 7709SOL     OW34762   2.357   1.010   5.025  0.4055  0.1153 -0.1247
 7709SOL    HW134763   2.433   1.023   5.082  0.8111  2.2823 -1.1603
 7709SOL    HW234764   2.360   1.079   4.959  2.2273  0.9979  0.8732
 7710SOL     OW34765   1.915   0.205   2.067  0.4051 -0.5211  0.5826
 7710SOL    HW134766   1.935   0.210   2.161  1.8832  1.7287  0.1401
 7710SOL    HW234767   2.002   0.200   2.027 -1.0872  0.5634 -2.8404
 7711SOL     OW34768   2.391   3.044   7.509  0.3835  0.6415 -0.4008
 7711SOL    HW134769   2.476   3.029   7.466  1.0654  3.1163  0.1090
 7711SOL    HW234770   2.419   3.119   7.561  2.7580 -1.1939  0.9761
 7712SOL     OW34771   0.894   3.837   6.900 -0.0811  0.2172 -0.3148
 7712SOL    HW134772   0.826   3.869   6.960  0.1431 -0.2379  0.1845
 7712SOL    HW234773   0.956   3.801   6.964  1.2074  0.9686 -1.1564
 7713SOL     OW34774   1.036   1.980   8.952 -0.5335 -0.2168 -0.5554
 7713SOL    HW134775   0.992   2.052   8.997  1.6962  1.1092 -0.4659
 7713SOL    HW234776   0.959   1.923   8.955 -0.1919 -0.6299  0.4651
 7714SOL     OW34777   0.488   1.551   6.873  0.4392  0.2628 -0.5439
 7714SOL    HW134778   0.551   1.551   6.944 -0.3151  0.3113  0.1237
 7714SOL    HW234779   0.450   1.637   6.887  0.4368 -0.0109  1.0653
 7715SOL     OW34780   0.312   1.454   7.390 -0.5932 -0.2733  0.1890
 7715SOL    HW134781   0.291   1.547   7.389 -0.4692 -0.2750 -3.0181
 7715SOL    HW234782   0.396   1.444   7.345 -0.9890 -3.6037  0.1677
 7716SOL     OW34783   4.270   3.288   4.281 -0.1612 -0.1239  0.1338
 7716SOL    HW134784   4.269   3.383   4.273  0.5912  0.0020  1.6609
 7716SOL    HW234785   4.179   3.273   4.309 -1.2202 -0.1409 -3.2619
 7717SOL     OW34786   2.912   4.128   9.767  0.0882 -0.1937  0.3790
 7717SOL    HW134787   2.993   4.142   9.815  0.8067  0.5655 -1.0665
 7717SOL    HW234788   2.934   4.161   9.680  0.8157 -0.7748  0.3454
 7718SOL     OW34789   3.340   0.331   3.623  0.1131  0.3790 -0.1138
 7718SOL    HW134790   3.352   0.373   3.708 -0.2359 -3.1754  1.7135
 7718SOL    HW234791   3.411   0.267   3.625 -1.1738 -1.0021  1.3160
 7719SOL     OW34792   4.535   1.437   7.574  0.1561 -0.0756 -0.5333
 7719SOL    HW134793   4.453   1.481   7.597 -0.7696 -1.3829 -1.3204
 7719SOL    HW234794   4.553   1.455   7.482 -0.0751 -1.2137 -0.8020
 7720SOL     OW34795   3.659   0.544  10.799  0.2468  0.4761  0.0456
 7720SOL    HW134796   3.720   0.591  10.856  0.5500  0.0810  0.0483
 7720SOL    HW234797   3.687   0.586  10.718 -1.5321 -3.3228 -2.5605
 7721SOL     OW34798   0.109   1.678   1.589 -0.1866 -0.1905 -0.4346
 7721SOL    HW134799   0.140   1.587   1.592 -0.7731 -0.4164 -1.0924
 7721SOL    HW234800   0.069   1.675   1.676 -2.5276 -0.8882 -1.5350
 7722SOL     OW34801   1.632   0.475   2.671 -0.2217  0.4382  0.4493
 7722SOL    HW134802   1.720   0.475   2.634  0.8228 -1.9851  2.9532
 7722SOL    HW234803   1.650   0.415   2.744  3.7072 -0.0477 -0.9600
 7723SOL     OW34804   1.607   1.623   5.526  0.0505 -0.0376  0.6352
 7723SOL    HW134805   1.580   1.690   5.463  0.7913 -1.2687 -1.0053
 7723SOL    HW234806   1.673   1.582   5.470  0.0205 -0.9124  1.2391
 7724SOL     OW34807   2.454   2.017   0.680  0.0351  0.3702 -0.0824
 7724SOL    HW134808   2.453   1.921   0.683  0.4407  0.3121 -1.4641
 7724SOL    HW234809   2.419   2.045   0.764 -0.3232  0.0983 -0.1412
 7725SOL     OW34810   1.168   4.312   4.377 -0.1805 -0.1971 -0.1428
 7725SOL    HW134811   1.092   4.256   4.394  2.9728 -3.5020  2.9706
 7725SOL    HW234812   1.182   4.281   4.287  2.2259 -1.1442  0.5826
 7726SOL     OW34813   2.301   2.570   8.959 -0.3597 -0.4904 -0.1246
 7726SOL    HW134814   2.374   2.615   9.001  1.2782 -0.9006 -2.5181
 7726SOL    HW234815   2.340   2.484   8.943 -2.6849 -1.3526 -1.0585
 7727SOL     OW34816   3.893   4.325   5.483 -0.2363 -0.5786 -0.0241
 7727SOL    HW134817   3.900   4.419   5.501  1.2504 -0.4609 -1.2072
 7727SOL    HW234818   3.965   4.311   5.421  0.8688 -1.9319  1.5687
 7728SOL     OW34819   1.988   2.535  12.324  0.0459 -0.2918  0.0045
 7728SOL    HW134820   1.951   2.447  12.328  3.2054 -1.4521  3.1991
 7728SOL    HW234821   1.938   2.583  12.257  0.3102  0.5498  0.4115
 7729SOL     OW34822   0.035   0.989   9.427  0.2910  0.1793  0.9133
 7729SOL    HW134823   0.004   0.904   9.395  1.5489 -0.2940  0.9593
 7729SOL    HW234824   0.123   0.989   9.390 -0.3013  0.4568 -0.4673
 7730SOL     OW34825   3.231   0.388   0.011 -0.3838 -0.3407 -0.0054
 7730SOL    HW134826   3.264   0.321   0.071 -0.1840 -1.4202 -1.3253
 7730SOL    HW234827   3.255   0.355  17.670  0.4630 -0.0028  0.0998
 7731SOL     OW34828   2.735   2.372   9.853  0.1034 -0.2467 -0.4314
 7731SOL    HW134829   2.678   2.409   9.921  0.7343 -0.9218  0.4675
 7731SOL    HW234830   2.764   2.453   9.812  0.6149  0.1598  0.7397
 7732SOL     OW34831   4.101   0.779  12.020 -0.3269  0.1067 -0.4102
 7732SOL    HW134832   4.053   0.840  12.076  2.6061 -0.4462  2.7147
 7732SOL    HW234833   4.077   0.703  12.073  1.4782 -1.2478 -1.5015
 7733SOL     OW34834   3.907   0.613   2.051  0.0379 -0.0474 -0.2683
 7733SOL    HW134835   3.996   0.583   2.031 -0.0015 -0.8055  0.7223
 7733SOL    HW234836   3.865   0.577   1.972 -1.9578 -0.0277  0.7986
 7734SOL     OW34837   1.494   4.069   1.392  0.5712 -0.2282 -0.0239
 7734SOL    HW134838   1.588   4.083   1.400  1.2665 -3.6717 -2.5206
 7734SOL    HW234839   1.466   4.161   1.387 -0.2415 -0.6491 -3.1947
 7735SOL     OW34840   2.624   4.329  14.860 -0.4619 -0.2560  0.5145
 7735SOL    HW134841   2.680   4.346  14.935 -1.2727 -0.5738  1.1887
 7735SOL    HW234842   2.554   4.393  14.870  0.1572  0.3886  0.7452
 7736SOL     OW34843   2.755   1.977  15.532  0.2993 -0.1393  0.1415
 7736SOL    HW134844   2.680   2.025  15.569  0.5388  0.7750 -0.5589
 7736SOL    HW234845   2.778   2.030  15.456  1.3475 -0.3726  0.2978
 7737SOL     OW34846   2.288   0.971  17.684  0.0278  0.2823 -0.2378
 7737SOL    HW134847   2.256   0.955   0.029 -2.0350  0.6155 -0.9182
 7737SOL    HW234848   2.216   0.942  17.627 -0.9610 -0.7441  1.5217
 7738SOL     OW34849   1.198   3.845   3.324 -0.1731  0.1999  0.1928
 7738SOL    HW134850   1.118   3.826   3.373  0.5822 -0.5461  1.1509
 7738SOL    HW234851   1.260   3.810   3.388  0.7476 -0.2403 -0.9309
 7739SOL     OW34852   3.449   3.586  12.584 -0.2636 -0.3559 -1.1552
 7739SOL    HW134853   3.377   3.649  12.580  3.1699  3.4996 -2.0474
 7739SOL    HW234854   3.510   3.641  12.633 -0.7488  1.7707 -2.9612
 7740SOL     OW34855   3.431   1.568   2.418  0.4017  0.4386  0.2969
 7740SOL    HW134856   3.517   1.587   2.381  1.5862 -0.6373  2.4905
 7740SOL    HW234857   3.426   1.621   2.498  3.3107  0.4897  0.4402
 7741SOL     OW34858   3.591   4.670  15.855 -0.0479  0.0905  0.0767
 7741SOL    HW134859   3.544   4.590  15.879 -0.0458  0.5177  1.5194
 7741SOL    HW234860   3.543   4.690  15.774  2.1061  0.2265 -1.1634
 7742SOL     OW34861   1.071   2.412   6.242 -0.2593  0.2009  0.6837
 7742SOL    HW134862   1.048   2.321   6.223 -0.5307  0.5506 -0.6406
 7742SOL    HW234863   1.164   2.407   6.266  0.7693  2.0244 -2.8957
 7743SOL     OW34864   0.343   1.742   7.797  0.1015 -0.4041 -0.4605
 7743SOL    HW134865   0.263   1.689   7.803 -0.4336  0.5817  1.1952
 7743SOL    HW234866   0.304   1.826   7.821 -0.5531 -1.2253  1.4004
 7744SOL     OW34867   1.446   4.144   4.929  0.0867 -0.2115 -0.2309
 7744SOL    HW134868   1.392   4.088   4.873  1.6974  0.3374 -2.3579
 7744SOL    HW234869   1.530   4.120   4.891  0.0052  2.0284 -1.8460
 7745SOL     OW34870   3.342   3.936   4.750 -0.4200  0.3264  0.0984
 7745SOL    HW134871   3.286   3.996   4.799 -1.6385  0.1769 -1.1149
 7745SOL    HW234872   3.312   3.933   4.659 -1.3231 -1.9714  0.4682
 7746SOL     OW34873   0.305   0.439   9.484  0.1358  0.5177 -0.3204
 7746SOL    HW134874   0.283   0.530   9.463  0.9308  0.0237 -3.2713
 7746SOL    HW234875   0.265   0.421   9.569 -0.6720  0.6379 -0.6687
 7747SOL     OW34876   0.713   4.422   4.557 -0.8767  1.1057  0.2497
 7747SOL    HW134877   0.714   4.337   4.600  1.7104  1.0118 -0.0067
 7747SOL    HW234878   0.800   4.448   4.588 -0.1702  0.0373 -0.8088
 7748SOL     OW34879   1.151   0.219   7.279 -0.5821 -0.8005 -0.2905
 7748SOL    HW134880   1.122   0.283   7.215 -1.1476  0.3492  1.1279
 7748SOL    HW234881   1.090   0.146   7.269  0.3635 -1.7639  1.0137
 7749SOL     OW34882   4.112   3.548   7.487 -0.0339  0.1023 -0.2227
 7749SOL    HW134883   4.048   3.516   7.423 -0.0360 -1.6327  0.6379
 7749SOL    HW234884   4.188   3.565   7.431 -0.7517 -0.1800 -1.2867
 7750SOL     OW34885   3.004   0.077   6.630  0.0010 -0.6138  0.0654
 7750SOL    HW134886   2.969   4.724   6.630 -1.2366 -0.1342  0.8511
 7750SOL    HW234887   3.097   0.066   6.611  0.7801  3.2192  1.6502
 7751SOL     OW34888   1.926   3.954   8.177 -0.1097 -0.0486  0.0541
 7751SOL    HW134889   2.007   4.004   8.165 -0.0025 -0.1511  0.3353
 7751SOL    HW234890   1.863   4.022   8.153 -0.8526 -1.5330 -2.2439
 7752SOL     OW34891   0.991   4.031   6.516  0.3770  0.1066  0.3628
 7752SOL    HW134892   0.978   3.943   6.551  1.9607  0.3519  1.6188
 7752SOL    HW234893   0.948   4.075   6.589 -3.0291 -0.5344 -1.2769
 7753SOL     OW34894   0.728   3.557   3.445  0.0951  0.1391 -0.1353
 7753SOL    HW134895   0.722   3.652   3.449 -1.7572 -0.0225  1.2384
 7753SOL    HW234896   0.796   3.535   3.509 -0.5971 -0.6171  0.3360
 7754SOL     OW34897   2.800   3.146   4.815  0.0399 -0.5733  0.0876
 7754SOL    HW134898   2.801   3.073   4.754  0.9705 -1.6026  1.3331
 7754SOL    HW234899   2.741   3.204   4.767  1.0119  1.2347  1.0681
 7755SOL     OW34900   4.030   2.968  15.490 -0.1076 -0.5213  0.0643
 7755SOL    HW134901   4.105   2.952  15.433  0.8766  0.1846  1.1455
 7755SOL    HW234902   4.065   2.979  15.578  0.6824  1.7175 -0.5047
 7756SOL     OW34903   3.461   3.576   5.883 -0.1942  0.2512  0.4724
 7756SOL    HW134904   3.395   3.514   5.852 -0.5700  0.7280  0.3248
 7756SOL    HW234905   3.404   3.633   5.933 -0.7997  1.4869 -1.6228
 7757SOL     OW34906   0.891   3.560  13.537  0.0145 -0.3306  0.2977
 7757SOL    HW134907   0.822   3.625  13.536  2.8342  2.6055 -1.9792
 7757SOL    HW234908   0.911   3.547  13.630  1.4598  2.8454  0.4446
 7758SOL     OW34909   4.412   0.306   7.689 -0.1417 -0.1047  0.1750
 7758SOL    HW134910   4.496   0.336   7.724  0.4532 -2.9114  1.1831
 7758SOL    HW234911   4.398   0.224   7.737 -0.7608 -0.6783 -0.9744
 7759SOL     OW34912   3.694   3.864   3.544  0.0357 -0.2729  0.0845
 7759SOL    HW134913   3.768   3.892   3.490  1.5415  0.6853  2.6585
 7759SOL    HW234914   3.698   3.769   3.536 -2.8122 -0.3102 -0.8128
 7760SOL     OW34915   2.795   1.514   5.777  0.2364  0.4548  0.4448
 7760SOL    HW134916   2.875   1.495   5.825 -0.0198 -0.1769  0.6280
 7760SOL    HW234917   2.804   1.609   5.779 -0.3700  0.5103  0.7924
 7761SOL     OW34918   0.769   0.324   5.979  0.4850 -0.2768 -0.1684
 7761SOL    HW134919   0.765   0.418   5.960 -0.0397 -0.1563  0.5048
 7761SOL    HW234920   0.814   0.326   6.064 -1.0509 -1.4868  0.6713
 7762SOL     OW34921   3.203   2.602  11.289  0.5799 -0.2478  0.1163
 7762SOL    HW134922   3.215   2.569  11.200  1.5598 -0.6740  0.4118
 7762SOL    HW234923   3.234   2.523  11.334 -4.0487 -1.9006  0.4543
 7763SOL     OW34924   0.466   1.020  12.840 -0.0037  0.0538 -0.7513
 7763SOL    HW134925   0.465   0.952  12.907 -2.6191 -1.0730 -1.9693
 7763SOL    HW234926   0.378   1.056  12.848 -1.3571 -3.2553 -0.7726
 7764SOL     OW34927   3.298   2.426   5.637 -0.0043 -0.1178  0.9684
 7764SOL    HW134928   3.285   2.339   5.676 -1.3230  0.0654  0.9457
 7764SOL    HW234929   3.372   2.462   5.685 -1.5189  2.9493  1.0002
 7765SOL     OW34930   2.783   0.417  14.075  0.0382  0.0716  0.0362
 7765SOL    HW134931   2.794   0.322  14.073  0.3693  0.0948  0.6910
 7765SOL    HW234932   2.694   0.420  14.110 -0.4108  2.7010 -1.3018
 7766SOL     OW34933   1.703   3.342   7.472  0.4878  0.2912  0.3682
 7766SOL    HW134934   1.673   3.412   7.413  0.8552  0.4279  0.3477
 7766SOL    HW234935   1.620   3.316   7.512  0.4472 -0.0705  0.0492
 7767SOL     OW34936   2.683   1.551   2.246  0.4707 -0.4264 -0.3774
 7767SOL    HW134937   2.672   1.611   2.172  1.0651  0.3172  0.1365
 7767SOL    HW234938   2.735   1.606   2.305 -2.7076 -0.0521  2.1241
 7768SOL     OW34939   0.794   1.504   3.275 -0.1591  0.0975 -0.4685
 7768SOL    HW134940   0.802   1.573   3.341 -1.5302 -1.5394  1.4229
 7768SOL    HW234941   0.886   1.480   3.271 -0.4307 -0.9915 -0.1642
 7769SOL     OW34942   0.959   3.547   7.659  0.3056  0.2752  0.1539
 7769SOL    HW134943   0.949   3.470   7.603 -2.5973  0.5717  0.2798
 7769SOL    HW234944   0.902   3.611   7.617  0.5972  0.9804  0.8310
 7770SOL     OW34945   0.597   1.000   8.706 -0.0343  0.1737  0.8639
 7770SOL    HW134946   0.634   1.007   8.618 -0.2671 -1.2753  0.6563
 7770SOL    HW234947   0.565   0.910   8.701  0.6384 -0.0362  0.3552
 7771SOL     OW34948   2.986   4.735   4.617  0.8107  0.5214  0.0572
 7771SOL    HW134949   3.027   4.648   4.612  1.7223  1.0440 -1.4915
 7771SOL    HW234950   2.909   4.726   4.674 -0.6690  1.0601 -1.8329
 7772SOL     OW34951   4.286   3.760   0.748 -0.3975 -0.3647  0.1056
 7772SOL    HW134952   4.255   3.718   0.668  3.0532 -1.8851 -0.4447
 7772SOL    HW234953   4.380   3.750   0.735 -0.7383 -3.5730  0.2206
 7773SOL     OW34954   0.773   1.220   6.504 -0.2938 -0.1607 -0.2056
 7773SOL    HW134955   0.865   1.223   6.476 -0.6244 -1.4058 -1.4291
 7773SOL    HW234956   0.741   1.136   6.471  0.8317 -0.6156 -0.1572
 7774SOL     OW34957   3.975   1.583  12.368  0.1147  0.1692  0.1679
 7774SOL    HW134958   4.016   1.658  12.326 -1.2281  0.6215 -0.3333
 7774SOL    HW234959   3.893   1.575  12.319 -1.0782  0.4246  2.1234
 7775SOL     OW34960   2.924   2.928   2.233  0.0244 -0.1560  0.1794
 7775SOL    HW134961   3.010   2.886   2.222 -0.3772 -1.2858  1.4594
 7775SOL    HW234962   2.896   2.884   2.312  0.5288  0.4525  0.6970
 7776SOL     OW34963   0.145   1.944   2.406  0.0038  0.7517 -0.5197
 7776SOL    HW134964   0.138   1.936   2.310 -2.4375  2.1374 -0.4480
 7776SOL    HW234965   0.227   1.897   2.421 -0.9389 -0.2785  1.3848
 7777SOL     OW34966   0.394   2.612   6.854 -0.2506 -0.2498 -0.5817
 7777SOL    HW134967   0.321   2.570   6.898  1.7071 -1.9738  1.0204
 7777SOL    HW234968   0.418   2.688   6.908 -0.4297 -0.0911 -0.7274
 7778SOL     OW34969   2.496   0.296   1.567 -0.2561  0.0475 -0.3502
 7778SOL    HW134970   2.439   0.371   1.582  0.7995  0.5573  1.1124
 7778SOL    HW234971   2.556   0.332   1.501  0.2619 -0.2720 -0.0543
 7779SOL     OW34972   3.275   3.335   8.526 -0.1871 -0.3793  0.0923
 7779SOL    HW134973   3.333   3.401   8.563 -0.0901 -0.2646 -0.2634
 7779SOL    HW234974   3.188   3.374   8.532 -1.5286 -3.4564  0.6549
 7780SOL     OW34975   0.808   3.285  17.412 -0.7091 -0.1294  0.4872
 7780SOL    HW134976   0.860   3.361  17.388  1.0300 -0.9288  1.6813
 7780SOL    HW234977   0.883   3.225  17.414  1.3947  2.5136 -0.6090
 7781SOL     OW34978   3.088   2.064   7.777 -0.1744 -1.3981 -0.1666
 7781SOL    HW134979   3.001   2.105   7.776  0.8083  0.7998  3.5377
 7781SOL    HW234980   3.119   2.081   7.688 -1.3062  1.1244 -0.1094
 7782SOL     OW34981   2.695   4.723   3.487  0.7088  0.3929 -0.0018
 7782SOL    HW134982   2.681   0.044   3.562  1.5934  1.6756 -0.8012
 7782SOL    HW234983   2.605   4.692   3.481  1.1212 -0.4926 -1.6868
 7783SOL     OW34984   3.157   4.058   5.913  0.6725 -0.2175  0.2325
 7783SOL    HW134985   3.111   4.032   5.993 -0.3110 -1.3504 -0.7211
 7783SOL    HW234986   3.234   4.104   5.949  0.0543 -0.4939  1.9169
 7784SOL     OW34987   4.487   2.272   1.328  0.0493  0.5177  0.5616
 7784SOL    HW134988   4.511   2.209   1.260  1.2991  0.9175  0.6217
 7784SOL    HW234989   4.542   2.238   1.398 -0.5011 -0.6755  0.4137
 7785SOL     OW34990   0.929   0.041   6.730  0.4952  0.3935 -0.2322
 7785SOL    HW134991   0.930   0.128   6.690 -1.3401  0.2065 -0.6808
 7785SOL    HW234992   1.023   0.031   6.744  0.3691  2.6588  2.1303
 7786SOL     OW34993   0.156   4.064   6.050  0.1914  0.5296  0.3613
 7786SOL    HW134994   0.087   4.108   6.101  1.3551  2.2187  0.4831
 7786SOL    HW234995   0.106   4.020   5.982  1.3993 -0.3123  0.0232
 7787SOL     OW34996   0.771   2.423   4.095 -0.3753  0.0445  1.0935
 7787SOL    HW134997   0.695   2.470   4.063 -0.2411 -1.1957 -1.0463
 7787SOL    HW234998   0.844   2.477   4.065  1.0206 -1.6516  1.4066
 7788SOL     OW34999   1.848   0.053   7.967  0.4325  0.0050  0.0150
 7788SOL    HW135000   1.754   0.073   7.975  0.1306 -1.6612  0.7748
 7788SOL    HW235001   1.890   0.121   8.020  1.1695 -0.3511 -0.1238
 7789SOL     OW35002   1.794   4.235   8.346  0.1357 -0.4393 -0.1013
 7789SOL    HW135003   1.737   4.312   8.346 -1.6712 -1.7691 -1.3638
 7789SOL    HW235004   1.877   4.281   8.355  0.1903 -0.4416 -0.6117
 7790SOL     OW35005   1.940   3.846   5.978  0.0001  0.3996  0.3879
 7790SOL    HW135006   1.928   3.935   6.009  1.5153  0.4880  0.7357
 7790SOL    HW235007   1.995   3.858   5.900  0.7523 -2.4557  0.4788
 7791SOL     OW35008   4.087   1.434   2.991 -0.1072  0.0452  0.3871
 7791SOL    HW135009   4.100   1.345   3.026 -2.4502 -0.0698  0.9306
 7791SOL    HW235010   4.137   1.479   3.059  0.1620  0.6261 -0.1983
 7792SOL     OW35011   1.839   2.480   5.085 -0.0411 -0.6554  0.1364
 7792SOL    HW135012   1.804   2.537   5.154 -0.7409 -1.0054  0.0762
 7792SOL    HW235013   1.869   2.545   5.021 -0.9990  0.1071  0.4531
 7793SOL     OW35014   2.407   2.581  15.166 -0.7165 -0.3826  0.2646
 7793SOL    HW135015   2.405   2.574  15.070 -1.9419 -1.6040  0.3837
 7793SOL    HW235016   2.338   2.646  15.180  0.3940  1.1663 -1.4251
 7794SOL     OW35017   0.627   0.523   2.940  0.0178  0.4647 -0.1470
 7794SOL    HW135018   0.588   0.603   2.974 -0.3267 -0.4934  1.6854
 7794SOL    HW235019   0.716   0.550   2.921  1.2158 -3.6318 -0.3276
 7795SOL     OW35020   1.869   0.982   5.221  0.4305  0.2205 -0.1177
 7795SOL    HW135021   1.923   0.918   5.174 -1.3954  0.8212 -3.0449
 7795SOL    HW235022   1.787   0.946   5.187  2.0118 -2.7633 -0.8166
 7796SOL     OW35023   0.132   3.965   4.377 -0.1127 -0.2536  0.1370
 7796SOL    HW135024   0.064   3.904   4.348  0.5302 -0.5534 -0.7226
 7796SOL    HW235025   0.116   3.967   4.471 -0.6629  1.5396  0.0029
 7797SOL     OW35026   4.481   1.347   5.050  0.3398 -0.1971 -0.0586
 7797SOL    HW135027   4.529   1.331   5.131 -1.5765 -2.1950  0.6767
 7797SOL    HW235028   4.444   1.432   5.072  0.1514 -0.2596 -0.1359
 7798SOL     OW35029   0.328   0.954   4.065 -0.2054  0.1874 -0.2628
 7798SOL    HW135030   0.244   0.916   4.042 -0.9705  0.3645  2.2554
 7798SOL    HW235031   0.372   0.939   3.981 -0.1830 -2.8009  0.2736
 7799SOL     OW35032   2.158   1.895   7.077 -0.2627  0.3959 -0.3345
 7799SOL    HW135033   2.240   1.851   7.099  0.3424  1.4700 -0.4299
 7799SOL    HW235034   2.151   1.900   6.982 -0.5023 -0.6750 -0.3677
 7800SOL     OW35035   3.191   2.527   8.857  0.1051  0.1008  0.0305
 7800SOL    HW135036   3.239   2.591   8.909 -1.4459  2.8648 -1.9538
 7800SOL    HW235037   3.201   2.445   8.905 -0.7536 -0.6995 -1.1439
 7801SOL     OW35038   4.051   1.918  17.282  0.3645 -0.3666  0.4397
 7801SOL    HW135039   4.064   1.950  17.193  1.2626 -2.4343 -0.1839
 7801SOL    HW235040   4.063   1.999  17.332  0.5263  0.2410 -0.6017
 7802SOL     OW35041   3.850   1.031   1.301  0.1766  0.6134 -0.2589
 7802SOL    HW135042   3.827   1.120   1.275 -2.5572 -0.2027 -0.6135
 7802SOL    HW235043   3.841   0.990   1.215 -3.1819  1.2422 -0.2087
 7803SOL     OW35044   1.990   4.462   6.761 -0.0375  0.1018  0.2922
 7803SOL    HW135045   1.907   4.461   6.713  1.8246  0.5749 -2.9287
 7803SOL    HW235046   1.996   4.554   6.786  0.5851  0.5030 -1.3290
 7804SOL     OW35047   3.966   2.975   3.204 -0.0953  0.4218 -0.8729
 7804SOL    HW135048   3.933   2.903   3.152 -1.1078  0.2874 -0.0329
 7804SOL    HW235049   4.058   2.980   3.179  0.1601  0.3888  0.0414
 7805SOL     OW35050   2.295   3.408   6.230  0.1905 -0.3324 -0.2571
 7805SOL    HW135051   2.361   3.371   6.289 -0.9647 -0.1879  1.1524
 7805SOL    HW235052   2.346   3.456   6.165  1.0711  0.8053  1.2695
 7806SOL     OW35053   0.531   0.633   3.799 -0.4286 -0.3448 -0.1264
 7806SOL    HW135054   0.555   0.545   3.827  1.1630  0.3809  0.7677
 7806SOL    HW235055   0.577   0.634   3.715  0.2786 -1.3299  0.2557
 7807SOL     OW35056   2.675   4.620  10.907 -0.2417  0.5425  0.1778
 7807SOL    HW135057   2.741   4.551  10.905 -1.3259 -0.3940 -2.6946
 7807SOL    HW235058   2.730   4.698  10.915  0.4658  0.0467  0.2152
 7808SOL     OW35059   2.817   2.769   1.848  0.0836  0.1561 -0.3017
 7808SOL    HW135060   2.797   2.706   1.779 -0.4017 -0.1167  0.0876
 7808SOL    HW235061   2.847   2.840   1.791  1.9919  0.1866  0.7442
 7809SOL     OW35062   0.948   4.735  15.846 -0.0910 -0.3192 -0.4071
 7809SOL    HW135063   0.868   0.050  15.863  1.4570  1.2937  2.0424
 7809SOL    HW235064   0.961   0.001  15.751 -0.7404  0.9024 -0.4684
 7810SOL     OW35065   2.768   0.457   9.241 -0.0352 -0.0987  0.1903
 7810SOL    HW135066   2.839   0.506   9.281 -1.1425 -0.0926  2.1629
 7810SOL    HW235067   2.740   0.518   9.173  1.5906  1.7323  1.1596
 7811SOL     OW35068   3.324   4.694  11.422 -0.2061 -0.0109  0.8131
 7811SOL    HW135069   3.407   4.671  11.464  0.2101 -2.1093 -1.1779
 7811SOL    HW235070   3.316   0.043  11.465 -2.7314 -0.0225  0.3437
 7812SOL     OW35071   2.863   0.263  12.100  0.0660  0.0826 -0.1964
 7812SOL    HW135072   2.806   0.328  12.060  0.7117  2.5119  2.8659
 7812SOL    HW235073   2.948   0.305  12.087 -0.8467  1.8839 -0.3583
 7813SOL     OW35074   0.808   2.084   4.513  0.2529 -0.2416  0.0543
 7813SOL    HW135075   0.872   2.033   4.463 -0.2641 -1.1712  0.3283
 7813SOL    HW235076   0.818   2.176   4.488  2.6265 -0.6670 -0.5612
 7814SOL     OW35077   4.095   3.721   8.355 -0.6316  0.2608 -0.1422
 7814SOL    HW135078   4.190   3.727   8.364 -0.5616  0.7405 -1.2321
 7814SOL    HW235079   4.092   3.646   8.295 -1.2223 -0.0763  0.2994
 7815SOL     OW35080   2.395   3.113   4.024  0.4126  0.6957  0.4191
 7815SOL    HW135081   2.318   3.081   3.977  0.5231 -0.5430  1.0653
 7815SOL    HW235082   2.359   3.180   4.082  1.8533  0.0405  2.0837
 7816SOL     OW35083   1.870   0.515   9.355  0.3267  0.0628 -0.0535
 7816SOL    HW135084   1.956   0.472   9.352  1.2548  2.0133 -1.1689
 7816SOL    HW235085   1.834   0.465   9.429 -0.8436 -0.0493 -0.6998
 7817SOL     OW35086   3.457   2.230   2.562 -0.1551  0.7621 -0.3222
 7817SOL    HW135087   3.479   2.137   2.566 -0.0130  0.7641 -1.0352
 7817SOL    HW235088   3.490   2.255   2.648  1.9139  2.5271 -1.6354
 7818SOL     OW35089   4.420   4.591  12.002  0.3610  0.4878  0.1057
 7818SOL    HW135090   4.446   4.547  11.921  1.6455 -0.3281  0.9539
 7818SOL    HW235091   4.445   4.682  11.986  0.2717  0.6084  0.6490
 7819SOL     OW35092   1.120   1.234   8.632  0.1477  0.4546 -0.3346
 7819SOL    HW135093   1.183   1.213   8.700 -0.8832 -2.0986 -0.2028
 7819SOL    HW235094   1.049   1.255   8.692  0.4448  1.0565 -0.1915
 7820SOL     OW35095   1.799   4.236   2.852 -0.0383 -0.1349 -0.6000
 7820SOL    HW135096   1.736   4.266   2.787 -1.7043  1.4406  1.7522
 7820SOL    HW235097   1.855   4.184   2.795 -2.2822 -1.4334 -1.6249
 7821SOL     OW35098   2.592   4.097  13.893  0.5417 -0.0509  0.2632
 7821SOL    HW135099   2.542   4.171  13.859  0.4201 -0.5700 -0.6902
 7821SOL    HW235100   2.517   4.038  13.895 -0.1169  0.7058 -1.9065
 7822SOL     OW35101   1.318   1.468   6.234  0.3924  0.0650 -0.2875
 7822SOL    HW135102   1.381   1.465   6.161 -0.9951  1.4751 -1.5515
 7822SOL    HW235103   1.311   1.376   6.260  0.8689 -0.0573 -0.5915
 7823SOL     OW35104   0.178   2.107  10.404 -0.4997 -0.4497 -0.1581
 7823SOL    HW135105   0.168   2.023  10.359 -0.9519 -0.7401  0.4826
 7823SOL    HW235106   0.090   2.142  10.390 -0.7073 -1.6638 -1.9703
 7824SOL     OW35107   3.256   3.201   9.529 -0.0144  0.1720  0.7243
 7824SOL    HW135108   3.330   3.262   9.537  1.0715 -0.8054 -2.0165
 7824SOL    HW235109   3.205   3.225   9.607  0.0129 -1.0620  1.1168
 7825SOL     OW35110   1.640   4.718  14.300 -0.3290  0.0671 -0.5773
 7825SOL    HW135111   1.592   4.664  14.237 -0.5493 -0.5440  0.1111
 7825SOL    HW235112   1.560   0.023  14.331 -1.4007 -0.1983 -2.9641
 7826SOL     OW35113   2.260   1.763  12.926  0.8992  0.2143 -0.4406
 7826SOL    HW135114   2.261   1.694  12.993  2.0203  0.4279 -0.2321
 7826SOL    HW235115   2.329   1.730  12.869  0.0446 -1.3517 -0.5758
 7827SOL     OW35116   2.328   2.795   7.082  0.3494  0.4959 -0.0290
 7827SOL    HW135117   2.335   2.755   7.168  0.6561 -1.0921 -0.8050
 7827SOL    HW235118   2.249   2.846   7.099  1.6277  2.1260  1.0772
 7828SOL     OW35119   2.927   1.926   6.220 -0.5866  0.1769 -0.9772
 7828SOL    HW135120   2.957   1.996   6.162 -1.5906  1.1990 -0.2639
 7828SOL    HW235121   2.942   1.857   6.155  1.4072  0.8497 -1.2153
 7829SOL     OW35122   0.776   3.012   4.356  0.2514  0.4257 -0.4767
 7829SOL    HW135123   0.761   3.076   4.286 -1.2649  1.0710  0.4273
 7829SOL    HW235124   0.692   3.024   4.400  0.6395 -1.4645  0.7855
 7830SOL     OW35125   3.410   2.948   9.756  0.4333  0.3135 -0.2317
 7830SOL    HW135126   3.370   2.862   9.742  0.2222  0.3060  0.4000
 7830SOL    HW235127   3.504   2.934   9.746  0.2773  0.6164 -2.1220
 7831SOL     OW35128   4.114   2.235   6.224 -0.1376  0.4966 -0.0869
 7831SOL    HW135129   4.031   2.225   6.179  1.9833 -1.4758 -3.6155
 7831SOL    HW235130   4.183   2.212   6.162 -0.8393 -2.0636  0.0878
 7832SOL     OW35131   3.228   4.728   1.807 -0.3994 -0.3522  0.7689
 7832SOL    HW135132   3.211   4.726   1.901 -1.2863 -4.0239  0.5309
 7832SOL    HW235133   3.143   0.021   1.774 -0.6446 -0.4804  1.2904
 7833SOL     OW35134   2.723   1.465   8.606  0.0054 -0.0822 -0.3294
 7833SOL    HW135135   2.700   1.372   8.612 -0.8531  0.0691 -1.3749
 7833SOL    HW235136   2.631   1.490   8.617 -0.0749 -0.9042  0.9518
 7834SOL     OW35137   4.662   1.755   5.253  0.5428  0.3323 -0.6823
 7834SOL    HW135138   4.713   1.691   5.303 -1.3991 -0.5252  0.2133
 7834SOL    HW235139   4.680   1.741   5.161  4.4324  0.5924  0.0437
 7835SOL     OW35140   0.929   0.051   7.281  0.2237  0.6011 -0.4612
 7835SOL    HW135141   0.955   4.698   7.303 -1.1636 -0.1649 -1.9898
 7835SOL    HW235142   0.842   0.070   7.316  1.0618  2.0007  0.8644
 7836SOL     OW35143   1.420   2.850  10.884 -0.1387  0.1727  1.2144
 7836SOL    HW135144   1.461   2.854  10.797 -0.3064 -1.7421  1.0652
 7836SOL    HW235145   1.436   2.759  10.908  0.5200 -0.0910 -0.2000
 7837SOL     OW35146   2.009   1.601   8.045 -0.0026  0.2674 -0.9052
 7837SOL    HW135147   2.024   1.606   7.950  3.1662 -0.5017 -0.4470
 7837SOL    HW235148   1.921   1.639   8.048 -0.1927 -0.0304 -2.7341
 7838SOL     OW35149   4.699   4.161   4.727  0.0425 -0.8105 -1.2283
 7838SOL    HW135150   4.656   4.245   4.739 -1.7457 -1.8961 -0.1065
 7838SOL    HW235151   4.657   4.126   4.648 -0.1940  0.5659 -1.7213
 7839SOL     OW35152   1.258   0.050  16.347  0.4981 -0.0173  0.4221
 7839SOL    HW135153   1.179   0.074  16.395  0.3077  1.3083 -0.5761
 7839SOL    HW235154   1.328   0.102  16.387 -0.3971  2.1617 -0.8610
 7840SOL     OW35155   3.519   3.295  15.549 -0.2186  0.5272 -0.0397
 7840SOL    HW135156   3.502   3.389  15.545  2.2199  0.8931 -1.8597
 7840SOL    HW235157   3.606   3.275  15.514 -0.5630 -0.7568 -0.1690
 7841SOL     OW35158   2.777   4.401   9.639 -0.5095 -0.3099  0.1263
 7841SOL    HW135159   2.688   4.372   9.616  0.8792 -2.6754 -2.2927
 7841SOL    HW235160   2.757   4.473   9.699  1.2900  1.7646 -1.7897
 7842SOL     OW35161   1.282   0.840   6.452  0.1459  0.6644 -0.2263
 7842SOL    HW135162   1.284   0.751   6.489  1.3231  0.4711 -0.7344
 7842SOL    HW235163   1.322   0.900   6.516  1.6475  0.5100 -1.0173
 7843SOL     OW35164   0.696   1.648   2.929  0.2074 -0.3705  0.5017
 7843SOL    HW135165   0.611   1.605   2.934 -0.1747  0.5695  1.8873
 7843SOL    HW235166   0.708   1.694   2.846 -2.4853 -0.9049 -0.1615
 7844SOL     OW35167   0.149   1.656   3.398  0.4301 -0.8745 -0.4193
 7844SOL    HW135168   0.056   1.644   3.416  0.3758  0.4817  0.1894
 7844SOL    HW235169   0.145   1.716   3.323  0.9105  0.4614  0.6135
 7845SOL     OW35170   1.476   3.586   5.196 -0.0536  0.4538 -0.1755
 7845SOL    HW135171   1.386   3.576   5.227 -0.4401 -0.7525 -1.7007
 7845SOL    HW235172   1.479   3.675   5.161 -1.2843  0.6265  0.1703
 7846SOL     OW35173   1.478   3.139   8.176  0.2501 -0.2243  0.5650
 7846SOL    HW135174   1.387   3.152   8.150  0.5020  0.0132 -0.2132
 7846SOL    HW235175   1.503   3.054   8.137  1.5526  0.3699  0.0925
 7847SOL     OW35176   1.659   0.725   7.881  0.9141  0.4937  0.1794
 7847SOL    HW135177   1.710   0.645   7.895  1.1313  0.3042 -1.6309
 7847SOL    HW235178   1.568   0.698   7.894  1.1146  1.8271  4.1604
 7848SOL     OW35179   2.904   1.758   3.901 -0.4532 -0.5780 -0.3800
 7848SOL    HW135180   2.987   1.720   3.926 -0.2600  1.1411  1.6085
 7848SOL    HW235181   2.884   1.711   3.820  2.0277  0.7849 -1.7876
 7849SOL     OW35182   0.797   0.894   3.562  0.3979 -0.0982  0.2328
 7849SOL    HW135183   0.888   0.865   3.562  0.4716  0.1509 -1.1725
 7849SOL    HW235184   0.750   0.820   3.524  0.0699 -0.3624  1.1684
 7850SOL     OW35185   1.594   1.505   5.775  0.3700 -0.1769 -0.1416
 7850SOL    HW135186   1.562   1.522   5.687  0.0000 -1.4726 -0.2544
 7850SOL    HW235187   1.686   1.480   5.767  0.2356 -0.5235 -0.5738
 7851SOL     OW35188   0.674   3.781   6.400  0.2147  0.2352 -0.8318
 7851SOL    HW135189   0.756   3.752   6.441  0.2648  1.0932 -0.3278
 7851SOL    HW235190   0.615   3.801   6.472  0.9196  0.3325 -0.2759
 7852SOL     OW35191   4.146   2.245   1.664 -0.2731 -0.3734 -0.0344
 7852SOL    HW135192   4.134   2.248   1.759 -0.7086 -0.1075 -0.0962
 7852SOL    HW235193   4.241   2.233   1.667 -0.3079 -0.6744 -0.1882
 7853SOL     OW35194   1.230   0.722  14.618 -0.4009  0.2300  0.7527
 7853SOL    HW135195   1.221   0.692  14.708  0.6038 -2.6230 -0.1098
 7853SOL    HW235196   1.156   0.783  14.623 -0.9473 -0.4871  1.2869
 7854SOL     OW35197   0.631   1.851   9.115 -0.3745  0.1877 -0.1764
 7854SOL    HW135198   0.597   1.763   9.133  0.3128 -0.1665 -0.6298
 7854SOL    HW235199   0.556   1.891   9.071 -0.5332 -0.7335 -0.7312
 7855SOL     OW35200   2.845   2.094   2.601 -0.1171 -0.4517  0.7709
 7855SOL    HW135201   2.900   2.162   2.563 -0.4739 -1.4179 -1.4431
 7855SOL    HW235202   2.784   2.074   2.530 -1.5281  0.5667  1.7083
 7856SOL     OW35203   1.287   0.350   1.976 -0.0463  0.2575 -0.0368
 7856SOL    HW135204   1.284   0.398   1.893  1.8496 -0.7316 -0.6990
 7856SOL    HW235205   1.376   0.380   1.998 -0.2175 -0.6152  1.8779
 7857SOL     OW35206   2.657   1.265   2.241 -0.1100  0.3933  0.1569
 7857SOL    HW135207   2.680   1.243   2.331 -0.4737 -2.4197 -0.4464
 7857SOL    HW235208   2.662   1.360   2.231  0.9487  0.3576  0.4326
 7858SOL     OW35209   2.168   4.168   2.534 -0.2655 -0.3872 -0.7707
 7858SOL    HW135210   2.121   4.235   2.584  0.5467 -0.0784 -0.4145
 7858SOL    HW235211   2.144   4.091   2.585 -1.2290 -0.1460 -0.8763
 7859SOL     OW35212   2.021   1.763   8.657 -0.0743 -0.0016  0.4195
 7859SOL    HW135213   1.933   1.773   8.694 -0.1609 -0.9273  0.4630
 7859SOL    HW235214   2.047   1.854   8.665  0.3854 -0.0929 -0.0479
 7860SOL     OW35215   1.086   2.859  10.121  0.1919  0.3428  0.5429
 7860SOL    HW135216   1.101   2.950  10.094  2.1864 -0.4287 -0.9492
 7860SOL    HW235217   1.145   2.813  10.062 -0.7030  0.4718 -0.4546
 7861SOL     OW35218   3.968   2.344  11.321  0.0290 -0.0680  0.0426
 7861SOL    HW135219   4.018   2.365  11.242 -4.7134  2.7534 -2.2425
 7861SOL    HW235220   3.944   2.432  11.351 -0.6436 -0.5480  0.9051
 7862SOL     OW35221   0.873   3.486  14.160 -0.1585  0.0454 -0.1949
 7862SOL    HW135222   0.836   3.461  14.075  0.2466 -0.8656 -0.1033
 7862SOL    HW235223   0.877   3.398  14.197 -1.1400 -0.6776 -1.7662
 7863SOL     OW35224   0.141   3.258  15.249 -0.1241  0.8116  0.2852
 7863SOL    HW135225   0.199   3.183  15.259 -0.3036  0.7403  0.7784
 7863SOL    HW235226   0.192   3.325  15.203  2.3292 -0.8639  0.5796
 7864SOL     OW35227   3.973   0.564  17.153  0.2899 -0.4956 -0.2354
 7864SOL    HW135228   4.019   0.516  17.084 -0.3890 -2.8291  0.9277
 7864SOL    HW235229   4.014   0.650  17.147  0.0090 -0.4240 -1.0360
 7865SOL     OW35230   0.400   2.805  13.188  0.2673  0.5240  0.4408
 7865SOL    HW135231   0.401   2.710  13.175 -0.2022  0.2273  2.6165
 7865SOL    HW235232   0.328   2.817  13.250  0.8727  0.0580  1.2380
 7866SOL     OW35233   0.101   4.418   9.034  0.6496 -0.0329  0.1271
 7866SOL    HW135234   0.009   4.392   9.034  0.9106 -0.9387  0.3695
 7866SOL    HW235235   0.083   4.495   8.980 -0.0044  0.4481  1.0369
 7867SOL     OW35236   0.709   2.823   8.362 -0.5178 -0.4592 -0.4803
 7867SOL    HW135237   0.742   2.734   8.378  0.8678  0.1873  0.2290
 7867SOL    HW235238   0.655   2.825   8.283 -2.0813  1.0913  0.6253
 7868SOL     OW35239   0.887   2.124  12.972  0.2654  0.0719  0.0198
 7868SOL    HW135240   0.793   2.121  12.990  0.0213  2.6502 -0.8207
 7868SOL    HW235241   0.884   2.139  12.878  0.3167 -2.3871 -0.3511
 7869SOL     OW35242   0.805   4.512   8.125 -0.1677 -0.0964  0.0425
 7869SOL    HW135243   0.810   4.445   8.056 -1.4779  1.1360 -1.2659
 7869SOL    HW235244   0.828   4.466   8.205 -0.1655  1.2262  0.7946
 7870SOL     OW35245   4.173   3.406   6.161  0.3609  0.3592  0.0107
 7870SOL    HW135246   4.078   3.413   6.163  0.2722  0.5258 -3.6266
 7870SOL    HW235247   4.181   3.501   6.173 -0.7425  0.5451 -0.7305
 7871SOL     OW35248   3.781   1.520   8.528 -0.4504 -0.0227  0.0506
 7871SOL    HW135249   3.777   1.616   8.523  0.3760 -0.0284 -0.7004
 7871SOL    HW235250   3.729   1.485   8.456 -0.3005 -0.2592  0.0589
 7872SOL     OW35251   2.430   4.359  12.400  0.4126  0.1073 -0.3293
 7872SOL    HW135252   2.401   4.439  12.443  0.0950 -1.0383  1.5847
 7872SOL    HW235253   2.467   4.392  12.319 -0.4745 -2.0253 -1.6026
 7873SOL     OW35254   2.818   3.099   5.375  0.2976 -0.2860  0.6649
 7873SOL    HW135255   2.866   3.128   5.298  0.1282 -0.8412  0.3518
 7873SOL    HW235256   2.826   3.003   5.372 -0.1275 -0.2604 -0.9894
 7874SOL     OW35257   3.667   1.220   8.305 -0.4941  0.5527 -0.2160
 7874SOL    HW135258   3.698   1.193   8.392 -2.0992  2.1928  0.8724
 7874SOL    HW235259   3.721   1.171   8.243  1.0585  2.3699 -0.3081
 7875SOL     OW35260   1.831   3.562   2.020  0.1672  1.0772  0.0968
 7875SOL    HW135261   1.804   3.641   1.974 -0.5270  1.8661  1.8868
 7875SOL    HW235262   1.779   3.498   1.972  0.7220  2.1393 -1.9569
 7876SOL     OW35263   3.490   2.593  13.728  0.1155  0.5815 -0.2203
 7876SOL    HW135264   3.516   2.521  13.670  1.8317  1.6108 -0.7112
 7876SOL    HW235265   3.470   2.547  13.810 -1.5120 -0.1993 -1.0565
 7877SOL     OW35266   1.848   0.869   3.950 -0.1432 -0.1973  0.0575
 7877SOL    HW135267   1.912   0.937   3.929 -1.6510  0.2021 -3.2142
 7877SOL    HW235268   1.904   0.794   3.968  1.2692  0.5067 -1.4414
 7878SOL     OW35269   2.169   2.581   5.041 -0.6838  0.3075 -0.9437
 7878SOL    HW135270   2.228   2.625   4.980  0.2150 -1.1808 -1.1721
 7878SOL    HW235271   2.204   2.596   5.129 -1.5664 -0.4696 -0.4587
 7879SOL     OW35272   4.299   2.758   8.624  0.3360  1.0347  0.0036
 7879SOL    HW135273   4.268   2.820   8.690  1.9882  1.4145  0.4105
 7879SOL    HW235274   4.311   2.682   8.681  0.0195 -0.3733 -1.8230
 7880SOL     OW35275   0.638   0.455   2.426  0.2815 -0.1310  0.0255
 7880SOL    HW135276   0.610   0.516   2.358  1.5869 -0.7117 -1.0304
 7880SOL    HW235277   0.575   0.385   2.406  0.9917 -0.2900 -1.7060
 7881SOL     OW35278   3.153   1.971   2.908  0.4145 -0.3516 -0.5679
 7881SOL    HW135279   3.138   2.063   2.928 -0.3879 -0.5914 -0.0256
 7881SOL    HW235280   3.070   1.925   2.921  0.8333 -1.1799 -0.8402
 7882SOL     OW35281   2.699   3.645   1.146  0.1567 -0.1717 -0.0677
 7882SOL    HW135282   2.708   3.552   1.128 -1.4559  0.0417 -2.0184
 7882SOL    HW235283   2.617   3.651   1.195 -0.0650  0.7645 -0.5446
 7883SOL     OW35284   2.409   2.581   4.716 -0.0758 -0.1894 -0.6566
 7883SOL    HW135285   2.377   2.491   4.719 -2.0755  0.4858 -1.7480
 7883SOL    HW235286   2.330   2.634   4.709 -0.2696 -0.1120  2.3526
 7884SOL     OW35287   1.568   1.154   5.052  0.4794 -0.0805  0.6840
 7884SOL    HW135288   1.589   1.067   5.085  0.9348 -0.0614  0.4414
 7884SOL    HW235289   1.579   1.208   5.130  0.7606  0.3552  0.3363
 7885SOL     OW35290   4.679   3.257  17.436 -0.1191 -0.5342 -0.1836
 7885SOL    HW135291   4.614   3.311  17.482  1.1197  1.2987 -0.5494
 7885SOL    HW235292   4.618   3.209  17.380 -0.1425 -1.7683  0.9050
 7886SOL     OW35293   3.044   0.662   7.543  0.2021 -0.7857 -0.1190
 7886SOL    HW135294   3.075   0.578   7.508 -1.5954 -0.7541 -1.7633
 7886SOL    HW235295   3.052   0.637   7.635 -1.4503  0.9768  0.4851
 7887SOL     OW35296   3.410   2.718   9.604 -0.0109  0.5491 -0.1047
 7887SOL    HW135297   3.405   2.629   9.570  0.5915 -0.1374  1.6455
 7887SOL    HW235298   3.348   2.760   9.544 -1.3408  0.3243  1.1123
 7888SOL     OW35299   1.194   4.318   7.771  0.1721  0.1496  0.4901
 7888SOL    HW135300   1.192   4.393   7.711 -1.2652 -1.4314 -1.3954
 7888SOL    HW235301   1.157   4.243   7.725  0.1281  0.2933  0.2911
 7889SOL     OW35302   0.460   2.721   4.399 -0.0714 -0.1283  0.7469
 7889SOL    HW135303   0.474   2.809   4.433 -0.2622  0.7416 -1.4072
 7889SOL    HW235304   0.365   2.716   4.410 -0.0411 -1.7101  0.3292
 7890SOL     OW35305   2.028   0.679   5.356  0.2357  0.1441  0.4657
 7890SOL    HW135306   1.984   0.594   5.349  1.2524 -0.1304 -2.6074
 7890SOL    HW235307   2.112   0.674   5.311  0.2583  0.6380  0.4514
 7891SOL     OW35308   2.209   2.530  10.228  0.1088  0.1848  0.4012
 7891SOL    HW135309   2.199   2.530  10.323  0.8746 -0.6799  0.4817
 7891SOL    HW235310   2.209   2.435  10.217 -3.6114  0.2778 -0.3019
 7892SOL     OW35311   0.329   0.925   7.793 -0.0807  0.4400  0.0648
 7892SOL    HW135312   0.276   0.988   7.745  1.2442  0.2880 -1.5998
 7892SOL    HW235313   0.394   0.903   7.726  1.9804  0.0637  2.1744
 7893SOL     OW35314   3.131   2.236   3.559 -0.6984  0.3081  0.7121
 7893SOL    HW135315   3.149   2.288   3.637 -0.4919  0.0068  0.8648
 7893SOL    HW235316   3.129   2.146   3.591  1.6345  0.8665  2.4558
 7894SOL     OW35317   2.062   4.278  14.299  0.4887 -0.4217 -0.2686
 7894SOL    HW135318   2.013   4.322  14.230 -0.7438 -1.0360  0.2103
 7894SOL    HW235319   2.106   4.354  14.337 -0.1284 -0.3916  0.3841
 7895SOL     OW35320   3.159   0.661  12.259  0.5544 -0.6214 -0.0700
 7895SOL    HW135321   3.105   0.737  12.280  0.2521 -1.6324  2.8307
 7895SOL    HW235322   3.127   0.600  12.325  0.0953 -2.0003 -1.5748
 7896SOL     OW35323   3.052   4.191  14.258 -0.2066  0.2480  0.4849
 7896SOL    HW135324   3.070   4.097  14.253  1.2011  0.6499 -2.2683
 7896SOL    HW235325   2.962   4.192  14.227 -0.1559  1.6247  0.3844
 7897SOL     OW35326   2.363   3.067   6.761 -0.2680  0.4272  0.6632
 7897SOL    HW135327   2.440   3.010   6.760 -0.1682  0.5708  0.0810
 7897SOL    HW235328   2.396   3.129   6.827  2.4475  0.7893 -1.0480
 7898SOL     OW35329   4.302   4.101  16.357 -1.2673 -0.1863 -0.8019
 7898SOL    HW135330   4.339   4.169  16.301 -1.3977 -0.4809 -1.2498
 7898SOL    HW235331   4.359   4.027  16.334  0.1593  0.8310 -0.5089
 7899SOL     OW35332   0.854   3.404   1.534 -0.5881 -0.1863  0.1576
 7899SOL    HW135333   0.759   3.405   1.552 -0.6975  2.1628 -0.5154
 7899SOL    HW235334   0.886   3.334   1.591 -0.5906 -2.4574 -2.6526
 7900SOL     OW35335   2.335   1.229   1.488 -0.0509  0.3070 -0.1793
 7900SOL    HW135336   2.308   1.293   1.422  1.2271 -0.6795 -1.6705
 7900SOL    HW235337   2.378   1.164   1.432  0.8908  1.4333 -0.7577
 7901SOL     OW35338   2.827   3.154   9.666 -0.1176  0.4713 -0.0763
 7901SOL    HW135339   2.872   3.083   9.619  1.8178  1.1757  0.7287
 7901SOL    HW235340   2.743   3.148   9.619  1.2233  1.3341 -2.5821
 7902SOL     OW35341   2.392   1.754   7.116 -0.1942  0.4644 -0.2233
 7902SOL    HW135342   2.435   1.720   7.195  0.2454 -0.3878 -0.8279
 7902SOL    HW235343   2.462   1.723   7.058 -0.4484 -0.9058  0.1954
 7903SOL     OW35344   0.680   2.556  11.545  0.2364  0.5519 -0.3052
 7903SOL    HW135345   0.754   2.537  11.603  0.9254 -1.3080 -1.7869
 7903SOL    HW235346   0.638   2.470  11.544 -1.4311  1.3372  1.1482
 7904SOL     OW35347   1.585   1.678  12.172 -0.1412 -0.1258 -0.8088
 7904SOL    HW135348   1.680   1.671  12.164  0.0292  0.5698  0.5863
 7904SOL    HW235349   1.567   1.607  12.233 -4.5179  1.1299 -0.6024
 7905SOL     OW35350   0.406   1.533  15.305 -0.1709 -0.0124 -0.2030
 7905SOL    HW135351   0.342   1.604  15.308  0.0704  0.1644  0.7282
 7905SOL    HW235352   0.449   1.549  15.222  1.0195 -0.2262  0.3791
 7906SOL     OW35353   3.942   1.170  13.275  0.2943 -0.1592 -0.4211
 7906SOL    HW135354   4.035   1.190  13.282  0.3876 -0.2532 -1.3907
 7906SOL    HW235355   3.916   1.222  13.199 -0.9097  1.0406  0.8108
 7907SOL     OW35356   2.700   1.786  16.634  0.4968  0.0300 -0.1575
 7907SOL    HW135357   2.691   1.838  16.554 -0.7360 -0.7493 -0.5297
 7907SOL    HW235358   2.618   1.738  16.628  0.1321  0.8253 -1.5572
 7908SOL     OW35359   3.911   1.582   5.776  0.0020  0.1938 -0.3573
 7908SOL    HW135360   3.944   1.533   5.851  0.7005  0.8181 -0.2565
 7908SOL    HW235361   3.986   1.639   5.760 -0.1678  0.6124  0.3506
 7909SOL     OW35362   3.990   0.608   4.897  0.0134 -0.3961  0.3864
 7909SOL    HW135363   3.950   0.522   4.910 -2.1407  0.2913 -1.6757
 7909SOL    HW235364   4.052   0.598   4.968 -1.3992  0.6246  1.7608
 7910SOL     OW35365   3.990   1.259   3.581 -0.2707 -0.2710 -0.5858
 7910SOL    HW135366   4.049   1.319   3.627 -1.3130  2.6931 -3.1470
 7910SOL    HW235367   4.046   1.193   3.540 -0.0514  1.4888 -3.1375
 7911SOL     OW35368   4.391   0.094  15.054 -0.0663 -0.3078  0.2075
 7911SOL    HW135369   4.444   0.150  15.112 -1.0862 -0.6992  1.5139
 7911SOL    HW235370   4.306   0.138  15.047  0.5132  0.8077  0.1736
 7912SOL     OW35371   3.397   4.709   5.721  0.2399  0.1418  0.0532
 7912SOL    HW135372   3.379   0.061   5.752 -2.4476 -1.3468  2.7483
 7912SOL    HW235373   3.352   4.659   5.789  1.3008 -1.3050 -0.2967
 7913SOL     OW35374   0.244   0.386   6.839  0.6435 -0.0035 -0.2956
 7913SOL    HW135375   0.302   0.337   6.897 -0.3613 -1.1273 -0.2551
 7913SOL    HW235376   0.282   0.384   6.752  0.5411  0.3671 -0.3501
 7914SOL     OW35377   1.592   2.970   7.353 -0.1013 -0.0941  0.0224
 7914SOL    HW135378   1.624   2.939   7.268  0.4881 -1.1804  0.6413
 7914SOL    HW235379   1.511   3.013   7.327 -0.8902 -0.3440  2.0313
 7915SOL     OW35380   2.689   3.027  10.400  0.3101  1.0331 -0.1685
 7915SOL    HW135381   2.721   3.053  10.313  0.8101 -0.0956 -0.3121
 7915SOL    HW235382   2.649   3.111  10.423 -0.6640  0.2303  1.0578
 7916SOL     OW35383   0.099   1.246   6.764  0.7095 -0.5874  0.4488
 7916SOL    HW135384   0.012   1.272   6.794 -0.2764 -1.9028 -1.2776
 7916SOL    HW235385   0.129   1.333   6.737  0.2036 -1.1394 -1.8765
 7917SOL     OW35386   2.265   1.993  16.661  0.4657  0.2734 -0.4207
 7917SOL    HW135387   2.323   2.034  16.726 -0.3421  0.7983 -0.0353
 7917SOL    HW235388   2.181   2.035  16.680 -0.3748 -0.2686 -2.9669
 7918SOL     OW35389   0.509   3.130  10.627 -0.2906 -0.3889 -0.0995
 7918SOL    HW135390   0.429   3.170  10.659 -0.0500 -0.3870  0.5076
 7918SOL    HW235391   0.470   3.078  10.557 -1.4478 -0.0727  0.3216
 7919SOL     OW35392   2.872   3.556   4.557 -0.2437  0.3709  0.2819
 7919SOL    HW135393   2.809   3.603   4.503 -2.9360 -2.3477  1.0598
 7919SOL    HW235394   2.893   3.625   4.620 -2.0814  0.0139  1.2687
 7920SOL     OW35395   0.315   0.669  12.653 -0.3032  0.7105 -0.3493
 7920SOL    HW135396   0.327   0.754  12.694 -0.9569  0.0825  1.1672
 7920SOL    HW235397   0.362   0.612  12.715 -0.2359  1.0087 -0.1271
 7921SOL     OW35398   3.605   3.011   7.952  0.1851 -0.4866  0.0510
 7921SOL    HW135399   3.622   2.982   7.862  0.5817 -1.9646  0.6103
 7921SOL    HW235400   3.639   3.101   7.951 -0.6875 -0.1693 -0.5567
 7922SOL     OW35401   1.245   3.782  12.597 -0.2505 -0.0007  0.2890
 7922SOL    HW135402   1.162   3.782  12.645 -0.5420 -0.7159 -0.2133
 7922SOL    HW235403   1.237   3.864  12.549 -1.4679  0.4609  1.2972
 7923SOL     OW35404   0.575   2.080   5.746 -0.2972 -0.6121  0.2875
 7923SOL    HW135405   0.622   2.001   5.770 -0.0764 -0.1150  1.4804
 7923SOL    HW235406   0.619   2.088   5.661  1.1198  0.2452  1.1037
 7924SOL     OW35407   4.478   2.237   4.377  0.3420 -0.1783  0.5392
 7924SOL    HW135408   4.512   2.270   4.293  1.5665  1.8723  1.8455
 7924SOL    HW235409   4.503   2.314   4.429  1.2331 -0.0430 -0.0916
 7925SOL     OW35410   1.481   2.840   5.324 -0.0803  0.4217  0.3408
 7925SOL    HW135411   1.521   2.905   5.382  0.3093  1.4487 -1.0849
 7925SOL    HW235412   1.474   2.766   5.384 -0.5134 -0.2455 -0.5293
 7926SOL     OW35413   2.094   1.354   4.717  0.2454 -0.4280  0.3372
 7926SOL    HW135414   2.002   1.326   4.721  0.0192 -0.0471 -2.2787
 7926SOL    HW235415   2.139   1.272   4.697  0.7552 -0.0274 -0.1392
 7927SOL     OW35416   3.818   3.335  15.570  0.7423  0.4709 -0.1288
 7927SOL    HW135417   3.902   3.313  15.610 -0.4475 -0.5426  1.8072
 7927SOL    HW235418   3.815   3.269  15.501  0.2773 -0.2369  0.5625
 7928SOL     OW35419   4.555   0.397   5.892  0.1685 -0.5006 -0.0360
 7928SOL    HW135420   4.650   0.385   5.886  0.0924 -0.7299 -0.8354
 7928SOL    HW235421   4.521   0.339   5.824 -1.0614 -2.1314  1.9374
 7929SOL     OW35422   0.002   1.801   9.936 -0.4076  0.0093 -0.0514
 7929SOL    HW135423   4.675   1.862   9.972 -1.9449 -1.4446 -0.2933
 7929SOL    HW235424   4.732   1.725   9.994 -0.3669  1.1487  1.4424
 7930SOL     OW35425   0.536   0.949   4.258 -0.3085  0.4487  0.6166
 7930SOL    HW135426   0.533   0.859   4.290 -3.5499  0.5865  0.6455
 7930SOL    HW235427   0.454   0.948   4.209 -1.6545 -0.7863  2.8824
 7931SOL     OW35428   1.059   3.821  15.895 -0.1787 -0.2678  0.6400
 7931SOL    HW135429   1.095   3.862  15.973  1.6309 -0.7614  0.0575
 7931SOL    HW235430   1.119   3.749  15.875 -0.6775 -0.8291  1.1499
 7932SOL     OW35431   3.846   1.453   7.977  0.6797 -0.4918 -1.1019
 7932SOL    HW135432   3.811   1.538   8.005  0.1158 -0.1629 -2.7542
 7932SOL    HW235433   3.937   1.483   7.973 -0.8160  3.7766 -3.0191
 7933SOL     OW35434   0.340   1.621  16.861 -0.5915  0.0880 -0.1356
 7933SOL    HW135435   0.424   1.593  16.897  0.8363  1.7879 -2.1135
 7933SOL    HW235436   0.320   1.695  16.918  1.5852  0.1801  0.5050
 7934SOL     OW35437   3.924   4.196   6.546 -0.1363  0.7484  0.0161
 7934SOL    HW135438   3.877   4.225   6.624 -1.3537 -0.5960 -0.2127
 7934SOL    HW235439   3.896   4.264   6.486 -0.0322 -1.1083 -2.1471
 7935SOL     OW35440   1.317   4.568   9.655  0.0976  0.5841  0.2735
 7935SOL    HW135441   1.362   4.540   9.734 -0.4337 -0.4100  0.2236
 7935SOL    HW235442   1.281   4.652   9.685 -1.1842 -0.0564  0.5477
 7936SOL     OW35443   1.246   3.751   0.762  0.1499 -0.2068 -0.0506
 7936SOL    HW135444   1.230   3.825   0.821 -1.1256  0.5986 -1.4203
 7936SOL    HW235445   1.186   3.680   0.784 -1.0771  1.2064  1.2240
 7937SOL     OW35446   3.152   4.695   3.427  0.7215  0.3225  0.5736
 7937SOL    HW135447   3.072   4.660   3.387  1.1617  0.2218 -0.2334
 7937SOL    HW235448   3.202   4.613   3.429  0.1932 -0.0662 -1.6400
 7938SOL     OW35449   2.784   1.248   1.887  0.0863  0.5227  0.0279
 7938SOL    HW135450   2.692   1.274   1.883 -1.2341 -3.8803  1.8105
 7938SOL    HW235451   2.819   1.311   1.950  0.2339  0.7149 -0.2489
 7939SOL     OW35452   0.166   3.193   3.476  0.8221  0.2347  0.0431
 7939SOL    HW135453   0.202   3.222   3.393  1.5642  0.2702  0.3742
 7939SOL    HW235454   0.093   3.138   3.449  0.9699  0.9871 -1.8791
 7940SOL     OW35455   2.430   3.162   8.907  0.1896  0.1482 -0.1732
 7940SOL    HW135456   2.454   3.148   8.999  2.0750  0.2654 -0.6442
 7940SOL    HW235457   2.426   3.258   8.908  2.5892  0.2559 -0.9079
 7941SOL     OW35458   3.962   0.571  14.990  0.3537 -0.1313  0.1267
 7941SOL    HW135459   3.948   0.611  15.076 -0.5217  1.4947 -0.7564
 7941SOL    HW235460   4.017   0.500  15.021  0.4274  0.5030  1.4690
 7942SOL     OW35461   2.646   0.161   8.458  0.5733  0.1950 -0.2370
 7942SOL    HW135462   2.716   0.100   8.432  1.3645  1.6027 -1.4112
 7942SOL    HW235463   2.652   0.228   8.390  3.7335 -0.0168 -0.1738
 7943SOL     OW35464   2.974   4.218  15.756 -0.0791 -0.1182  0.4652
 7943SOL    HW135465   2.885   4.250  15.744  0.3915  0.7897 -0.5594
 7943SOL    HW235466   2.973   4.132  15.712 -1.1868 -0.0386  0.3459
 7944SOL     OW35467   2.225   1.974   2.871 -0.0988  0.1156  0.0930
 7944SOL    HW135468   2.145   1.994   2.921  0.3101  0.5336  0.5820
 7944SOL    HW235469   2.287   2.040   2.902 -0.8122  1.3623 -1.1412
 7945SOL     OW35470   2.717   4.066   5.829 -0.2558  0.1275  0.8186
 7945SOL    HW135471   2.738   4.120   5.905 -1.9887  0.0264  1.3636
 7945SOL    HW235472   2.656   4.126   5.787  0.8544  1.7576  1.5206
 7946SOL     OW35473   1.587   3.226   3.897  0.5461 -0.6112 -0.0617
 7946SOL    HW135474   1.556   3.196   3.983 -0.4433 -2.1054 -0.9329
 7946SOL    HW235475   1.583   3.143   3.850  3.1210 -0.4106 -0.6308
 7947SOL     OW35476   3.860   0.905   2.211 -0.3721 -0.3448 -0.0713
 7947SOL    HW135477   3.949   0.914   2.178 -0.1710  0.6598  0.7536
 7947SOL    HW235478   3.812   0.888   2.130 -1.8859 -2.5995  1.2789
 7948SOL     OW35479   4.424   1.616   8.325  0.0930  0.3250  0.1195
 7948SOL    HW135480   4.486   1.568   8.270  0.1611  1.3612 -0.6954
 7948SOL    HW235481   4.439   1.708   8.305 -1.5267  0.0236 -2.4440
 7949SOL     OW35482   4.651   2.913   4.450  0.6168 -0.0640  0.0859
 7949SOL    HW135483   4.602   2.993   4.434  2.0933  0.4535 -1.8167
 7949SOL    HW235484   4.731   2.946   4.489  1.1304 -1.8155  0.5276
 7950SOL     OW35485   3.979   0.411   7.630  0.0745  0.2991 -0.5493
 7950SOL    HW135486   4.017   0.379   7.713  2.8839 -1.2588 -2.4258
 7950SOL    HW235487   3.953   0.501   7.650  0.1078 -0.1726  1.6367
 7951SOL     OW35488   4.500   1.864   0.162  0.1472  0.4501  0.7292
 7951SOL    HW135489   4.487   1.849   0.069 -2.7595 -0.1092  1.2165
 7951SOL    HW235490   4.526   1.781   0.202 -0.8334 -0.1300  0.1685
 7952SOL     OW35491   1.662   2.255   5.405  0.5752 -0.4245  0.0351
 7952SOL    HW135492   1.655   2.169   5.446  0.7455 -0.9553 -1.0430
 7952SOL    HW235493   1.632   2.317   5.472  1.6805  0.4986 -0.3303
 7953SOL     OW35494   1.574   1.426   2.464  0.0251  0.1494  0.7121
 7953SOL    HW135495   1.638   1.408   2.533 -0.3471 -1.5232  0.6314
 7953SOL    HW235496   1.521   1.492   2.509  2.8742  1.2988  2.3665
 7954SOL     OW35497   0.943   2.428   2.764 -0.6146  0.1193 -0.1806
 7954SOL    HW135498   0.910   2.516   2.743 -1.1243  0.1445  0.7465
 7954SOL    HW235499   0.895   2.375   2.700 -1.2345  2.0062 -1.2800
 7955SOL     OW35500   3.608   1.291  15.043  0.7778 -0.3497 -0.3738
 7955SOL    HW135501   3.646   1.265  14.959  1.8874 -1.9712  0.6086
 7955SOL    HW235502   3.566   1.210  15.074 -0.8069  0.8736  0.6860
 7956SOL     OW35503   0.254   4.071   9.372 -0.5705  0.1865 -0.0581
 7956SOL    HW135504   0.183   4.060   9.309  0.9080 -1.3241 -1.4937
 7956SOL    HW235505   0.251   4.164   9.391 -0.0728  0.5116 -1.5461
 7957SOL     OW35506   4.258   1.351   6.015  0.3317 -0.3323 -0.0086
 7957SOL    HW135507   4.352   1.335   6.008  0.6249  1.2479  0.2915
 7957SOL    HW235508   4.219   1.274   6.055 -2.6763  0.3602 -1.6377
 7958SOL     OW35509   3.971   1.204   9.793 -0.5063  0.2277  0.2021
 7958SOL    HW135510   3.930   1.156   9.721 -0.6784 -0.8474  1.0117
 7958SOL    HW235511   3.993   1.131   9.851 -0.5565 -2.0890 -2.7092
 7959SOL     OW35512   2.101   0.413   4.179 -0.1077 -0.1137  0.1306
 7959SOL    HW135513   2.096   0.354   4.103 -1.0347  0.2308 -0.0653
 7959SOL    HW235514   2.083   0.362   4.258  0.7258 -1.0407 -0.2770
 7960SOL     OW35515   3.188   3.538   6.869  0.4869  0.0296  0.1734
 7960SOL    HW135516   3.185   3.470   6.802  2.4821 -0.5701  0.6899
 7960SOL    HW235517   3.277   3.573   6.861 -0.0492  1.4359  0.3373
 7961SOL     OW35518   0.355   2.618   4.852 -0.7266  0.8727  0.4610
 7961SOL    HW135519   0.334   2.671   4.929  1.8996  0.3157  1.5538
 7961SOL    HW235520   0.449   2.625   4.868 -0.1133 -0.6321 -2.4189
 7962SOL     OW35521   2.876   2.568  16.479 -0.2933  0.5796 -0.2441
 7962SOL    HW135522   2.824   2.492  16.454 -2.2949  1.0867  2.4473
 7962SOL    HW235523   2.931   2.571  16.400 -0.5655 -0.4423 -0.4772
 7963SOL     OW35524   0.064   3.298   8.227  0.2685 -0.2350 -0.1959
 7963SOL    HW135525   0.095   3.365   8.288 -0.9023  1.4979 -1.5127
 7963SOL    HW235526   0.064   3.223   8.287  2.4310 -0.4031 -0.4167
 7964SOL     OW35527   4.310   2.946   2.436  0.1318 -0.0155  0.1784
 7964SOL    HW135528   4.306   2.857   2.471 -1.9921 -0.8411 -2.1653
 7964SOL    HW235529   4.223   2.948   2.397  1.6398 -2.9960 -3.3438
 7965SOL     OW35530   1.663   3.424   1.280  0.1193 -0.6200  0.0202
 7965SOL    HW135531   1.646   3.510   1.319 -0.2739  0.0125 -1.5441
 7965SOL    HW235532   1.710   3.445   1.199 -1.7281 -0.5252 -1.0357
 7966SOL     OW35533   2.787   0.007   8.246  0.2923  0.2993 -0.1257
 7966SOL    HW135534   2.749   0.090   8.220 -0.2060  0.1484  0.1264
 7966SOL    HW235535   2.868   0.008   8.196 -0.2210  0.0424 -0.9619
 7967SOL     OW35536   0.363   0.478  15.934  0.1764  0.7907  0.5291
 7967SOL    HW135537   0.426   0.539  15.896  3.2979 -0.8564  3.0344
 7967SOL    HW235538   0.286   0.530  15.911 -0.3074 -0.2680 -0.2883
 7968SOL     OW35539   3.131   2.664   5.616  0.3589 -0.5581 -0.1738
 7968SOL    HW135540   3.072   2.660   5.691  1.7227  0.3422  0.9699
 7968SOL    HW235541   3.164   2.574   5.618  0.9237 -0.4077 -2.9236
 7969SOL     OW35542   0.226   0.867   3.207 -0.4475  0.5679 -0.4002
 7969SOL    HW135543   0.312   0.897   3.234 -0.6014  1.7923 -1.2893
 7969SOL    HW235544   0.196   0.953   3.177 -1.4148  0.7006  0.9584
 7970SOL     OW35545   0.772   1.197   0.577 -0.2919  0.1596  0.2979
 7970SOL    HW135546   0.844   1.162   0.630  0.2837  1.0126  0.0878
 7970SOL    HW235547   0.766   1.287   0.609  0.6269  0.0191  0.8513
 7971SOL     OW35548   4.146   3.339  15.867 -0.0315  0.5137 -0.0241
 7971SOL    HW135549   4.101   3.283  15.805  1.3291 -0.4522 -0.1375
 7971SOL    HW235550   4.188   3.394  15.801 -1.0795 -1.3168 -2.1914
 7972SOL     OW35551   0.723   0.762   5.245 -0.1272  0.0304 -0.2945
 7972SOL    HW135552   0.816   0.746   5.261  0.4492  1.0616 -2.6111
 7972SOL    HW235553   0.715   0.729   5.155  1.9143  0.5651 -0.6859
 7973SOL     OW35554   4.488   4.466   6.483 -0.3138 -0.5994 -0.0147
 7973SOL    HW135555   4.472   4.406   6.556 -0.9489 -0.8227 -0.3443
 7973SOL    HW235556   4.556   4.521   6.523 -0.4769  1.1261 -2.1307
 7974SOL     OW35557   0.771   0.017   1.201 -0.7263  0.0326  0.3253
 7974SOL    HW135558   0.714   0.076   1.153  2.6482  2.1893 -1.0413
 7974SOL    HW235559   0.803   4.699   1.128 -0.1497  1.6200 -0.6094
 7975SOL     OW35560   3.935   3.384   5.248  0.1470 -0.5266 -0.0342
 7975SOL    HW135561   3.946   3.301   5.201  0.3196 -1.1145  1.0345
 7975SOL    HW235562   4.010   3.436   5.218  0.1830 -0.5420  0.0290
 7976SOL     OW35563   3.349   3.524   5.561 -0.6547  0.0365 -0.5478
 7976SOL    HW135564   3.312   3.444   5.523 -0.4758 -0.1767 -0.2710
 7976SOL    HW235565   3.302   3.508   5.643 -0.5264 -0.7003 -0.6101
 7977SOL     OW35566   2.971   4.213   8.618  0.0790  0.5228  0.5282
 7977SOL    HW135567   3.007   4.187   8.533 -1.5941  0.4144 -0.1548
 7977SOL    HW235568   3.021   4.148   8.668  0.8606  0.5943 -0.1695
 7978SOL     OW35569   1.815   3.116   1.730 -0.2284 -0.0258  0.0454
 7978SOL    HW135570   1.771   3.199   1.752 -0.4260 -0.8271  2.6862
 7978SOL    HW235571   1.837   3.128   1.638 -2.2468  3.8973  0.0473
 7979SOL     OW35572   2.292   1.260   3.555 -0.1636  0.7892  0.0833
 7979SOL    HW135573   2.284   1.267   3.460 -0.8717  0.8220  0.1466
 7979SOL    HW235574   2.381   1.227   3.568 -0.3775  0.1522 -0.0754
 7980SOL     OW35575   4.683   3.508   7.484  0.1235 -0.2818  0.3329
 7980SOL    HW135576   4.640   3.431   7.446 -0.8301  1.5848 -2.3304
 7980SOL    HW235577   4.634   3.582   7.448 -1.7172 -1.2868  0.7643
 7981SOL     OW35578   2.309   0.345   7.831 -0.2918 -0.0291 -0.5810
 7981SOL    HW135579   2.216   0.357   7.810 -0.1887  0.8661 -0.5130
 7981SOL    HW235580   2.344   0.384   7.752 -0.5018 -1.2935 -1.3065
 7982SOL     OW35581   4.216   0.480   1.419 -0.5692 -0.2354 -0.1960
 7982SOL    HW135582   4.124   0.498   1.437 -0.4806 -0.8491  0.8718
 7982SOL    HW235583   4.233   0.519   1.334  0.1032 -0.2080 -0.0469
 7983SOL     OW35584   4.412   2.636  11.304 -0.6684 -0.5356 -0.3304
 7983SOL    HW135585   4.449   2.684  11.378 -2.1389  0.9382 -0.5358
 7983SOL    HW235586   4.471   2.562  11.289 -2.7730 -2.1952 -0.3947
 7984SOL     OW35587   1.978   1.533   5.083  0.4817  0.2882  0.3815
 7984SOL    HW135588   2.030   1.597   5.130  1.0027  1.1108 -1.3113
 7984SOL    HW235589   2.049   1.486   5.039  0.4407  0.5835  0.0013
 7985SOL     OW35590   0.138   0.774   8.244 -0.0349  0.3015  0.0281
 7985SOL    HW135591   0.047   0.786   8.218 -0.8676 -0.7294  2.4496
 7985SOL    HW235592   0.189   0.823   8.180  0.1859  1.8177  1.3533
 7986SOL     OW35593   1.076   2.183   0.280  0.3567  0.0613 -0.6205
 7986SOL    HW135594   1.120   2.223   0.355 -0.9381  0.9617 -0.3490
 7986SOL    HW235595   1.133   2.213   0.209 -0.7257  0.7367 -1.1932
 7987SOL     OW35596   0.010   0.791   6.653  0.0789  0.1514 -0.0074
 7987SOL    HW135597   0.013   0.807   6.559  1.6668  1.3312  0.2382
 7987SOL    HW235598   0.099   0.760   6.668 -0.1221 -1.7702 -2.6713
 7988SOL     OW35599   4.210   4.693   5.035  0.1590  0.0823 -0.5740
 7988SOL    HW135600   4.216   4.616   4.979  2.2963  0.3699 -0.7146
 7988SOL    HW235601   4.300   4.722   5.044  0.3897 -0.9370  0.3166
 7989SOL     OW35602   3.562   3.054   9.449  0.0013 -0.4211  0.2066
 7989SOL    HW135603   3.540   3.118   9.517  2.7586  0.7177  0.0200
 7989SOL    HW235604   3.641   3.009   9.479  0.6961  1.0402  0.5565
 7990SOL     OW35605   0.516   4.534   1.901  0.1509 -0.1388 -0.3837
 7990SOL    HW135606   0.499   4.554   1.993 -1.1265  0.2256 -0.7114
 7990SOL    HW235607   0.502   4.439   1.900  2.2374 -0.4408 -0.6112
 7991SOL     OW35608   3.353   2.830   3.244 -0.8961  0.3546  0.1974
 7991SOL    HW135609   3.374   2.817   3.151  1.2227 -0.8836  0.8644
 7991SOL    HW235610   3.400   2.762   3.290  1.6225  1.0242 -1.3947
 7992SOL     OW35611   0.065   2.106   2.710  0.0180 -0.2663 -0.4096
 7992SOL    HW135612   0.151   2.110   2.667  0.2404 -2.4160 -0.1554
 7992SOL    HW235613   0.040   2.198   2.720  3.0266  0.5653 -0.3263
 7993SOL     OW35614   3.421   2.188   1.911 -0.0805  0.6076  0.7551
 7993SOL    HW135615   3.431   2.096   1.888  1.8354  1.0256 -0.1375
 7993SOL    HW235616   3.480   2.242   1.859 -0.0039 -2.4225 -2.2167
 7994SOL     OW35617   3.245   1.695   0.923  0.3652  0.4668  0.3472
 7994SOL    HW135618   3.182   1.698   0.995  1.9796  1.3481  1.7288
 7994SOL    HW235619   3.276   1.604   0.919  1.2858  0.8816 -1.7974
 7995SOL     OW35620   0.018   0.786   6.072  0.1570  1.0510  1.1639
 7995SOL    HW135621   4.661   0.765   6.074 -0.1231  2.3128  1.3388
 7995SOL    HW235622   0.050   0.703   6.106 -1.0147 -0.2743 -0.9989
 7996SOL     OW35623   3.188   1.267   5.023  0.2358  0.2123 -0.5475
 7996SOL    HW135624   3.153   1.213   5.093  0.3008  0.4344 -0.3417
 7996SOL    HW235625   3.282   1.249   5.016  0.1457  0.1954 -1.8500
 7997SOL     OW35626   4.484   0.610   9.239 -0.3732  0.7134  0.2788
 7997SOL    HW135627   4.470   0.537   9.179  1.6592 -1.6867  2.7304
 7997SOL    HW235628   4.404   0.603   9.292  0.8186 -2.6507  1.6142
 7998SOL     OW35629   1.225   2.882   7.930  0.0805  0.3031 -0.0166
 7998SOL    HW135630   1.187   2.906   8.014 -0.5096  1.1644 -0.5309
 7998SOL    HW235631   1.316   2.870   7.957  0.0164  0.7501  0.3883
 7999SOL     OW35632   3.369   4.661   0.058  0.3419  0.2433 -0.4142
 7999SOL    HW135633   3.310   4.643   0.131  0.4485  0.2256 -0.3318
 7999SOL    HW235634   3.386   4.571   0.031 -1.1480 -0.3119  0.5353
 8000SOL     OW35635   0.627   4.055  16.050 -0.8696 -0.1402  0.8101
 8000SOL    HW135636   0.671   4.102  15.979 -0.0861 -1.2518  0.5710
 8000SOL    HW235637   0.535   4.066  16.023 -0.5288  1.6151  0.3013
 8001SOL     OW35638   1.476   3.641   8.909  0.2128 -0.6716  0.4345
 8001SOL    HW135639   1.539   3.634   8.838  0.5120  1.0665  0.5224
 8001SOL    HW235640   1.523   3.705   8.964 -0.4076  0.7419 -0.6671
 8002SOL     OW35641   3.959   4.090   9.059 -0.2278  0.4700  0.3149
 8002SOL    HW135642   3.971   4.132   8.974  0.0395  0.0866  0.1627
 8002SOL    HW235643   3.875   4.128   9.087 -0.8255 -0.2837 -0.4527
 8003SOL     OW35644   0.301   3.180   5.152  0.5124  0.3838  0.1533
 8003SOL    HW135645   0.275   3.167   5.061 -1.7013  0.2227  0.8042
 8003SOL    HW235646   0.218   3.179   5.199  0.2711  1.5625 -0.2476
 8004SOL     OW35647   0.287   1.586   4.119  0.1601 -0.2988  0.6773
 8004SOL    HW135648   0.378   1.565   4.141  0.1115 -2.0615 -0.8361
 8004SOL    HW235649   0.252   1.626   4.198 -2.6763 -1.5055  0.0001
 8005SOL     OW35650   0.849   2.272   1.909  0.4044 -0.3853 -0.1922
 8005SOL    HW135651   0.755   2.288   1.914  0.6569  1.1529 -0.1744
 8005SOL    HW235652   0.880   2.333   1.976 -0.7424  0.0476 -0.0665
 8006SOL     OW35653   1.082   3.984   4.498  0.1188 -0.2721 -0.1919
 8006SOL    HW135654   1.098   3.892   4.520 -0.4763 -0.4024 -0.3046
 8006SOL    HW235655   1.096   4.021   4.585  1.5519 -1.1698 -0.0383
 8007SOL     OW35656   1.348   2.768  10.211  0.2116  0.0823  0.1728
 8007SOL    HW135657   1.261   2.779  10.250  0.6925 -1.1711  1.6179
 8007SOL    HW235658   1.386   2.855  10.221 -0.5541  0.7145 -2.5612
 8008SOL     OW35659   0.870   0.190   5.763  0.6419 -0.1273  0.4235
 8008SOL    HW135660   0.959   0.211   5.790  1.4694 -2.6155 -0.3905
 8008SOL    HW235661   0.839   0.222   5.848 -1.1273  1.0253 -0.6414
 8009SOL     OW35662   2.604   1.416   4.695  0.2618  0.3843  0.1922
 8009SOL    HW135663   2.639   1.348   4.753  0.0279 -0.2097 -0.3629
 8009SOL    HW235664   2.667   1.411   4.623  1.2686 -0.1154  1.1206
 8010SOL     OW35665   1.785   1.884   4.330  0.2515 -0.0286  1.1140
 8010SOL    HW135666   1.855   1.823   4.356 -0.2860 -1.3669 -0.5387
 8010SOL    HW235667   1.829   1.966   4.352  1.2793 -0.7316  1.6749
 8011SOL     OW35668   1.727   2.108   8.166 -0.3812  0.1983  0.4026
 8011SOL    HW135669   1.648   2.060   8.190 -0.3757 -0.1483 -0.2506
 8011SOL    HW235670   1.773   2.107   8.250  1.2971  0.0646 -0.5076
 8012SOL     OW35671   3.015   2.232   8.221  0.0239 -0.0349  0.2904
 8012SOL    HW135672   3.027   2.318   8.180 -3.4166  0.2524 -0.1068
 8012SOL    HW235673   3.032   2.176   8.145  2.0332  0.2685  0.5236
 8013SOL     OW35674   3.820   2.079   9.305 -0.3324 -0.0624  0.2184
 8013SOL    HW135675   3.833   2.031   9.386  0.7453  0.3911  0.3084
 8013SOL    HW235676   3.727   2.066   9.286  0.2656  1.3334 -3.6911
 8014SOL     OW35677   0.818   0.247   3.475  0.4567  0.2375 -0.6339
 8014SOL    HW135678   0.797   0.250   3.381  1.6645  2.1554 -0.8562
 8014SOL    HW235679   0.732   0.210   3.491  0.5198  1.5071  2.6057
 8015SOL     OW35680   2.236   1.469   2.011  0.7689  0.0644 -0.2652
 8015SOL    HW135681   2.286   1.464   2.092  1.1285 -2.7026 -0.6711
 8015SOL    HW235682   2.215   1.377   1.995 -0.3588  0.4685 -1.1736
 8016SOL     OW35683   4.681   4.092   1.238 -0.2221 -0.4756 -0.2811
 8016SOL    HW135684   4.669   4.043   1.319  0.3575  1.5228  1.0109
 8016SOL    HW235685   4.712   4.180   1.256 -0.7556 -0.0306 -1.5414
 8017SOL     OW35686   2.189   3.613   7.604 -0.0516  0.1992 -0.0400
 8017SOL    HW135687   2.144   3.600   7.687 -1.6055  4.5145 -0.2138
 8017SOL    HW235688   2.123   3.588   7.539 -0.3387  0.0165  0.3224
 8018SOL     OW35689   4.472   3.114   4.394 -0.0679  0.7494  0.1871
 8018SOL    HW135690   4.524   3.194   4.402 -0.3061  0.7098  2.1195
 8018SOL    HW235691   4.414   3.157   4.332  2.3700  0.9852 -1.9519
 8019SOL     OW35692   3.935   0.888   2.642 -0.1904 -0.2929  0.0634
 8019SOL    HW135693   3.885   0.935   2.576 -1.5093  0.9215  1.9380
 8019SOL    HW235694   3.870   0.844   2.697 -0.3908 -0.4672 -0.3070
 8020SOL     OW35695   1.778   1.778   8.759 -0.5398  0.5607  0.0091
 8020SOL    HW135696   1.802   1.742   8.845 -1.0247  0.6692  0.1894
 8020SOL    HW235697   1.684   1.761   8.765 -0.3944  0.0244  0.8101
 8021SOL     OW35698   4.040   3.263   4.828  0.0863  0.1691 -0.1480
 8021SOL    HW135699   4.087   3.230   4.751 -1.0136 -0.9235 -0.3419
 8021SOL    HW235700   4.016   3.351   4.799  0.1342 -0.0696 -0.9275
 8022SOL     OW35701   1.630   0.570   7.138 -0.2580 -0.1928  0.3007
 8022SOL    HW135702   1.546   0.616   7.133 -0.3146 -0.2042  1.0485
 8022SOL    HW235703   1.663   0.613   7.217  2.9157  1.2140 -1.7933
 8023SOL     OW35704   1.836   0.448   4.991 -0.1701  0.2622 -0.5930
 8023SOL    HW135705   1.850   0.500   4.912  2.0875 -0.5436 -0.7034
 8023SOL    HW235706   1.808   0.368   4.948 -0.2293  0.6968 -1.3553
 8024SOL     OW35707   0.332   3.545  16.533  0.2255  0.0453  0.1378
 8024SOL    HW135708   0.390   3.603  16.484  0.2676  0.2044  0.3728
 8024SOL    HW235709   0.384   3.536  16.613 -0.7141  0.6805  0.8088
 8025SOL     OW35710   0.878   2.226  13.400 -0.0353  0.4836  0.2482
 8025SOL    HW135711   0.818   2.235  13.326  0.3092 -3.9481 -0.5602
 8025SOL    HW235712   0.899   2.133  13.391 -1.0081  0.3675 -0.8630
 8026SOL     OW35713   0.654   1.700   5.471 -0.6521  0.2149  0.6031
 8026SOL    HW135714   0.720   1.635   5.448  0.4374  0.3396  3.3160
 8026SOL    HW235715   0.626   1.679   5.560  0.0909  0.4910  0.9022
 8027SOL     OW35716   2.491   2.772   5.530 -0.1552 -0.1332  0.1481
 8027SOL    HW135717   2.502   2.684   5.494 -1.6661 -0.9284  1.6323
 8027SOL    HW235718   2.477   2.758   5.624  0.1431  1.0659  0.3674
 8028SOL     OW35719   4.375   2.087   2.979  0.4415 -0.0114 -0.1710
 8028SOL    HW135720   4.431   2.068   3.054  0.2918  3.0714  0.7207
 8028SOL    HW235721   4.290   2.103   3.019  0.7588  0.9794  0.1083
 8029SOL     OW35722   3.663   0.211   5.160 -0.5623 -0.5812  0.1043
 8029SOL    HW135723   3.613   0.176   5.086 -0.2395 -0.1503 -0.3186
 8029SOL    HW235724   3.684   0.138   5.218  2.9621  1.1806  1.0477
 8030SOL     OW35725   3.309   0.184   0.192 -0.0028 -0.0140  0.3940
 8030SOL    HW135726   3.329   0.113   0.130 -0.0208  1.0809 -0.8778
 8030SOL    HW235727   3.384   0.179   0.251 -0.7664 -0.7467  1.2956
 8031SOL     OW35728   0.858   1.728   8.311  0.2099 -0.0866  0.1445
 8031SOL    HW135729   0.807   1.700   8.388 -0.1781 -0.6721 -0.3270
 8031SOL    HW235730   0.946   1.742   8.348  0.2082 -0.3822  0.2619
 8032SOL     OW35731   2.431   2.450   4.972 -0.2383  0.4678  0.0496
 8032SOL    HW135732   2.508   2.410   4.933  0.6380  2.0527  0.1616
 8032SOL    HW235733   2.443   2.545   4.966 -0.6479  0.5373  0.2702
 8033SOL     OW35734   4.478   0.506   6.872  0.2225  0.1312 -0.3038
 8033SOL    HW135735   4.489   0.578   6.934 -0.1680  1.3188 -1.6123
 8033SOL    HW235736   4.568   0.499   6.839  0.2602 -2.3047  0.3531
 8034SOL     OW35737   2.249   1.090  14.417  0.1303 -0.3717  0.0426
 8034SOL    HW135738   2.208   1.176  14.425 -0.3672 -0.6443  0.4485
 8034SOL    HW235739   2.177   1.038  14.453  0.5666 -0.2358  1.0966
 8035SOL     OW35740   3.737   1.618   3.112  0.5856  1.1797 -0.4301
 8035SOL    HW135741   3.695   1.698   3.079 -3.5370 -1.3452 -1.4080
 8035SOL    HW235742   3.807   1.628   3.048  0.0741 -0.2050 -1.2213
 8036SOL     OW35743   1.348   1.018   3.791 -0.6559 -0.3919  0.3243
 8036SOL    HW135744   1.398   1.092   3.826  1.1554 -1.6420  0.3737
 8036SOL    HW235745   1.381   0.945   3.843  0.9811 -0.3231 -0.5828
 8037SOL     OW35746   4.430   2.609   7.923 -0.2236 -0.8405 -0.3425
 8037SOL    HW135747   4.505   2.556   7.952 -1.6859 -1.4693  2.2627
 8037SOL    HW235748   4.416   2.669   7.996 -3.6249 -2.0456  0.0086
 8038SOL     OW35749   2.802   4.139   6.374  0.1048  0.7343 -0.0222
 8038SOL    HW135750   2.725   4.197   6.372 -1.5267 -1.4053  0.9569
 8038SOL    HW235751   2.873   4.199   6.394 -0.9513  1.6836  0.8884
 8039SOL     OW35752   4.465   1.969   6.667 -0.5470  0.4021  0.0418
 8039SOL    HW135753   4.514   2.049   6.649  0.2330 -0.1037 -0.1054
 8039SOL    HW235754   4.499   1.956   6.756  0.1441 -1.3802 -0.4753
 8040SOL     OW35755   1.378   2.859   9.015  0.3083 -0.2958 -0.6978
 8040SOL    HW135756   1.395   2.766   8.998 -1.6519 -0.7718  0.0241
 8040SOL    HW235757   1.443   2.859   9.086 -0.3106  1.9017 -0.1453
 8041SOL     OW35758   0.794   2.425  12.336  0.5207  0.2977 -0.1830
 8041SOL    HW135759   0.773   2.488  12.405 -0.2072 -0.8844  0.6785
 8041SOL    HW235760   0.755   2.344  12.369 -3.2475  2.2558  0.1629
 8042SOL     OW35761   2.999   2.251   4.708  0.5033 -0.3901 -0.0072
 8042SOL    HW135762   3.000   2.197   4.786  0.5121  0.9864  0.9422
 8042SOL    HW235763   2.907   2.243   4.685  0.2846  0.6529  0.5407
 8043SOL     OW35764   1.499   1.117   8.809  0.4086  0.3572 -0.7199
 8043SOL    HW135765   1.471   1.174   8.737 -2.1766 -1.2736 -0.9850
 8043SOL    HW235766   1.429   1.052   8.814  0.2594  0.5642 -0.2461
 8044SOL     OW35767   1.177   2.572   4.918  0.3928  0.3423  0.3351
 8044SOL    HW135768   1.252   2.629   4.933  0.9562 -0.5580  0.9636
 8044SOL    HW235769   1.115   2.643   4.905  0.5375  0.5128  0.5644
 8045SOL     OW35770   3.112   1.782   7.409  0.1488 -0.3615  0.0235
 8045SOL    HW135771   3.184   1.753   7.465 -0.3363 -0.9962  0.3172
 8045SOL    HW235772   3.158   1.776   7.326 -0.9939 -0.5133 -0.6060
 8046SOL     OW35773   1.839   0.411   1.895 -0.1977 -0.6405 -0.0145
 8046SOL    HW135774   1.855   0.361   1.976  4.1531  2.2724  0.9042
 8046SOL    HW235775   1.911   0.474   1.897 -0.7274 -0.0251 -0.8251
 8047SOL     OW35776   1.500   3.500   8.531  0.0062 -0.2513 -0.1529
 8047SOL    HW135777   1.437   3.561   8.492 -0.5882 -0.3933  0.5900
 8047SOL    HW235778   1.504   3.524   8.623 -1.1752 -2.3442  0.4526
 8048SOL     OW35779   0.547   4.649  15.014  0.6796  0.2819 -0.2429
 8048SOL    HW135780   0.624   4.596  14.991 -0.4297 -1.2130 -0.4785
 8048SOL    HW235781   0.528   4.679  14.925 -0.3212 -0.4031 -0.2556
 8049SOL     OW35782   3.103   0.368  15.867  0.5423  0.7954 -0.8684
 8049SOL    HW135783   3.116   0.343  15.959 -1.3845 -0.0170 -0.8156
 8049SOL    HW235784   3.156   0.307  15.816 -1.7835 -2.7930  0.9914
 8050SOL     OW35785   4.363   2.529   8.750 -0.1636  0.0293 -0.2697
 8050SOL    HW135786   4.408   2.494   8.827 -2.0179 -0.4013  0.6421
 8050SOL    HW235787   4.432   2.531   8.684 -1.6601  1.3080 -1.8039
 8051SOL     OW35788   3.887   4.047   5.345 -0.3633  0.3400  0.1807
 8051SOL    HW135789   3.947   4.008   5.409 -0.5737  0.0028  0.1737
 8051SOL    HW235790   3.843   4.115   5.396  1.4604  1.6024  0.0805
 8052SOL     OW35791   4.150   2.570  13.035  0.2552  0.1828 -0.4844
 8052SOL    HW135792   4.067   2.577  13.084  2.4873 -2.1335  3.6392
 8052SOL    HW235793   4.177   2.659  13.058 -0.8773  0.0834  1.3302
 8053SOL     OW35794   3.495   0.182   0.406  0.3755 -0.5069  0.1951
 8053SOL    HW135795   3.448   0.134   0.474 -1.9671  0.8864 -0.4374
 8053SOL    HW235796   3.520   0.258   0.459 -2.2612  1.5973 -1.5292
 8054SOL     OW35797   3.432   1.831  16.525 -0.1489 -0.5886 -0.3419
 8054SOL    HW135798   3.469   1.903  16.474 -2.1065  0.8192  0.1867
 8054SOL    HW235799   3.431   1.756  16.466  0.9545 -0.5336 -0.4323
 8055SOL     OW35800   0.259   1.892   5.609  0.3433 -0.0952  0.3981
 8055SOL    HW135801   0.343   1.901   5.564  0.3587  1.8124  0.8303
 8055SOL    HW235802   0.256   1.797   5.622 -1.4792  0.0585  1.1463
 8056SOL     OW35803   1.597   1.683   3.246  0.3570 -0.1447  0.2825
 8056SOL    HW135804   1.665   1.733   3.292 -1.1064  1.0730  1.1200
 8056SOL    HW235805   1.537   1.748   3.209  1.3870 -0.3372 -1.7203
 8057SOL     OW35806   3.805   0.282   2.177 -0.6029  0.3852 -0.6903
 8057SOL    HW135807   3.761   0.340   2.114  0.9505  1.3068 -0.9203
 8057SOL    HW235808   3.728   0.231   2.205 -0.0706  1.0784  2.0546
 8058SOL     OW35809   4.539   3.684   2.353 -0.3452 -0.0346 -0.1004
 8058SOL    HW135810   4.489   3.722   2.425  0.6998 -0.6775  0.9633
 8058SOL    HW235811   4.550   3.595   2.389  1.6890  0.8472  1.4522
 8059SOL     OW35812   2.155   1.743   7.791  0.6145 -0.5559  0.3314
 8059SOL    HW135813   2.178   1.834   7.773 -0.5399  0.0505  1.9160
 8059SOL    HW235814   2.117   1.721   7.705 -0.5892 -2.2739  1.2908
 8060SOL     OW35815   2.277   0.446   0.297 -0.7715  0.5445 -0.4504
 8060SOL    HW135816   2.223   0.453   0.377 -0.7628  1.9561 -0.5619
 8060SOL    HW235817   2.311   0.535   0.292 -0.2990  0.5409  2.2738
 8061SOL     OW35818   2.109   0.848   0.598  0.3959 -0.0075 -0.5991
 8061SOL    HW135819   2.166   0.918   0.566  0.4063  1.1176  1.8403
 8061SOL    HW235820   2.035   0.906   0.618  0.8563  0.3043  0.2038
 8062SOL     OW35821   3.950   1.593  17.077  0.4329 -0.2262  0.3932
 8062SOL    HW135822   3.859   1.614  17.055  0.2453 -1.7117 -0.2899
 8062SOL    HW235823   3.977   1.553  16.994 -0.0589 -1.7613  0.9591
 8063SOL     OW35824   3.496   2.464  12.778 -0.1896  0.5471  0.1051
 8063SOL    HW135825   3.478   2.389  12.722 -0.7562  0.2350  0.7124
 8063SOL    HW235826   3.450   2.532  12.728 -3.0022 -2.1107 -0.8848
 8064SOL     OW35827   1.584   2.587   6.295 -0.6449  0.5722 -0.0328
 8064SOL    HW135828   1.560   2.514   6.352 -0.3276 -0.3285 -1.0489
 8064SOL    HW235829   1.617   2.643   6.365 -0.4763 -0.0890  0.4159
 8065SOL     OW35830   2.539   0.173  11.036 -0.5407 -0.0203 -0.0425
 8065SOL    HW135831   2.622   0.183  10.990 -1.4094 -2.2408 -2.1070
 8065SOL    HW235832   2.554   0.102  11.099  0.3655 -1.1327 -1.5205
 8066SOL     OW35833   3.113   0.482  15.508 -0.4243  0.1705 -0.1387
 8066SOL    HW135834   3.089   0.482  15.415 -0.2651 -2.7626 -0.1963
 8066SOL    HW235835   3.088   0.390  15.519  1.2578 -0.1848  0.5627
 8067SOL     OW35836   2.002   1.904   8.357  0.1972 -0.3933  0.2863
 8067SOL    HW135837   1.963   1.824   8.320 -0.9272  0.7608 -0.9850
 8067SOL    HW235838   2.082   1.871   8.399  1.0499 -0.5151 -1.4493
 8068SOL     OW35839   4.601   2.529  13.546  0.0316 -0.1285 -0.3535
 8068SOL    HW135840   4.523   2.525  13.491 -0.7385  0.6203  0.6915
 8068SOL    HW235841   4.657   2.544  13.470  0.7546 -1.8204 -0.1459
 8069SOL     OW35842   3.492   1.491   8.447 -0.0001 -0.4197  0.1708
 8069SOL    HW135843   3.482   1.582   8.476  3.4312  0.4043 -1.2089
 8069SOL    HW235844   3.403   1.458   8.435 -1.3147  2.7884  1.0880
 8070SOL     OW35845   3.297   3.597  11.804  0.0303  0.1406  0.0321
 8070SOL    HW135846   3.238   3.560  11.870 -0.3927 -0.3408 -0.6076
 8070SOL    HW235847   3.251   3.679  11.784  1.1055  0.8238  0.3986
 8071SOL     OW35848   3.597   2.003   9.206  0.2892  0.2579 -0.2049
 8071SOL    HW135849   3.514   2.047   9.188 -0.2722 -0.8477 -0.3730
 8071SOL    HW235850   3.562   1.920   9.240 -0.1554  0.5470  0.0478
 8072SOL     OW35851   3.363   0.751   6.409 -0.3899 -0.2632  0.0404
 8072SOL    HW135852   3.321   0.823   6.455 -0.0797 -1.2053  1.7924
 8072SOL    HW235853   3.329   0.759   6.320  0.0785 -3.0493 -0.3835
 8073SOL     OW35854   0.618   1.850  14.564 -0.0035  0.0686  0.1242
 8073SOL    HW135855   0.556   1.900  14.618  1.8828  1.7786  0.6961
 8073SOL    HW235856   0.682   1.910  14.527  0.5742 -0.6550 -0.0378
 8074SOL     OW35857   4.215   1.521  17.502  0.2580 -0.0823  0.2261
 8074SOL    HW135858   4.183   1.569  17.426  1.4685  0.3438 -0.0071
 8074SOL    HW235859   4.144   1.466  17.536  1.2596 -0.2501  2.0449
 8075SOL     OW35860   4.259   2.562   3.791 -0.4428 -0.2073  0.7128
 8075SOL    HW135861   4.307   2.645   3.790  3.0198 -2.2517 -2.5859
 8075SOL    HW235862   4.256   2.546   3.697  0.7014  1.5457  0.3804
 8076SOL     OW35863   4.457   2.073   7.577  0.4464  0.2126  0.4549
 8076SOL    HW135864   4.552   2.086   7.571  0.4259 -0.5572 -1.3932
 8076SOL    HW235865   4.416   2.147   7.621  0.0945  0.2859 -0.0019
 8077SOL     OW35866   4.034   3.167  14.810 -0.4651  0.0763  0.1917
 8077SOL    HW135867   4.120   3.135  14.838 -0.6511 -0.5526  0.0367
 8077SOL    HW235868   4.065   3.234  14.749  2.6772 -0.9503  0.6659
 8078SOL     OW35869   4.722   2.447   7.548  0.1253 -0.5943 -0.1718
 8078SOL    HW135870   4.721   2.356   7.577 -2.6381 -1.1686 -1.9574
 8078SOL    HW235871   0.065   2.441   7.495  0.5961  0.3627  0.4333
 8079SOL     OW35872   0.326   0.892   5.356  0.2723  0.6025  0.2691
 8079SOL    HW135873   0.321   0.800   5.329  4.4174  0.4406  0.1416
 8079SOL    HW235874   0.317   0.877   5.450  1.3381 -0.2339  0.2240
 8080SOL     OW35875   1.263   2.298   3.909 -0.3620  0.2686  0.1304
 8080SOL    HW135876   1.176   2.311   3.871 -0.3352  0.6666  0.2066
 8080SOL    HW235877   1.317   2.334   3.839  0.0006  2.6991  1.6843
 8081SOL     OW35878   1.682   0.442   6.907  0.2519 -0.2518  0.0835
 8081SOL    HW135879   1.762   0.485   6.877 -2.5135  2.4444 -3.4351
 8081SOL    HW235880   1.687   0.477   6.997 -1.1190 -2.5809  1.0576
 8082SOL     OW35881   1.514   0.509   5.734  0.4685 -0.3656  0.7099
 8082SOL    HW135882   1.467   0.522   5.652  1.4832 -1.8579 -0.1079
 8082SOL    HW235883   1.606   0.516   5.707 -0.2964  2.1120 -1.2580
 8083SOL     OW35884   2.552   3.086   4.411 -0.4363 -0.1267  0.2873
 8083SOL    HW135885   2.621   3.138   4.371 -1.1930 -0.5503 -1.5806
 8083SOL    HW235886   2.509   3.146   4.472 -3.0189  0.1820 -1.8342
 8084SOL     OW35887   1.377   0.560   4.191 -0.3908 -0.1820 -0.0235
 8084SOL    HW135888   1.316   0.578   4.120 -0.2601  1.5589  0.2823
 8084SOL    HW235889   1.454   0.523   4.147 -1.4131 -0.3894 -1.6040
 8085SOL     OW35890   2.181   1.264   4.268  0.3657 -0.3883  0.1934
 8085SOL    HW135891   2.254   1.290   4.212 -0.4486  0.8558 -0.2815
 8085SOL    HW235892   2.208   1.174   4.287 -2.4860 -0.9028  1.9458
 8086SOL     OW35893   2.435   2.712   9.165  0.3020 -1.5023 -0.6097
 8086SOL    HW135894   2.434   2.641   9.230 -1.5543  0.2806  1.3120
 8086SOL    HW235895   2.351   2.756   9.178  0.1904 -1.8203 -0.2320
 8087SOL     OW35896   0.698   0.005  14.037 -0.3912  0.3874  0.3350
 8087SOL    HW135897   0.737   0.074  14.090 -0.2033 -0.0780  0.8038
 8087SOL    HW235898   0.665   0.056  13.963  0.3839  2.4437  1.4297
 8088SOL     OW35899   0.940   3.468   4.291  0.1667  0.1883 -0.7185
 8088SOL    HW135900   0.999   3.429   4.355 -0.8946  1.9069  1.3150
 8088SOL    HW235901   1.002   3.470   4.218  0.0354 -0.0361 -0.8369
 8089SOL     OW35902   3.598   2.564   9.743  0.2854  0.3457  0.4138
 8089SOL    HW135903   3.553   2.642   9.712  1.1959  1.7186  2.4974
 8089SOL    HW235904   3.689   2.594   9.742  0.7994 -1.1980 -0.9213
 8090SOL     OW35905   2.723   1.401   1.565 -0.6930 -0.0023 -0.0805
 8090SOL    HW135906   2.743   1.479   1.514  0.2244 -0.0367  0.2393
 8090SOL    HW235907   2.688   1.430   1.649  1.2236 -0.6223  0.9260
 8091SOL     OW35908   0.501   0.667   4.323 -0.2139 -0.0290  0.0425
 8091SOL    HW135909   0.490   0.628   4.409  0.3288  0.6551  0.4151
 8091SOL    HW235910   0.408   0.661   4.299 -0.3003  1.4084  0.0467
 8092SOL     OW35911   0.732   2.283   9.032 -0.0865 -0.2350  0.0054
 8092SOL    HW135912   0.641   2.298   9.060 -1.2493 -3.8711 -1.8575
 8092SOL    HW235913   0.722   2.241   8.946  1.4333  0.8775 -0.7240
 8093SOL     OW35914   1.885   1.917   5.541 -0.0073  0.1224  0.7074
 8093SOL    HW135915   1.957   1.973   5.568  0.7062 -1.2469  1.6213
 8093SOL    HW235916   1.813   1.935   5.602  0.1801  0.4433  0.8342
 8094SOL     OW35917   3.371   0.524  14.625 -0.2037  0.1202 -0.1766
 8094SOL    HW135918   3.385   0.596  14.563 -0.8761 -0.7610 -1.3726
 8094SOL    HW235919   3.276   0.527  14.638  0.0088  0.4195  1.2813
 8095SOL     OW35920   0.328   3.242   1.794  0.0876  0.3452  0.2381
 8095SOL    HW135921   0.255   3.276   1.743  0.2149  4.0563  2.5962
 8095SOL    HW235922   0.344   3.163   1.741 -1.6748  0.3004 -0.2290
 8096SOL     OW35923   3.151   2.604  14.554  0.3026  0.2632 -0.4379
 8096SOL    HW135924   3.217   2.585  14.620 -0.4418 -2.9166 -0.6044
 8096SOL    HW235925   3.179   2.570  14.469 -1.1282  0.5886 -1.0369
 8097SOL     OW35926   0.422   4.442   4.710 -0.0320 -0.2072 -0.0673
 8097SOL    HW135927   0.418   4.463   4.804 -0.7476 -0.7043  0.0189
 8097SOL    HW235928   0.511   4.410   4.699 -0.6545 -1.3279 -1.8472
 8098SOL     OW35929   4.092   4.251  12.928  0.4113 -0.1471 -0.2524
 8098SOL    HW135930   4.112   4.343  12.947  0.8375 -0.4180  0.6261
 8098SOL    HW235931   4.176   4.213  12.903  0.8642  0.8196 -0.2079
 8099SOL     OW35932   3.060   2.376  13.587 -0.3240  0.3115 -0.1143
 8099SOL    HW135933   3.109   2.391  13.506  0.6977 -1.2071  0.2226
 8099SOL    HW235934   3.098   2.291  13.607 -0.2030  0.5434  0.6279
 8100SOL     OW35935   2.396   1.759   1.906 -0.3532  0.4423  0.6023
 8100SOL    HW135936   2.301   1.761   1.896 -0.2399  0.5655 -0.4507
 8100SOL    HW235937   2.429   1.841   1.869 -1.7441  2.4844  3.8221
 8101SOL     OW35938   0.030   3.044  16.518  0.4235  0.5623 -0.0768
 8101SOL    HW135939   0.022   3.118  16.458  0.9367 -0.1710 -1.0476
 8101SOL    HW235940   0.076   2.989  16.454 -0.6761 -1.4691  0.8530
 8102SOL     OW35941   0.557   2.610   9.178 -0.1371  0.4708 -0.0958
 8102SOL    HW135942   0.627   2.604   9.243  0.5109 -2.8804 -1.0785
 8102SOL    HW235943   0.596   2.651   9.101  1.1991 -2.2214 -0.8620
 8103SOL     OW35944   0.358   1.362  13.301 -0.0605  0.4210  0.8445
 8103SOL    HW135945   0.411   1.375  13.222  0.5829  0.4246  1.2773
 8103SOL    HW235946   0.301   1.438  13.302  1.3717  1.5194 -0.5652
 8104SOL     OW35947   4.289   1.095   7.079 -0.2245 -0.2498  0.2429
 8104SOL    HW135948   4.246   1.101   7.164 -1.4999 -1.2733 -0.3280
 8104SOL    HW235949   4.362   1.155   7.092  0.2897 -0.6149 -0.9411
 8105SOL     OW35950   1.801   3.685   3.810  0.7525 -0.8485 -0.1937
 8105SOL    HW135951   1.852   3.649   3.883 -2.0409 -0.0162  2.1367
 8105SOL    HW235952   1.861   3.650   3.743 -0.6578 -1.2577 -1.2381
 8106SOL     OW35953   2.851   1.736   4.899  0.2496 -0.3495  0.1256
 8106SOL    HW135954   2.910   1.691   4.960 -1.0066 -3.0352 -0.6237
 8106SOL    HW235955   2.767   1.690   4.907 -0.5012  0.6345 -2.0804
 8107SOL     OW35956   1.577   2.288   2.178  0.1631 -0.3202  0.2270
 8107SOL    HW135957   1.663   2.281   2.220 -0.3859  2.3909  1.7567
 8107SOL    HW235958   1.590   2.358   2.114 -1.2659  0.0174  0.2981
 8108SOL     OW35959   1.487   1.233   9.485  0.5770 -0.4093 -0.3226
 8108SOL    HW135960   1.437   1.221   9.404 -0.2591  1.9047 -0.1349
 8108SOL    HW235961   1.442   1.171   9.543 -0.3521 -0.2724 -0.8909
 8109SOL     OW35962   0.204   3.525   3.052 -0.2676  0.5363 -0.1177
 8109SOL    HW135963   0.183   3.543   3.144 -1.3922 -2.5476  0.2310
 8109SOL    HW235964   0.117   3.537   3.015 -0.8735 -1.5949  0.5947
 8110SOL     OW35965   2.074   2.124  15.962  0.3248 -0.5197 -0.4627
 8110SOL    HW135966   2.111   2.198  15.913  3.3234 -0.5410  1.8393
 8110SOL    HW235967   1.995   2.158  16.003  0.6061 -0.9791  0.4509
 8111SOL     OW35968   3.287   3.160   4.504 -0.4626 -0.3993  0.5558
 8111SOL    HW135969   3.309   3.246   4.541  0.6136  0.1317 -1.3402
 8111SOL    HW235970   3.311   3.112   4.583  0.0640  2.4712  2.1724
 8112SOL     OW35971   1.524   4.640   3.599  0.3406 -0.1776  0.7409
 8112SOL    HW135972   1.546   4.585   3.525 -2.4087  0.9727 -0.9313
 8112SOL    HW235973   1.471   4.571   3.638  1.0930 -0.1588  1.7894
 8113SOL     OW35974   4.657   1.633  10.830  0.0454 -0.0826 -0.3888
 8113SOL    HW135975   4.697   1.566  10.775 -0.9582 -2.3809  1.6389
 8113SOL    HW235976   4.575   1.589  10.854  1.0137 -0.4510  2.2938
 8114SOL     OW35977   0.213   1.748   5.112 -0.1577 -0.5152 -0.4421
 8114SOL    HW135978   0.269   1.824   5.097 -0.0428 -0.2601  1.3381
 8114SOL    HW235979   0.265   1.702   5.177  1.6432  0.9621 -0.8381
 8115SOL     OW35980   2.111   4.543  14.460  0.4396 -0.1947  0.2489
 8115SOL    HW135981   2.096   4.565  14.368  2.2634 -2.7550 -0.6756
 8115SOL    HW235982   2.019   4.556  14.482  0.6098 -0.1514  0.9367
 8116SOL     OW35983   2.431   2.788  12.931  0.4540  0.0284  0.6292
 8116SOL    HW135984   2.397   2.815  12.846 -0.4665 -2.7620  0.1260
 8116SOL    HW235985   2.518   2.829  12.931  0.8141 -0.7367 -0.2411
 8117SOL     OW35986   4.211   2.749  15.380  0.0484 -0.3735  0.4231
 8117SOL    HW135987   4.271   2.682  15.346 -1.1955 -0.6789 -1.1877
 8117SOL    HW235988   4.267   2.797  15.442  0.2757 -1.0870  0.7727
 8118SOL     OW35989   3.724   3.639   6.432 -0.0458  0.3895 -0.4180
 8118SOL    HW135990   3.723   3.561   6.377  1.1898  0.1165 -0.0577
 8118SOL    HW235991   3.657   3.692   6.388  0.6186  3.5561  2.4161
 8119SOL     OW35992   0.657   1.533   9.393 -0.5930 -0.4063 -0.5813
 8119SOL    HW135993   0.565   1.514   9.412 -0.9314  1.5431 -0.2046
 8119SOL    HW235994   0.658   1.622   9.428  1.8337 -0.9770  0.7973
 8120SOL     OW35995   3.966   3.685  14.778 -0.1875  0.4952  0.3621
 8120SOL    HW135996   3.870   3.681  14.779 -0.3233  3.6995 -1.4337
 8120SOL    HW235997   3.975   3.742  14.702  1.4142 -0.7666 -0.4104
 8121SOL     OW35998   2.877   1.052  15.478  0.2265 -0.1590  0.8368
 8121SOL    HW135999   2.788   1.084  15.462  0.3677 -0.8307 -1.2406
 8121SOL    HW236000   2.893   1.093  15.563 -0.7128  0.3769  0.7559
 8122SOL     OW36001   1.167   1.078   4.504  0.2403 -0.6670  0.0745
 8122SOL    HW136002   1.113   1.146   4.546  0.5323  0.2197 -1.0033
 8122SOL    HW236003   1.096   1.014   4.496 -1.4711  1.0907  1.0230
 8123SOL     OW36004   4.299   2.663  11.036 -0.1648  0.1355  0.3664
 8123SOL    HW136005   4.370   2.684  10.975 -2.4226  1.7068 -1.7455
 8123SOL    HW236006   4.330   2.710  11.113 -0.5422 -1.7124  1.6307
 8124SOL     OW36007   2.719   0.328  13.644  0.0416 -0.5215 -0.0084
 8124SOL    HW136008   2.758   0.293  13.724  2.6070  3.4078  0.4333
 8124SOL    HW236009   2.789   0.324  13.579  0.6385  0.5135  0.5778
 8125SOL     OW36010   3.022   0.629   1.027  0.0142 -0.6863  0.2657
 8125SOL    HW136011   2.949   0.583   0.986  0.2784 -0.3142 -0.6179
 8125SOL    HW236012   2.989   0.717   1.046  1.0052 -0.1755 -0.3731
 8126SOL     OW36013   4.031   3.061  10.980 -0.8202 -0.4674  0.4274
 8126SOL    HW136014   3.949   3.043  10.934 -1.4359  1.7767  0.6631
 8126SOL    HW236015   4.054   2.968  10.989 -0.6415 -0.4626  0.0365
 8127SOL     OW36016   1.464   1.119  11.530 -0.8706  0.8837 -0.0533
 8127SOL    HW136017   1.370   1.101  11.520 -0.7734  0.2917  0.1279
 8127SOL    HW236018   1.473   1.161  11.444  2.1886  0.9728  0.3177
 8128SOL     OW36019   4.593   0.471  11.885  0.1159 -0.4361 -0.1756
 8128SOL    HW136020   4.580   0.435  11.797 -0.8526 -1.2353  0.2862
 8128SOL    HW236021   4.503   0.486  11.915  0.9044 -1.2887  2.6335
 8129SOL     OW36022   3.478   3.702  15.728 -0.2002  0.6069  0.1386
 8129SOL    HW136023   3.479   3.783  15.678  2.1839 -0.0834 -0.9529
 8129SOL    HW236024   3.455   3.645  15.654  1.6691 -1.0236  0.7840
 8130SOL     OW36025   4.236   1.034   5.675  0.3623 -0.5768 -0.6902
 8130SOL    HW136026   4.228   1.022   5.580  0.2099  1.0636 -0.8758
 8130SOL    HW236027   4.155   1.081   5.695  0.4342 -0.4574 -0.6806
 8131SOL     OW36028   3.768   3.923   2.274 -0.1594 -0.3719  0.2115
 8131SOL    HW136029   3.748   3.923   2.368 -0.3782  1.1054  0.1647
 8131SOL    HW236030   3.733   3.838   2.246  0.2382 -0.2849 -0.5450
 8132SOL     OW36031   3.795   1.837  11.462  0.2280 -0.1417  0.5947
 8132SOL    HW136032   3.871   1.895  11.451  0.1227 -0.0774  0.2071
 8132SOL    HW236033   3.772   1.845  11.369  1.8753  1.9040  0.3604
 8133SOL     OW36034   3.366   3.919   2.919  0.0832 -0.0449 -0.0929
 8133SOL    HW136035   3.309   3.843   2.927  0.7129 -0.3294  1.6849
 8133SOL    HW236036   3.340   3.962   2.837 -1.8545 -0.8798  0.0844
 8134SOL     OW36037   1.396   1.137   4.645  0.4543  0.5211  0.0918
 8134SOL    HW136038   1.330   1.169   4.707  0.3128  2.4716 -1.0401
 8134SOL    HW236039   1.352   1.157   4.563 -3.0992  0.6925  2.0554
 8135SOL     OW36040   1.176   1.801   5.726  0.3423  0.1618  0.1570
 8135SOL    HW136041   1.094   1.756   5.746  0.5430 -0.3441 -0.1437
 8135SOL    HW236042   1.180   1.867   5.795  3.3928 -1.7591  1.7717
 8136SOL     OW36043   2.089   1.499  12.942  0.9170  0.0891  0.0746
 8136SOL    HW136044   2.062   1.416  12.982  0.1341 -0.3135 -1.3041
 8136SOL    HW236045   2.161   1.470  12.886  2.0417  0.1084  1.5115
 8137SOL     OW36046   1.450   0.804   3.951  0.1978  0.1766 -0.0932
 8137SOL    HW136047   1.496   0.744   4.010 -0.3275  0.1903  0.3188
 8137SOL    HW236048   1.370   0.754   3.939  0.1896  0.5444 -1.5608
 8138SOL     OW36049   3.487   0.241   8.613 -0.1313 -0.1109  0.6405
 8138SOL    HW136050   3.408   0.228   8.666 -0.4669 -1.0032 -0.0764
 8138SOL    HW236051   3.465   0.314   8.555  2.3802  1.2265  1.3518
 8139SOL     OW36052   0.281   2.141   3.099 -0.1458  0.0823  0.1798
 8139SOL    HW136053   0.324   2.057   3.083  1.7856  0.8612  1.2182
 8139SOL    HW236054   0.317   2.195   3.029  2.4785  2.5844  3.4229
 8140SOL     OW36055   0.280   0.315   2.821  0.2108 -0.2145 -1.0609
 8140SOL    HW136056   0.232   0.253   2.875 -0.2702  0.0610 -1.1728
 8140SOL    HW236057   0.268   0.397   2.869 -1.3482  0.5074 -2.7031
 8141SOL     OW36058   0.614   4.559   6.962 -0.4543  0.4242  0.2474
 8141SOL    HW136059   0.695   4.518   6.992 -0.8455 -0.5066  0.0365
 8141SOL    HW236060   0.605   4.599   7.048  0.1128 -0.2362  0.6145
 8142SOL     OW36061   1.990   0.804   6.243  0.3611  0.3797 -0.3165
 8142SOL    HW136062   1.966   0.715   6.265  1.6304  0.0051 -0.4049
 8142SOL    HW236063   2.030   0.829   6.326 -1.9793 -0.4133  1.0139
 8143SOL     OW36064   4.443   3.062   6.690 -0.6867  0.0390  0.0519
 8143SOL    HW136065   4.387   3.013   6.750  0.5399 -1.3127  0.1145
 8143SOL    HW236066   4.466   3.137   6.745 -0.4662 -0.6580  0.9181
 8144SOL     OW36067   3.805   0.850   7.317  0.2881  0.0386 -0.1467
 8144SOL    HW136068   3.718   0.853   7.277  0.4462  3.4977 -0.1676
 8144SOL    HW236069   3.812   0.754   7.324 -0.1794  0.0388  0.3038
 8145SOL     OW36070   4.498   3.707   8.475  0.3466 -0.2382 -0.0886
 8145SOL    HW136071   4.454   3.792   8.481  0.0277 -0.3224 -1.2404
 8145SOL    HW236072   4.522   3.708   8.568 -2.5039  3.2894  0.6191
 8146SOL     OW36073   4.267   2.803  13.091 -0.0115  0.1074  0.2846
 8146SOL    HW136074   4.218   2.859  13.152 -2.2377 -0.1087 -1.3301
 8146SOL    HW236075   4.302   2.737  13.152 -0.4123  1.8856  2.4465
 8147SOL     OW36076   3.430   2.135  10.833 -0.3991  0.1380 -0.4675
 8147SOL    HW136077   3.395   2.223  10.846  0.3264  0.6487 -2.0248
 8147SOL    HW236078   3.347   2.094  10.810 -0.4469 -0.1532  0.2174
 8148SOL     OW36079   1.068   1.610   2.812 -0.0781 -0.1830 -0.6762
 8148SOL    HW136080   1.147   1.557   2.802  0.1869  0.1887 -0.5719
 8148SOL    HW236081   1.103   1.692   2.777 -1.3929 -0.0902 -1.7996
 8149SOL     OW36082   2.153   3.168   1.306 -0.5892 -0.0032  0.0012
 8149SOL    HW136083   2.142   3.143   1.397 -1.0315 -0.0554 -0.0634
 8149SOL    HW236084   2.236   3.125   1.287 -1.8168 -2.2234 -0.3626
 8150SOL     OW36085   3.979   1.075   6.851 -0.7645  0.0587  0.0217
 8150SOL    HW136086   3.932   1.028   6.920 -0.5237  0.3732  0.4050
 8150SOL    HW236087   3.921   1.036   6.786 -1.7309  1.3904  0.0905
 8151SOL     OW36088   1.073   3.333   3.692  0.1581  0.5671  0.7331
 8151SOL    HW136089   1.150   3.331   3.635 -0.0542 -1.0441  0.5173
 8151SOL    HW236090   1.102   3.280   3.766  2.0832 -3.5461 -3.0187
 8152SOL     OW36091   3.158   4.381  14.989  0.0658 -0.1764  0.4495
 8152SOL    HW136092   3.166   4.464  14.941 -0.0907 -1.1482 -1.2334
 8152SOL    HW236093   3.207   4.384  15.071  1.8928 -3.1048 -0.5426
 8153SOL     OW36094   1.394   0.047   6.546  0.1309  0.1702  0.4572
 8153SOL    HW136095   1.456   4.711   6.538  1.0771  1.0558 -0.2517
 8153SOL    HW236096   1.425   0.108   6.479  1.2054 -1.0980 -0.1957
 8154SOL     OW36097   3.622   0.016   5.982  0.4940  0.4603  0.1912
 8154SOL    HW136098   3.684   0.077   5.941 -0.0185  1.3081  0.6777
 8154SOL    HW236099   3.546   0.048   5.933  1.1844  0.8870 -0.6058
 8155SOL     OW36100   3.557   0.870  16.215 -0.6546  0.4212  0.1388
 8155SOL    HW136101   3.519   0.947  16.257  0.3210  0.7859  0.3365
 8155SOL    HW236102   3.643   0.864  16.256 -0.2426  1.3436 -0.6161
 8156SOL     OW36103   3.127   1.847   2.173  0.5210  0.9156 -0.1254
 8156SOL    HW136104   3.078   1.849   2.256  0.9076 -1.3732  0.1693
 8156SOL    HW236105   3.214   1.852   2.214  0.6918 -1.3465 -0.2311
 8157SOL     OW36106   1.890   3.911   5.606  0.1332 -0.1572 -0.5879
 8157SOL    HW136107   1.870   3.823   5.636 -0.5395 -0.1988 -1.1589
 8157SOL    HW236108   1.833   3.962   5.663 -0.2483 -1.8157  0.5200
 8158SOL     OW36109   3.699   3.634  14.757  0.6649 -0.7648 -0.2647
 8158SOL    HW136110   3.701   3.567  14.689  1.2291 -0.8377 -0.1743
 8158SOL    HW236111   3.633   3.591  14.811 -2.1033  1.4508 -1.8708
 8159SOL     OW36112   2.364   0.503   1.926 -0.4088  0.0648 -0.2598
 8159SOL    HW136113   2.388   0.411   1.934  0.4398  0.2858 -0.2456
 8159SOL    HW236114   2.333   0.482   1.838  0.4746 -1.2907 -0.2482
 8160SOL     OW36115   3.127   1.995   5.372  0.1803  0.3040  0.8309
 8160SOL    HW136116   3.149   2.083   5.341  2.0095 -0.4758 -0.0896
 8160SOL    HW236117   3.214   1.973   5.406  0.8377 -0.0499 -1.0897
 8161SOL     OW36118   1.940   0.449  15.357  0.5924 -0.1194  0.5924
 8161SOL    HW136119   1.859   0.500  15.353  0.4208 -0.3942  0.5045
 8161SOL    HW236120   1.964   0.456  15.450  0.3647 -0.0383  0.6458
 8162SOL     OW36121   1.277   2.284  11.593  0.3254 -0.4903 -0.5091
 8162SOL    HW136122   1.310   2.225  11.525  2.1796  1.7057 -1.5192
 8162SOL    HW236123   1.251   2.218  11.656  0.0894  0.0860 -0.0010
 8163SOL     OW36124   0.723   2.520   7.971 -0.0613 -0.1304  0.7394
 8163SOL    HW136125   0.799   2.559   8.013  0.2856 -0.1147  0.0981
 8163SOL    HW236126   0.678   2.485   8.047  0.3926 -1.4692  0.3935
 8164SOL     OW36127   2.767   1.427   6.238 -0.6508 -0.3701 -0.4218
 8164SOL    HW136128   2.713   1.426   6.317 -1.8355 -3.1017 -1.2791
 8164SOL    HW236129   2.850   1.465   6.268 -1.8014  1.9629 -0.1880
 8165SOL     OW36130   3.185   4.448   7.584  0.1409  0.1379  0.5388
 8165SOL    HW136131   3.263   4.410   7.624  1.8012  4.4679  1.4569
 8165SOL    HW236132   3.207   4.541   7.575 -0.3872  0.1812 -0.3073
 8166SOL     OW36133   1.336   3.319   8.392  0.2677  0.0442 -0.2558
 8166SOL    HW136134   1.393   3.368   8.451 -1.8666  0.9985  1.0305
 8166SOL    HW236135   1.346   3.358   8.306  1.5315  1.3658  0.5010
 8167SOL     OW36136   0.312   4.171   4.048  0.2277  0.0599  0.2156
 8167SOL    HW136137   0.400   4.198   4.074  0.2826  0.2092 -0.1383
 8167SOL    HW236138   0.326   4.077   4.039  0.0194  0.0337  0.1489
 8168SOL     OW36139   2.993   1.129   0.473 -0.0415 -0.3086  0.4066
 8168SOL    HW136140   3.033   1.100   0.555  0.0639  2.7597  1.4541
 8168SOL    HW236141   3.049   1.087   0.407  1.8599  1.2198  1.0468
 8169SOL     OW36142   2.532   4.713  13.380  0.2810  0.1039 -0.3770
 8169SOL    HW136143   2.557   4.689  13.290  2.2158 -2.4142  0.8570
 8169SOL    HW236144   2.614   0.009  13.416  0.6327  1.1141 -2.0389
 8170SOL     OW36145   2.453   1.260  15.914  0.4838 -0.2760 -0.4194
 8170SOL    HW136146   2.496   1.200  15.853  0.6859 -0.2840 -0.2688
 8170SOL    HW236147   2.459   1.206  15.992 -0.1109 -0.4084 -0.4663
 8171SOL     OW36148   2.435   0.147   5.503 -0.3629 -0.2485 -0.5469
 8171SOL    HW136149   2.433   0.074   5.441  3.3336  2.9579 -4.4666
 8171SOL    HW236150   2.510   0.191   5.462  1.4851 -1.5315  1.5278
 8172SOL     OW36151   3.368   0.382   5.618  0.1771 -0.6141 -0.5120
 8172SOL    HW136152   3.317   0.376   5.537 -0.7842  1.2218 -0.0434
 8172SOL    HW236153   3.433   0.448   5.595 -1.6942  1.0779 -0.9404
 8173SOL     OW36154   3.398   2.217   7.776  0.1397 -0.1030  0.0916
 8173SOL    HW136155   3.338   2.158   7.731  0.5335 -1.6655  1.6068
 8173SOL    HW236156   3.424   2.162   7.850  0.0573 -1.6233 -1.0001
 8174SOL     OW36157   3.041   2.029   8.543  0.3072 -0.0630  0.6182
 8174SOL    HW136158   3.102   1.985   8.601 -1.5449 -2.5669  0.6865
 8174SOL    HW236159   3.100   2.067   8.478  1.1637 -0.9796  0.8640
 8175SOL     OW36160   4.394   2.159   0.651  0.2105 -0.5045  0.2536
 8175SOL    HW136161   4.446   2.171   0.571  0.6831  0.5702  0.7302
 8175SOL    HW236162   4.329   2.103   0.609 -0.3695  1.0841 -0.9520
 8176SOL     OW36163   1.460   0.902   6.227  0.5638 -0.1707  0.7749
 8176SOL    HW136164   1.453   0.833   6.293  0.0380 -0.0347  0.8617
 8176SOL    HW236165   1.366   0.902   6.206  0.3425 -0.8567  1.7230
 8177SOL     OW36166   0.897   1.249  14.300  0.0478 -0.4469 -0.2412
 8177SOL    HW136167   0.898   1.343  14.319 -2.0203 -0.8803  1.9741
 8177SOL    HW236168   0.982   1.243  14.257  0.2032 -0.0352  0.0066
 8178SOL     OW36169   2.125   1.508   8.255 -0.6028 -0.3734  0.0350
 8178SOL    HW136170   2.073   1.557   8.318  2.4929 -0.1164  2.3771
 8178SOL    HW236171   2.084   1.537   8.174 -0.2050  1.2718  0.4206
 8179SOL     OW36172   0.456   4.582   3.984 -0.7007  0.3003  0.0870
 8179SOL    HW136173   0.418   4.569   4.071  1.4829 -1.0240  0.8461
 8179SOL    HW236174   0.389   4.538   3.933  1.7267 -1.4915 -1.5231
 8180SOL     OW36175   3.904   0.661   5.171  0.5004  0.6599 -0.1088
 8180SOL    HW136176   3.896   0.748   5.208 -0.1227  0.5815 -0.0569
 8180SOL    HW236177   3.997   0.639   5.163  0.9250  2.5050 -0.2184
 8181SOL     OW36178   0.087   1.310   2.954  0.0266 -0.3157  0.3646
 8181SOL    HW136179   0.007   1.321   2.903  0.4069 -0.2832 -0.2190
 8181SOL    HW236180   0.066   1.375   3.021 -1.1262  0.0090 -0.3102
 8182SOL     OW36181   2.736   4.174   1.630  0.2669 -0.3103 -0.3887
 8182SOL    HW136182   2.718   4.246   1.690 -0.5560 -0.0829 -0.9174
 8182SOL    HW236183   2.746   4.229   1.552 -0.6048 -0.4809 -0.6227
 8183SOL     OW36184   2.512   1.061   4.056  0.1855  0.2154 -0.4717
 8183SOL    HW136185   2.559   1.036   4.136 -0.1958  1.0287  0.0019
 8183SOL    HW236186   2.462   0.987   4.021  0.0227  0.2447 -0.2989
 8184SOL     OW36187   4.096   1.921   9.256 -0.6235 -0.0435  0.2418
 8184SOL    HW136188   4.159   1.868   9.306 -1.0610  0.1468  0.9968
 8184SOL    HW236189   4.088   1.997   9.314 -1.1013  0.0749  0.0179
 8185SOL     OW36190   4.735   2.003   6.368 -0.6286  0.0309  0.2215
 8185SOL    HW136191   4.709   2.077   6.314 -0.5734  0.3606  0.6454
 8185SOL    HW236192   0.094   2.001   6.361 -0.7296 -0.0391 -1.0317
 8186SOL     OW36193   4.524   0.842   3.306  0.6990 -0.0721 -0.2196
 8186SOL    HW136194   4.606   0.837   3.355  1.5297  2.3149 -1.3760
 8186SOL    HW236195   4.465   0.819   3.377  0.8033  0.7747  0.1315
 8187SOL     OW36196   4.349   0.414   7.266 -0.6002  0.2004  0.2011
 8187SOL    HW136197   4.356   0.461   7.349 -1.0732  0.3983  0.1293
 8187SOL    HW236198   4.389   0.476   7.204  1.2609 -0.9314  0.2702
 8188SOL     OW36199   3.317   4.179   8.527 -0.2480  0.1268  0.4094
 8188SOL    HW136200   3.371   4.258   8.530  2.4878 -1.6151 -2.1379
 8188SOL    HW236201   3.322   4.152   8.435 -2.2382  0.4707  0.2092
 8189SOL     OW36202   2.359   0.616   4.014  0.7303  0.2877 -0.0741
 8189SOL    HW136203   2.272   0.581   3.994  1.8376 -0.6250 -3.4417
 8189SOL    HW236204   2.341   0.698   3.968 -2.2907 -0.7809 -0.7728
 8190SOL     OW36205   4.621   3.920   6.373 -0.0260  0.4842 -0.4251
 8190SOL    HW136206   4.695   3.964   6.332  0.3325 -1.1647 -1.5493
 8190SOL    HW236207   4.635   3.841   6.321  1.8248  0.9858 -0.6984
 8191SOL     OW36208   3.308   1.658   7.555  0.5404  0.5384  0.1280
 8191SOL    HW136209   3.289   1.607   7.633 -0.2552  0.0656 -0.3853
 8191SOL    HW236210   3.393   1.698   7.576  0.0189  0.8201  1.7335
 8192SOL     OW36211   2.785   4.212   6.082 -0.2173  0.2414 -0.0302
 8192SOL    HW136212   2.872   4.251   6.081  0.4903 -1.3441  1.4189
 8192SOL    HW236213   2.791   4.150   6.154 -2.6095  0.1663  0.1198
 8193SOL     OW36214   3.270   4.132  17.737 -0.7144 -0.4291  0.3539
 8193SOL    HW136215   3.203   4.172   0.049 -1.9698 -1.5885 -0.2986
 8193SOL    HW236216   3.219   4.101  17.663 -0.9444 -0.3564  0.4808
 8194SOL     OW36217   3.221   3.859   3.727 -0.3034 -0.2475  0.1327
 8194SOL    HW136218   3.275   3.912   3.669 -0.0402 -0.9900 -0.2977
 8194SOL    HW236219   3.159   3.917   3.771 -0.8171  0.0551 -1.0093
 8195SOL     OW36220   4.219   3.994   1.241 -0.1292  0.0831  0.1741
 8195SOL    HW136221   4.192   3.974   1.151 -0.1394  1.1141 -0.0469
 8195SOL    HW236222   4.150   3.947   1.288  0.1465 -0.4953  0.0012
 8196SOL     OW36223   4.011   2.062   1.510 -0.1676 -0.6074 -0.4004
 8196SOL    HW136224   4.075   2.119   1.553 -2.7380  1.7696  0.2492
 8196SOL    HW236225   3.932   2.115   1.504  0.8210  1.0347  1.0936
 8197SOL     OW36226   4.545   1.635   8.775  0.1399 -0.0996  0.0884
 8197SOL    HW136227   4.478   1.600   8.833 -0.6841  1.4598  0.0750
 8197SOL    HW236228   4.563   1.569   8.708  1.6111  0.9203 -0.5158
 8198SOL     OW36229   2.695   4.144   7.597 -0.1039  0.1922  0.0922
 8198SOL    HW136230   2.786   4.134   7.570 -1.2205 -0.5323 -3.3973
 8198SOL    HW236231   2.712   4.218   7.656  0.9797  1.4009 -1.7236
 8199SOL     OW36232   3.902   1.593  13.232  0.6855 -0.0188  0.7494
 8199SOL    HW136233   3.874   1.526  13.170 -1.5779 -0.7579  2.5690
 8199SOL    HW236234   3.942   1.536  13.297 -1.9208 -1.0499  1.4682
 8200SOL     OW36235   0.917   2.681   2.479  0.4649  0.0206 -0.2076
 8200SOL    HW136236   0.883   2.643   2.560  1.1056  2.8789  1.3908
 8200SOL    HW236237   1.011   2.675   2.497  0.5369 -0.0706 -0.6236
 8201SOL     OW36238   2.636   0.119   6.018  0.0958 -0.4277 -0.1140
 8201SOL    HW136239   2.671   0.180   5.953 -0.1291 -1.6051 -1.3370
 8201SOL    HW236240   2.706   0.129   6.082  0.4662 -0.5383 -0.4996
 8202SOL     OW36241   1.569   1.149   3.031 -0.3662  0.6724 -0.1657
 8202SOL    HW136242   1.586   1.151   3.125 -0.8956  0.5553 -0.0661
 8202SOL    HW236243   1.655   1.148   2.990  0.7380 -2.0303  2.2805
 8203SOL     OW36244   0.542   2.248   7.336 -0.1889 -0.2502 -0.1734
 8203SOL    HW136245   0.555   2.343   7.329  1.1890 -0.4546 -0.5153
 8203SOL    HW236246   0.627   2.218   7.369  0.2896 -0.6157 -1.7273
 8204SOL     OW36247   2.232   2.418  16.091 -0.2933 -0.1537  0.1327
 8204SOL    HW136248   2.253   2.353  16.024  0.3595  1.8093 -1.5617
 8204SOL    HW236249   2.253   2.506  16.060 -4.1219  0.1043 -1.7348
 8205SOL     OW36250   2.478   0.956  17.481 -0.9108 -0.0211  0.0788
 8205SOL    HW136251   2.413   1.014  17.442 -0.5246  0.7773  0.6225
 8205SOL    HW236252   2.429   0.928  17.558 -0.9209  0.1759  0.1422
 8206SOL     OW36253   4.535   3.180   5.023  0.1345  0.0869  0.4304
 8206SOL    HW136254   4.512   3.146   5.109 -2.6005  2.0360  0.4652
 8206SOL    HW236255   4.561   3.095   4.986  0.9753  0.0349  1.1503
 8207SOL     OW36256   3.734   4.584  14.407 -0.4407 -0.4013  0.4719
 8207SOL    HW136257   3.809   4.544  14.364  0.2826  3.0704 -1.4911
 8207SOL    HW236258   3.662   4.580  14.344 -0.0134 -3.0619  0.1753
 8208SOL     OW36259   4.011   3.985   2.967  0.5229 -0.2179  0.7813
 8208SOL    HW136260   4.076   3.949   3.028  0.5106 -0.0692  0.8830
 8208SOL    HW236261   3.962   3.913   2.928 -1.7641  0.4392  2.3992
 8209SOL     OW36262   1.574   2.785   2.658 -0.5363 -0.0322  0.4831
 8209SOL    HW136263   1.669   2.781   2.669 -0.3826 -0.1846 -0.9351
 8209SOL    HW236264   1.556   2.875   2.631  1.7286 -0.3180 -1.9747
 8210SOL     OW36265   0.392   4.129   3.300 -0.0845  0.3777 -0.1761
 8210SOL    HW136266   0.462   4.194   3.303  1.2355 -1.0742  0.5509
 8210SOL    HW236267   0.417   4.076   3.376  0.6624  0.4930 -0.3409
 8211SOL     OW36268   4.478   1.602  13.000  0.0767  0.0146 -0.1687
 8211SOL    HW136269   4.527   1.668  12.952  0.4112  0.6486  1.0283
 8211SOL    HW236270   4.407   1.566  12.946  0.1838 -1.9972  1.0222
 8212SOL     OW36271   4.424   2.269   6.921 -0.2440 -1.2651 -0.3694
 8212SOL    HW136272   4.512   2.251   6.954 -0.3235 -2.7334 -0.9614
 8212SOL    HW236273   4.390   2.349   6.960  0.4644 -0.9014 -0.5023
 8213SOL     OW36274   4.275   0.697   1.233  0.0274  0.0435  0.6206
 8213SOL    HW136275   4.190   0.695   1.190  0.1137  0.7920  0.4120
 8213SOL    HW236276   4.343   0.689   1.166 -1.3490 -5.0355 -0.1404
 8214SOL     OW36277   0.763   2.703   7.198  0.3250 -0.2353 -0.0070
 8214SOL    HW136278   0.851   2.730   7.172  0.6805 -0.5015  0.9366
 8214SOL    HW236279   0.773   2.736   7.287  0.2323  1.5999 -0.6743
 8215SOL     OW36280   0.869   0.543  13.982  0.2618 -0.1075  0.2264
 8215SOL    HW136281   0.774   0.549  13.995  0.1575  0.9110 -0.9601
 8215SOL    HW236282   0.886   0.624  13.934 -3.8166  1.9782  2.3398
 8216SOL     OW36283   0.464   3.100   3.128 -0.5660  0.1283 -0.2255
 8216SOL    HW136284   0.476   3.007   3.147 -0.1741  0.4795  1.2913
 8216SOL    HW236285   0.540   3.113   3.071 -0.2554 -1.7990 -0.2506
 8217SOL     OW36286   1.541   3.818   9.133  0.6793 -0.1331 -0.4530
 8217SOL    HW136287   1.488   3.869   9.073  0.0421 -1.4174 -0.9858
 8217SOL    HW236288   1.492   3.836   9.213  2.8036 -2.4529  1.3642
 8218SOL     OW36289   2.350   3.847   8.892  0.1750  0.4627  0.4865
 8218SOL    HW136290   2.306   3.819   8.972  0.8190  1.2368  1.1113
 8218SOL    HW236291   2.291   3.914   8.857  0.6879  0.1531 -0.9830
 8219SOL     OW36292   1.945   4.151   4.227 -0.1029  0.1281 -0.4860
 8219SOL    HW136293   1.992   4.072   4.254  2.9262  1.4963 -1.7348
 8219SOL    HW236294   1.858   4.115   4.242  0.7399 -1.9153 -0.3819
 8220SOL     OW36295   1.196   4.230   2.110  0.6166 -0.4347  0.5447
 8220SOL    HW136296   1.224   4.149   2.066  0.0404 -0.8439  0.9258
 8220SOL    HW236297   1.148   4.180   2.176  0.1230 -0.4403  0.1865
 8221SOL     OW36298   0.414   2.540   2.475  0.5562 -0.1781 -0.5609
 8221SOL    HW136299   0.470   2.552   2.398  1.3115 -0.1390 -0.0100
 8221SOL    HW236300   0.427   2.447   2.494  1.5790  0.0928  0.0925
 8222SOL     OW36301   2.057   3.484   4.454  0.1836  0.0182 -0.0766
 8222SOL    HW136302   2.046   3.400   4.499  1.6341  0.7072  1.5605
 8222SOL    HW236303   1.997   3.464   4.382 -1.3185 -0.8971  1.4592
 8223SOL     OW36304   1.516   3.638   0.729 -0.5271 -0.2174 -0.0863
 8223SOL    HW136305   1.468   3.568   0.684 -0.0936  0.0882 -1.0179
 8223SOL    HW236306   1.432   3.671   0.761 -0.2322 -0.8529  1.3594
 8224SOL     OW36307   3.589   4.587   1.927 -0.4166  0.5002 -0.1382
 8224SOL    HW136308   3.608   4.494   1.938  0.9559  0.9920  1.6550
 8224SOL    HW236309   3.548   4.587   1.841 -1.9744  2.8308  0.6186
 8225SOL     OW36310   1.422   3.212   2.240  0.2090  0.2483  0.2433
 8225SOL    HW136311   1.344   3.266   2.253 -1.2165 -1.3947 -1.5098
 8225SOL    HW236312   1.472   3.265   2.178  0.0537  1.0471  0.7973
 8226SOL     OW36313   2.396   1.850   6.264  0.4360 -0.2923  0.2564
 8226SOL    HW136314   2.439   1.766   6.284 -0.0021 -0.7052 -0.5387
 8226SOL    HW236315   2.459   1.898   6.211 -1.9867 -0.5775 -2.9087
 8227SOL     OW36316   1.497   3.847   9.878 -0.1129  0.3143 -0.0588
 8227SOL    HW136317   1.462   3.795   9.951 -1.7915  0.7599 -0.5492
 8227SOL    HW236318   1.502   3.934   9.918  1.2103 -0.3176  1.1645
 8228SOL     OW36319   0.844   4.199   7.588 -0.0565 -0.2862 -0.3902
 8228SOL    HW136320   0.860   4.177   7.496  1.1312  1.8454 -0.6781
 8228SOL    HW236321   0.755   4.234   7.582 -0.0636 -0.0414  1.1690
 8229SOL     OW36322   4.056   3.893   5.511 -0.1196 -0.5793  0.0208
 8229SOL    HW136323   4.032   3.828   5.446  2.2513 -1.3038 -0.1254
 8229SOL    HW236324   4.007   3.856   5.585 -0.0575 -2.8014 -1.0586
 8230SOL     OW36325   3.832   2.795  17.443  0.2415 -0.1435 -0.8286
 8230SOL    HW136326   3.837   2.870  17.384  0.4169 -0.6809 -1.4972
 8230SOL    HW236327   3.768   2.743  17.394  0.4579 -2.5501  1.4526
 8231SOL     OW36328   1.186   2.110   8.638  0.5738 -0.4364 -0.4014
 8231SOL    HW136329   1.229   2.102   8.723 -0.4187  0.5618  0.1815
 8231SOL    HW236330   1.099   2.073   8.653  0.3926 -0.1029 -0.6322
 8232SOL     OW36331   2.855   1.124   0.174 -0.2840  0.3778  0.0762
 8232SOL    HW136332   2.851   1.029   0.175 -0.2985  0.4011  1.5619
 8232SOL    HW236333   2.810   1.140   0.091 -1.5327  1.9090  1.0389
 8233SOL     OW36334   2.389   4.298   9.908  0.3562 -0.2357 -0.0883
 8233SOL    HW136335   2.461   4.291   9.845  1.3415 -0.7817  1.1056
 8233SOL    HW236336   2.438   4.270   9.985 -2.1548 -1.9010  0.9018
 8234SOL     OW36337   2.803   2.808   6.174 -0.0099  0.6100  0.0526
 8234SOL    HW136338   2.851   2.735   6.213 -0.6820 -0.4103 -1.0295
 8234SOL    HW236339   2.731   2.768   6.125 -1.1713  1.4043  1.1331
 8235SOL     OW36340   2.846   4.244   3.019 -0.2185  0.3795  0.4701
 8235SOL    HW136341   2.941   4.234   3.008 -0.4417 -0.2852 -0.8843
 8235SOL    HW236342   2.805   4.167   2.979 -0.1315  1.1981 -1.1826
 8236SOL     OW36343   0.329   2.601   9.330 -0.6361 -0.7140 -0.0937
 8236SOL    HW136344   0.410   2.605   9.278 -0.1259 -0.2658  0.7403
 8236SOL    HW236345   0.335   2.671   9.395  1.0618 -0.6912 -0.2796
 8237SOL     OW36346   0.661   0.707  13.471  0.4535  0.0793  0.0411
 8237SOL    HW136347   0.731   0.646  13.496  0.2203  0.3962  1.4826
 8237SOL    HW236348   0.714   0.784  13.450 -0.9272  1.3396  1.2192
 8238SOL     OW36349   2.433   1.718   5.217 -0.0265  0.0272 -0.1842
 8238SOL    HW136350   2.497   1.775   5.175 -1.6246  0.6403 -1.8034
 8238SOL    HW236351   2.428   1.758   5.304  2.1112  5.1835 -2.4326
 8239SOL     OW36352   2.958   0.135   9.395 -0.0921  0.2410 -0.7378
 8239SOL    HW136353   2.865   0.130   9.375 -0.5428 -4.3228  2.6855
 8239SOL    HW236354   2.987   0.194   9.325  2.3157  0.2474  0.2693
 8240SOL     OW36355   1.744   3.886   8.893  0.2618 -0.1731  0.4660
 8240SOL    HW136356   1.705   3.808   8.853 -3.4104  0.4799  2.6803
 8240SOL    HW236357   1.830   3.888   8.853 -0.4973  0.6428 -1.1217
 8241SOL     OW36358   3.670   1.159  12.385 -0.1049  0.3301  0.2177
 8241SOL    HW136359   3.687   1.068  12.407  2.0754  0.3596 -1.2883
 8241SOL    HW236360   3.621   1.142  12.305  1.1381 -0.7421 -0.3138
 8242SOL     OW36361   3.848   1.297   3.102  0.6909 -0.3739 -0.2125
 8242SOL    HW136362   3.916   1.334   3.045 -0.9243  1.2229 -1.1220
 8242SOL    HW236363   3.900   1.314   3.181 -1.3993  2.1668  0.6176
 8243SOL     OW36364   3.764   0.718   0.239  0.1386  0.4388 -0.3334
 8243SOL    HW136365   3.788   0.802   0.279  0.6403  0.1485 -0.0318
 8243SOL    HW236366   3.721   0.753   0.160 -0.6214 -0.0340 -0.1313
 8244SOL     OW36367   3.682   0.771   0.619 -0.0329  0.5904 -0.1073
 8244SOL    HW136368   3.681   0.743   0.711  3.3762 -0.7516 -0.4653
 8244SOL    HW236369   3.681   0.685   0.576  1.0113 -0.0441  1.1279
 8245SOL     OW36370   1.897   1.281   8.226  0.0954 -0.2178 -0.1950
 8245SOL    HW136371   1.928   1.360   8.270  1.1371 -0.6868 -0.0833
 8245SOL    HW236372   1.979   1.231   8.224  0.9842  1.2653  0.1098
 8246SOL     OW36373   2.494   2.483   1.927  0.3142 -0.2247 -0.2069
 8246SOL    HW136374   2.502   2.576   1.906 -1.4386 -0.3023 -1.2058
 8246SOL    HW236375   2.422   2.488   1.990 -1.4833 -0.0312 -2.2687
 8247SOL     OW36376   2.160   2.455  10.483  0.4610  0.2872  0.5617
 8247SOL    HW136377   2.183   2.369  10.518  0.6955  0.3806  0.6354
 8247SOL    HW236378   2.081   2.476  10.532 -0.0442  0.2986 -0.2634
 8248SOL     OW36379   4.282   0.305  13.091 -0.2036  0.9317  0.1958
 8248SOL    HW136380   4.262   0.384  13.141  0.7502  1.4650 -0.2628
 8248SOL    HW236381   4.196   0.263  13.100  0.4297 -0.4029  0.0556
 8249SOL     OW36382   1.276   3.175   1.345  0.4981  0.3293 -0.2849
 8249SOL    HW136383   1.201   3.229   1.369  0.8529  0.1043  1.3735
 8249SOL    HW236384   1.255   3.092   1.389 -2.5651  1.1243 -0.2948
 8250SOL     OW36385   1.261   1.953  11.964 -0.3032  0.0720 -0.4426
 8250SOL    HW136386   1.209   1.881  12.000  0.1698  0.9427  1.9772
 8250SOL    HW236387   1.336   1.940  12.022 -1.3337  0.6747  1.0283
 8251SOL     OW36388   0.963   2.610   8.111 -0.5505  0.0170 -0.1515
 8251SOL    HW136389   0.953   2.700   8.082 -0.7002  0.8492  2.4582
 8251SOL    HW236390   1.040   2.597   8.057  0.0676  1.8216  0.3078
 8252SOL     OW36391   2.516   2.342   0.893 -0.0879 -0.5469 -0.1880
 8252SOL    HW136392   2.524   2.385   0.807 -0.4203 -0.0960  0.0038
 8252SOL    HW236393   2.599   2.300   0.910  0.5218  0.3947 -0.8007
 8253SOL     OW36394   3.080   1.161   5.258  0.2277  0.2675 -0.3063
 8253SOL    HW136395   3.085   1.103   5.334 -0.3795 -0.4075 -0.7806
 8253SOL    HW236396   3.060   1.245   5.298  0.3332  0.1944 -0.0994
 8254SOL     OW36397   2.378   0.704   0.605  0.0789 -0.4316  0.2971
 8254SOL    HW136398   2.394   0.783   0.656 -0.8757  0.8021 -1.3239
 8254SOL    HW236399   2.378   0.745   0.518  1.6995 -0.4497  0.2729
 8255SOL     OW36400   3.733   2.260  10.062 -0.0146  0.1004  0.0978
 8255SOL    HW136401   3.656   2.203  10.059 -2.8867  3.9193 -0.1308
 8255SOL    HW236402   3.729   2.282  10.155 -0.3758  1.9883 -0.3513
 8256SOL     OW36403   1.911   2.156   5.994 -0.2374 -0.5115  0.1198
 8256SOL    HW136404   1.852   2.133   6.066  0.0337 -0.2224  0.4332
 8256SOL    HW236405   1.977   2.213   6.033  0.2954  0.0636 -1.6001
 8257SOL     OW36406   0.031   3.811  13.601  0.1716 -0.0228 -0.3965
 8257SOL    HW136407   0.049   3.905  13.600  1.6455 -0.3189 -1.3378
 8257SOL    HW236408   0.085   3.778  13.672  0.3809 -1.0555 -1.0303
 8258SOL     OW36409   1.245   1.164   5.922  0.1494  0.2193  0.4924
 8258SOL    HW136410   1.275   1.221   5.851  1.6796 -0.3040  0.7196
 8258SOL    HW236411   1.154   1.148   5.896  0.1864 -0.9748  1.1027
 8259SOL     OW36412   2.386   1.064   7.708  0.2446 -0.1991 -0.1112
 8259SOL    HW136413   2.458   1.118   7.675  1.2463 -0.5986  1.4045
 8259SOL    HW236414   2.353   1.114   7.783  0.2732  0.2365 -0.3873
 8260SOL     OW36415   1.703   3.629   8.759  0.9480 -0.1437  1.0347
 8260SOL    HW136416   1.720   3.535   8.760 -1.0365 -0.5143  0.9070
 8260SOL    HW236417   1.735   3.651   8.672  1.1781 -3.2669  0.3158
 8261SOL     OW36418   2.365   3.943  15.596 -0.5433 -0.2769  0.1690
 8261SOL    HW136419   2.309   4.013  15.629 -0.5118 -1.2546  2.3040
 8261SOL    HW236420   2.295   3.882  15.574  0.9761 -1.4002 -1.5137
 8262SOL     OW36421   0.198   2.711   4.388  0.2670  0.1486  0.2954
 8262SOL    HW136422   0.179   2.731   4.297 -1.2922 -0.3433  0.5219
 8262SOL    HW236423   0.121   2.664   4.418  0.1838  1.0013  1.4166
 8263SOL     OW36424   1.823   3.114   4.392  0.2740  0.0788  0.1976
 8263SOL    HW136425   1.767   3.047   4.352  1.3107 -0.9084  0.4188
 8263SOL    HW236426   1.867   3.063   4.459 -0.4714 -2.4222 -1.2231
 8264SOL     OW36427   4.732   1.260   9.552 -0.1670 -0.0020 -0.3395
 8264SOL    HW136428   4.665   1.310   9.506 -0.6987 -1.2442 -0.9362
 8264SOL    HW236429   0.021   1.193   9.488 -0.6323 -1.3892  0.9328
 8265SOL     OW36430   3.494   1.962   4.920  0.6374 -0.1512  0.7643
 8265SOL    HW136431   3.530   1.920   4.998  0.3613  1.6508  1.8510
 8265SOL    HW236432   3.548   1.927   4.849  0.8289 -0.8997  1.2774
 8266SOL     OW36433   2.841   0.706   5.041  0.2542  0.0404  0.2877
 8266SOL    HW136434   2.895   0.777   5.008  0.7318 -0.6514 -0.4124
 8266SOL    HW236435   2.866   0.710   5.133  0.2366 -2.1463  0.3986
 8267SOL     OW36436   4.147   2.675   2.469  0.0875  0.6382  0.3730
 8267SOL    HW136437   4.217   2.701   2.530  0.8077  0.3690 -0.3374
 8267SOL    HW236438   4.069   2.725   2.493 -0.6379 -0.8501  1.1471
 8268SOL     OW36439   1.204   2.263   2.905  0.2196  0.0120  0.3077
 8268SOL    HW136440   1.219   2.220   2.989  0.8388 -0.2919  0.0436
 8268SOL    HW236441   1.128   2.214   2.873  2.3940 -2.3612 -1.2256
 8269SOL     OW36442   0.726   2.944  11.723  0.0208 -0.1599 -0.6992
 8269SOL    HW136443   0.665   3.012  11.752 -0.2693 -0.5549 -0.3749
 8269SOL    HW236444   0.755   2.906  11.807  0.4010  1.5067 -0.0739
 8270SOL     OW36445   4.243   1.273   4.296  0.1487 -0.5470  0.2400
 8270SOL    HW136446   4.317   1.276   4.236  0.2022 -3.1657  0.1441
 8270SOL    HW236447   4.168   1.278   4.236  1.4300 -2.8596 -1.5751
 8271SOL     OW36448   2.402   2.367  15.506  0.6831 -0.7396 -0.3244
 8271SOL    HW136449   2.310   2.391  15.515  0.8028 -0.3441 -0.1639
 8271SOL    HW236450   2.417   2.417  15.425 -1.3530 -0.2841 -0.4149
 8272SOL     OW36451   1.033   2.665   5.772 -0.4161 -0.6305 -0.6632
 8272SOL    HW136452   0.944   2.693   5.750 -1.0553  0.1187  2.8988
 8272SOL    HW236453   1.015   2.604   5.843  1.4354  0.6620  0.9187
 8273SOL     OW36454   0.232   1.541   5.595 -0.7197 -0.0099 -0.4185
 8273SOL    HW136455   0.254   1.557   5.504 -2.1783 -0.1258 -0.8001
 8273SOL    HW236456   0.321   1.547   5.629 -0.9408  1.6898 -0.1196
 8274SOL     OW36457   0.882   2.986   4.589  0.0637  0.0848  0.5204
 8274SOL    HW136458   0.969   3.013   4.562 -0.2925 -1.4636 -2.2185
 8274SOL    HW236459   0.843   3.006   4.504  1.6998 -0.4974 -0.3556
 8275SOL     OW36460   0.136   2.365  16.870  0.2093 -0.7949 -0.7865
 8275SOL    HW136461   0.182   2.421  16.933  0.7076 -1.5858 -0.4445
 8275SOL    HW236462   0.043   2.380  16.884 -0.0689 -0.9210 -2.4839
 8276SOL     OW36463   4.209   0.675   8.551  0.0301 -0.0923 -0.0781
 8276SOL    HW136464   4.149   0.693   8.623  1.8050  1.9257  0.8764
 8276SOL    HW236465   4.219   0.768   8.530  0.2333  0.1629  1.1701
 8277SOL     OW36466   2.864   2.676   7.025 -0.6972 -0.2606  0.5818
 8277SOL    HW136467   2.777   2.718   7.023 -1.8566 -2.6992 -0.7136
 8277SOL    HW236468   2.866   2.632   7.110  0.7926  1.1174  1.2612
 8278SOL     OW36469   2.625   0.193   7.740  0.1497 -0.2598 -0.3300
 8278SOL    HW136470   2.712   0.188   7.702  0.7940  0.0581  1.0816
 8278SOL    HW236471   2.581   0.233   7.665 -1.8288 -0.6765  0.5978
 8279SOL     OW36472   1.599   0.254   5.913  0.7467 -0.0817  0.2672
 8279SOL    HW136473   1.564   0.311   5.845 -1.0320 -0.1663  1.1156
 8279SOL    HW236474   1.517   0.237   5.959  0.3190  0.0215 -0.4604
 8280SOL     OW36475   4.100   3.339  16.151  0.0916  0.5952 -0.0884
 8280SOL    HW136476   4.097   3.319  16.058  1.5320 -0.1177  0.0276
 8280SOL    HW236477   4.113   3.434  16.154 -3.1688  0.9525  2.5669
 8281SOL     OW36478   4.349   1.311   7.901  0.1161  0.6025  0.4986
 8281SOL    HW136479   4.405   1.384   7.925 -0.1558  0.6481  1.0005
 8281SOL    HW236480   4.285   1.357   7.847  0.0624 -1.2951 -1.0796
 8282SOL     OW36481   3.978   3.664   7.234 -0.0743  0.1073 -0.0710
 8282SOL    HW136482   4.032   3.712   7.171 -0.9223 -0.4313 -1.2088
 8282SOL    HW236483   3.960   3.717   7.312 -4.3609 -2.9441  0.9906
 8283SOL     OW36484   3.137   1.224  11.892 -0.0188 -0.5947 -0.0667
 8283SOL    HW136485   3.118   1.228  11.798  0.5445  0.4443 -0.1482
 8283SOL    HW236486   3.094   1.144  11.921  1.1483 -0.6534  1.4822
 8284SOL     OW36487   3.039   1.735   9.549  0.0925  0.1580  0.0312
 8284SOL    HW136488   3.001   1.788   9.620 -1.1394  1.3900 -1.5541
 8284SOL    HW236489   3.048   1.649   9.589 -0.4510 -0.5079 -1.2890
 8285SOL     OW36490   1.522   4.403   2.132 -0.4262  0.2349  0.3895
 8285SOL    HW136491   1.475   4.458   2.069  0.3324  1.3448  0.7714
 8285SOL    HW236492   1.521   4.460   2.209 -1.2169 -0.0507  0.5895
 8286SOL     OW36493   1.495   3.938   0.928  1.2847 -0.4686 -0.0443
 8286SOL    HW136494   1.450   3.986   0.998  2.0097  2.1095 -1.3318
 8286SOL    HW236495   1.481   3.991   0.849 -0.3609  2.0623  1.9277
 8287SOL     OW36496   0.226   1.234   5.977  0.5905 -0.6809  1.0615
 8287SOL    HW136497   0.186   1.152   5.949 -0.4448 -0.3995  1.7232
 8287SOL    HW236498   0.231   1.279   5.892 -0.1481  0.7871  1.8086
 8288SOL     OW36499   2.040   4.474  16.315 -0.0397  0.2285 -0.1950
 8288SOL    HW136500   2.094   4.552  16.304 -0.1536 -0.0259 -2.5661
 8288SOL    HW236501   1.958   4.522  16.330 -0.8914 -1.1357 -0.4946
 8289SOL     OW36502   1.428   4.734   5.736  0.0527  0.2560  0.3862
 8289SOL    HW136503   1.348   4.723   5.685  1.0331 -2.3507 -0.6153
 8289SOL    HW236504   1.494   0.018   5.669 -1.5923 -0.8561 -1.5732
 8290SOL     OW36505   4.404   2.192   1.673  0.2138  0.2450  0.2628
 8290SOL    HW136506   4.448   2.168   1.754 -3.1876  1.9009  2.6019
 8290SOL    HW236507   4.474   2.172   1.611 -0.9073  0.1998 -1.0005
 8291SOL     OW36508   4.269   3.607  15.110  0.3240 -0.0513  0.3810
 8291SOL    HW136509   4.211   3.679  15.085 -0.5518 -0.6602  0.6411
 8291SOL    HW236510   4.225   3.536  15.063  0.3628 -0.8993  1.6192
 8292SOL     OW36511   1.014   3.364   8.630  0.2469 -0.0485 -0.4542
 8292SOL    HW136512   0.980   3.277   8.651 -1.4391  1.5212  3.4859
 8292SOL    HW236513   1.051   3.342   8.545 -0.9749 -1.7517 -0.5393
 8293SOL     OW36514   0.269   0.132   8.697  0.2637  0.0940  0.4899
 8293SOL    HW136515   0.339   0.184   8.737 -0.8414  1.2366  0.9535
 8293SOL    HW236516   0.228   0.205   8.651  2.1764 -0.0060 -1.3968
 8294SOL     OW36517   2.532   4.046  13.071 -0.0972 -0.3556  0.1816
 8294SOL    HW136518   2.625   4.034  13.090  0.0156 -0.4990 -0.4751
 8294SOL    HW236519   2.520   4.007  12.985 -0.9413  1.0795 -0.3525
 8295SOL     OW36520   4.515   0.295   1.778 -0.4497  0.9656 -0.3106
 8295SOL    HW136521   4.429   0.270   1.812 -0.0315  0.8255  0.6590
 8295SOL    HW236522   4.486   0.341   1.699  0.1917  2.6963  0.4686
 8296SOL     OW36523   4.406   0.130   4.444 -0.2038 -0.4033 -0.3034
 8296SOL    HW136524   4.463   0.054   4.460 -1.6441 -1.4202  0.0803
 8296SOL    HW236525   4.378   0.113   4.354  0.0417  0.0763 -0.4673
 8297SOL     OW36526   1.768   2.552   4.709 -0.4158 -0.5602 -0.3339
 8297SOL    HW136527   1.725   2.483   4.760  0.7031  0.0729  1.4985
 8297SOL    HW236528   1.841   2.581   4.763 -0.8486  3.3942 -1.9195
 8298SOL     OW36529   1.986   1.769   6.411  0.0432  0.1280  0.5396
 8298SOL    HW136530   2.071   1.777   6.455  0.2331 -3.1638  0.7683
 8298SOL    HW236531   2.012   1.794   6.322 -1.2175  0.2509  0.2023
 8299SOL     OW36532   4.215   3.575  10.335 -0.0716  0.4745 -0.4663
 8299SOL    HW136533   4.138   3.572  10.391 -0.6129  1.1467 -1.1750
 8299SOL    HW236534   4.271   3.634  10.386 -1.1209  2.2942 -1.4328
 8300SOL     OW36535   3.501   3.623  11.189  0.1684 -0.1873 -0.3559
 8300SOL    HW136536   3.440   3.696  11.198  1.2343  0.5889  0.5247
 8300SOL    HW236537   3.469   3.552  11.245  1.0705 -0.5989 -0.3596
 8301SOL     OW36538   0.333   2.241   3.885 -0.2239 -0.3756 -0.4244
 8301SOL    HW136539   0.256   2.191   3.857 -0.2615 -0.3482 -0.3707
 8301SOL    HW236540   0.389   2.249   3.808  0.7693  0.5226  0.4028
 8302SOL     OW36541   1.498   4.154   7.578 -0.0578 -0.0878  0.2051
 8302SOL    HW136542   1.561   4.088   7.608  0.8354  1.5809  1.9778
 8302SOL    HW236543   1.552   4.217   7.530 -0.6288 -0.3456 -0.7822
 8303SOL     OW36544   0.132   4.077  13.555  0.4759  0.0675 -0.0727
 8303SOL    HW136545   0.228   4.072  13.554  0.3959 -1.0633 -1.4996
 8303SOL    HW236546   0.115   4.148  13.493  1.4441  0.5874  0.2389
 8304SOL     OW36547   4.068   1.305  12.353 -0.1947  1.0030 -0.2892
 8304SOL    HW136548   3.986   1.265  12.323 -1.1093  2.1918  0.5943
 8304SOL    HW236549   4.045   1.389  12.392  0.9291  1.4990 -0.6945
 8305SOL     OW36550   3.069   1.032  10.230 -0.1692  0.0270 -0.0035
 8305SOL    HW136551   3.131   1.020  10.157 -0.2900  2.6808 -0.5282
 8305SOL    HW236552   3.002   1.088  10.191  0.3293  0.7776  0.2124
 8306SOL     OW36553   0.334   1.784   1.988  0.3763 -0.4038 -0.0721
 8306SOL    HW136554   0.328   1.854   1.924 -1.3655 -1.6372 -1.2699
 8306SOL    HW236555   0.413   1.812   2.035  2.1706 -0.3989 -3.1176
 8307SOL     OW36556   2.408   4.314  13.803  0.0680 -0.3181 -0.0216
 8307SOL    HW136557   2.414   4.410  13.800  0.4661 -0.3885 -1.5506
 8307SOL    HW236558   2.333   4.293  13.747 -0.3984  0.5808  0.2671
 8308SOL     OW36559   2.513   0.223   3.315 -0.0659 -0.5576  0.3262
 8308SOL    HW136560   2.597   0.187   3.286 -0.6158 -2.3820  0.9685
 8308SOL    HW236561   2.537   0.288   3.381 -0.7518 -0.5069  0.5317
 8309SOL     OW36562   3.230   1.604   4.794  0.6543  0.2910  0.8641
 8309SOL    HW136563   3.247   1.642   4.880 -0.4503  0.2181  1.1118
 8309SOL    HW236564   3.316   1.585   4.756 -0.6735 -0.0873 -1.9467
 8310SOL     OW36565   3.824   3.372   7.756  0.4025 -0.0044  0.1361
 8310SOL    HW136566   3.874   3.451   7.774 -0.9660  0.6451  1.0878
 8310SOL    HW236567   3.777   3.362   7.838 -0.8019 -1.4241 -0.7259
 8311SOL     OW36568   4.036   3.375   3.338 -0.6596 -0.2797  0.3212
 8311SOL    HW136569   4.126   3.346   3.354 -0.5686 -1.2560 -2.0396
 8311SOL    HW236570   4.019   3.440   3.407 -1.6946 -2.3965  2.0525
 8312SOL     OW36571   2.612   0.836   0.351  0.3224  0.3167 -0.0293
 8312SOL    HW136572   2.647   0.829   0.440  0.9786 -0.3474 -0.3392
 8312SOL    HW236573   2.614   0.931   0.337 -4.1525  0.4856  0.5373
 8313SOL     OW36574   1.148   4.396  10.680  0.9955 -0.3723  0.2073
 8313SOL    HW136575   1.200   4.344  10.619 -0.7636 -2.0080  0.0782
 8313SOL    HW236576   1.123   4.469  10.622 -1.7141 -1.4313  0.0347
 8314SOL     OW36577   0.579   3.957   6.111 -0.5576 -0.0221 -0.3553
 8314SOL    HW136578   0.495   3.947   6.155 -0.0468 -0.5688  0.5084
 8314SOL    HW236579   0.591   3.863   6.099 -0.1746  0.0887 -0.8583
 8315SOL     OW36580   0.666   1.758   7.522 -0.6832 -0.2603  0.0955
 8315SOL    HW136581   0.746   1.726   7.480  0.3826  0.8445  1.2647
 8315SOL    HW236582   0.699   1.802   7.600  0.7590  0.2956 -0.8282
 8316SOL     OW36583   2.938   0.287   3.771 -0.1500  0.1771 -0.3844
 8316SOL    HW136584   2.980   0.372   3.760 -0.4884 -0.0286 -3.3088
 8316SOL    HW236585   2.989   0.229   3.715  0.3313  0.4046 -0.1840
 8317SOL     OW36586   0.831   2.277   2.588  0.7244 -0.2542  0.0574
 8317SOL    HW136587   0.811   2.336   2.516  0.0221  0.7480  1.0794
 8317SOL    HW236588   0.839   2.196   2.537 -0.9886 -0.7653  0.6200
 8318SOL     OW36589   2.273   0.525   3.672  0.3779 -0.5298  0.0421
 8318SOL    HW136590   2.228   0.491   3.595 -0.3081 -2.0177  1.1161
 8318SOL    HW236591   2.214   0.527   3.748 -1.5519 -2.5889 -1.4167
 8319SOL     OW36592   3.627   0.027   3.367 -0.0492 -0.2603 -0.4108
 8319SOL    HW136593   3.551   0.026   3.308 -2.2738 -2.1845  2.5284
 8319SOL    HW236594   3.636   4.670   3.385 -0.4232  0.0382  1.2699
 8320SOL     OW36595   1.314   3.369   6.585  0.2093 -0.3531 -0.5727
 8320SOL    HW136596   1.338   3.435   6.519 -1.6561  0.6221 -0.2675
 8320SOL    HW236597   1.290   3.293   6.532 -1.2861  0.6569 -1.3415
 8321SOL     OW36598   1.179   4.600   3.540 -0.3751  0.3258  0.0753
 8321SOL    HW136599   1.165   4.528   3.478  3.7631 -1.5248  1.3139
 8321SOL    HW236600   1.184   4.561   3.627  4.6345 -1.2122 -0.9390
 8322SOL     OW36601   4.364   2.788   0.378  0.3455  0.4306 -0.2316
 8322SOL    HW136602   4.415   2.748   0.308 -1.2720 -0.2684 -1.0005
 8322SOL    HW236603   4.286   2.823   0.335  0.2674  0.7197  0.1364
 8323SOL     OW36604   3.292   3.631   8.982 -0.1198 -0.5016  0.5082
 8323SOL    HW136605   3.268   3.693   8.914  1.8904  1.8924  1.9862
 8323SOL    HW236606   3.365   3.673   9.029  1.5172 -2.0995 -0.5871
 8324SOL     OW36607   1.113   0.312   5.779 -0.1943 -0.0041 -0.3618
 8324SOL    HW136608   1.140   0.400   5.752  2.7611 -0.6562  0.5768
 8324SOL    HW236609   1.149   0.258   5.709 -0.5057  0.5470 -0.9510
 8325SOL     OW36610   4.594   1.901  17.614  0.1039 -0.3046 -0.0871
 8325SOL    HW136611   4.649   1.825  17.595 -0.3735 -0.2919 -1.4736
 8325SOL    HW236612   4.512   1.872  17.575 -1.8154  1.9410  2.2541
 8326SOL     OW36613   1.950   0.416  10.672  0.2346  0.2201  0.3757
 8326SOL    HW136614   2.038   0.435  10.703  1.6381 -0.5474 -3.1008
 8326SOL    HW236615   1.898   0.496  10.678 -0.4467 -0.1963  0.0304
 8327SOL     OW36616   1.122   0.289   4.526 -0.3244 -0.5293  0.1233
 8327SOL    HW136617   1.053   0.313   4.464  0.4830  0.1863 -0.4939
 8327SOL    HW236618   1.207   0.304   4.485 -0.3304  0.2963  0.4139
 8328SOL     OW36619   1.951   0.236  17.379 -0.2022  0.1004 -0.2655
 8328SOL    HW136620   1.873   0.187  17.351 -0.2505 -1.4293  2.5206
 8328SOL    HW236621   1.990   0.183  17.449 -0.5867  1.0439  0.6598
 8329SOL     OW36622   0.199   4.491   5.008 -0.3215 -0.3632 -0.4725
 8329SOL    HW136623   0.286   4.502   5.045 -1.1219  0.4917  1.1696
 8329SOL    HW236624   0.205   4.396   4.997  2.1423 -0.4006  1.2078
 8330SOL     OW36625   2.742   4.286  14.252  0.4411 -0.2807 -0.0308
 8330SOL    HW136626   2.732   4.369  14.205 -1.4387 -0.2727  0.4021
 8330SOL    HW236627   2.700   4.302  14.336  0.1621 -1.3346  0.0242
 8331SOL     OW36628   1.294   2.094  12.894 -0.2626  0.4724 -0.1287
 8331SOL    HW136629   1.373   2.143  12.871 -0.8233  0.5047 -1.9345
 8331SOL    HW236630   1.309   2.070  12.986 -0.7199 -0.6970 -0.3586
 8332SOL     OW36631   1.126   3.988  15.353 -0.6408  0.3562 -0.1164
 8332SOL    HW136632   1.192   3.928  15.318 -2.7221 -1.8550 -0.2481
 8332SOL    HW236633   1.050   3.933  15.337  0.2170 -1.0535  0.5524
 8333SOL     OW36634   2.210   0.041   7.162 -0.0523  0.5664 -0.2828
 8333SOL    HW136635   2.189   0.134   7.168 -0.8415  0.4144 -0.7558
 8333SOL    HW236636   2.271   0.034   7.236 -2.2739 -1.4905  1.3666
 8334SOL     OW36637   3.106   3.397   7.082 -0.4699  0.0448  0.2655
 8334SOL    HW136638   3.123   3.469   7.142  1.2058  0.8448 -1.2179
 8334SOL    HW236639   3.133   3.437   7.000  0.2526 -0.0457  0.4574
 8335SOL     OW36640   4.651   4.352   2.134  0.6536  0.1429 -0.1672
 8335SOL    HW136641   4.630   4.387   2.221 -1.6569  0.1872 -0.7382
 8335SOL    HW236642   4.647   4.260   2.159  0.9496  0.5198  1.2962
 8336SOL     OW36643   1.237   3.652  10.668 -0.0587 -0.2961 -0.0880
 8336SOL    HW136644   1.224   3.572  10.720  0.6901 -0.0888  0.4082
 8336SOL    HW236645   1.316   3.692  10.704 -1.5124  0.5162  2.2231
 8337SOL     OW36646   3.937   1.308   4.829 -0.7094  0.1793  0.6981
 8337SOL    HW136647   3.894   1.358   4.759  0.6505  3.0193  1.8833
 8337SOL    HW236648   3.889   1.228   4.850 -0.7107  0.3129  1.1920
 8338SOL     OW36649   4.101   1.649  17.279  0.1023 -0.0375  0.2693
 8338SOL    HW136650   4.121   1.739  17.252 -0.5117  0.6140  1.9948
 8338SOL    HW236651   4.050   1.618  17.205 -1.6423  1.5035  0.8419
 8339SOL     OW36652   1.695   3.752   9.481  0.2766  0.4201 -0.2733
 8339SOL    HW136653   1.614   3.730   9.528  0.2391  1.0354 -0.0479
 8339SOL    HW236654   1.725   3.665   9.453 -3.0550 -1.2730  1.4050
 8340SOL     OW36655   3.799   2.627   5.716 -0.6639 -0.1679  0.5443
 8340SOL    HW136656   3.813   2.717   5.687  0.3793 -0.2173  0.8672
 8340SOL    HW236657   3.825   2.637   5.808 -0.4267 -0.0384  0.4633
 8341SOL     OW36658   4.380   1.329   1.696 -0.1564 -0.1717  0.1925
 8341SOL    HW136659   4.370   1.410   1.745  2.2945  0.1118  0.2076
 8341SOL    HW236660   4.458   1.349   1.644 -1.1409 -0.2063 -1.3039
 8342SOL     OW36661   3.690   2.982  13.887  0.6912 -0.0439 -0.3749
 8342SOL    HW136662   3.641   2.906  13.918 -1.0783  1.2322 -0.0660
 8342SOL    HW236663   3.636   3.006  13.812  0.4062  0.4400 -0.0148
 8343SOL     OW36664   0.967   0.119  15.349  0.5110  0.4761  0.6880
 8343SOL    HW136665   0.921   0.192  15.308  0.0251 -0.8799 -1.1918
 8343SOL    HW236666   1.060   0.131  15.330  0.0579 -0.5583 -2.1943
 8344SOL     OW36667   1.617   1.837   3.691  0.1814  0.6739  0.4615
 8344SOL    HW136668   1.606   1.836   3.786  1.6856 -1.4224  0.5970
 8344SOL    HW236669   1.537   1.885   3.670  1.0036  1.7228 -0.3042
 8345SOL     OW36670   0.906   2.802   1.024 -0.1631  0.5381  0.0385
 8345SOL    HW136671   0.845   2.848   1.083 -0.1351  0.3573  0.2094
 8345SOL    HW236672   0.885   2.842   0.940  0.9634  1.0251 -0.0100
 8346SOL     OW36673   4.654   3.109  15.114  0.1809  0.5147  0.3273
 8346SOL    HW136674   4.693   3.110  15.202  0.7551  0.9585  0.0647
 8346SOL    HW236675   4.631   3.199  15.093 -0.0905  0.1293 -1.0126
 8347SOL     OW36676   3.157   0.331  16.129 -0.1593  0.3985  0.6277
 8347SOL    HW136677   3.243   0.341  16.088 -1.4980  1.3851 -2.0125
 8347SOL    HW236678   3.157   0.247  16.174  0.8182 -0.7188 -1.4422
 8348SOL     OW36679   1.947   1.052   0.637  0.0590 -0.1620 -0.0811
 8348SOL    HW136680   2.002   1.057   0.715  0.5353 -0.7998 -0.3684
 8348SOL    HW236681   1.959   1.142   0.608 -0.6147  0.0529  0.3060
 8349SOL     OW36682   0.842   4.564  12.715  0.4834 -0.1729 -0.4006
 8349SOL    HW136683   0.756   4.592  12.684  0.9901  0.7200 -1.0113
 8349SOL    HW236684   0.826   4.470  12.708 -3.9088  0.7627 -2.7046
 8350SOL     OW36685   4.204   0.086   8.880 -0.2480  0.0072 -0.1631
 8350SOL    HW136686   4.131   0.076   8.818 -0.0612 -0.7875 -0.2525
 8350SOL    HW236687   4.218   0.180   8.875  1.5384 -0.2457  0.0562
 8351SOL     OW36688   1.596   3.507   7.808  0.8437 -0.7206 -0.1156
 8351SOL    HW136689   1.653   3.431   7.799  1.6829  0.0757 -1.6127
 8351SOL    HW236690   1.616   3.551   7.725 -0.9903  0.7084  0.1797
 8352SOL     OW36691   0.152   2.360   2.386  0.6718 -0.0868  0.0024
 8352SOL    HW136692   0.095   2.421   2.433 -0.3693 -1.7948  0.9360
 8352SOL    HW236693   0.193   2.313   2.459  0.3113  0.7150  0.7127
 8353SOL     OW36694   2.336   0.263  10.272 -0.1424  0.1042 -0.4634
 8353SOL    HW136695   2.300   0.197  10.331 -0.6370  1.2395  0.5038
 8353SOL    HW236696   2.270   0.309  10.220  0.9564  1.2074 -0.8632
 8354SOL     OW36697   4.050   4.099   0.190  0.0908  0.0139 -1.3848
 8354SOL    HW136698   3.983   4.095   0.122 -1.7599  1.9020  0.3442
 8354SOL    HW236699   4.089   4.186   0.180 -0.7758  0.4066 -1.3396
 8355SOL     OW36700   2.417   1.561   6.378 -0.1318 -0.0775  0.4486
 8355SOL    HW136701   2.489   1.498   6.371 -1.5769 -1.3938 -2.5505
 8355SOL    HW236702   2.365   1.521   6.448 -0.7500  0.0529  0.0592
 8356SOL     OW36703   2.700   4.408   5.904 -0.5545 -0.0059  0.2084
 8356SOL    HW136704   2.724   4.338   5.965  1.6979 -0.2054 -0.8781
 8356SOL    HW236705   2.747   4.477   5.952 -0.0661 -0.2141  0.0359
 8357SOL     OW36706   2.373   0.313   6.927  0.2451 -0.2866 -0.0419
 8357SOL    HW136707   2.415   0.354   7.002  0.6456  0.9950 -0.9633
 8357SOL    HW236708   2.425   0.353   6.857  1.0677 -0.9588  0.1893
 8358SOL     OW36709   0.244   2.413   7.252  0.1113  0.4146 -0.6539
 8358SOL    HW136710   0.160   2.459   7.241  1.0307  1.7566 -2.1287
 8358SOL    HW236711   0.291   2.490   7.283  2.2008 -2.3084  2.8921
 8359SOL     OW36712   4.567   4.415   4.777  0.4387 -0.3307  0.1539
 8359SOL    HW136713   4.539   4.478   4.844  1.3018  0.4212 -0.1973
 8359SOL    HW236714   4.484   4.399   4.732  0.3915 -3.0572  1.2217
 8360SOL     OW36715   4.631   1.490  14.650 -0.3647  0.1964 -0.1544
 8360SOL    HW136716   4.714   1.473  14.694  0.6736  1.1456 -1.7504
 8360SOL    HW236717   4.565   1.437  14.695 -0.8772 -0.5067 -1.7271
 8361SOL     OW36718   3.749   2.880   9.304 -0.1800  0.2547  0.0943
 8361SOL    HW136719   3.710   2.804   9.262 -0.5199 -0.2754  1.3770
 8361SOL    HW236720   3.677   2.943   9.297  0.4028  1.1260  1.8938
 8362SOL     OW36721   1.736   0.711   3.524 -0.0070  0.0053 -0.1880
 8362SOL    HW136722   1.694   0.797   3.516 -1.3996 -0.4459  2.3146
 8362SOL    HW236723   1.688   0.643   3.477 -2.6315  1.1478  0.8376
 8363SOL     OW36724   3.639   4.601   2.513 -0.1864  0.1304  0.3030
 8363SOL    HW136725   3.723   4.646   2.525 -0.8153  1.2413  0.5548
 8363SOL    HW236726   3.578   4.670   2.539 -1.5170 -0.0052 -2.4508
 8364SOL     OW36727   2.306   1.093   6.542  0.5318  0.4529 -0.2052
 8364SOL    HW136728   2.317   1.005   6.576 -0.7206  0.5873  0.5382
 8364SOL    HW236729   2.353   1.089   6.459  1.7613 -0.0185  0.5141
 8365SOL     OW36730   1.035   0.429   7.716  0.7537 -0.7649 -0.2525
 8365SOL    HW136731   1.086   0.499   7.757  0.5085 -0.8822  0.2460
 8365SOL    HW236732   1.107   0.390   7.666  0.5905  0.3431 -1.3654
 8366SOL     OW36733   1.518   2.649   7.185 -0.5161  0.2978 -0.5404
 8366SOL    HW136734   1.612   2.666   7.189 -0.8115  1.7641  0.1585
 8366SOL    HW236735   1.514   2.560   7.149 -0.4639  0.3244 -0.6119
 8367SOL     OW36736   0.110   0.929   2.581  0.3556 -0.2016 -0.1444
 8367SOL    HW136737   0.106   0.870   2.505 -2.1736 -1.0364  0.6363
 8367SOL    HW236738   0.021   0.923   2.616  1.1846 -1.0672  1.8101
 8368SOL     OW36739   2.593   4.180   7.151  0.5139  0.6913 -0.2034
 8368SOL    HW136740   2.563   4.211   7.237  1.3578 -0.8536  0.6447
 8368SOL    HW236741   2.665   4.124   7.179 -0.0384 -0.3783 -0.9769
 8369SOL     OW36742   3.916   2.817   3.623 -0.6846  0.2233 -0.4090
 8369SOL    HW136743   3.866   2.896   3.606 -1.4145 -0.4861 -1.6054
 8369SOL    HW236744   3.854   2.777   3.684  1.7244 -0.1535  1.8020
 8370SOL     OW36745   4.187   1.938  13.389  0.1069 -0.4553 -0.5765
 8370SOL    HW136746   4.247   1.894  13.329 -0.1004  0.3023 -1.3303
 8370SOL    HW236747   4.110   1.883  13.402 -0.5690  0.7211  0.3479
 8371SOL     OW36748   4.197   3.526   9.274 -0.5127 -0.2173 -0.1037
 8371SOL    HW136749   4.261   3.491   9.212 -0.0960  0.1822  0.0987
 8371SOL    HW236750   4.244   3.510   9.356 -2.8276  0.3932  1.3294
 8372SOL     OW36751   3.173   0.761  15.586 -0.6677 -0.0996  0.2254
 8372SOL    HW136752   3.079   0.781  15.579 -0.4072  1.4554  1.1826
 8372SOL    HW236753   3.174   0.667  15.599  3.3575  0.2360  2.1656
 8373SOL     OW36754   1.256   4.280   9.643 -0.7307 -0.5643  0.1528
 8373SOL    HW136755   1.298   4.364   9.665  0.4714 -1.3042  0.6744
 8373SOL    HW236756   1.302   4.257   9.562  0.8427 -1.7888  1.4058
 8374SOL     OW36757   1.077   1.906   0.224  0.0251 -0.0504 -0.0690
 8374SOL    HW136758   1.065   1.989   0.270  0.4282  0.1501 -0.3327
 8374SOL    HW236759   0.993   1.860   0.219  0.9677 -1.5574 -1.7946
 8375SOL     OW36760   3.445   1.643   6.364 -0.2674  0.3300 -0.2172
 8375SOL    HW136761   3.493   1.566   6.335  1.2003  1.6359 -1.3178
 8375SOL    HW236762   3.488   1.701   6.300 -3.1054  1.9212 -0.6717
 8376SOL     OW36763   1.299   1.787  17.480  0.4372 -0.5885 -0.6804
 8376SOL    HW136764   1.247   1.778  17.559 -0.0349  0.1431 -0.9062
 8376SOL    HW236765   1.363   1.725  17.514 -1.3995 -1.4394  1.2035
 8377SOL     OW36766   1.250   1.697   2.381 -0.1120  0.3829 -0.0439
 8377SOL    HW136767   1.304   1.692   2.461 -0.4413  0.5787  0.1881
 8377SOL    HW236768   1.260   1.608   2.347  2.0407 -0.0781  1.7785
 8378SOL     OW36769   3.497   4.080   8.779 -0.5150 -0.5725  0.2195
 8378SOL    HW136770   3.522   4.159   8.731 -0.6631  0.3192  1.6121
 8378SOL    HW236771   3.493   4.016   8.708 -0.1717  0.4571 -0.7345
 8379SOL     OW36772   1.742   3.466   2.709  0.1691 -0.0167 -0.1808
 8379SOL    HW136773   1.767   3.374   2.721  0.4603 -0.2373 -2.4043
 8379SOL    HW236774   1.649   3.445   2.698  0.5325 -1.8715  0.1837
 8380SOL     OW36775   4.111   2.286  12.962 -0.0476  0.2927  0.1208
 8380SOL    HW136776   4.193   2.306  12.917 -0.5425  0.8081 -0.5441
 8380SOL    HW236777   4.107   2.352  13.031  0.8919  0.6845 -0.2038
 8381SOL     OW36778   3.740   4.150  15.436 -0.5459 -0.1055 -0.3454
 8381SOL    HW136779   3.825   4.146  15.393  1.5586  1.9801  3.6064
 8381SOL    HW236780   3.686   4.107  15.370 -0.8694  1.2033 -0.9335
 8382SOL     OW36781   2.822   3.939   5.329  0.1284 -0.1072 -0.2925
 8382SOL    HW136782   2.810   3.978   5.415  0.4180  0.4887 -0.5213
 8382SOL    HW236783   2.753   3.982   5.279 -1.5480  0.0760  2.1996
 8383SOL     OW36784   0.172   1.888   6.002 -0.0360  0.5202  0.2009
 8383SOL    HW136785   0.201   1.955   5.940 -0.4564  1.0967  0.6288
 8383SOL    HW236786   0.219   1.925   6.077 -1.5549  0.9356  0.9476
 8384SOL     OW36787   3.888   0.057  12.016 -0.6880 -0.0553  0.3508
 8384SOL    HW136788   3.979   0.046  12.044 -0.8977  0.4301  1.2227
 8384SOL    HW236789   3.862   4.702  12.027 -0.7269 -0.1437 -0.4794
 8385SOL     OW36790   3.777   0.352   4.938  0.9784  0.2036  0.1704
 8385SOL    HW136791   3.726   0.322   5.013 -0.7136 -1.2093 -1.5513
 8385SOL    HW236792   3.844   0.284   4.942  1.3278  0.5523  0.4009
 8386SOL     OW36793   1.800   3.097   7.909 -0.2300  0.0432  0.2460
 8386SOL    HW136794   1.768   3.027   7.852  0.5911  1.0532 -1.4521
 8386SOL    HW236795   1.837   3.052   7.985 -0.5756  1.0244  0.9980
 8387SOL     OW36796   4.648   0.873  16.482 -0.1295  0.1990  0.1018
 8387SOL    HW136797   4.591   0.911  16.549 -0.5685 -1.1315  0.4740
 8387SOL    HW236798   4.586   0.808  16.448  0.2520  1.0854 -2.2960
 8388SOL     OW36799   3.741   4.269  14.024  0.5359  0.1649  0.1582
 8388SOL    HW136800   3.727   4.241  14.114 -2.2103 -0.6018 -0.5149
 8388SOL    HW236801   3.666   4.327  14.012  0.2778 -0.0970  0.5103
 8389SOL     OW36802   4.206   2.898   6.795  0.4322 -0.1962  0.1599
 8389SOL    HW136803   4.124   2.851   6.780  0.1550  0.5265 -0.5790
 8389SOL    HW236804   4.164   2.979   6.823  0.6565  0.0572 -0.2364
 8390SOL     OW36805   2.555   2.308  17.614  0.3616  0.4604 -0.0163
 8390SOL    HW136806   2.543   2.305  17.709  0.7243 -1.0156 -0.0182
 8390SOL    HW236807   2.488   2.242  17.601  2.1454 -1.2017 -0.6710
 8391SOL     OW36808   3.979   0.727   4.638  0.2836 -0.1345  0.2621
 8391SOL    HW136809   4.013   0.679   4.714 -1.7854  0.1732  1.3784
 8391SOL    HW236810   4.047   0.795   4.637  1.8089 -1.6360  0.9551
 8392SOL     OW36811   4.300   0.296   6.918 -0.3467  0.2833 -0.4683
 8392SOL    HW136812   4.360   0.221   6.921 -0.2853  0.5144  3.5170
 8392SOL    HW236813   4.362   0.369   6.918 -2.6732  2.2664 -0.3774
 8393SOL     OW36814   2.713   2.566   4.950  0.8487  0.7933 -0.5018
 8393SOL    HW136815   2.707   2.504   4.878 -1.1295 -1.3715  1.5364
 8393SOL    HW236816   2.749   2.643   4.906  2.7875 -0.3593 -0.9418
 8394SOL     OW36817   1.253   1.106   2.863  0.5393 -0.2667 -0.6582
 8394SOL    HW136818   1.294   1.193   2.869 -3.1979  1.5473 -1.4233
 8394SOL    HW236819   1.293   1.059   2.936 -0.4256 -0.0140  0.0397
 8395SOL     OW36820   1.445   1.600   8.275  0.2240  0.1407  0.0385
 8395SOL    HW136821   1.482   1.566   8.357  2.2521 -0.2497 -1.0248
 8395SOL    HW236822   1.355   1.570   8.265  0.5776 -0.3023 -1.8462
 8396SOL     OW36823   1.907   3.174   8.273 -0.4151 -0.0917 -0.0743
 8396SOL    HW136824   1.879   3.192   8.363  0.3140 -1.2466  0.3913
 8396SOL    HW236825   1.835   3.215   8.226  0.6269 -0.5606 -2.0659
 8397SOL     OW36826   1.726   0.168   6.477  0.1642 -0.5609  0.3534
 8397SOL    HW136827   1.679   0.199   6.554 -1.3312  1.8580 -1.5529
 8397SOL    HW236828   1.780   0.095   6.509 -1.6035 -2.6338 -1.3291
 8398SOL     OW36829   1.028   0.087   4.315  0.0324  0.2336  0.2181
 8398SOL    HW136830   0.954   0.048   4.268  0.1253 -0.6518  0.8225
 8398SOL    HW236831   0.978   0.117   4.390 -0.2032  2.1947 -0.7268
 8399SOL     OW36832   1.449   1.712  10.829 -0.4735  0.3058  0.8386
 8399SOL    HW136833   1.408   1.769  10.764  0.6746  0.4263  0.2149
 8399SOL    HW236834   1.541   1.728  10.807 -0.1193  1.5313  3.1589
 8400SOL     OW36835   1.622   1.039  16.539 -0.4132  0.7461 -0.4019
 8400SOL    HW136836   1.629   1.134  16.543 -0.2148  0.5550  4.0168
 8400SOL    HW236837   1.695   1.008  16.485 -1.4463  0.1801 -1.4845
 8401SOL     OW36838   2.584   0.878   3.670 -0.1656  0.4826  0.2598
 8401SOL    HW136839   2.619   0.829   3.745  1.9694 -1.3268 -1.9317
 8401SOL    HW236840   2.536   0.803   3.636  3.0275 -1.5977  0.2588
 8402SOL     OW36841   0.147   3.029   5.393 -0.1352  0.9188 -1.1630
 8402SOL    HW136842   0.088   2.957   5.416  0.7851  0.7470  0.6838
 8402SOL    HW236843   0.229   2.988   5.367 -0.2913 -0.0444 -0.1624
 8403SOL     OW36844   4.668   0.589   2.363 -0.2776 -0.4430 -0.3200
 8403SOL    HW136845   4.635   0.518   2.308  1.7565 -0.4420 -1.5388
 8403SOL    HW236846   4.615   0.664   2.337  0.8672  0.6292  0.4175
 8404SOL     OW36847   1.639   3.345   0.970 -0.2928 -0.3990  0.2623
 8404SOL    HW136848   1.572   3.307   1.028 -1.3600 -1.4785 -1.6931
 8404SOL    HW236849   1.617   3.437   0.980  0.7604 -0.2427  1.0648
 8405SOL     OW36850   4.130   2.185   3.608 -0.4936 -0.5780 -0.1292
 8405SOL    HW136851   4.130   2.232   3.692  0.6986  2.1564 -1.6665
 8405SOL    HW236852   4.088   2.250   3.552 -1.6704 -1.0423  0.2227
 8406SOL     OW36853   4.172   0.142   7.572  0.1094 -0.1889  0.0095
 8406SOL    HW136854   4.181   0.199   7.495  2.0746 -0.7764 -0.2106
 8406SOL    HW236855   4.266   0.133   7.590  0.4181  0.0519 -1.4368
 8407SOL     OW36856   0.330   0.451   4.569  0.0624 -0.0871 -0.1068
 8407SOL    HW136857   0.276   0.449   4.490 -2.0068  0.7582  1.3073
 8407SOL    HW236858   0.320   0.360   4.598  0.3943  0.1746  0.8108
 8408SOL     OW36859   2.820   4.661  11.186 -0.2457  0.8870 -0.4098
 8408SOL    HW136860   2.867   4.629  11.263  1.3322  1.2790 -1.1998
 8408SOL    HW236861   2.881   4.635  11.116 -1.2081  3.3806 -2.1911
 8409SOL     OW36862   4.420   2.735   6.903 -0.1488  0.3988 -0.0303
 8409SOL    HW136863   4.389   2.653   6.940  1.3225 -0.1918 -0.0802
 8409SOL    HW236864   4.339   2.784   6.891 -1.1698 -1.1646  0.4303
 8410SOL     OW36865   2.145   0.556   2.904 -0.7992 -0.7257 -0.3069
 8410SOL    HW136866   2.050   0.571   2.907 -1.1161 -2.7004 -0.8607
 8410SOL    HW236867   2.162   0.486   2.966 -0.4558 -2.9096 -2.8869
 8411SOL     OW36868   2.012   3.588   1.215 -0.4914  0.0789 -0.5574
 8411SOL    HW136869   2.094   3.558   1.255 -1.5234 -0.0642  1.4576
 8411SOL    HW236870   1.982   3.501   1.188  0.6001 -0.2917 -0.5812
 8412SOL     OW36871   3.422   1.642  12.327  0.0198  0.0380  0.2154
 8412SOL    HW136872   3.345   1.590  12.304  1.1471 -1.4406 -0.1888
 8412SOL    HW236873   3.417   1.643  12.423 -1.7486  1.7764  0.0971
 8413SOL     OW36874   0.258   1.842  12.972  0.2528 -0.0317  0.2221
 8413SOL    HW136875   0.330   1.895  12.939  0.2583  1.4854  2.7100
 8413SOL    HW236876   0.236   1.887  13.054  1.9629  1.9110 -0.4113
 8414SOL     OW36877   4.557   3.757   4.490  0.6290  0.2830  0.6949
 8414SOL    HW136878   4.642   3.715   4.505  0.4475  0.9095  3.5963
 8414SOL    HW236879   4.502   3.688   4.528  0.1800 -0.0286 -0.5520
 8415SOL     OW36880   0.250   0.464  12.172  0.5831 -0.0369  0.4748
 8415SOL    HW136881   0.261   0.503  12.259  0.4340 -0.5381  0.7164
 8415SOL    HW236882   0.167   0.507  12.151  0.6691 -0.0939  0.0320
 8416SOL     OW36883   0.237   2.621  13.643 -0.2577  0.5679 -0.1612
 8416SOL    HW136884   0.269   2.687  13.705  1.3792  0.3586 -0.7930
 8416SOL    HW236885   0.272   2.542  13.684  0.3777  0.1014 -1.5864
 8417SOL     OW36886   4.129   1.489   7.926  0.3482 -0.4669  0.1152
 8417SOL    HW136887   4.119   1.506   7.832 -1.3784  2.5883  0.8117
 8417SOL    HW236888   4.209   1.540   7.934  0.3818 -0.1184 -2.4318
 8418SOL     OW36889   4.115   3.814   8.828 -0.0447  0.8632 -0.2181
 8418SOL    HW136890   4.030   3.844   8.796 -2.1311 -3.0854  1.6287
 8418SOL    HW236891   4.121   3.830   8.922  1.0831  1.1346 -0.3363
 8419SOL     OW36892   1.293   1.440   4.345  0.9404 -0.1852  0.4417
 8419SOL    HW136893   1.302   1.468   4.254 -0.5348 -1.0383  0.0413
 8419SOL    HW236894   1.269   1.348   4.335 -0.9261  0.5016 -1.3980
 8420SOL     OW36895   1.397   2.038   4.719 -0.2058  0.2428  0.2604
 8420SOL    HW136896   1.491   2.019   4.715 -0.0217  0.9699  1.1103
 8420SOL    HW236897   1.402   2.106   4.787 -3.6938  1.0502 -0.2743
 8421SOL     OW36898   3.551   4.616  11.515 -0.3094 -0.5850 -0.5372
 8421SOL    HW136899   3.564   4.590  11.606  0.9687  1.2242 -0.1987
 8421SOL    HW236900   3.614   4.559  11.471  0.7309  1.0133 -1.1581
 8422SOL     OW36901   3.891   4.023  17.715  0.0628 -0.0231 -0.3615
 8422SOL    HW136902   3.886   4.001  17.622  0.1489 -1.7040  0.0347
 8422SOL    HW236903   3.823   3.971   0.012  1.0620 -1.8000 -0.9281
 8423SOL     OW36904   0.894   3.062   2.742 -0.9009  0.3604  0.0608
 8423SOL    HW136905   0.825   3.074   2.807  1.6734  2.9804  2.3013
 8423SOL    HW236906   0.866   3.094   2.656  1.2238  1.1285 -0.3691
 8424SOL     OW36907   1.955   1.193   4.977  0.5513 -0.5114 -0.0721
 8424SOL    HW136908   1.979   1.242   5.057  0.0936  0.2052 -0.3723
 8424SOL    HW236909   1.895   1.129   5.015 -1.3159  1.2736  0.0147
 8425SOL     OW36910   2.355   3.994  14.687 -0.1975  0.6679  0.3855
 8425SOL    HW136911   2.297   4.011  14.613 -1.4800 -0.5650  1.0902
 8425SOL    HW236912   2.289   3.998  14.757 -1.1844  0.4676 -0.5406
 8426SOL     OW36913   0.885   1.386  12.124  0.3398 -0.1242 -0.0306
 8426SOL    HW136914   0.909   1.294  12.126  2.3755  0.3854 -0.4188
 8426SOL    HW236915   0.860   1.410  12.034  1.6259 -3.7654 -1.3784
 8427SOL     OW36916   4.053   0.193   7.000  0.1200  0.0371 -0.0278
 8427SOL    HW136917   3.978   0.229   6.953 -0.2082 -0.0412  0.4365
 8427SOL    HW236918   4.129   0.243   6.971  0.7756 -2.6725 -2.9879
 8428SOL     OW36919   4.083   3.821   7.695  0.3753 -0.0171  0.5947
 8428SOL    HW136920   4.168   3.780   7.708  1.8998  3.1378  0.6404
 8428SOL    HW236921   4.019   3.752   7.713  0.7734 -0.5154  0.0694
 8429SOL     OW36922   0.735   1.460  13.601 -0.8014 -0.7214  0.0047
 8429SOL    HW136923   0.732   1.521  13.527  2.4866  0.9607  1.2890
 8429SOL    HW236924   0.646   1.468  13.636 -0.6181  0.3261  0.2473
 8430SOL     OW36925   4.687   2.796   3.414 -0.0707  0.1960 -0.6038
 8430SOL    HW136926   4.686   2.880   3.367  1.6973  0.7336  0.3087
 8430SOL    HW236927   4.725   2.828   3.496  0.4810  1.1369 -1.2210
 8431SOL     OW36928   4.453   0.152   5.393  0.1652  0.3768 -0.2039
 8431SOL    HW136929   4.390   0.175   5.461  0.0166  1.5970 -0.7416
 8431SOL    HW236930   4.508   0.084   5.431  1.2728  0.3538 -1.8394
 8432SOL     OW36931   3.424   0.033   4.598  0.1693 -0.1307 -0.2298
 8432SOL    HW136932   3.348   4.711   4.603  0.5039 -0.5188  0.3798
 8432SOL    HW236933   3.454   0.055   4.686  1.1743 -0.0868 -0.5842
 8433SOL     OW36934   1.294   4.283   8.044  0.2087  0.2402  0.3218
 8433SOL    HW136935   1.372   4.237   8.012  0.3961  0.5295  0.3700
 8433SOL    HW236936   1.271   4.322   7.960  4.9129 -1.3515 -1.7125
 8434SOL     OW36937   0.720   3.303  12.904 -0.3954 -0.0950 -0.7499
 8434SOL    HW136938   0.706   3.278  12.995 -2.1358 -0.8902 -1.2406
 8434SOL    HW236939   0.787   3.367  12.929  0.7052 -0.9279 -1.4980
 8435SOL     OW36940   3.532   1.378   5.597  0.1714 -0.0310  0.1195
 8435SOL    HW136941   3.492   1.432   5.528 -4.7344 -1.9346  1.4388
 8435SOL    HW236942   3.549   1.439   5.669  2.5402 -0.4240 -0.1310
 8436SOL     OW36943   3.334   1.589  17.146 -0.0776  0.2628 -0.6513
 8436SOL    HW136944   3.313   1.637  17.065 -1.6262  1.9553  0.7350
 8436SOL    HW236945   3.412   1.635  17.177 -0.8593  0.4561  1.0458
 8437SOL     OW36946   1.757   4.699  13.908 -0.2244  0.1869  0.2139
 8437SOL    HW136947   1.697   4.706  13.834  1.2482 -0.7785 -1.0908
 8437SOL    HW236948   1.832   4.677  13.852  0.1451  0.0347  0.7712
 8438SOL     OW36949   4.330   4.310   7.016  0.5271  0.0299 -0.0826
 8438SOL    HW136950   4.395   4.241   7.019  1.1358  0.5036 -1.9853
 8438SOL    HW236951   4.385   4.376   6.972 -2.8621  0.9822 -2.9324
 8439SOL     OW36952   2.219   0.927  13.224 -0.3450 -0.1464  0.2287
 8439SOL    HW136953   2.258   0.971  13.299  0.7402 -0.5841 -0.0781
 8439SOL    HW236954   2.236   0.836  13.247  0.6680 -0.0376 -0.1044
 8440SOL     OW36955   1.916   4.325   5.674 -0.0751  0.1515  0.0298
 8440SOL    HW136956   1.851   4.393   5.690  0.2543  0.8285 -1.4711
 8440SOL    HW236957   1.953   4.296   5.757 -0.2505  1.2831  0.4920
 8441SOL     OW36958   4.208   1.926   0.217 -0.3224 -0.1890  0.0029
 8441SOL    HW136959   4.238   1.985   0.148 -0.4611  0.2158  0.2886
 8441SOL    HW236960   4.295   1.896   0.244 -1.0719 -2.1083  0.2387
 8442SOL     OW36961   1.392   1.921   4.288  0.0046 -0.1426 -0.1117
 8442SOL    HW136962   1.391   1.988   4.357  0.2552  0.7232 -0.9485
 8442SOL    HW236963   1.359   1.968   4.211 -1.5997 -0.9363  0.0963
 8443SOL     OW36964   4.671   2.596   2.134  0.0671  0.1311  0.1613
 8443SOL    HW136965   4.690   2.690   2.130  1.5867 -0.2321 -1.4733
 8443SOL    HW236966   4.590   2.596   2.184  0.2017  1.8199  0.4073
 8444SOL     OW36967   1.070   3.051   9.004 -0.1502  0.0293  0.4075
 8444SOL    HW136968   1.004   3.040   9.073  0.6294  3.2801  1.6646
 8444SOL    HW236969   1.143   3.091   9.050  0.9237  1.1103 -2.2415
 8445SOL     OW36970   3.198   4.044   8.055 -0.6469 -0.3188  0.3553
 8445SOL    HW136971   3.112   4.080   8.077 -0.9798 -0.3737 -0.8352
 8445SOL    HW236972   3.165   3.954   8.051 -2.2166  0.3639 -2.4025
 8446SOL     OW36973   3.990   2.564   4.348  1.1881 -0.1995 -0.3371
 8446SOL    HW136974   4.036   2.498   4.297  1.3438  0.2180 -0.7345
 8446SOL    HW236975   4.022   2.648   4.316 -0.4030  0.2033 -0.8589
 8447SOL     OW36976   0.458   2.498   5.906 -0.4139 -0.1315  0.8143
 8447SOL    HW136977   0.392   2.550   5.861 -0.7202 -0.1019  1.2957
 8447SOL    HW236978   0.520   2.563   5.939 -2.1947  1.8506  0.2737
 8448SOL     OW36979   3.235   0.115  15.788  0.6790  0.1158  0.2416
 8448SOL    HW136980   3.326   0.106  15.761  0.9826  1.3460  0.8712
 8448SOL    HW236981   3.245   0.065  15.868  1.0229 -1.0123 -0.5105
 8449SOL     OW36982   2.587   2.337   5.729 -0.4002 -0.5631 -0.2085
 8449SOL    HW136983   2.535   2.287   5.666  0.4214  2.1325 -3.0273
 8449SOL    HW236984   2.607   2.281   5.804 -0.9626  0.3617  0.6313
 8450SOL     OW36985   2.902   3.953   6.750 -0.9150 -0.1204  0.3920
 8450SOL    HW136986   2.953   3.884   6.793 -0.9812  0.0303  0.7078
 8450SOL    HW236987   2.957   4.007   6.694 -1.4428 -0.5438 -0.5453
 8451SOL     OW36988   3.899   3.276  16.347 -0.1021 -0.7394  0.2437
 8451SOL    HW136989   3.967   3.308  16.288  0.0228  1.1130  1.3715
 8451SOL    HW236990   3.939   3.252  16.431  0.0380  1.9570  0.9553
 8452SOL     OW36991   0.392   2.021   1.844 -0.2049 -0.1999  0.1017
 8452SOL    HW136992   0.444   2.027   1.763  1.0956 -0.6581  0.9027
 8452SOL    HW236993   0.400   2.106   1.886  1.1765 -1.3898  2.2466
 8453SOL     OW36994   0.166   2.000   4.722 -0.1240  0.9384 -0.4103
 8453SOL    HW136995   0.087   1.995   4.667 -1.0806 -1.8631  1.2114
 8453SOL    HW236996   0.187   1.911   4.750 -1.1164  0.7882 -0.1072
 8454SOL     OW36997   4.347   3.567  11.666 -0.3735 -0.1467  0.1506
 8454SOL    HW136998   4.386   3.583  11.580  1.5124 -1.1409  0.8141
 8454SOL    HW236999   4.393   3.633  11.718 -1.4408  0.1917  0.6588
 8455SOL     OW37000   4.365   0.253  16.812  0.6009 -0.0999  0.5776
 8455SOL    HW137001   4.441   0.217  16.767  0.1377  0.0679 -0.3267
 8455SOL    HW237002   4.296   0.244  16.747  0.9903 -0.9557  0.2820
 8456SOL     OW37003   4.077   3.265  15.623  0.2764 -0.4915 -0.1045
 8456SOL    HW137004   4.131   3.192  15.594 -0.3536 -0.5268 -1.2365
 8456SOL    HW237005   4.095   3.334  15.559  0.0658 -0.6277 -0.3126
 8457SOL     OW37006   2.268   1.978   1.320  0.3886 -0.0337  0.1242
 8457SOL    HW137007   2.194   2.002   1.376  1.0935  0.6085  0.7800
 8457SOL    HW237008   2.266   2.046   1.253  0.8384  1.0876  1.2469
 8458SOL     OW37009   3.729   4.136   2.086  0.6096 -0.6721 -0.3729
 8458SOL    HW137010   3.673   4.125   2.162 -0.4530  2.1508 -0.7780
 8458SOL    HW237011   3.777   4.056   2.109  1.5832  0.9916  3.3740
 8459SOL     OW37012   0.605   2.517   5.119  0.5084 -0.3345  0.2426
 8459SOL    HW137013   0.630   2.575   5.047 -1.0466 -0.0148 -0.0306
 8459SOL    HW237014   0.690   2.474   5.123  0.6769  0.1740  2.2526
 8460SOL     OW37015   2.838   0.502   4.067 -0.0552  0.1728 -0.0587
 8460SOL    HW137016   2.870   0.413   4.055  0.4377  0.4355 -0.6921
 8460SOL    HW237017   2.745   0.485   4.082  0.4287 -0.1248  2.6275
 8461SOL     OW37018   0.780   1.265   2.569  0.3816  0.2823  0.2876
 8461SOL    HW137019   0.744   1.237   2.653 -2.3203 -0.1510 -1.0083
 8461SOL    HW237020   0.752   1.356   2.559  1.2685  0.6743  1.3674
 8462SOL     OW37021   2.372   0.917   2.481  0.1586 -0.3910  0.1816
 8462SOL    HW137022   2.386   0.940   2.573 -1.2247 -1.0773  0.5654
 8462SOL    HW237023   2.450   0.864   2.467 -0.8231 -1.8489  0.2422
 8463SOL     OW37024   3.684   2.336   4.072 -0.4957 -0.1754 -0.7199
 8463SOL    HW137025   3.690   2.383   4.156 -3.7053  0.0892 -0.6345
 8463SOL    HW237026   3.771   2.303   4.053 -0.6222  0.1161 -1.7765
 8464SOL     OW37027   3.973   4.592   6.049  0.4060  0.3063  0.1661
 8464SOL    HW137028   3.960   4.682   6.021  0.5773 -0.0275 -1.0025
 8464SOL    HW237029   3.955   4.545   5.967 -0.5169  1.5541 -0.3403
 8465SOL     OW37030   2.032   2.800  11.591 -0.1636  0.5343 -0.0819
 8465SOL    HW137031   1.947   2.800  11.547 -0.2303 -1.2793  0.0318
 8465SOL    HW237032   2.074   2.872  11.544 -1.4374  1.1463 -0.2663
 8466SOL     OW37033   0.115   2.827   8.175 -0.1702 -0.0900  0.1841
 8466SOL    HW137034   0.037   2.881   8.183 -1.0909 -1.3062 -0.6051
 8466SOL    HW237035   0.088   2.744   8.215  2.3460 -0.3962  1.2267
 8467SOL     OW37036   2.492   1.480   1.773  0.3478 -0.9147  0.3232
 8467SOL    HW137037   2.488   1.400   1.825  2.8492 -1.6691 -0.6341
 8467SOL    HW237038   2.499   1.547   1.842 -0.5683  1.2284 -1.6431
 8468SOL     OW37039   0.793   2.507  10.308 -0.2204 -0.7431  0.1306
 8468SOL    HW137040   0.701   2.521  10.287  0.1128  1.1028 -0.0997
 8468SOL    HW237041   0.812   2.421  10.270  1.3811 -0.5299  0.4802
 8469SOL     OW37042   4.505   1.085   2.943 -0.1128 -0.1957 -0.0747
 8469SOL    HW137043   4.501   1.096   3.038  0.8340  0.0194 -0.0587
 8469SOL    HW237044   4.416   1.065   2.911  0.6576 -4.4339  0.3884
 8470SOL     OW37045   1.050   1.503   5.626 -0.4189 -0.4197 -0.5916
 8470SOL    HW137046   1.068   1.417   5.664 -1.7924 -1.4381 -2.2535
 8470SOL    HW237047   1.141   1.532   5.617  0.3059 -2.4681  0.2307
 8471SOL     OW37048   3.929   0.942  13.985  0.0383 -0.3744  0.1908
 8471SOL    HW137049   3.959   0.864  14.032 -0.0401 -0.2872  0.3866
 8471SOL    HW237050   4.015   0.981  13.966  0.3554 -0.9816  0.3887
 8472SOL     OW37051   1.622   1.676   4.647 -0.0335  0.1564 -0.3508
 8472SOL    HW137052   1.670   1.597   4.622 -1.5655 -0.9145  0.1314
 8472SOL    HW237053   1.544   1.680   4.592  0.7403  0.7632 -1.3990
 8473SOL     OW37054   0.767   0.030   2.302  0.0376 -0.6768  0.1883
 8473SOL    HW137055   0.815   4.684   2.304 -0.6534 -1.1127 -1.7181
 8473SOL    HW237056   0.759   0.037   2.207  0.8415  2.0497  0.3189
 8474SOL     OW37057   0.110   1.809   6.959 -0.1949  0.1692 -0.2831
 8474SOL    HW137058   0.195   1.838   6.926  0.0775  0.0208  0.2870
 8474SOL    HW237059   0.059   1.863   6.898  1.4515  0.9373 -1.0002
 8475SOL     OW37060   0.585   1.849   4.675  0.4713 -0.1162  0.6645
 8475SOL    HW137061   0.606   1.941   4.656 -0.4454  0.3981  2.0767
 8475SOL    HW237062   0.489   1.853   4.683  0.2358 -1.0925 -1.7411
 8476SOL     OW37063   3.080   3.421   1.675 -0.2690 -1.0102 -0.5843
 8476SOL    HW137064   2.998   3.453   1.635  0.7041  0.5398 -1.3321
 8476SOL    HW237065   3.089   3.484   1.746  0.5864 -2.6188  0.7266
 8477SOL     OW37066   0.942   2.951   1.917  0.1160  0.6969 -0.1071
 8477SOL    HW137067   0.952   3.001   1.998 -0.3344  0.0048  0.3682
 8477SOL    HW237068   0.963   3.017   1.850  0.3524  0.0714 -0.6528
 8478SOL     OW37069   4.442   1.331  17.498 -0.1671  0.3254 -1.2429
 8478SOL    HW137070   4.375   1.390  17.461 -3.8746 -1.8023  2.0278
 8478SOL    HW237071   4.413   1.241  17.484 -0.8687  0.5641 -1.3517
 8479SOL     OW37072   3.083   2.166   4.470  0.0951 -0.2366  0.6979
 8479SOL    HW137073   3.045   2.077   4.471 -1.8775  0.5893 -0.0991
 8479SOL    HW237074   3.062   2.197   4.558 -0.6034  1.6833 -0.1531
 8480SOL     OW37075   1.869   2.758   8.349  0.3306  0.3309 -0.4026
 8480SOL    HW137076   1.905   2.762   8.438  1.0587  2.4962 -0.8023
 8480SOL    HW237077   1.794   2.817   8.350  0.4115  0.4014  2.8314
 8481SOL     OW37078   3.585   1.627   4.935  0.1751 -0.0939 -0.2396
 8481SOL    HW137079   3.510   1.644   4.991 -0.6944  1.2745 -1.8058
 8481SOL    HW237080   3.583   1.698   4.871  0.9813  0.9661  0.8964
 8482SOL     OW37081   0.299   1.053   5.737  0.5798  0.1777  0.0710
 8482SOL    HW137082   0.310   0.973   5.685  0.5740  0.3264 -0.1581
 8482SOL    HW237083   0.204   1.066   5.733  0.8768  2.1877 -0.4246
 8483SOL     OW37084   1.002   4.713  11.039 -0.4761  0.1949 -0.4423
 8483SOL    HW137085   1.056   4.656  10.985  0.9075  0.2221  0.8905
 8483SOL    HW237086   0.954   4.644  11.084 -0.5283 -0.8076 -2.0436
 8484SOL     OW37087   0.817   4.592   1.876  0.4530  0.0340  0.3753
 8484SOL    HW137088   0.723   4.593   1.895  0.4787  2.8553  0.4582
 8484SOL    HW237089   0.824   4.500   1.852 -2.6792 -0.6107  1.8854
 8485SOL     OW37090   3.357   2.323   6.927  0.1495  0.0870 -0.3698
 8485SOL    HW137091   3.430   2.370   6.887  0.9154 -0.1333  0.7483
 8485SOL    HW237092   3.392   2.303   7.014  0.5025 -0.0321 -0.5392
 8486SOL     OW37093   0.857   1.668   9.741  0.0346 -0.4181  0.4385
 8486SOL    HW137094   0.886   1.759   9.729  1.8698 -0.6682  3.2151
 8486SOL    HW237095   0.768   1.691   9.713 -0.9474 -0.1697  3.7475
 8487SOL     OW37096   2.177   3.023   4.843  0.0210  0.2657  0.2302
 8487SOL    HW137097   2.254   3.035   4.786  0.3667  2.3068  1.1336
 8487SOL    HW237098   2.177   3.113   4.875 -1.2251  0.1598  0.5008
 8488SOL     OW37099   0.511   0.739   8.672 -0.4050 -0.0335 -0.0581
 8488SOL    HW137100   0.545   0.687   8.745  2.7142  1.4111 -0.4789
 8488SOL    HW237101   0.531   0.684   8.597  1.5712  0.7471 -0.1031
 8489SOL     OW37102   3.662   3.897   8.560 -0.3264 -0.2689 -0.2665
 8489SOL    HW137103   3.728   3.869   8.497  1.6060  3.6330  0.0214
 8489SOL    HW237104   3.585   3.880   8.507  1.6231 -2.4862 -2.3855
 8490SOL     OW37105   2.377   0.622  12.524  0.7434  0.3924  0.0586
 8490SOL    HW137106   2.349   0.702  12.568  1.2009  0.5236  0.1096
 8490SOL    HW237107   2.312   0.559  12.555  0.9049 -0.2625 -0.9120
 8491SOL     OW37108   2.848   4.259   0.191 -0.0068  0.0153 -0.1474
 8491SOL    HW137109   2.804   4.221   0.266 -0.3651 -0.7589 -0.7488
 8491SOL    HW237110   2.807   4.346   0.198 -0.4120 -0.0700 -1.4533
 8492SOL     OW37111   3.399   4.628   6.195 -0.8863  0.1948 -0.1013
 8492SOL    HW137112   3.335   4.647   6.264 -0.4907  1.7613 -0.1676
 8492SOL    HW237113   3.455   4.705   6.207 -0.0352 -0.0553 -2.4471
 8493SOL     OW37114   1.315   1.931  10.670  0.4351 -0.1778  0.4579
 8493SOL    HW137115   1.280   1.843  10.656 -0.4474  0.5191 -1.7414
 8493SOL    HW237116   1.290   1.982  10.592 -0.6587 -1.5016 -0.0458
 8494SOL     OW37117   0.836   0.211   5.445  0.5618 -0.3765 -0.6392
 8494SOL    HW137118   0.866   0.218   5.535  0.3249  0.2223 -0.6082
 8494SOL    HW237119   0.879   0.282   5.398  2.5016 -0.7390  0.5695
 8495SOL     OW37120   1.353   3.851   6.878  0.0116  0.4105 -0.1459
 8495SOL    HW137121   1.379   3.854   6.970 -0.8897 -0.1986  0.1182
 8495SOL    HW237122   1.261   3.875   6.879 -0.2614 -0.6327 -0.7300
 8496SOL     OW37123   1.499   0.075   8.864 -0.1723  0.8339 -0.0896
 8496SOL    HW137124   1.522   0.071   8.957  0.5938  2.5570 -0.2110
 8496SOL    HW237125   1.576   0.041   8.820 -1.0217 -1.8486  0.4965
 8497SOL     OW37126   4.128   1.122   7.296 -0.6025 -0.3876  0.2855
 8497SOL    HW137127   4.139   1.154   7.386  2.3924  0.4412 -0.3753
 8497SOL    HW237128   4.097   1.034   7.318  1.8769 -1.7382 -1.7047
 8498SOL     OW37129   2.104   1.538   2.683 -0.1872  0.5180 -0.5966
 8498SOL    HW137130   2.018   1.579   2.694 -0.3034  0.1820 -0.2705
 8498SOL    HW237131   2.165   1.610   2.667 -2.0062  1.7241 -2.1477
 8499SOL     OW37132   4.507   4.339  10.265 -0.5390 -0.1583  0.2974
 8499SOL    HW137133   4.498   4.287  10.185  2.8707  0.3601 -0.4432
 8499SOL    HW237134   4.593   4.306  10.293 -0.2685 -0.6270 -1.0447
 8500SOL     OW37135   0.769   4.131  16.597  0.4558  0.4620  0.2457
 8500SOL    HW137136   0.732   4.175  16.521 -2.1677 -0.7792  0.8328
 8500SOL    HW237137   0.703   4.068  16.625 -0.9814  1.9233  0.0758
 8501SOL     OW37138   0.888   2.959   3.150 -0.0519 -0.5656  0.1043
 8501SOL    HW137139   0.841   2.931   3.228  1.5284  0.8857  1.5966
 8501SOL    HW237140   0.820   3.025   3.135 -1.0591 -1.2733  1.6295
 8502SOL     OW37141   2.655   4.337   9.056  0.3759  0.1759  0.4198
 8502SOL    HW137142   2.637   4.390   9.133 -1.0261 -0.1290  0.3015
 8502SOL    HW237143   2.661   4.403   8.986 -1.0732  0.3573  0.4509
 8503SOL     OW37144   1.157   0.549   9.202 -0.7374 -0.0661  0.1690
 8503SOL    HW137145   1.113   0.586   9.125 -1.4472  0.6652  0.9422
 8503SOL    HW237146   1.101   0.583   9.271  0.4872 -0.7770  1.5017
 8504SOL     OW37147   1.245   0.606   0.815 -0.2989  0.1340  0.6681
 8504SOL    HW137148   1.341   0.614   0.817 -0.1906 -1.4093  1.6004
 8504SOL    HW237149   1.202   0.690   0.799  0.8918  0.6336  0.0158
 8505SOL     OW37150   1.876   1.645   8.996 -0.3661  0.1406  0.6798
 8505SOL    HW137151   1.795   1.659   9.045 -0.1899  2.6927  0.2418
 8505SOL    HW237152   1.937   1.690   9.054  0.3431  1.2056 -0.8644
 8506SOL     OW37153   2.108   3.796   5.289 -0.4497  0.4620 -0.5378
 8506SOL    HW137154   2.132   3.721   5.343  0.4802  1.0452 -0.1512
 8506SOL    HW237155   2.193   3.816   5.251 -1.7512  5.1911 -0.9210
 8507SOL     OW37156   2.273   4.455   5.216  0.1785 -0.1029  0.4395
 8507SOL    HW137157   2.237   4.405   5.142 -1.3026 -1.4848  2.0881
 8507SOL    HW237158   2.200   4.470   5.275 -0.9379  2.4823 -1.5836
 8508SOL     OW37159   0.836   4.127   4.079  0.0706  0.6137 -0.4114
 8508SOL    HW137160   0.904   4.093   4.137 -0.9580  0.8456  0.9309
 8508SOL    HW237161   0.797   4.046   4.046  0.8763 -0.4287  1.1968
 8509SOL     OW37162   1.862   2.850   0.671 -0.7070  0.0299 -0.5859
 8509SOL    HW137163   1.936   2.793   0.690 -0.0117  1.3924  0.8721
 8509SOL    HW237164   1.794   2.799   0.715  0.9925 -1.5677  0.1513
 8510SOL     OW37165   3.161   4.060   3.895  0.6321  0.1397 -0.0576
 8510SOL    HW137166   3.159   4.005   3.973 -0.5570  1.3728  0.7871
 8510SOL    HW237167   3.204   4.138   3.929  1.6692 -0.5175  0.1057
 8511SOL     OW37168   2.016   2.955   7.641 -0.2901  0.0161  0.0233
 8511SOL    HW137169   2.063   3.023   7.690  0.4244  1.5602 -2.8129
 8511SOL    HW237170   1.945   3.009   7.605  0.0995 -1.0198 -2.2674
 8512SOL     OW37171   1.550   2.775   3.927  0.6456  0.0387  0.0184
 8512SOL    HW137172   1.619   2.741   3.984  1.2159  1.2780  0.0722
 8512SOL    HW237173   1.481   2.745   3.986  0.3291  0.3863 -0.1797
 8513SOL     OW37174   0.854   3.490   3.696  0.1789 -0.6617  0.2712
 8513SOL    HW137175   0.935   3.441   3.681  1.2856  1.5194 -0.7961
 8513SOL    HW237176   0.799   3.428   3.745 -0.8643  1.2414  1.4966
 8514SOL     OW37177   3.455   0.718   9.716  0.1893  0.2531  0.2372
 8514SOL    HW137178   3.451   0.632   9.757 -0.2484 -0.0043 -0.3467
 8514SOL    HW237179   3.550   0.730   9.706 -0.1382  2.6031 -0.0400
 8515SOL     OW37180   1.303   0.408   0.164 -0.0860 -0.4463  0.5353
 8515SOL    HW137181   1.384   0.404   0.113  0.4357 -0.7227  1.3919
 8515SOL    HW237182   1.313   0.493   0.206  2.1231 -0.2452 -0.3808
 8516SOL     OW37183   2.840   0.333   5.510  0.4313 -0.4863 -0.1439
 8516SOL    HW137184   2.802   0.323   5.423  0.7660 -0.4830 -0.2896
 8516SOL    HW237185   2.777   0.279   5.559 -0.0348 -1.0502 -1.3646
 8517SOL     OW37186   2.619   1.252   6.792 -0.4047  0.0764  0.2948
 8517SOL    HW137187   2.585   1.184   6.851  1.7887 -2.2634 -1.0953
 8517SOL    HW237188   2.544   1.307   6.770  0.6964  0.7470 -1.7735
 8518SOL     OW37189   1.337   1.207   6.280  0.0014  0.9114 -0.2031
 8518SOL    HW137190   1.365   1.123   6.245 -1.0709  0.6134 -0.3278
 8518SOL    HW237191   1.360   1.181   6.370 -2.2790 -1.7686 -0.4052
 8519SOL     OW37192   4.733   2.557  11.063  0.4461 -0.0071 -1.0285
 8519SOL    HW137193   4.686   2.634  11.034  0.7942  0.0374 -1.4645
 8519SOL    HW237194   4.678   2.527  11.135  0.7285 -0.1853 -0.8822
 8520SOL     OW37195   0.631   2.183   3.081 -0.2723  0.7687  0.0350
 8520SOL    HW137196   0.611   2.100   3.124 -1.2961  0.8392 -0.3165
 8520SOL    HW237197   0.625   2.162   2.987  0.8547 -1.1486  0.3714
 8521SOL     OW37198   4.191   1.055   5.402  0.0833 -0.3683 -0.0350
 8521SOL    HW137199   4.268   1.038   5.348  0.3282 -3.7680  1.3708
 8521SOL    HW237200   4.126   1.102   5.350  0.2952 -0.0807 -0.0421
 8522SOL     OW37201   0.172   0.148  10.251 -0.4083 -0.3565  0.1101
 8522SOL    HW137202   0.261   0.115  10.249 -0.4697 -0.4166 -1.1146
 8522SOL    HW237203   0.134   0.082  10.309  0.9819 -0.2958  1.0854
 8523SOL     OW37204   3.485   1.472  14.409  0.0703 -0.2334 -0.2594
 8523SOL    HW137205   3.506   1.422  14.331 -1.0974 -2.2786  0.7295
 8523SOL    HW237206   3.556   1.533  14.388  0.1611  0.8704  3.1659
 8524SOL     OW37207   1.345   1.973   0.124  0.1521  0.5466 -0.1720
 8524SOL    HW137208   1.266   1.952   0.173  0.2623  0.7872  0.1110
 8524SOL    HW237209   1.380   2.035   0.189 -0.7624 -1.7100  2.4504
 8525SOL     OW37210   2.728   2.888   8.340  0.4090 -0.5116 -0.5185
 8525SOL    HW137211   2.754   2.814   8.396  0.7113  1.1576  1.5373
 8525SOL    HW237212   2.729   2.960   8.403  1.5902 -0.7386 -0.2725
 8526SOL     OW37213   3.802   3.057   2.825  0.3063  0.3721  0.3801
 8526SOL    HW137214   3.747   3.016   2.757 -0.0564 -0.4233  1.1558
 8526SOL    HW237215   3.770   3.012   2.903 -0.6037 -0.0164 -0.2192
 8527SOL     OW37216   2.442   0.259   4.178  0.1652  0.2707  0.1826
 8527SOL    HW137217   2.403   0.253   4.091 -1.4775  3.4424  0.7004
 8527SOL    HW237218   2.514   0.322   4.175  0.4307  0.0293  1.2381
 8528SOL     OW37219   2.523   0.119  14.041  0.1217  0.4279 -0.3809
 8528SOL    HW137220   2.434   0.112  14.076  0.8252  0.6805  1.4491
 8528SOL    HW237221   2.576   0.126  14.120 -1.9621  0.1918  1.0615
 8529SOL     OW37222   1.573   0.540   3.040 -0.1670  0.0444  0.1871
 8529SOL    HW137223   1.522   0.525   2.960 -0.1759  0.7263  0.0622
 8529SOL    HW237224   1.615   0.619   3.006  1.0667  0.5724  2.8908
 8530SOL     OW37225   3.352   3.163  16.763  0.0721 -0.0766  0.2403
 8530SOL    HW137226   3.347   3.203  16.677  1.8401  0.9652  0.6160
 8530SOL    HW237227   3.297   3.085  16.753  0.4114 -0.3906  0.8253
 8531SOL     OW37228   1.659   2.668  11.703 -0.2551 -0.8309 -0.3345
 8531SOL    HW137229   1.573   2.704  11.682  0.9937  2.5042  0.2862
 8531SOL    HW237230   1.658   2.671  11.799  1.2545 -0.4510 -0.3342
 8532SOL     OW37231   1.031   0.843   6.678  0.2527 -0.1267  0.0669
 8532SOL    HW137232   1.123   0.816   6.680  0.1731 -0.4191 -0.1627
 8532SOL    HW237233   1.030   0.854   6.583 -0.5734 -0.2733  0.0611
 8533SOL     OW37234   0.615   1.974   3.982  0.1478  0.1727 -0.1705
 8533SOL    HW137235   0.643   1.887   4.009 -0.0786  0.9011  2.3908
 8533SOL    HW237236   0.546   1.996   4.045  0.5839 -0.5407  0.5483
 8534SOL     OW37237   1.765   0.735  10.994  0.1255  0.1442  0.0429
 8534SOL    HW137238   1.733   0.698  10.912 -0.1265 -0.1255  0.2609
 8534SOL    HW237239   1.848   0.775  10.971 -0.2645  1.3050  0.6801
 8535SOL     OW37240   2.724   1.977   2.173  0.4445  0.0296 -0.4322
 8535SOL    HW137241   2.770   1.931   2.102  0.1157 -0.7572 -0.1318
 8535SOL    HW237242   2.631   1.952   2.170  0.1618  0.9575  0.8295
 8536SOL     OW37243   0.908   1.837   6.709  0.0256 -0.2331 -0.0815
 8536SOL    HW137244   0.860   1.842   6.792 -2.1636 -0.7300 -1.3235
 8536SOL    HW237245   0.858   1.764   6.673  0.6807 -0.1410 -1.1852
 8537SOL     OW37246   4.503   3.290   7.443 -0.3489  0.1205  0.4301
 8537SOL    HW137247   4.408   3.301   7.442 -0.4255 -0.5061  1.5877
 8537SOL    HW237248   4.515   3.287   7.538 -0.5824  0.4176  0.4706
 8538SOL     OW37249   3.914   2.559   2.907 -0.3904  0.2417 -0.6346
 8538SOL    HW137250   3.841   2.563   2.968 -0.1886 -0.2236 -0.3603
 8538SOL    HW237251   3.886   2.478   2.863  0.3637 -0.8936  0.9852
 8539SOL     OW37252   2.307   4.082   7.813 -0.2390  0.3905  0.7837
 8539SOL    HW137253   2.380   4.027   7.788  0.0179  0.2100  1.9421
 8539SOL    HW237254   2.240   4.020   7.841  0.7536 -1.5370 -1.1145
 8540SOL     OW37255   3.211   1.188   9.869 -0.4017 -0.0966 -0.5075
 8540SOL    HW137256   3.254   1.135   9.936 -3.2674 -1.7332  0.0787
 8540SOL    HW237257   3.279   1.243   9.831  0.0807  0.4801  1.1719
 8541SOL     OW37258   0.755   3.550  15.341 -0.3521  0.4964 -0.1247
 8541SOL    HW137259   0.703   3.537  15.420 -1.6761  0.2148 -1.0346
 8541SOL    HW237260   0.704   3.499  15.278 -0.7399  0.9887 -0.2110
 8542SOL     OW37261   4.069   3.924  17.162  0.1899  0.4380 -0.3405
 8542SOL    HW137262   4.030   3.858  17.106 -1.1154  0.9398 -0.0166
 8542SOL    HW237263   3.995   3.977  17.193 -0.2207  0.3053 -1.1138
 8543SOL     OW37264   2.405   2.068  11.004  0.8239  0.2337 -0.0745
 8543SOL    HW137265   2.483   2.013  11.006  0.3831 -0.4154 -0.8560
 8543SOL    HW237266   2.352   1.997  11.042 -0.3116  0.0916 -1.9103
 8544SOL     OW37267   3.470   3.225   5.691 -0.3445  0.3371 -0.4619
 8544SOL    HW137268   3.399   3.269   5.738 -0.0057  0.0866  0.2875
 8544SOL    HW237269   3.468   3.140   5.736 -1.9399 -0.3659 -1.8608
 8545SOL     OW37270   2.503   4.487   3.047 -0.9151 -0.0759 -0.2136
 8545SOL    HW137271   2.586   4.487   2.998 -1.3241  0.6545 -0.8974
 8545SOL    HW237272   2.485   4.581   3.038 -0.5975 -0.2810 -2.7787
 8546SOL     OW37273   4.511   0.112  12.137 -0.0149  0.2345 -0.0874
 8546SOL    HW137274   4.541   0.101  12.047 -1.4648  1.4141 -0.7134
 8546SOL    HW237275   4.436   0.171  12.136 -0.5081 -0.4241 -1.1585
 8547SOL     OW37276   1.883   0.340   5.592  0.1828  0.1813  0.0687
 8547SOL    HW137277   1.865   0.434   5.590  1.6203  0.4671  0.3233
 8547SOL    HW237278   1.979   0.348   5.586  0.5606 -0.3951  5.0433
 8548SOL     OW37279   1.845   3.579  14.984 -0.1980 -0.7126 -0.2103
 8548SOL    HW137280   1.915   3.644  14.978 -0.0188 -1.0117 -1.2938
 8548SOL    HW237281   1.893   3.503  15.020  1.5859 -0.7433 -2.6823
 8549SOL     OW37282   1.720   1.460   3.082  0.1687 -0.5164 -0.3707
 8549SOL    HW137283   1.780   1.532   3.065 -0.4061 -0.5254 -2.4388
 8549SOL    HW237284   1.687   1.486   3.169  0.7162  2.7537 -1.1498
 8550SOL     OW37285   1.227   2.121   9.387  0.2553  0.1847 -0.7813
 8550SOL    HW137286   1.244   2.200   9.437  2.3275  0.8026 -2.4440
 8550SOL    HW237287   1.203   2.152   9.300 -0.7694 -2.2739 -1.3941
 8551SOL     OW37288   1.630   2.185   4.554  0.6521  0.2840  0.0497
 8551SOL    HW137289   1.644   2.106   4.606 -0.3770 -1.0419 -1.6565
 8551SOL    HW237290   1.563   2.152   4.493  1.9694 -1.0728 -0.6688
 8552SOL     OW37291   1.058   1.950   1.621  0.3646  0.0107  0.3981
 8552SOL    HW137292   1.034   1.997   1.700  2.5501 -1.4852  1.9586
 8552SOL    HW237293   1.153   1.941   1.631  0.4383  0.0309 -0.3031
 8553SOL     OW37294   0.171   4.282  15.371 -0.2955 -0.0362 -0.0135
 8553SOL    HW137295   0.244   4.245  15.322  1.8098  3.3265  0.6077
 8553SOL    HW237296   0.191   4.375  15.368 -3.6420  0.6910  0.2716
 8554SOL     OW37297   0.679   0.986  11.628 -0.5225 -0.1802  0.1384
 8554SOL    HW137298   0.601   0.955  11.675 -0.7303 -1.2975 -0.9436
 8554SOL    HW237299   0.644   1.005  11.541 -1.8858  1.1887  0.9769
 8555SOL     OW37300   2.599   4.094  16.453 -0.2876 -0.4773 -0.0865
 8555SOL    HW137301   2.608   4.094  16.548  0.2635  2.1837 -0.1555
 8555SOL    HW237302   2.684   4.057  16.427 -1.3502 -1.6540 -1.8718
 8556SOL     OW37303   3.522   0.384   8.932 -0.1427 -0.3043  0.5916
 8556SOL    HW137304   3.451   0.438   8.898  0.2563 -0.8099 -1.0069
 8556SOL    HW237305   3.491   0.300   8.897 -0.9872 -0.0373  0.6991
 8557SOL     OW37306   3.248   1.325   1.736 -0.5960 -0.0419  0.0828
 8557SOL    HW137307   3.154   1.321   1.756 -0.5231 -0.4492  0.3460
 8557SOL    HW237308   3.249   1.270   1.657  0.9391  0.2900 -0.1288
 8558SOL     OW37309   0.914   4.452   2.853  0.1063 -0.0462  0.1614
 8558SOL    HW137310   0.880   4.486   2.936  0.3408  1.4936 -0.3781
 8558SOL    HW237311   0.989   4.508   2.834 -1.4920  1.7037 -1.0428
 8559SOL     OW37312   1.447   1.753   5.321 -0.1485 -0.6061  0.2177
 8559SOL    HW137313   1.368   1.768   5.269  1.7266  1.5909 -1.9981
 8559SOL    HW237314   1.418   1.804   5.397  1.3992  0.8459 -0.1579
 8560SOL     OW37315   3.701   0.324   7.118 -0.0519  0.0578 -0.3652
 8560SOL    HW137316   3.719   0.248   7.062 -0.6283  0.1522 -0.6751
 8560SOL    HW237317   3.642   0.367   7.056  1.1518  0.9071 -0.9374
 8561SOL     OW37318   2.069   2.087   1.526 -0.3238 -0.1338 -0.2912
 8561SOL    HW137319   1.999   2.120   1.469  0.5627  0.1108 -1.2358
 8561SOL    HW237320   2.034   2.000   1.543 -0.4603 -0.6454 -3.0677
 8562SOL     OW37321   0.309   2.606   3.290 -0.3193  0.4358 -0.1895
 8562SOL    HW137322   0.215   2.610   3.273 -0.4571 -0.3152  0.4266
 8562SOL    HW237323   0.307   2.615   3.385 -1.8689 -1.3820 -0.0544
 8563SOL     OW37324   3.740   4.407   6.501 -0.2625  0.3611 -0.1946
 8563SOL    HW137325   3.665   4.369   6.548 -0.1932  2.1576  1.3758
 8563SOL    HW237326   3.706   4.481   6.453  0.3992  0.0626 -1.1269
 8564SOL     OW37327   1.595   4.267   1.898  0.0348  0.4234  0.0580
 8564SOL    HW137328   1.561   4.286   1.986 -1.7794  2.0155 -0.9797
 8564SOL    HW237329   1.585   4.353   1.857 -5.2979 -0.3689 -0.3350
 8565SOL     OW37330   0.998   3.639  15.308  0.3667 -0.5094  0.4182
 8565SOL    HW137331   1.003   3.682  15.222  0.0119  0.9342  1.1284
 8565SOL    HW237332   0.919   3.585  15.319  0.6965 -1.4604 -1.7796
 8566SOL     OW37333   2.256   1.792   8.353  0.2998 -0.5391 -0.8042
 8566SOL    HW137334   2.280   1.860   8.291 -1.9399  1.4427  0.5082
 8566SOL    HW237335   2.260   1.718   8.293  2.4596 -2.9963  2.3620
 8567SOL     OW37336   2.636   0.599   5.652 -0.4882 -0.2037  0.4474
 8567SOL    HW137337   2.698   0.566   5.587  0.3540  0.4436  0.9239
 8567SOL    HW237338   2.555   0.609   5.602 -0.4476  0.5420  0.5319
 8568SOL     OW37339   4.643   1.121   7.186 -0.2701  0.4378 -0.0010
 8568SOL    HW137340   4.606   1.199   7.226  1.2444 -0.1180  2.5013
 8568SOL    HW237341   4.729   1.118   7.228 -0.1239  0.4828 -0.2961
 8569SOL     OW37342   0.262   2.263   6.353  0.5074 -0.0800 -0.0827
 8569SOL    HW137343   0.273   2.301   6.266 -0.3613 -0.9166 -0.5572
 8569SOL    HW237344   0.169   2.284   6.362 -0.0109 -1.1837 -2.7732
 8570SOL     OW37345   1.004   3.124  17.524 -0.0987 -0.3013 -0.1701
 8570SOL    HW137346   0.980   3.044  17.570  0.3243 -1.5181 -2.0798
 8570SOL    HW237347   1.097   3.112  17.507 -0.5374 -1.6425 -1.6155
 8571SOL     OW37348   0.584   2.594   3.987 -0.6095  0.0205  0.0254
 8571SOL    HW137349   0.551   2.681   4.011 -0.9647  0.0983 -0.7204
 8571SOL    HW237350   0.591   2.613   3.893 -0.4081 -1.3279 -0.2292
 8572SOL     OW37351   0.538   1.156   3.432 -0.1414 -0.1390 -0.3848
 8572SOL    HW137352   0.634   1.155   3.432 -0.1329 -0.0878  1.9538
 8572SOL    HW237353   0.526   1.242   3.472 -1.0713 -0.7866  0.7255
 8573SOL     OW37354   3.535   2.966   7.396  1.1797 -0.4635  0.2246
 8573SOL    HW137355   3.451   2.953   7.351  0.4198  0.7833  1.2927
 8573SOL    HW237356   3.503   3.006   7.477  0.5141 -1.0890  0.2734
 8574SOL     OW37357   2.719   4.698   2.285 -0.1745 -0.3959  0.2767
 8574SOL    HW137358   2.810   4.686   2.259  0.1601 -0.1281  1.3166
 8574SOL    HW237359   2.685   4.610   2.299 -0.7039 -0.1548  0.4874
 8575SOL     OW37360   2.374   2.091   8.203  0.6705  0.0029  0.1687
 8575SOL    HW137361   2.464   2.058   8.208  0.5647 -0.4712 -1.1879
 8575SOL    HW237362   2.326   2.043   8.136  0.9234  0.8980 -0.6447
 8576SOL     OW37363   4.524   1.824   5.642  0.1189 -0.4759  0.2092
 8576SOL    HW137364   4.448   1.787   5.686 -0.9407  0.8687 -0.5326
 8576SOL    HW237365   4.591   1.759   5.664 -0.1806 -0.3531  1.5005
 8577SOL     OW37366   0.764   4.217   9.042 -0.2406  0.2030 -0.0058
 8577SOL    HW137367   0.787   4.290   8.985 -0.9562 -0.0823 -0.6645
 8577SOL    HW237368   0.848   4.196   9.084  0.3357  2.5495  0.0021
 8578SOL     OW37369   0.724   3.115  12.434 -0.0451  0.3132 -0.0458
 8578SOL    HW137370   0.682   3.201  12.434 -0.6977 -0.0060 -0.8098
 8578SOL    HW237371   0.672   3.074  12.365  1.8202 -1.3744 -0.4320
 8579SOL     OW37372   3.594   4.459   2.851 -0.1040  0.1105  0.1027
 8579SOL    HW137373   3.591   4.552   2.829 -1.3815 -0.0600 -0.4400
 8579SOL    HW237374   3.550   4.468   2.936  0.1137 -1.0326  0.3386
 8580SOL     OW37375   0.615   2.743   0.950 -0.5765  0.2172 -0.2903
 8580SOL    HW137376   0.584   2.816   0.896  0.1162  0.6464 -0.1028
 8580SOL    HW237377   0.595   2.665   0.898 -2.5554  0.3678  0.2503
 8581SOL     OW37378   2.534   3.726   7.971 -0.4717  0.0269 -0.2166
 8581SOL    HW137379   2.471   3.699   7.905 -2.5732 -0.8172  2.1289
 8581SOL    HW237380   2.540   3.643   8.018  1.3753  0.7512  0.8315
 8582SOL     OW37381   3.595   4.261  12.842 -0.2926  0.2701 -0.3047
 8582SOL    HW137382   3.628   4.351  12.837 -3.4055  1.3708 -1.4285
 8582SOL    HW237383   3.662   4.232  12.904  0.7869 -1.1544 -2.1110
 8583SOL     OW37384   0.419   2.536   1.608 -0.3671  0.1422  0.3218
 8583SOL    HW137385   0.464   2.488   1.539 -1.4589 -1.2845  0.5885
 8583SOL    HW237386   0.341   2.579   1.573  0.8035  2.3913  0.4926
 8584SOL     OW37387   0.103   3.156   1.986 -0.0915  0.4005  0.0161
 8584SOL    HW137388   0.148   3.177   1.904 -0.3271 -1.2494 -0.5249
 8584SOL    HW237389   0.016   3.192   1.971  0.5489  1.5409 -1.0364
 8585SOL     OW37390   3.491   3.965  11.308  0.0908 -0.0666  0.2460
 8585SOL    HW137391   3.436   4.001  11.377  0.0869  2.9588 -1.3117
 8585SOL    HW237392   3.436   3.901  11.262 -1.3367  3.0206 -2.3934
 8586SOL     OW37393   2.946   1.129   6.357  0.1116  0.2482 -0.3777
 8586SOL    HW137394   2.901   1.204   6.319 -1.3193 -0.9446 -1.0429
 8586SOL    HW237395   2.887   1.096   6.425 -0.3010 -0.5056 -1.1028
 8587SOL     OW37396   0.187   1.740   2.648  0.7351 -0.5833 -0.0400
 8587SOL    HW137397   0.144   1.799   2.586 -1.0734  0.2608  2.0306
 8587SOL    HW237398   0.206   1.661   2.597 -0.7887 -0.9895  0.0267
 8588SOL     OW37399   2.683   3.632  14.811 -0.4093 -0.2931  0.5350
 8588SOL    HW137400   2.624   3.706  14.795 -1.0665 -0.7217  0.9883
 8588SOL    HW237401   2.628   3.562  14.846 -1.4452  0.3374  0.1815
 8589SOL     OW37402   3.962   4.391   4.652  0.3973 -0.3027  0.4027
 8589SOL    HW137403   3.963   4.357   4.562  1.7008 -0.2366  0.4004
 8589SOL    HW237404   3.874   4.365   4.679 -0.5176  0.2848 -2.0184
 8590SOL     OW37405   4.207   1.817   3.696  0.2885  0.0478  0.6849
 8590SOL    HW137406   4.201   1.783   3.786  1.5361  0.8491  1.0727
 8590SOL    HW237407   4.173   1.748   3.640 -0.4067  1.6131 -0.8309
 8591SOL     OW37408   2.676   0.218   2.088 -0.0680 -0.4968  0.1069
 8591SOL    HW137409   2.654   0.208   2.181  1.1210  0.2967  0.4772
 8591SOL    HW237410   2.768   0.194   2.095  0.1766  0.5947  0.6542
 8592SOL     OW37411   1.863   3.165   2.073 -0.4469 -0.0647  0.2217
 8592SOL    HW137412   1.825   3.245   2.109 -0.0354  0.9530 -1.6188
 8592SOL    HW237413   1.780   3.120   2.062  0.3861 -1.6526  0.4651
 8593SOL     OW37414   4.523   2.367   3.106  0.7872 -0.3826 -0.1026
 8593SOL    HW137415   4.523   2.440   3.043 -1.4483 -0.0717  0.2548
 8593SOL    HW237416   4.615   2.345   3.119  0.3044 -0.8152  2.6332
 8594SOL     OW37417   0.508   3.027  14.509 -0.1124 -0.2974 -0.0446
 8594SOL    HW137418   0.497   2.937  14.537 -2.0843 -0.0423 -0.0369
 8594SOL    HW237419   0.559   3.009  14.429 -0.6779 -0.0749 -0.4543
 8595SOL     OW37420   0.554   3.380  15.282  0.0632  0.1242 -0.2214
 8595SOL    HW137421   0.486   3.377  15.215 -0.1183 -0.4571 -0.0056
 8595SOL    HW237422   0.560   3.287  15.303 -0.3494  0.2089  0.2605
 8596SOL     OW37423   0.818   3.779   4.408 -0.1013 -0.5464 -0.3529
 8596SOL    HW137424   0.735   3.746   4.372 -0.0954  0.4585 -1.3135
 8596SOL    HW237425   0.884   3.712   4.393  1.8432  1.3716 -0.4358
 8597SOL     OW37426   1.122   1.826   7.775 -0.1695 -0.2437 -0.3478
 8597SOL    HW137427   1.064   1.760   7.737 -1.4810  0.6923  0.0106
 8597SOL    HW237428   1.154   1.877   7.700  2.0425  2.5905  2.5195
 8598SOL     OW37429   1.662   4.602   5.145  0.4352  0.0154  0.0968
 8598SOL    HW137430   1.606   4.544   5.093 -0.7181 -0.3597  1.7823
 8598SOL    HW237431   1.703   4.542   5.207 -2.7164 -1.8745  0.3864
 8599SOL     OW37432   3.398   4.388   6.338  0.0841  0.0438 -0.4331
 8599SOL    HW137433   3.416   4.440   6.260  0.0836 -0.7460 -0.9596
 8599SOL    HW237434   3.367   4.449   6.405  1.6420 -0.4881  0.7632
 8600SOL     OW37435   2.823   4.320   6.697  0.8719 -0.1723 -0.1472
 8600SOL    HW137436   2.771   4.356   6.625 -0.2731  3.0430  2.3145
 8600SOL    HW237437   2.746   4.300   6.750  0.5310  2.8670  0.5077
 8601SOL     OW37438   4.691   0.798   9.276 -0.4210  0.2238 -0.0613
 8601SOL    HW137439   4.698   0.801   9.180 -2.0198  0.4709 -0.1719
 8601SOL    HW237440   4.604   0.759   9.283 -1.1873  1.9339 -0.1513
 8602SOL     OW37441   0.881   4.482   6.727  0.4461  0.4256  0.0868
 8602SOL    HW137442   0.916   4.571   6.731  0.1827  0.5776 -1.0766
 8602SOL    HW237443   0.888   4.465   6.821  2.7240  0.6214 -0.0655
 8603SOL     OW37444   0.025   1.478  10.641  0.0166 -0.6070 -1.1680
 8603SOL    HW137445   4.714   1.474  10.558 -2.1042  0.3233  0.0137
 8603SOL    HW237446   0.112   1.510  10.617  0.0215 -0.8904 -1.5329
 8604SOL     OW37447   3.674   3.632   4.769  0.2935  0.3047 -0.0042
 8604SOL    HW137448   3.644   3.563   4.828  0.4580  2.2014  2.2833
 8604SOL    HW237449   3.620   3.613   4.692 -1.5890  0.2388  1.3242
 8605SOL     OW37450   4.453   1.243   4.130  0.3899 -0.2138 -0.3594
 8605SOL    HW137451   4.429   1.184   4.058 -1.8839 -0.1751  0.3455
 8605SOL    HW237452   4.538   1.212   4.160  0.3665 -2.2763 -2.4092
 8606SOL     OW37453   0.681   2.614  17.110 -0.6415 -0.3042  0.3976
 8606SOL    HW137454   0.755   2.570  17.152 -0.0848 -1.3146 -1.6570
 8606SOL    HW237455   0.607   2.581  17.161 -1.5077  0.4925 -0.3276
 8607SOL     OW37456   2.621   2.012   6.192 -0.0170 -0.3434 -0.2826
 8607SOL    HW137457   2.660   2.056   6.268 -0.3741 -0.3942 -0.0694
 8607SOL    HW237458   2.659   1.925   6.181  3.3792  1.1298 -0.1349
 8608SOL     OW37459   1.910   3.982   3.913 -0.1277  0.0918 -1.0257
 8608SOL    HW137460   1.985   3.929   3.939  1.3323  3.0447  0.7352
 8608SOL    HW237461   1.947   4.069   3.931 -2.5763  1.0324 -0.5987
 8609SOL     OW37462   2.066   4.075  12.950 -0.0908 -0.5774 -0.2844
 8609SOL    HW137463   2.062   4.042  12.860 -1.5601  0.5585 -0.6293
 8609SOL    HW237464   2.146   4.029  12.974 -0.8736 -1.1994  1.0881
 8610SOL     OW37465   1.940   3.435  14.118  0.1308 -0.4597 -0.5872
 8610SOL    HW137466   1.952   3.418  14.212  1.8687  0.4914 -0.6379
 8610SOL    HW237467   1.913   3.351  14.080 -1.5156 -0.5922  0.8814
 8611SOL     OW37468   2.771   3.346   2.365  0.3355  0.0451 -0.5795
 8611SOL    HW137469   2.726   3.367   2.284 -0.8698 -0.8009 -0.1362
 8611SOL    HW237470   2.801   3.431   2.396 -0.8190  0.0097  0.6544
 8612SOL     OW37471   3.836   4.140   8.619  0.6150  0.1903  0.1607
 8612SOL    HW137472   3.774   4.082   8.576  1.1594  0.0220 -0.3947
 8612SOL    HW237473   3.819   4.229   8.588  1.2985  0.1949 -0.2066
 8613SOL     OW37474   1.405   2.934   1.647 -0.6372  1.1560 -0.2142
 8613SOL    HW137475   1.466   2.890   1.588  0.9286  2.7820  0.1746
 8613SOL    HW237476   1.441   2.905   1.731  0.2045  0.9636 -0.6454
 8614SOL     OW37477   4.226   0.760   4.280 -0.7671 -0.0639  0.4474
 8614SOL    HW137478   4.150   0.795   4.326 -0.6761 -0.1235  0.6443
 8614SOL    HW237479   4.170   0.706   4.224 -1.4120  1.4129 -0.3241
 8615SOL     OW37480   3.795   2.286   3.213  0.0578  0.2272 -0.4191
 8615SOL    HW137481   3.723   2.349   3.214  1.2221  1.5063  3.1181
 8615SOL    HW237482   3.752   2.202   3.233 -0.4063  0.0525 -2.1845
 8616SOL     OW37483   0.879   1.105  16.431  0.4967 -0.1506  0.4132
 8616SOL    HW137484   0.926   1.161  16.369  0.1591 -1.8035 -1.3348
 8616SOL    HW237485   0.842   1.170  16.491  0.4067  1.4776 -1.4128
 8617SOL     OW37486   0.372   1.447  15.020 -0.1880  0.1404 -0.5883
 8617SOL    HW137487   0.414   1.529  15.047  2.7579 -1.3101 -0.8245
 8617SOL    HW237488   0.424   1.414  14.947  0.4661 -0.3141  0.0841
 8618SOL     OW37489   4.047   0.663   8.787 -0.5831 -0.5492  0.3802
 8618SOL    HW137490   3.986   0.737   8.783  0.6442  0.5298  1.9042
 8618SOL    HW237491   3.983   0.598   8.817 -0.6253 -0.1347  1.1831
 8619SOL     OW37492   2.446   1.007  14.255  0.2484  0.3419  0.1344
 8619SOL    HW137493   2.383   1.047  14.315 -0.4267  0.0217 -0.3552
 8619SOL    HW237494   2.518   1.070  14.254  1.1467 -0.7210 -1.5337
 8620SOL     OW37495   3.388   2.450   6.282  0.3555  0.0211 -0.1249
 8620SOL    HW137496   3.481   2.446   6.264  0.0712  1.8221 -1.8929
 8620SOL    HW237497   3.375   2.355   6.292  1.9754 -0.5093 -3.0412
 8621SOL     OW37498   2.871   2.574   4.658  0.5920 -0.2731  0.2174
 8621SOL    HW137499   2.904   2.621   4.582 -2.5750 -2.3166 -2.4010
 8621SOL    HW237500   2.954   2.550   4.700  0.8508  0.2210 -0.0099
 8622SOL     OW37501   4.542   0.721   4.681 -0.8512  0.1381  0.0050
 8622SOL    HW137502   4.533   0.635   4.724 -0.1534 -0.6305 -1.3653
 8622SOL    HW237503   4.599   0.705   4.605  0.6534  1.3826  0.8714
 8623SOL     OW37504   1.962   0.186   4.288  0.0124 -0.6762 -0.1313
 8623SOL    HW137505   1.930   0.168   4.200  0.8685  1.4520 -0.8860
 8623SOL    HW237506   1.883   0.218   4.331  0.5547 -0.6992  0.8859
 8624SOL     OW37507   3.669   2.393   6.254  0.7439  0.4201  0.3994
 8624SOL    HW137508   3.676   2.297   6.248 -0.2864  0.2266  2.1119
 8624SOL    HW237509   3.745   2.409   6.310  1.1124  0.9635 -0.2519
 8625SOL     OW37510   1.791   3.781   4.459 -0.0775 -0.3313  0.0098
 8625SOL    HW137511   1.777   3.876   4.466  0.8822 -0.2251  0.5280
 8625SOL    HW237512   1.878   3.778   4.500 -0.3328 -1.9253  0.4284
 8626SOL     OW37513   0.662   2.650   4.902  0.0837  0.7302  0.6805
 8626SOL    HW137514   0.703   2.629   4.818  0.3763 -2.9665  1.7223
 8626SOL    HW237515   0.704   2.733   4.924  1.5970 -0.2606  1.5584
 8627SOL     OW37516   4.457   3.306  13.210 -0.2640 -0.0913 -0.0792
 8627SOL    HW137517   4.405   3.326  13.288  1.3235 -2.4965  1.5823
 8627SOL    HW237518   4.521   3.254  13.258  1.5790  0.9530 -1.4039
 8628SOL     OW37519   2.621   2.990  11.149 -0.0589 -0.0400  0.6979
 8628SOL    HW137520   2.579   2.962  11.230  2.1447 -1.3291  1.4016
 8628SOL    HW237521   2.558   3.055  11.118 -1.5670 -0.5074  2.7480
 8629SOL     OW37522   2.437   1.406   5.793  0.0766 -0.0514  0.1875
 8629SOL    HW137523   2.496   1.412   5.868  0.9389 -1.0152 -0.4241
 8629SOL    HW237524   2.355   1.412   5.842 -0.2881  1.8298 -0.6094
 8630SOL     OW37525   2.776   0.105  12.721  0.6673  0.1871  0.3062
 8630SOL    HW137526   2.859   0.057  12.718 -0.9961 -2.5317 -1.5410
 8630SOL    HW237527   2.714   0.032  12.715 -0.7374  1.3366  0.7912
 8631SOL     OW37528   1.402   3.565   4.307  0.5095  0.5316 -0.2918
 8631SOL    HW137529   1.461   3.615   4.251 -1.0191 -0.2750 -2.5864
 8631SOL    HW237530   1.445   3.578   4.392 -2.8388 -0.1424  1.4907
 8632SOL     OW37531   1.762   0.858   0.571  0.2136 -0.1025 -0.1000
 8632SOL    HW137532   1.799   0.861   0.483  1.5854 -1.9471  0.4181
 8632SOL    HW237533   1.805   0.932   0.615 -0.4546  0.1315  0.1611
 8633SOL     OW37534   3.239   3.235   4.765 -0.7468 -0.4944  0.7274
 8633SOL    HW137535   3.257   3.302   4.831 -0.4970  1.9737 -1.8601
 8633SOL    HW237536   3.144   3.252   4.762 -0.9031 -1.2395  1.2934
 8634SOL     OW37537   0.064   0.876  10.251 -0.5063 -0.4300  0.3846
 8634SOL    HW137538   0.066   0.782  10.272  0.4133 -0.7536 -1.2078
 8634SOL    HW237539   0.067   0.907  10.342 -2.8911  0.2718  0.2290
 8635SOL     OW37540   1.047   0.439   3.588  0.4021 -0.3497 -0.3180
 8635SOL    HW137541   1.131   0.393   3.586 -0.3613 -1.7636  0.7259
 8635SOL    HW237542   0.989   0.372   3.552  0.8296 -2.1036  2.2481
 8636SOL     OW37543   2.729   2.386   8.890  0.3835 -0.0029  0.4262
 8636SOL    HW137544   2.737   2.291   8.885 -2.1926 -0.1421 -1.1839
 8636SOL    HW237545   2.805   2.407   8.836 -0.0128 -1.4118 -0.6618
 8637SOL     OW37546   2.359   0.243   6.243  0.1935  0.5424 -0.0749
 8637SOL    HW137547   2.365   0.167   6.300  0.1987 -0.3366 -1.2341
 8637SOL    HW237548   2.290   0.213   6.183 -0.0463 -0.9100  0.9314
 8638SOL     OW37549   4.106   4.325  11.670 -0.1252  0.1153 -0.1092
 8638SOL    HW137550   4.053   4.245  11.668 -2.7593  1.8329  1.2157
 8638SOL    HW237551   4.121   4.348  11.578 -1.4328 -0.3940 -0.4468
 8639SOL     OW37552   3.015   4.617   3.761  0.5344 -0.1697 -0.2568
 8639SOL    HW137553   3.043   4.705   3.733  0.0818 -0.2543 -0.9751
 8639SOL    HW237554   2.963   4.639   3.838  0.1050 -0.1936 -0.5409
 8640SOL     OW37555   1.963   3.989   9.247  0.1965  0.1658 -0.3387
 8640SOL    HW137556   1.952   3.986   9.342  1.2291  0.8565 -0.1921
 8640SOL    HW237557   1.873   4.011   9.223  0.3659  0.7139 -0.4790
 8641SOL     OW37558   0.261   1.919   3.961 -0.2734  0.5416  0.0568
 8641SOL    HW137559   0.190   1.977   3.992  0.0409  0.7803  0.3381
 8641SOL    HW237560   0.308   1.925   4.044 -0.1110 -3.1953  0.2035
 8642SOL     OW37561   2.998   3.264   9.855  0.0702  0.4679  0.4584
 8642SOL    HW137562   2.943   3.232   9.783  1.1724  1.4472 -0.8303
 8642SOL    HW237563   3.049   3.183   9.865  0.1979  0.4026 -0.6209
 8643SOL     OW37564   0.357   1.012  10.655 -0.0188  0.4322  0.3007
 8643SOL    HW137565   0.403   0.939  10.697  1.3714  2.3519  2.1507
 8643SOL    HW237566   0.369   0.978  10.567  1.0685 -0.0798  0.6390
 8644SOL     OW37567   4.033   2.247   8.050 -0.1701  0.4236  0.4067
 8644SOL    HW137568   4.075   2.306   7.987  0.3828 -1.7776 -1.2600
 8644SOL    HW237569   4.069   2.161   8.030 -0.4596  0.1080  1.2617
 8645SOL     OW37570   1.769   1.018   7.335  0.6181  0.3273  0.3370
 8645SOL    HW137571   1.837   0.985   7.276  2.0824  3.7651  0.0676
 8645SOL    HW237572   1.820   1.094   7.364  2.0739  0.7706 -3.3608
 8646SOL     OW37573   2.391   0.558   3.299 -0.0807  0.2685  0.4530
 8646SOL    HW137574   2.351   0.620   3.238  1.0603  1.7451  1.1868
 8646SOL    HW237575   2.425   0.499   3.232 -0.6570  0.1341  0.2843
 8647SOL     OW37576   1.658   1.386   7.379 -0.1292 -0.5154 -0.0874
 8647SOL    HW137577   1.663   1.421   7.468 -0.9780 -1.0618  0.1804
 8647SOL    HW237578   1.633   1.466   7.331  1.1412 -0.1985 -0.2270
 8648SOL     OW37579   3.418   4.415   2.604  0.3304 -0.2734 -0.0827
 8648SOL    HW137580   3.473   4.493   2.605  2.5245 -1.8221  1.1786
 8648SOL    HW237581   3.491   4.360   2.576  1.5247  1.0214  0.4797
 8649SOL     OW37582   1.320   3.246   3.505  0.5666  0.0794  0.1628
 8649SOL    HW137583   1.262   3.187   3.457 -0.3151  2.6096 -1.8727
 8649SOL    HW237584   1.374   3.287   3.438 -0.1573 -1.1171 -1.1494
 8650SOL     OW37585   1.340   1.204   0.809 -0.2346 -0.0693 -0.4322
 8650SOL    HW137586   1.300   1.147   0.874  2.7444 -1.4194  0.2434
 8650SOL    HW237587   1.382   1.140   0.752 -0.8657 -0.6430 -0.2551
 8651SOL     OW37588   3.490   1.501   3.681 -0.3290  0.0952  0.1404
 8651SOL    HW137589   3.450   1.527   3.598 -2.3897 -1.6812  0.5829
 8651SOL    HW237590   3.559   1.440   3.656  1.7331  2.3621  0.1931
 8652SOL     OW37591   4.142   4.559   3.100 -0.5137  0.2044  0.0944
 8652SOL    HW137592   4.052   4.526   3.099 -0.6096  0.4503  0.6734
 8652SOL    HW237593   4.134   4.652   3.078 -0.9461  0.1271 -0.0649
 8653SOL     OW37594   3.948   1.799   5.146 -0.3703 -0.0688  0.2591
 8653SOL    HW137595   3.920   1.838   5.063 -0.2446  1.1356  0.7845
 8653SOL    HW237596   4.035   1.837   5.145 -1.2545  1.9440 -0.8693
 8654SOL     OW37597   3.255   0.409   6.272  0.5158 -0.2603  0.4348
 8654SOL    HW137598   3.183   0.468   6.293  0.5761 -0.2697  0.6726
 8654SOL    HW237599   3.234   0.389   6.181  3.0419  1.1065 -0.4578
 8655SOL     OW37600   2.128   0.035   0.296 -0.8665 -0.2726 -0.1631
 8655SOL    HW137601   2.100   0.037   0.388 -0.4872  0.0834 -0.0562
 8655SOL    HW237602   2.067   0.106   0.277  1.3778  1.3341 -1.2621
 8656SOL     OW37603   3.123   3.423   2.410 -0.6082  0.2314  0.2449
 8656SOL    HW137604   3.081   3.456   2.330  0.2145  1.3151  0.2662
 8656SOL    HW237605   3.142   3.330   2.394  0.8007  0.1146  2.6156
 8657SOL     OW37606   4.121   1.906   3.999 -0.3033 -0.0909  0.4117
 8657SOL    HW137607   4.187   1.973   4.016 -0.3483 -0.4425  1.9065
 8657SOL    HW237608   4.172   1.825   3.995  1.1694  0.8397  0.4245
 8658SOL     OW37609   3.084   1.925   1.056  0.0454  0.0998  0.4884
 8658SOL    HW137610   2.996   1.896   1.031  0.1190  1.2875 -1.1148
 8658SOL    HW237611   3.143   1.900   0.985 -2.3880  2.0866 -2.2286
 8659SOL     OW37612   0.706   3.226   9.281  0.0614 -0.8611  0.5768
 8659SOL    HW137613   0.615   3.232   9.310 -0.6168 -3.0207 -1.0976
 8659SOL    HW237614   0.735   3.315   9.299 -0.7021 -0.3034 -0.9655
 8660SOL     OW37615   0.348   4.103   6.581 -0.0037 -0.0343  0.3586
 8660SOL    HW137616   0.431   4.066   6.609 -0.5091 -1.0660  0.4752
 8660SOL    HW237617   0.358   4.196   6.603 -2.9208 -0.1694  2.2439
 8661SOL     OW37618   3.899   1.586  10.348  0.7687 -0.0636  0.0849
 8661SOL    HW137619   3.934   1.564  10.434  0.5587 -2.8138 -0.5592
 8661SOL    HW237620   3.806   1.599  10.366  0.3539 -0.6118 -1.7470
 8662SOL     OW37621   1.032   4.002  15.022  0.1578 -0.1586 -0.4087
 8662SOL    HW137622   0.948   3.969  15.054  0.7412 -1.1139  0.1238
 8662SOL    HW237623   1.032   4.094  15.048  0.4786 -0.5138  0.8436
 8663SOL     OW37624   2.593   0.744   2.837  0.1765 -0.1822  0.5596
 8663SOL    HW137625   2.597   0.784   2.924  0.6127  0.1075  0.4065
 8663SOL    HW237626   2.606   0.812   2.771 -0.1444  0.4476  1.1493
 8664SOL     OW37627   1.147   3.714  13.673 -0.4784  0.1933  0.2780
 8664SOL    HW137628   1.212   3.655  13.710 -1.2924 -0.1965  1.0929
 8664SOL    HW237629   1.174   3.798  13.710  0.0471 -0.2364  0.8647
 8665SOL     OW37630   3.632   4.290   4.447 -0.7269  0.1920 -0.0106
 8665SOL    HW137631   3.708   4.328   4.403  0.2683 -1.1873  0.5098
 8665SOL    HW237632   3.641   4.321   4.537  1.6019  1.6747 -0.7603
 8666SOL     OW37633   3.914   2.644  13.127 -0.2668  0.0699 -0.9058
 8666SOL    HW137634   3.895   2.735  13.151 -1.6638 -0.6955  0.8521
 8666SOL    HW237635   3.832   2.619  13.084 -1.6948  0.2419  1.6943
 8667SOL     OW37636   3.894   4.491  12.000 -0.1689  0.0812 -0.0039
 8667SOL    HW137637   3.821   4.452  12.048  0.8885 -1.6028  0.2147
 8667SOL    HW237638   3.950   4.416  11.980  3.2001  2.0117  2.0170
 8668SOL     OW37639   1.457   2.129   7.192 -0.3116 -0.0930 -0.2813
 8668SOL    HW137640   1.442   2.168   7.278  0.0239 -0.4976 -0.0394
 8668SOL    HW237641   1.551   2.111   7.192 -0.9472 -3.4333  0.1872
 8669SOL     OW37642   1.117   3.135   3.909 -0.6852 -0.0912 -0.3651
 8669SOL    HW137643   1.159   3.076   3.972  1.4810 -1.6557 -3.2217
 8669SOL    HW237644   1.052   3.073   3.875 -2.1944  0.3344  1.7647
 8670SOL     OW37645   0.994   3.606   1.597 -1.0280 -0.1217  0.4247
 8670SOL    HW137646   0.983   3.673   1.530  1.0898  1.4817  1.6897
 8670SOL    HW237647   0.934   3.537   1.569 -2.1098  0.9989 -0.0300
 8671SOL     OW37648   1.168   4.591   2.150 -0.2125  0.3711 -0.5071
 8671SOL    HW137649   1.080   4.584   2.188 -0.3500 -1.9606 -1.2321
 8671SOL    HW237650   1.205   4.648   2.217  1.0231 -0.8119 -0.1702
 8672SOL     OW37651   3.921   0.920  10.823 -0.8557  0.0128 -0.4561
 8672SOL    HW137652   3.905   0.837  10.867  1.0426 -1.0743 -1.8401
 8672SOL    HW237653   3.853   0.907  10.758 -0.7676 -0.6631 -0.4091
 8673SOL     OW37654   4.065   3.506   5.461  0.0900 -0.2524 -0.2728
 8673SOL    HW137655   4.074   3.579   5.399 -0.5871  0.6220  0.6597
 8673SOL    HW237656   3.999   3.447   5.425 -0.8739  1.5543 -1.5193
 8674SOL     OW37657   1.837   0.120  11.210 -0.6809  0.4300 -0.5846
 8674SOL    HW137658   1.928   0.137  11.231 -0.5035 -1.6652  0.3737
 8674SOL    HW237659   1.809   0.052  11.271  2.8177  0.5868  1.1931
 8675SOL     OW37660   4.300   3.262   5.949 -0.6317  0.4469 -0.1058
 8675SOL    HW137661   4.298   3.168   5.962 -0.6858  0.3385 -0.9124
 8675SOL    HW237662   4.282   3.305   6.033 -0.6753  1.3176 -0.5551
 8676SOL     OW37663   2.108   0.419  16.697 -0.2432 -0.0108 -0.1730
 8676SOL    HW137664   2.090   0.384  16.610 -2.4131  0.2370  0.1661
 8676SOL    HW237665   2.194   0.386  16.724 -1.0511 -1.4253  0.7166
 8677SOL     OW37666   3.362   0.529   6.572 -0.7269 -0.3560 -0.1289
 8677SOL    HW137667   3.374   0.569   6.658  1.3868 -1.7140  0.2152
 8677SOL    HW237668   3.359   0.608   6.518 -1.8519 -0.1036  0.3079
 8678SOL     OW37669   2.887   0.826   2.842  0.4251  0.2360 -0.0083
 8678SOL    HW137670   2.906   0.879   2.920  1.2138  0.1801 -0.1627
 8678SOL    HW237671   2.811   0.872   2.806 -0.0169 -1.3854 -1.1433
 8679SOL     OW37672   1.236   3.018  16.034  0.8369  0.4824 -0.0551
 8679SOL    HW137673   1.182   3.052  15.962  0.6021  2.0586  0.8782
 8679SOL    HW237674   1.221   3.092  16.093 -1.5559 -3.1187  3.8209
 8680SOL     OW37675   3.626   0.239   6.592 -0.0544 -0.7607 -0.0727
 8680SOL    HW137676   3.543   0.260   6.548  0.5616  0.7908 -0.4856
 8680SOL    HW237677   3.670   0.319   6.563 -1.4271 -0.3593 -1.0938
 8681SOL     OW37678   1.421   3.738   6.142  0.1029 -0.0549  0.8738
 8681SOL    HW137679   1.351   3.762   6.203  0.7773  1.0525  1.1934
 8681SOL    HW237680   1.373   3.661   6.111  1.1583 -0.4498  0.2296
 8682SOL     OW37681   0.185   0.412   1.642  0.0023  0.2058  0.1462
 8682SOL    HW137682   0.239   0.457   1.708  1.7803  0.0512 -1.1998
 8682SOL    HW237683   0.103   0.446   1.676 -0.7281 -2.0728  0.6543
 8683SOL     OW37684   1.733   4.192   1.471 -0.2129  0.0770  0.3213
 8683SOL    HW137685   1.825   4.207   1.448  0.0297 -1.2937  0.3520
 8683SOL    HW237686   1.738   4.203   1.566  1.9890  2.7554 -0.1170
 8684SOL     OW37687   1.511   0.021  12.345  0.4078 -0.1784  0.5186
 8684SOL    HW137688   1.539   0.092  12.402  3.1759 -2.2970  1.7515
 8684SOL    HW237689   1.416   0.026  12.359  0.2520 -2.4469  0.2299
 8685SOL     OW37690   2.667   4.183  15.545 -0.1270 -0.2341  0.1960
 8685SOL    HW137691   2.618   4.105  15.520  0.2100 -0.0327 -1.1104
 8685SOL    HW237692   2.735   4.201  15.480  0.0248 -0.4134  0.3037
 8686SOL     OW37693   0.538   3.138   5.259 -0.0854 -0.3209  0.5419
 8686SOL    HW137694   0.530   3.085   5.338  0.6700 -1.0119  0.1601
 8686SOL    HW237695   0.448   3.156   5.233  0.4048  0.0954 -0.8965
 8687SOL     OW37696   2.629   3.445   6.563 -0.1175 -0.2086 -0.5200
 8687SOL    HW137697   2.682   3.433   6.642 -1.2187 -0.7077  0.1570
 8687SOL    HW237698   2.605   3.537   6.559  3.0462  0.5736 -1.1042
 8688SOL     OW37699   0.303   0.966   8.608  0.0519 -0.2896 -0.3187
 8688SOL    HW137700   0.341   0.892   8.560 -1.2707  0.4179 -2.4642
 8688SOL    HW237701   0.386   1.009   8.630 -1.3060  1.3629  1.5608
 8689SOL     OW37702   4.162   2.958   4.029  0.3759  0.0370 -0.1332
 8689SOL    HW137703   4.247   3.001   4.022 -0.2558  0.7688 -3.1711
 8689SOL    HW237704   4.135   2.963   3.938 -0.5348  1.9547  0.2383
 8690SOL     OW37705   3.201   2.188   5.775  0.3191  0.5239 -0.1365
 8690SOL    HW137706   3.208   2.093   5.765  0.6308  0.6871 -1.4399
 8690SOL    HW237707   3.109   2.212   5.760  0.5819 -0.1291 -2.8268
 8691SOL     OW37708   1.843   4.408   2.064  0.4541 -0.3693 -0.0978
 8691SOL    HW137709   1.840   4.504   2.059  1.8434 -0.2274  1.9711
 8691SOL    HW237710   1.764   4.397   2.117 -0.6776 -0.1723 -1.7312
 8692SOL     OW37711   0.660   4.091  12.563  0.9673  0.1886  0.1636
 8692SOL    HW137712   0.573   4.059  12.588  0.3925  0.5056 -1.4756
 8692SOL    HW237713   0.634   4.118  12.475  0.2711 -0.1222  0.2768
 8693SOL     OW37714   2.504   4.654   2.129 -0.0835 -0.0694  0.4759
 8693SOL    HW137715   2.579   4.683   2.180  0.0775 -1.6656  1.1418
 8693SOL    HW237716   2.442   4.699   2.186 -0.3882 -1.6686  1.4106
 8694SOL     OW37717   2.837   0.863  14.363  0.7377 -0.0518 -0.2756
 8694SOL    HW137718   2.911   0.895  14.414  0.2104 -0.4380  0.7388
 8694SOL    HW237719   2.871   0.796  14.304 -0.1024 -0.3063 -0.4659
 8695SOL     OW37720   0.130   3.813   9.381 -0.6375 -0.5802 -0.3576
 8695SOL    HW137721   0.169   3.775   9.459 -0.8154  1.7256  0.8591
 8695SOL    HW237722   0.166   3.901   9.381 -0.5917 -0.6015  0.4330
 8696SOL     OW37723   4.516   3.062   6.422 -0.2206 -0.4769 -0.4107
 8696SOL    HW137724   4.490   3.086   6.511 -1.1187  0.6878 -0.9840
 8696SOL    HW237725   4.602   3.102   6.409  0.2742 -2.1426 -2.3710
 8697SOL     OW37726   0.489   2.618   8.823  0.1377 -0.2304  0.2382
 8697SOL    HW137727   0.476   2.711   8.841  0.2843 -0.3665  1.0371
 8697SOL    HW237728   0.578   2.612   8.859  1.2364 -0.8186 -2.5832
 8698SOL     OW37729   0.497   1.011   2.977 -0.0400  0.1451  0.0193
 8698SOL    HW137730   0.510   0.917   2.973 -0.0687  0.1627 -0.5896
 8698SOL    HW237731   0.491   1.022   3.071 -0.2214 -0.1324  0.0395
 8699SOL     OW37732   4.195   3.329  14.062  0.5324  0.1784  0.2489
 8699SOL    HW137733   4.279   3.373  14.048  0.2266  0.1020 -1.8552
 8699SOL    HW237734   4.177   3.291  13.976 -1.2652  1.5229  0.0471
 8700SOL     OW37735   3.222   3.440   5.798  0.0590 -0.7777 -0.1749
 8700SOL    HW137736   3.133   3.456   5.830 -0.1074 -0.7194 -0.6599
 8700SOL    HW237737   3.225   3.345   5.811  0.1216 -1.0184 -1.9154
 8701SOL     OW37738   2.969   2.816   9.765  0.0512  0.2180  0.1428
 8701SOL    HW137739   2.999   2.738   9.812 -0.6008  0.4201  0.9038
 8701SOL    HW237740   3.021   2.802   9.687 -2.2370  0.4467 -1.4317
 8702SOL     OW37741   4.145   2.485   8.411  0.1709 -0.0597 -0.6909
 8702SOL    HW137742   4.075   2.424   8.388  0.2611 -0.3923 -0.0876
 8702SOL    HW237743   4.133   2.506   8.504 -2.1085 -0.1928 -0.9518
 8703SOL     OW37744   0.023   2.298  13.180  0.0181 -0.0482 -0.3359
 8703SOL    HW137745   0.062   2.348  13.108 -1.5156  1.2327 -0.2795
 8703SOL    HW237746   4.675   2.341  13.170  0.6246  0.8491 -1.6021
 8704SOL     OW37747   3.109   4.539  14.707 -0.1816 -0.0770 -0.0889
 8704SOL    HW137748   3.147   4.566  14.623  0.6963  0.2024  0.3927
 8704SOL    HW237749   3.064   4.461  14.673  0.1917 -0.5442  0.4849
 8705SOL     OW37750   4.418   4.128   8.555  0.0501 -0.8790 -0.3383
 8705SOL    HW137751   4.417   4.058   8.490 -0.2434  0.4549 -1.7781
 8705SOL    HW237752   4.353   4.100   8.620  0.0778  0.7443  0.3846
 8706SOL     OW37753   2.535   3.561   7.401 -0.0424  0.1022  0.6630
 8706SOL    HW137754   2.556   3.490   7.462 -2.2151 -0.2354  1.0150
 8706SOL    HW237755   2.607   3.622   7.415 -0.0469  0.1412  0.5111
 8707SOL     OW37756   4.612   2.915   4.977  0.2512  0.3262  0.2801
 8707SOL    HW137757   4.597   2.904   5.071  0.8427  2.2565  0.6041
 8707SOL    HW237758   4.689   2.861   4.958  1.4624  1.2918  2.4517
 8708SOL     OW37759   0.849   2.453   0.423  0.1547 -0.0005 -0.1617
 8708SOL    HW137760   0.811   2.478   0.507  2.4076 -0.1524  0.8737
 8708SOL    HW237761   0.922   2.511   0.403  1.7651 -1.1726  2.3706
 8709SOL     OW37762   1.327   3.170  12.912  0.0660 -0.1912 -0.0557
 8709SOL    HW137763   1.380   3.170  12.833  2.4465  2.0305  1.5615
 8709SOL    HW237764   1.295   3.080  12.914 -0.2770 -0.1230 -2.2697
 8710SOL     OW37765   2.388   3.950   8.129  0.7783  0.3773  0.4778
 8710SOL    HW137766   2.446   3.925   8.057 -1.3703 -1.6117 -0.5385
 8710SOL    HW237767   2.429   4.028   8.167  2.0928 -1.7751  3.5013
 8711SOL     OW37768   2.132   0.920   4.890 -0.2678  0.0135  0.2050
 8711SOL    HW137769   2.105   0.995   4.837  1.9804  1.6575  1.3603
 8711SOL    HW237770   2.198   0.956   4.950 -0.5629 -2.4229  1.9861
 8712SOL     OW37771   2.730   4.011   2.985 -0.2563 -0.4272 -0.3883
 8712SOL    HW137772   2.722   4.018   3.080 -0.8189 -0.1403 -0.4574
 8712SOL    HW237773   2.754   3.919   2.972 -1.0369 -0.2676 -3.0185
 8713SOL     OW37774   3.339   2.488   3.016 -0.0954  0.1949 -0.0676
 8713SOL    HW137775   3.422   2.441   3.026 -0.6397 -0.5271  1.1380
 8713SOL    HW237776   3.294   2.479   3.100 -0.6329  2.0446 -0.1712
 8714SOL     OW37777   0.438   2.270  14.473 -0.1669 -0.3472 -0.4557
 8714SOL    HW137778   0.403   2.288  14.385  1.2470  0.5476 -0.8236
 8714SOL    HW237779   0.357   2.256  14.523 -0.2331 -1.1924 -0.7984
 8715SOL     OW37780   2.990   0.458   2.861  0.2720 -0.5025 -0.1190
 8715SOL    HW137781   2.897   0.441   2.852  0.1100  0.4545 -0.2028
 8715SOL    HW237782   3.015   0.391   2.925  3.3472 -0.2525 -1.0636
 8716SOL     OW37783   3.879   2.374   7.387 -0.4163 -0.7406  0.0414
 8716SOL    HW137784   3.798   2.426   7.386  0.3561  0.4262 -1.3792
 8716SOL    HW237785   3.934   2.423   7.448 -0.3842  0.3058 -0.8342
 8717SOL     OW37786   1.409   1.876  12.178  0.7744 -0.0529 -0.1267
 8717SOL    HW137787   1.472   1.824  12.128  2.2025  1.0056  0.5493
 8717SOL    HW237788   1.482   1.896  12.237  1.2019 -0.1151 -0.6364
 8718SOL     OW37789   2.899   4.304   2.622 -0.0553  0.0935  0.3514
 8718SOL    HW137790   2.987   4.338   2.640  1.3139 -2.5882 -1.2801
 8718SOL    HW237791   2.911   4.282   2.529  2.1837 -1.2362  0.9637
 8719SOL     OW37792   4.309   2.101   6.066 -0.2149 -0.4093  0.3135
 8719SOL    HW137793   4.384   2.055   6.028  0.4628 -0.9753  2.3201
 8719SOL    HW237794   4.339   2.094   6.157  0.9527 -2.6366 -0.2395
 8720SOL     OW37795   4.219   0.850   3.882 -0.1821  0.4829  0.1261
 8720SOL    HW137796   4.156   0.789   3.844 -0.2699 -0.2079  1.3860
 8720SOL    HW237797   4.301   0.818   3.845 -0.1231 -0.1092  0.7726
 8721SOL     OW37798   0.209   0.174   1.793  0.1066 -0.4123 -0.5024
 8721SOL    HW137799   0.242   0.248   1.742  3.2918 -2.5149 -1.5301
 8721SOL    HW237800   0.286   0.119   1.779  1.0856  1.3458 -1.9453
 8722SOL     OW37801   2.024   1.455   6.802  0.0168 -0.6685 -1.1000
 8722SOL    HW137802   1.985   1.417   6.881  0.8054  0.0257 -0.3683
 8722SOL    HW237803   2.088   1.516   6.840 -0.4343 -0.0306 -1.3650
 8723SOL     OW37804   3.336   4.194   1.919 -0.4390  0.0790 -0.3871
 8723SOL    HW137805   3.416   4.242   1.895  0.5878 -0.9901  0.9353
 8723SOL    HW237806   3.380   4.113   1.945 -0.4183  0.5968  1.1509
 8724SOL     OW37807   1.090   2.313   0.503  0.2098  0.0736  0.4756
 8724SOL    HW137808   1.000   2.343   0.499  0.8817  1.6202 -3.2545
 8724SOL    HW237809   1.124   2.329   0.591 -0.2121  0.5403  0.5497
 8725SOL     OW37810   2.688   2.456  17.436  0.0233  0.2265  0.2668
 8725SOL    HW137811   2.635   2.410  17.500  0.1972 -1.1457 -0.5846
 8725SOL    HW237812   2.760   2.485  17.493  0.8244  1.0467 -1.1535
 8726SOL     OW37813   4.588   1.119   9.822 -0.4353  0.1535  0.5806
 8726SOL    HW137814   4.662   1.177   9.806  0.2616 -1.1636 -0.9276
 8726SOL    HW237815   4.623   1.045   9.871  0.7262  1.5947  1.9335
 8727SOL     OW37816   3.551   1.143   7.733  0.0704  0.2754 -0.7124
 8727SOL    HW137817   3.592   1.225   7.761 -0.9689  0.5547 -0.0058
 8727SOL    HW237818   3.457   1.160   7.742  0.7195  2.5608  1.6472
 8728SOL     OW37819   2.765   0.170   0.875  0.3529 -0.6654 -0.6926
 8728SOL    HW137820   2.671   0.152   0.867  0.4245 -0.3999 -2.3099
 8728SOL    HW237821   2.777   0.197   0.966 -0.8758 -2.4283 -0.0011
 8729SOL     OW37822   0.020   3.861   6.662 -0.1703  0.2837 -0.6051
 8729SOL    HW137823   0.112   3.834   6.659 -0.1830 -0.0180  1.3701
 8729SOL    HW237824   0.029   3.934   6.601 -0.9355 -0.2923 -1.4012
 8730SOL     OW37825   3.601   1.861  12.319 -0.5434  0.2089  0.0396
 8730SOL    HW137826   3.556   1.779  12.299 -1.0610  0.6198 -0.4775
 8730SOL    HW237827   3.591   1.894  12.230 -0.8298 -3.7703 -1.4043
 8731SOL     OW37828   3.612   0.194   4.443  0.5166 -0.0670  0.2108
 8731SOL    HW137829   3.523   0.215   4.472  1.1754 -0.1385  2.3109
 8731SOL    HW237830   3.619   0.102   4.465 -0.8878  0.1961  1.8396
 8732SOL     OW37831   0.154   4.508   6.028 -0.3364  0.1268 -0.4784
 8732SOL    HW137832   0.246   4.534   6.028  0.0303 -1.1871 -1.1039
 8732SOL    HW237833   0.121   4.536   5.942  0.9438 -0.2226 -1.0867
 8733SOL     OW37834   1.257   2.769   7.191 -0.3587  0.5176 -0.2796
 8733SOL    HW137835   1.315   2.844   7.207 -0.0229  0.0159  0.8664
 8733SOL    HW237836   1.309   2.708   7.138  0.3435  0.8050  0.0702
 8734SOL     OW37837   0.170   2.246   9.096 -0.0567 -0.4980 -0.5304
 8734SOL    HW137838   0.100   2.181   9.094 -0.8976  0.3753  0.7014
 8734SOL    HW237839   0.144   2.287   9.179  0.1482  0.0102 -0.7198
 8735SOL     OW37840   4.574   1.734   2.023 -0.2395  0.5128 -0.9974
 8735SOL    HW137841   4.556   1.659   2.080 -1.0275  0.6839 -1.0112
 8735SOL    HW237842   4.570   1.702   1.934  0.1151  0.3867 -0.9641
 8736SOL     OW37843   1.161   2.723   2.641 -0.5292 -0.2407  0.2945
 8736SOL    HW137844   1.116   2.661   2.699  0.1047  1.0603  2.1855
 8736SOL    HW237845   1.240   2.670   2.627 -0.1691  0.6766 -1.0915
 8737SOL     OW37846   2.113   2.912   3.305  0.1012 -0.8935  0.0834
 8737SOL    HW137847   2.023   2.946   3.301  0.3197 -0.1012  2.1368
 8737SOL    HW237848   2.165   2.992   3.303 -1.9649  0.4668  1.4709
 8738SOL     OW37849   0.064   0.965   5.886 -0.1659  0.0666  0.5025
 8738SOL    HW137850   0.031   0.904   5.820 -0.8927  0.9821  0.0216
 8738SOL    HW237851   0.048   0.911   5.963  0.1337  0.6405  0.9687
 8739SOL     OW37852   3.637   2.796  12.899  0.5368 -0.6680 -0.3905
 8739SOL    HW137853   3.644   2.793  12.994 -2.1777 -1.2012 -0.1844
 8739SOL    HW237854   3.668   2.712  12.866  0.4335  0.3510 -3.1184
 8740SOL     OW37855   2.336   3.971   4.344  0.4742 -0.7501 -0.4204
 8740SOL    HW137856   2.394   4.025   4.292 -2.2232  2.3320 -0.2580
 8740SOL    HW237857   2.393   3.895   4.353 -0.0189 -0.7881  2.4332
 8741SOL     OW37858   3.742   0.988  13.133  0.2768 -0.4244  0.1549
 8741SOL    HW137859   3.678   1.059  13.121  1.2952  0.4725 -0.0137
 8741SOL    HW237860   3.822   1.039  13.123 -0.7603  1.2958  0.4405
 8742SOL     OW37861   0.444   0.931   6.701 -0.2271  0.1688  0.3279
 8742SOL    HW137862   0.350   0.941   6.686 -0.4107 -0.7497  0.8902
 8742SOL    HW237863   0.473   0.974   6.620  0.6440 -0.7375  0.1694
 8743SOL     OW37864   0.433   4.712   5.644 -0.1408 -0.0880  0.3404
 8743SOL    HW137865   0.407   4.629   5.684  0.5357 -0.8822 -0.8540
 8743SOL    HW237866   0.521   4.722   5.679 -0.5964  0.2656  1.3879
 8744SOL     OW37867   2.923   1.456   2.057 -0.4015  0.1327 -0.0111
 8744SOL    HW137868   2.990   1.523   2.048 -1.6228  1.5535  1.5035
 8744SOL    HW237869   2.862   1.506   2.111 -0.6543 -0.1396 -0.0456
 8745SOL     OW37870   1.113   0.446   8.500  0.2030 -0.5490  0.2475
 8745SOL    HW137871   1.068   0.530   8.512  1.2092  0.0499 -0.1910
 8745SOL    HW237872   1.041   0.383   8.495 -0.4322  0.0681  1.4405
 8746SOL     OW37873   3.606   0.298   1.439  0.0846  0.4882  0.1569
 8746SOL    HW137874   3.604   0.208   1.474  2.9979  0.2781 -0.2175
 8746SOL    HW237875   3.699   0.318   1.452  0.2039 -0.4221  0.7309
 8747SOL     OW37876   0.492   1.222   5.649  0.2557  0.1385  0.6553
 8747SOL    HW137877   0.476   1.215   5.555 -0.3926  0.6126  0.7361
 8747SOL    HW237878   0.425   1.161   5.680 -0.3439 -0.4599 -1.8224
 8748SOL     OW37879   1.552   0.394   0.069  0.3629  0.2492  0.2848
 8748SOL    HW137880   1.623   0.337   0.039 -0.3964 -0.6283  0.1447
 8748SOL    HW237881   1.598   0.453   0.128 -0.0312  1.3913 -0.5558
 8749SOL     OW37882   0.875   2.508  12.081  0.1108  0.5488 -0.1219
 8749SOL    HW137883   0.885   2.602  12.093 -0.2043  0.3760  1.4858
 8749SOL    HW237884   0.862   2.490  12.174 -0.8075  1.0000 -0.1646
 8750SOL     OW37885   3.599   0.867   2.724  0.0321 -0.9140 -0.5020
 8750SOL    HW137886   3.656   0.841   2.797 -0.0406 -1.5227 -0.6612
 8750SOL    HW237887   3.591   0.789   2.669 -1.1889  0.7593 -2.6584
 8751SOL     OW37888   0.641   1.420   8.614  0.6593 -0.2214 -0.3795
 8751SOL    HW137889   0.550   1.414   8.586 -0.4696  2.5624  2.5821
 8751SOL    HW237890   0.638   1.366   8.693 -0.5527  1.0007  0.4109
 8752SOL     OW37891   3.275   2.693   9.211  0.2721 -0.3281 -0.8353
 8752SOL    HW137892   3.347   2.699   9.149  1.2383 -3.6717 -0.0409
 8752SOL    HW237893   3.205   2.654   9.158  0.9402  0.0927 -2.0091
 8753SOL     OW37894   4.458   4.393  12.201  0.0666 -0.7036 -0.2742
 8753SOL    HW137895   4.476   4.449  12.126  1.2906 -2.2544 -1.1285
 8753SOL    HW237896   4.363   4.388  12.186  0.0120 -0.5564  0.0189
 8754SOL     OW37897   0.579   1.864  10.037  0.2731 -0.3082 -0.2841
 8754SOL    HW137898   0.565   1.795   9.972  0.3408  0.7094 -1.3804
 8754SOL    HW237899   0.576   1.822  10.123 -0.5643  1.1865  0.4254
 8755SOL     OW37900   2.181   4.272  13.664 -0.0633 -0.1776 -0.3729
 8755SOL    HW137901   2.104   4.314  13.627  0.2257 -1.1567 -2.1027
 8755SOL    HW237902   2.137   4.207  13.718  0.9279  0.7246  1.5055
 8756SOL     OW37903   3.814   2.912  12.616  0.4059  0.5599 -0.0842
 8756SOL    HW137904   3.830   2.908  12.521  1.6343  0.6110  0.1180
 8756SOL    HW237905   3.807   2.822  12.647 -1.5155  0.1230 -1.7941
 8757SOL     OW37906   4.134   0.517  16.885  0.0861  0.2835  0.1218
 8757SOL    HW137907   4.229   0.526  16.873  0.0534  1.5266  0.7341
 8757SOL    HW237908   4.128   0.425  16.908  1.4898  0.4027  0.9790
 8758SOL     OW37909   1.236   0.771   4.808 -0.2910 -0.6761 -0.2985
 8758SOL    HW137910   1.330   0.778   4.797 -0.5414  3.3790  0.0954
 8758SOL    HW237911   1.206   0.862   4.812  1.6841 -0.0711  0.6232
 8759SOL     OW37912   4.613   3.606  13.475  0.6493  0.2146  0.4089
 8759SOL    HW137913   4.668   3.560  13.412 -0.2498 -2.1325  1.3289
 8759SOL    HW237914   4.666   3.666  13.526  0.1036  2.2792 -1.4441
 8760SOL     OW37915   2.692   2.034   4.931  0.3602 -0.3742  0.2192
 8760SOL    HW137916   2.766   1.994   4.887  0.9442  1.8990 -0.8385
 8760SOL    HW237917   2.618   1.998   4.881  1.1924  0.4917 -1.6129
 8761SOL     OW37918   2.400   2.561   5.757 -0.2457 -0.6026  0.6791
 8761SOL    HW137919   2.352   2.574   5.676 -0.7623 -1.3593  0.8638
 8761SOL    HW237920   2.456   2.486   5.739  2.5787  1.4969  0.5821
 8762SOL     OW37921   0.206   3.696   2.726 -0.2215  0.1109  0.1315
 8762SOL    HW137922   0.248   3.737   2.802 -1.3541 -1.2839  1.4978
 8762SOL    HW237923   0.122   3.741   2.715  0.0162  0.4368 -0.3527
 8763SOL     OW37924   4.000   1.319   5.373  0.3395 -0.3322 -0.1222
 8763SOL    HW137925   4.058   1.314   5.297  1.2499  2.7821  0.3582
 8763SOL    HW237926   3.913   1.337   5.337  0.5130  2.5475  0.8564
 8764SOL     OW37927   2.020   1.502  16.155  0.1779  0.2153  0.1365
 8764SOL    HW137928   2.108   1.481  16.126  0.3675 -0.3192  1.0842
 8764SOL    HW237929   2.028   1.584  16.204  1.5533  0.5440 -0.6355
 8765SOL     OW37930   3.533   4.599   3.912  0.6470 -0.5419 -0.3478
 8765SOL    HW137931   3.602   4.572   3.851  2.0317 -2.7347  2.2077
 8765SOL    HW237932   3.490   4.670   3.864 -0.1162  0.2123  1.4597
 8766SOL     OW37933   2.844   3.766   7.130  0.0550  0.5973  0.2092
 8766SOL    HW137934   2.753   3.784   7.109  0.2612 -0.9844 -2.1528
 8766SOL    HW237935   2.873   3.840   7.183  1.6348  0.1480 -0.0160
 8767SOL     OW37936   3.588   2.563   6.585  0.0080  0.8403  0.0072
 8767SOL    HW137937   3.649   2.612   6.642 -0.2562  1.6204 -0.3799
 8767SOL    HW237938   3.519   2.629   6.581  1.6210  2.2902 -3.0669
 8768SOL     OW37939   4.220   1.797   2.691 -0.3751 -0.8178 -0.5818
 8768SOL    HW137940   4.232   1.876   2.639  1.7389 -0.0886  1.0158
 8768SOL    HW237941   4.155   1.829   2.754  1.6861 -0.6226  1.4737
 8769SOL     OW37942   0.322   1.155   1.765 -0.0443 -0.9067 -0.2655
 8769SOL    HW137943   0.316   1.180   1.673 -1.2207  2.2169  0.6494
 8769SOL    HW237944   0.241   1.199   1.792 -0.1630 -1.7521  0.7599
 8770SOL     OW37945   2.246   2.330   1.907 -0.1814  0.3953  0.3334
 8770SOL    HW137946   2.286   2.277   1.838  2.0228  2.5749 -0.0353
 8770SOL    HW237947   2.171   2.371   1.863  1.2099 -0.2653 -2.6706
 8771SOL     OW37948   4.501   4.654   4.059 -0.0127 -0.3792  0.1858
 8771SOL    HW137949   4.456   4.572   4.039  1.0764 -0.6929 -1.0370
 8771SOL    HW237950   4.586   4.610   4.072  0.6734  0.5573 -1.0939
 8772SOL     OW37951   2.466   1.395   1.059 -0.3814 -0.3087  0.0856
 8772SOL    HW137952   2.548   1.410   1.106  0.1176  0.0701 -0.9144
 8772SOL    HW237953   2.444   1.486   1.038  0.9608  0.4161  1.7845
 8773SOL     OW37954   0.463   2.677   8.461 -0.1894 -0.7059 -0.0087
 8773SOL    HW137955   0.538   2.731   8.481  0.3174 -0.8413 -1.5177
 8773SOL    HW237956   0.445   2.639   8.547  2.5469  0.8349  1.2175
 8774SOL     OW37957   2.945   2.081   7.055 -0.6195  0.2083  0.4019
 8774SOL    HW137958   2.982   2.056   6.970  2.4639  0.5961  1.6293
 8774SOL    HW237959   2.856   2.107   7.029 -0.2240 -0.3073 -1.4730
 8775SOL     OW37960   1.015   2.516   5.990 -0.5397 -0.4425 -0.2777
 8775SOL    HW137961   0.930   2.483   6.019 -0.4236 -0.0241  0.5545
 8775SOL    HW237962   1.063   2.500   6.071  1.3508  1.6624 -0.9931
 8776SOL     OW37963   1.421   1.683   4.409  0.0427 -0.2527  0.5386
 8776SOL    HW137964   1.424   1.758   4.349 -3.7686  2.2165  3.4970
 8776SOL    HW237965   1.361   1.618   4.372  0.8436  0.4596 -2.0449
 8777SOL     OW37966   0.605   2.295  11.580  1.0830  0.0151 -0.0193
 8777SOL    HW137967   0.565   2.217  11.543 -0.5108  1.6227 -1.6787
 8777SOL    HW237968   0.655   2.254  11.651  0.4806  0.2964  0.5697
 8778SOL     OW37969   1.179   2.973   1.488  0.1893  0.2411 -0.1209
 8778SOL    HW137970   1.185   2.879   1.473 -0.1160  0.0915  0.7034
 8778SOL    HW237971   1.249   2.969   1.552 -0.0663 -0.0295  0.1416
 8779SOL     OW37972   3.812   0.484   8.990  0.0485  0.5362 -0.4203
 8779SOL    HW137973   3.815   0.388   8.992 -1.0085  0.5345  1.6841
 8779SOL    HW237974   3.722   0.495   9.022  0.0787 -0.6035  0.0593
 8780SOL     OW37975   3.903   0.165   2.806 -0.0259 -0.0270 -0.5266
 8780SOL    HW137976   3.854   0.246   2.793  1.2897  1.2185  2.2496
 8780SOL    HW237977   3.995   0.189   2.791  1.0099 -1.7700  3.0934
 8781SOL     OW37978   2.689   2.904  15.463  0.7316  0.1831  0.3712
 8781SOL    HW137979   2.776   2.864  15.452  1.3169  1.7238 -0.6423
 8781SOL    HW237980   2.676   2.946  15.378  1.4072 -1.1414 -0.3935
 8782SOL     OW37981   0.390   3.733   0.763 -0.0758  0.1449 -0.1980
 8782SOL    HW137982   0.443   3.766   0.691  1.9001 -2.1156  0.2077
 8782SOL    HW237983   0.434   3.648   0.773  0.6479  0.4281 -0.9706
 8783SOL     OW37984   0.109   3.268   7.737 -0.6738  0.1095 -0.1433
 8783SOL    HW137985   0.167   3.331   7.694  0.1104 -0.1284  0.5529
 8783SOL    HW237986   0.144   3.264   7.827 -0.1566 -0.3092 -0.3606
 8784SOL     OW37987   0.412   0.220   0.865 -0.1307  0.1493 -0.0952
 8784SOL    HW137988   0.441   0.245   0.777  1.5538 -2.2095 -0.2377
 8784SOL    HW237989   0.363   0.298   0.887  0.1330  0.3785 -0.3113
 8785SOL     OW37990   0.050   3.828  14.076  0.0881  0.0603  0.6980
 8785SOL    HW137991   0.073   3.805  14.166 -0.6474  1.3036  1.1933
 8785SOL    HW237992   0.028   3.921  14.081 -0.8090 -0.1573  0.8476
 8786SOL     OW37993   1.416   3.826  10.993  0.0531 -0.5368  0.1961
 8786SOL    HW137994   1.398   3.918  10.975 -0.5208 -0.6796  0.0447
 8786SOL    HW237995   1.436   3.815  11.086 -0.2821  0.9435  0.4463
 8787SOL     OW37996   3.616   4.016  10.912 -0.2642 -0.1723 -0.3824
 8787SOL    HW137997   3.648   3.954  10.847  3.1359 -0.8222  1.9582
 8787SOL    HW237998   3.673   4.092  10.909 -0.3952 -0.1182 -1.5830
 8788SOL     OW37999   2.789   0.175   0.551  0.5342 -0.0648 -0.1334
 8788SOL    HW138000   2.833   0.161   0.467  0.8197  1.1387 -0.1899
 8788SOL    HW238001   2.797   0.270   0.555 -1.0647  0.0068  1.6745
 8789SOL     OW38002   2.882   4.387   1.947 -0.3742 -0.1798  0.1507
 8789SOL    HW138003   2.851   4.406   2.036  0.0374 -1.2004  0.5229
 8789SOL    HW238004   2.817   4.334   1.901  1.2132 -1.9159 -0.0813
 8790SOL     OW38005   3.168   0.609   4.578  0.2068 -0.4863 -0.7673
 8790SOL    HW138006   3.255   0.625   4.543  0.2868 -0.0077 -0.3393
 8790SOL    HW238007   3.126   0.692   4.556  1.7827  0.4785 -0.1489
 8791SOL     OW38008   1.222   2.217   5.698 -0.7369 -0.7648  0.3764
 8791SOL    HW138009   1.272   2.277   5.642 -1.8933 -0.3373 -0.1911
 8791SOL    HW238010   1.180   2.170   5.626 -2.9264  2.8788 -0.6924
 8792SOL     OW38011   3.038   2.160  12.155  0.2059 -0.9313  0.3082
 8792SOL    HW138012   3.017   2.083  12.102 -0.7920  0.9133 -2.0145
 8792SOL    HW238013   2.960   2.169  12.210 -0.6218 -0.0970 -0.9968
 8793SOL     OW38014   4.143   4.243   2.772 -0.0819  0.0075  0.2753
 8793SOL    HW138015   4.066   4.194   2.742 -1.0527  0.2106  2.4730
 8793SOL    HW238016   4.146   4.230   2.866 -0.4149  1.6259  0.5002
 8794SOL     OW38017   2.451   0.059  16.848  0.4390  0.5478 -0.1727
 8794SOL    HW138018   2.497   0.111  16.782 -1.3527  1.5533 -0.6195
 8794SOL    HW238019   2.363   0.058  16.812  1.1886 -0.7520 -1.9457
 8795SOL     OW38020   4.388   4.287   5.881  0.2005 -0.3761  0.0463
 8795SOL    HW138021   4.338   4.280   5.799 -0.3860 -0.6531  0.4265
 8795SOL    HW238022   4.440   4.364   5.855  1.7657 -0.6292  2.4280
 8796SOL     OW38023   1.969   2.779   9.121 -0.2867  0.0414 -0.4872
 8796SOL    HW138024   2.002   2.745   9.038  2.3826  0.7017  0.3181
 8796SOL    HW238025   2.005   2.868   9.116 -2.1999  1.0008  2.9633
 8797SOL     OW38026   4.583   2.593   3.591  0.2858 -0.0237  0.2809
 8797SOL    HW138027   4.609   2.646   3.517 -2.6155 -1.0783 -1.4705
 8797SOL    HW238028   4.527   2.655   3.636  0.5230  0.7164 -0.4531
 8798SOL     OW38029   1.340   1.324   5.727  0.6594 -0.3249 -0.0741
 8798SOL    HW138030   1.343   1.397   5.665 -0.9416  0.4912  0.8357
 8798SOL    HW238031   1.405   1.352   5.792  0.0504 -2.2903  1.3954
 8799SOL     OW38032   2.886   2.592   1.160  0.0260  0.0180 -0.2718
 8799SOL    HW138033   2.866   2.649   1.085  0.9769  0.0298 -0.5134
 8799SOL    HW238034   2.981   2.595   1.163 -0.0008  0.6217  0.0883
 8800SOL     OW38035   0.080   1.311   5.103 -0.5188 -0.0367 -0.1950
 8800SOL    HW138036   0.037   1.288   5.186  0.9294 -0.7670  0.3511
 8800SOL    HW238037   0.172   1.302   5.128 -0.3367  1.8415 -0.2106
 8801SOL     OW38038   1.449   3.990   9.626 -0.6301  0.1830  0.2445
 8801SOL    HW138039   1.484   3.919   9.681 -0.0014  1.5163  1.5762
 8801SOL    HW238040   1.377   4.028   9.676 -0.8100  0.2929 -0.1045
 8802SOL     OW38041   3.703   3.720  11.683 -0.0591 -0.0323 -0.3724
 8802SOL    HW138042   3.639   3.653  11.706 -1.1400  0.6409 -1.4027
 8802SOL    HW238043   3.705   3.695  11.590  0.6786  0.5378 -0.5064
 8803SOL     OW38044   0.668   1.914   3.274  0.0169  0.3599  0.2029
 8803SOL    HW138045   0.629   1.826   3.269  1.7089 -0.4397  1.0135
 8803SOL    HW238046   0.612   1.954   3.341 -0.0485  0.7251 -0.0754
 8804SOL     OW38047   0.512   2.521  10.220 -0.2001 -0.3285 -0.1571
 8804SOL    HW138048   0.504   2.569  10.138  1.3218  0.9517  0.4632
 8804SOL    HW238049   0.420   2.527  10.245  0.2448  1.3654  1.0653
 8805SOL     OW38050   1.776   3.372  15.183 -0.3204 -0.1344 -0.0090
 8805SOL    HW138051   1.814   3.368  15.270 -0.6687  0.0725  0.1504
 8805SOL    HW238052   1.818   3.297  15.141 -0.9897  0.5708 -1.9560
 8806SOL     OW38053   1.345   2.349   5.481 -0.5155 -0.8173  0.2858
 8806SOL    HW138054   1.351   2.280   5.415 -1.8910 -0.5088 -0.1561
 8806SOL    HW238055   1.337   2.425   5.423 -0.0080 -0.6471  0.4410
 8807SOL     OW38056   1.068   0.830   0.744 -0.5882 -0.1012  0.0268
 8807SOL    HW138057   1.003   0.805   0.811  1.2043  0.1091  1.8449
 8807SOL    HW238058   1.034   0.918   0.730  0.4344  0.2449 -0.2324
 8808SOL     OW38059   4.696   3.050   4.759 -0.8292  0.2604  0.3161
 8808SOL    HW138060   0.031   2.990   4.737  0.5240  1.1031  2.2954
 8808SOL    HW238061   4.644   2.991   4.813  0.8299 -1.1874  0.3329
 8809SOL     OW38062   0.857   4.581   6.093  0.5050 -0.9166  0.1954
 8809SOL    HW138063   0.910   4.513   6.134  0.1458 -1.2480  0.1059
 8809SOL    HW238064   0.925   4.613   6.033  1.4740  0.5424  2.0558
 8810SOL     OW38065   3.945   4.231   4.411  0.2883 -0.4317  0.4793
 8810SOL    HW138066   3.923   4.287   4.337 -2.3592 -0.6809  1.0937
 8810SOL    HW238067   3.894   4.152   4.395  2.2259 -1.5706 -0.0968
 8811SOL     OW38068   2.118   2.721   7.816  0.4033 -0.4602  0.6293
 8811SOL    HW138069   2.149   2.638   7.851  1.4783 -0.7883 -1.0768
 8811SOL    HW238070   2.179   2.738   7.744  0.1727  0.3368  0.6149
 8812SOL     OW38071   4.712   1.518  10.023 -0.2946 -0.2761  0.1090
 8812SOL    HW138072   4.729   1.473   9.940  1.3495  0.3623  0.1044
 8812SOL    HW238073   0.048   1.488  10.079  2.6198  3.5697 -1.6342
 8813SOL     OW38074   0.989   1.651   3.869 -0.3757 -0.0062 -0.1961
 8813SOL    HW138075   0.951   1.738   3.856 -0.9896 -0.2659 -0.1640
 8813SOL    HW238076   0.922   1.592   3.834  1.7476 -2.1857 -0.5413
 8814SOL     OW38077   2.205   0.839   3.612 -0.0004  0.1203  0.8836
 8814SOL    HW138078   2.277   0.860   3.552 -0.0464  0.4053  0.9284
 8814SOL    HW238079   2.162   0.764   3.572 -0.6753 -0.8471  3.4032
 8815SOL     OW38080   4.260   1.125   8.372 -0.2533 -0.2203  0.2707
 8815SOL    HW138081   4.270   1.171   8.288  0.8439 -0.7308  0.1268
 8815SOL    HW238082   4.250   1.205   8.424 -0.7049 -1.0809  1.5140
 8816SOL     OW38083   1.069   0.791   3.451  0.0790 -0.0309 -0.2596
 8816SOL    HW138084   1.148   0.741   3.431 -0.0843  0.6703 -2.6639
 8816SOL    HW238085   1.116   0.875   3.444 -1.5233  0.8596 -0.1826
 8817SOL     OW38086   4.262   4.439   7.421  0.0798 -0.1617 -0.5830
 8817SOL    HW138087   4.329   4.495   7.382 -0.7317 -0.6280 -2.6628
 8817SOL    HW238088   4.217   4.504   7.475  0.3599  1.1532 -1.9103
 8818SOL     OW38089   0.283   3.784   6.668  0.0951  0.1183 -0.0287
 8818SOL    HW138090   0.372   3.813   6.687  0.2492  0.3337 -1.1009
 8818SOL    HW238091   0.264   3.749   6.755 -1.0027 -2.0174 -1.1404
 8819SOL     OW38092   0.386   4.468   5.778  0.7453 -0.6737 -0.0753
 8819SOL    HW138093   0.446   4.414   5.829 -1.8344 -2.5471  0.9575
 8819SOL    HW238094   0.332   4.403   5.733  0.8956 -1.2572  0.6074
 8820SOL     OW38095   1.018   0.741   4.074 -0.1802  0.0350 -0.0433
 8820SOL    HW138096   1.007   0.689   4.154  0.6008 -0.2434 -0.1165
 8820SOL    HW238097   0.928   0.737   4.040 -0.0594 -1.8777 -0.1741
 8821SOL     OW38098   2.959   1.300   3.292 -0.5863 -0.4708  0.1163
 8821SOL    HW138099   2.877   1.289   3.244 -0.5000  2.0647 -0.6275
 8821SOL    HW238100   2.943   1.249   3.372  2.4326 -1.0532  0.3545
 8822SOL     OW38101   2.045   1.297   3.124  0.1250  0.2565 -0.4454
 8822SOL    HW138102   1.972   1.266   3.071  0.6308 -1.7440  0.0156
 8822SOL    HW238103   2.095   1.348   3.060  0.6085  0.6163  0.2169
 8823SOL     OW38104   0.976   1.701   5.897  0.2278  0.1091  0.2374
 8823SOL    HW138105   0.938   1.717   5.983  1.1777  0.4429  0.5961
 8823SOL    HW238106   1.044   1.638   5.921  1.4559  1.7164  0.9966
 8824SOL     OW38107   4.140   4.697   3.487  0.0506  0.3066 -0.1187
 8824SOL    HW138108   4.206   4.715   3.554  0.2099  0.7510 -0.3959
 8824SOL    HW238109   4.129   0.051   3.460 -0.0998 -0.0519 -1.2685
 8825SOL     OW38110   2.429   0.085   5.849 -0.2670 -0.1817  0.0589
 8825SOL    HW138111   2.506   0.077   5.906 -2.2180 -2.6907  2.3535
 8825SOL    HW238112   2.373   0.128   5.913  0.5826  0.1970  0.5429
 8826SOL     OW38113   3.999   0.993   8.244  0.2383  0.7941 -0.0864
 8826SOL    HW138114   3.997   1.051   8.169  1.8268  0.5112 -0.3413
 8826SOL    HW238115   4.063   1.044   8.295  1.2574 -0.1137 -0.4718
 8827SOL     OW38116   1.989   0.298   9.846  0.3455  0.4694 -0.2668
 8827SOL    HW138117   2.037   0.379   9.860  0.5031  0.5538 -1.2919
 8827SOL    HW238118   2.060   0.234   9.855 -0.1685  0.1030  1.3111
 8828SOL     OW38119   2.849   3.224   7.403  0.1909  0.2112 -0.1711
 8828SOL    HW138120   2.930   3.237   7.453 -0.0280  0.8082  0.0309
 8828SOL    HW238121   2.847   3.308   7.358 -2.1918 -0.5977 -1.5311
 8829SOL     OW38122   2.934   2.478   8.732  0.0312 -0.0925 -0.1346
 8829SOL    HW138123   3.018   2.509   8.766  0.7171 -0.5136 -1.4768
 8829SOL    HW238124   2.945   2.399   8.680 -2.4696  0.2584 -1.1763
 8830SOL     OW38125   1.738   3.037  16.075  0.3975  0.2806 -0.2875
 8830SOL    HW138126   1.785   2.994  16.004 -0.9636 -0.9563 -0.4233
 8830SOL    HW238127   1.817   3.059  16.125 -1.4027 -0.7845  3.0179
 8831SOL     OW38128   0.299   4.193   4.652 -0.1973  0.2866 -0.4550
 8831SOL    HW138129   0.322   4.278   4.689  0.1702  0.1490 -0.3624
 8831SOL    HW238130   0.386   4.154   4.642 -0.9164 -0.8184 -2.5375
 8832SOL     OW38131   4.574   0.249   8.643  0.2720  0.0467  0.3565
 8832SOL    HW138132   4.556   0.251   8.737  0.7866  1.4948  0.4323
 8832SOL    HW238133   4.529   0.170   8.613  0.9587 -0.4222  0.5604
 8833SOL     OW38134   3.235   4.619  14.476 -0.1424 -0.1990  0.1586
 8833SOL    HW138135   3.319   4.663  14.467 -0.2774 -0.2878 -1.5998
 8833SOL    HW238136   3.227   4.563  14.399  0.1022 -0.8545  0.6096
 8834SOL     OW38137   4.139   1.359   3.936 -0.5153  0.2008 -0.2114
 8834SOL    HW138138   4.148   1.264   3.942 -0.1473  0.2272 -0.3529
 8834SOL    HW238139   4.117   1.361   3.843 -0.0465 -0.4001 -0.3333
 8835SOL     OW38140   3.513   0.670   0.060 -0.4167  0.3670 -0.3010
 8835SOL    HW138141   3.432   0.640   0.019 -0.9248  0.7269  0.4525
 8835SOL    HW238142   3.554   0.701  17.724  0.9354  0.5228  0.4359
 8836SOL     OW38143   3.319   4.223   4.042  0.4476  0.1263 -0.5959
 8836SOL    HW138144   3.350   4.173   4.117 -3.2884 -1.2798 -0.0008
 8836SOL    HW238145   3.369   4.302   4.063 -0.4641  0.0210  1.9048
 8837SOL     OW38146   4.713   4.069   2.169  0.0143  0.1251  0.4725
 8837SOL    HW138147   4.662   3.990   2.150  1.2318 -0.3865 -0.6223
 8837SOL    HW238148   0.008   4.044   2.256 -0.3164  2.7459  1.3516
 8838SOL     OW38149   1.032   1.034   3.272 -1.0235  0.4019 -0.1657
 8838SOL    HW138150   1.024   1.122   3.234  1.6532  0.4784 -0.5536
 8838SOL    HW238151   1.009   1.062   3.360 -2.5691  1.3274 -0.8715
 8839SOL     OW38152   2.506   4.399   3.666 -0.2592 -0.0288 -0.1411
 8839SOL    HW138153   2.496   4.338   3.593 -2.0878  1.6430 -1.2918
 8839SOL    HW238154   2.586   4.371   3.710  0.8597  1.7053 -1.0562
 8840SOL     OW38155   3.061   2.640  13.725  0.2128  0.4125  0.3845
 8840SOL    HW138156   3.032   2.550  13.709 -0.3192  0.6848 -0.1542
 8840SOL    HW238157   3.017   2.692  13.658 -0.3170 -1.9573 -1.0942
 8841SOL     OW38158   3.668   3.427  11.830 -0.5842 -0.0462  0.0517
 8841SOL    HW138159   3.594   3.412  11.772 -1.1231  1.6531  0.3274
 8841SOL    HW238160   3.743   3.413  11.772 -1.6399 -0.8759 -1.0990
 8842SOL     OW38161   3.030   2.995  12.500  0.0628  0.2713  0.2110
 8842SOL    HW138162   3.030   2.939  12.578  3.6604 -1.3875 -0.9791
 8842SOL    HW238163   3.117   2.972  12.469 -0.4848  0.5082 -1.4908
 8843SOL     OW38164   4.623   4.579   8.335 -0.0042 -0.0970 -0.4749
 8843SOL    HW138165   4.624   4.526   8.415 -1.6044  1.3553  0.5190
 8843SOL    HW238166   4.707   4.619   8.353 -0.3079  0.1517  0.4275
 8844SOL     OW38167   3.228   3.245   8.878  0.5830 -0.5430 -0.4798
 8844SOL    HW138168   3.227   3.181   8.949 -0.1440 -0.7284 -0.6574
 8844SOL    HW238169   3.187   3.202   8.803 -2.1063  0.2465  0.5194
 8845SOL     OW38170   1.580   3.274   9.814 -0.9542  0.2911 -0.2218
 8845SOL    HW138171   1.551   3.344   9.872 -1.7784  0.2205 -0.5423
 8845SOL    HW238172   1.495   3.248   9.780 -0.8335  0.6912 -0.8450
 8846SOL     OW38173   3.423   4.429   9.971  0.3326 -0.2654 -0.1330
 8846SOL    HW138174   3.403   4.384  10.053  2.0328 -0.1048  0.3702
 8846SOL    HW238175   3.391   4.367   9.906 -1.2301 -0.8834  1.2647
 8847SOL     OW38176   2.424   3.909   7.393  0.0046 -0.3388 -0.0863
 8847SOL    HW138177   2.386   3.985   7.437  2.8313  0.0843  1.6263
 8847SOL    HW238178   2.348   3.877   7.345  1.3075 -2.6796 -0.5822
 8848SOL     OW38179   2.143   4.258   1.885  0.1595  0.4581  0.2077
 8848SOL    HW138180   2.184   4.313   1.950  0.1471  0.2674  0.3768
 8848SOL    HW238181   2.128   4.178   1.935  0.9900  0.4333  0.4092
 8849SOL     OW38182   4.701   1.724   8.195  0.2829 -0.0483  0.4628
 8849SOL    HW138183   4.686   1.787   8.125  1.0459  0.1313  0.4588
 8849SOL    HW238184   4.680   1.781   8.269 -0.8239 -0.7506  0.6893
 8850SOL     OW38185   3.822   2.985   5.270 -0.1810  0.2251 -0.7429
 8850SOL    HW138186   3.893   2.980   5.205  0.0410  1.1573 -0.5739
 8850SOL    HW238187   3.784   2.898   5.266 -0.0036  0.0775  0.7794
 8851SOL     OW38188   2.200   0.582   4.598  0.3532  0.0497  0.4364
 8851SOL    HW138189   2.228   0.669   4.572  0.4482 -0.4136 -1.0170
 8851SOL    HW238190   2.253   0.534   4.534  0.2382  0.1864  0.2401
 8852SOL     OW38191   0.535   1.943  11.747 -0.3053 -0.0388 -0.0784
 8852SOL    HW138192   0.451   1.970  11.712 -0.3183 -0.5981 -0.4639
 8852SOL    HW238193   0.582   2.022  11.720 -1.7387  0.4494 -1.1364
 8853SOL     OW38194   3.317   2.316   4.184 -0.4404  0.1379 -0.3737
 8853SOL    HW138195   3.370   2.248   4.142 -1.4861  0.3860 -2.0811
 8853SOL    HW238196   3.384   2.380   4.210 -2.9854  1.5648  2.6467
 8854SOL     OW38197   3.770   3.379  17.278  0.4190 -0.0697  0.2332
 8854SOL    HW138198   3.740   3.384  17.369  0.9315 -0.8405  0.4483
 8854SOL    HW238199   3.819   3.461  17.271  3.4521 -2.2110 -3.4178
 8855SOL     OW38200   2.938   4.638  15.135  0.2969  0.0589 -0.2696
 8855SOL    HW138201   3.013   4.659  15.079  0.0063  0.6736 -0.4356
 8855SOL    HW238202   2.968   4.666  15.222 -4.5904  1.2117  1.0296
 8856SOL     OW38203   2.481   3.910   6.235  0.1435 -0.3565 -1.0022
 8856SOL    HW138204   2.432   3.920   6.317 -1.9017 -3.6104 -1.8113
 8856SOL    HW238205   2.499   4.004   6.226 -0.8131 -0.0250  0.4358
 8857SOL     OW38206   3.528   0.263   7.981  0.3439 -0.1335 -0.5594
 8857SOL    HW138207   3.549   0.351   8.012 -0.1115 -1.0047  2.2928
 8857SOL    HW238208   3.605   0.218   7.946  0.6452  0.0377 -0.1282
 8858SOL     OW38209   1.031   4.653   5.883 -0.3438  0.7901 -0.1703
 8858SOL    HW138210   1.105   4.621   5.832 -0.5348  0.5243 -0.2836
 8858SOL    HW238211   0.955   4.654   5.824  0.2303 -1.5530 -0.9359
 8859SOL     OW38212   4.715   3.972   8.923  0.1795 -0.3345 -0.0775
 8859SOL    HW138213   0.017   3.990   9.010 -0.7024  1.4737 -0.0542
 8859SOL    HW238214   0.012   3.884   8.911  4.0752  1.5581 -3.1264
 8860SOL     OW38215   0.496   2.698   6.244  0.0552 -0.3557 -0.2705
 8860SOL    HW138216   0.545   2.666   6.319 -2.3806 -0.0102  1.4816
 8860SOL    HW238217   0.409   2.682   6.282  0.2591  0.0794  0.3791
 8861SOL     OW38218   3.267   1.805   7.823 -0.0448  0.0369  0.1501
 8861SOL    HW138219   3.191   1.851   7.787 -0.8832 -0.8305  0.8209
 8861SOL    HW238220   3.337   1.869   7.826 -0.3758  0.3223  1.9017
 8862SOL     OW38221   4.414   0.648  15.735  0.3818  0.1873 -0.7083
 8862SOL    HW138222   4.414   0.605  15.820  0.7763  0.5084 -0.5483
 8862SOL    HW238223   4.320   0.670  15.730  0.2944  0.0799  0.6076
 8863SOL     OW38224   0.107   1.785   7.480  0.1747 -0.4089  0.3437
 8863SOL    HW138225   0.202   1.776   7.486 -0.1670 -2.5541  2.6871
 8863SOL    HW238226   0.097   1.832   7.398 -3.1604  2.3801  2.3134
 8864SOL     OW38227   3.602   0.535   2.662 -0.3530  0.6838 -0.0215
 8864SOL    HW138228   3.625   0.473   2.593  3.2301 -0.3130  2.1092
 8864SOL    HW238229   3.507   0.527   2.667 -0.2272 -0.0688  1.1235
 8865SOL     OW38230   2.177   1.760   5.124 -0.9908 -0.2507  0.6170
 8865SOL    HW138231   2.271   1.759   5.141 -1.0478 -0.2704  0.9470
 8865SOL    HW238232   2.145   1.832   5.179  1.3238  1.1132  0.1666
 8866SOL     OW38233   0.633   1.349   3.785  0.5372 -0.3586  0.3287
 8866SOL    HW138234   0.582   1.283   3.833 -1.4334  0.1921 -1.0247
 8866SOL    HW238235   0.594   1.343   3.698  2.2393 -1.6619 -0.3501
 8867SOL     OW38236   2.705   2.410   8.435  0.1515 -0.6624  0.4988
 8867SOL    HW138237   2.649   2.403   8.357 -0.1976 -3.9925  1.0460
 8867SOL    HW238238   2.634   2.407   8.499 -1.8375  0.7040 -1.6036
 8868SOL     OW38239   2.824   1.362  14.697  0.1271 -0.0233  0.3207
 8868SOL    HW138240   2.909   1.347  14.656 -1.2940  0.3225 -2.7732
 8868SOL    HW238241   2.838   1.444  14.745  0.4407  0.8412 -1.2245
 8869SOL     OW38242   0.561   3.159   6.532  0.0425  0.0848 -0.0140
 8869SOL    HW138243   0.617   3.126   6.601  0.1822  0.6621  0.1531
 8869SOL    HW238244   0.472   3.145   6.564  0.7092  3.3049  3.3571
 8870SOL     OW38245   0.030   2.656   9.308 -0.1210  0.7095  0.1649
 8870SOL    HW138246   4.677   2.667   9.342 -0.9537  2.1581 -2.5176
 8870SOL    HW238247   0.072   2.741   9.321  2.1038 -0.5799  1.5315
 8871SOL     OW38248   4.495   1.079  13.813 -0.0776 -0.6263 -0.5454
 8871SOL    HW138249   4.586   1.063  13.837 -0.3629 -0.3861  0.6652
 8871SOL    HW238250   4.489   1.174  13.826  0.8515 -0.7157  0.5396
 8872SOL     OW38251   3.754   4.386   8.567 -0.2899 -0.2001  0.5812
 8872SOL    HW138252   3.774   4.479   8.563  0.3996 -0.3682  0.1205
 8872SOL    HW238253   3.659   4.380   8.568 -0.3016 -1.0503 -3.6172
 8873SOL     OW38254   1.717   1.234   4.057 -0.3030 -0.0986  0.3777
 8873SOL    HW138255   1.778   1.276   4.117 -0.5403  0.8589 -0.0454
 8873SOL    HW238256   1.655   1.303   4.034  2.8148  2.8589  0.8190
 8874SOL     OW38257   1.474   3.966  10.491  0.9677 -0.2032 -0.0609
 8874SOL    HW138258   1.426   3.883  10.486 -0.1343  0.4094  0.2948
 8874SOL    HW238259   1.469   4.002  10.403  1.3228  0.7616  0.3165
 8875SOL     OW38260   3.537   0.069   9.681  0.5055 -0.1732  0.6472
 8875SOL    HW138261   3.574   4.728   9.638  1.7141  1.5505 -1.3510
 8875SOL    HW238262   3.492   0.032   9.758 -1.9813 -0.4976 -0.9604
 8876SOL     OW38263   0.920   1.627   7.426 -0.1034 -0.0166  0.6013
 8876SOL    HW138264   0.970   1.690   7.374 -0.3251 -0.3870 -0.0628
 8876SOL    HW238265   0.964   1.631   7.510  0.1512 -0.7130  0.5002
 8877SOL     OW38266   0.040   3.549   4.189 -0.4366 -0.1416  0.4326
 8877SOL    HW138267   4.688   3.583   4.195  0.5051  2.4152 -0.2124
 8877SOL    HW238268   0.045   3.522   4.097  0.0574  2.1263 -0.2089
 8878SOL     OW38269   2.608   0.315   4.469 -0.0118 -0.6336 -0.3768
 8878SOL    HW138270   2.685   0.295   4.414  3.0053  1.4732  3.1154
 8878SOL    HW238271   2.626   0.267   4.550  0.7199  0.2436 -0.0229
 8879SOL     OW38272   2.726   3.971   3.285 -0.0138  0.5928 -0.2320
 8879SOL    HW138273   2.715   3.991   3.378 -2.1080  0.5248 -0.4824
 8879SOL    HW238274   2.644   3.930   3.259  2.1075 -3.6210 -0.3764
 8880SOL     OW38275   3.929   3.079   6.253 -0.1799  0.0915  0.4070
 8880SOL    HW138276   3.836   3.096   6.271  0.5222 -0.1548  4.3059
 8880SOL    HW238277   3.952   3.165   6.216  1.1367 -0.3555  0.2091
 8881SOL     OW38278   2.568   0.675   7.092  0.1647 -0.4905 -0.3947
 8881SOL    HW138279   2.556   0.760   7.050 -0.2687 -0.0930  0.5303
 8881SOL    HW238280   2.478   0.644   7.080 -0.3624  0.4870  1.0744
 8882SOL     OW38281   0.451   0.181  10.595 -0.3057 -0.2561 -0.2969
 8882SOL    HW138282   0.518   0.115  10.576  0.5833  0.2334  1.1151
 8882SOL    HW238283   0.370   0.133  10.581 -0.3893  0.3157 -1.8161
 8883SOL     OW38284   0.221   2.587  15.803 -0.0346 -0.1154 -0.5665
 8883SOL    HW138285   0.296   2.545  15.845 -0.1662 -1.3427 -1.5669
 8883SOL    HW238286   0.164   2.588  15.880 -0.8347  0.8132 -1.1642
 8884SOL     OW38287   2.435   3.813   4.109  0.2132 -0.5553 -0.1798
 8884SOL    HW138288   2.456   3.906   4.121 -2.6711  0.1705 -0.6482
 8884SOL    HW238289   2.502   3.767   4.158  0.2767 -0.8114 -0.5089
 8885SOL     OW38290   0.459   3.840   7.957  1.3385  0.3697  0.1127
 8885SOL    HW138291   0.489   3.756   7.923  0.1661  0.3839 -0.9819
 8885SOL    HW238292   0.371   3.844   7.920  1.1633 -0.7965  0.4184
 8886SOL     OW38293   0.693   3.603   2.128  0.0912 -0.4561 -0.4995
 8886SOL    HW138294   0.732   3.680   2.088  3.0039 -1.1883  0.9434
 8886SOL    HW238295   0.602   3.634   2.129  0.7576  1.5382 -2.2158
 8887SOL     OW38296   4.689   2.600  13.314  0.3350  0.0070 -0.0587
 8887SOL    HW138297   4.667   2.620  13.223  1.6503  0.1219 -0.3552
 8887SOL    HW238298   0.033   2.549  13.309  1.2348  1.3928  0.1924
 8888SOL     OW38299   2.439   2.187   3.549 -0.4555  0.1958 -0.1881
 8888SOL    HW138300   2.418   2.095   3.565 -0.8248  0.2346 -0.4463
 8888SOL    HW238301   2.494   2.182   3.471  0.6479 -0.6012  0.6421
 8889SOL     OW38302   1.936   0.225   0.278  0.3268 -0.3004  0.2546
 8889SOL    HW138303   1.860   0.220   0.220  0.6904 -1.0680 -0.1626
 8889SOL    HW238304   1.935   0.318   0.302  0.0012  0.3571 -2.3432
 8890SOL     OW38305   0.173   0.062  16.182  0.1428 -0.0201 -0.5084
 8890SOL    HW138306   0.192   0.132  16.120  0.7105 -1.0244 -1.4574
 8890SOL    HW238307   0.233   0.083  16.254  0.2297 -2.9770  0.2794
 8891SOL     OW38308   1.703   0.044   3.781 -0.1244  0.2502 -0.5813
 8891SOL    HW138309   1.644   0.022   3.854 -0.6108 -1.4024 -1.4659
 8891SOL    HW238310   1.657   4.716   3.727 -1.0453  0.8551 -0.5239
 8892SOL     OW38311   3.822   4.653   4.117  0.4172 -0.0831  0.2416
 8892SOL    HW138312   3.759   4.645   4.046 -0.4268  1.2575  0.8424
 8892SOL    HW238313   3.846   0.008   4.101  0.3296 -0.0413  0.3464
 8893SOL     OW38314   0.842   2.368   1.421 -0.3937 -0.3614  0.2278
 8893SOL    HW138315   0.872   2.438   1.480 -1.3980 -0.3370  0.7097
 8893SOL    HW238316   0.923   2.346   1.374 -1.9546 -0.4788 -2.3987
 8894SOL     OW38317   3.978   4.212   5.048  0.2379  0.3371 -0.1272
 8894SOL    HW138318   3.994   4.274   5.119  2.0137  0.8929 -1.0136
 8894SOL    HW238319   3.895   4.174   5.078  0.7767 -0.4345  0.3781
 8895SOL     OW38320   0.339   4.176   2.983  0.3496 -0.1763  0.1477
 8895SOL    HW138321   0.384   4.158   3.065  2.8098 -4.1580 -2.0665
 8895SOL    HW238322   0.257   4.128   2.997 -0.2617  0.3674 -1.5305
 8896SOL     OW38323   4.617   2.591   5.337 -0.2424  0.6457  0.3008
 8896SOL    HW138324   4.689   2.536   5.307  1.9263  3.6354  0.0092
 8896SOL    HW238325   4.543   2.535   5.313 -1.1693  1.6522  0.8160
 8897SOL     OW38326   4.013   3.957   9.281  0.4140  0.2386  0.1364
 8897SOL    HW138327   4.097   3.979   9.322  0.3764  2.1276 -0.8145
 8897SOL    HW238328   4.021   4.001   9.196 -1.0526 -1.8324 -1.0889
 8898SOL     OW38329   3.153   4.657   2.527 -0.1995 -0.4807 -0.3496
 8898SOL    HW138330   3.163   0.005   2.571 -0.5443  0.8688 -2.8316
 8898SOL    HW238331   3.062   4.667   2.497  0.0225  0.8944 -0.5808
 8899SOL     OW38332   2.950   3.653   5.109  0.3654  0.0790 -0.7906
 8899SOL    HW138333   2.856   3.669   5.119  0.3079 -1.4903  1.1328
 8899SOL    HW238334   2.983   3.655   5.199  0.0818 -3.3392 -0.6075
 8900SOL     OW38335   3.705   1.582  14.287  0.0362 -0.2582 -0.3571
 8900SOL    HW138336   3.744   1.665  14.313 -0.8851  0.1129 -0.1338
 8900SOL    HW238337   3.749   1.580  14.202 -0.6638  4.6733 -0.8608
 8901SOL     OW38338   1.329   3.130   2.700 -0.0757  0.5778  0.1304
 8901SOL    HW138339   1.251   3.092   2.741 -0.4883 -1.1565 -2.1939
 8901SOL    HW238340   1.311   3.095   2.612 -0.5183 -0.1260  0.5027
 8902SOL     OW38341   2.449   0.938   1.494  0.4565 -0.3642 -0.4113
 8902SOL    HW138342   2.481   0.967   1.409  0.1780  2.6938  0.5551
 8902SOL    HW238343   2.525   0.962   1.547 -0.9952 -0.4703  1.7258
 8903SOL     OW38344   1.859   3.277  10.124 -0.2040 -0.1341  0.0038
 8903SOL    HW138345   1.905   3.294  10.042  1.4162 -1.9586  0.5475
 8903SOL    HW238346   1.852   3.362  10.167  0.5664 -0.1027  0.0505
 8904SOL     OW38347   1.510   2.588   3.304 -0.3273 -0.9952  0.4622
 8904SOL    HW138348   1.530   2.569   3.213 -0.2344  2.9925 -0.3520
 8904SOL    HW238349   1.600   2.580   3.336 -0.5275 -0.8093  1.0925
 8905SOL     OW38350   1.274   3.254   8.830  0.8900  0.4100  0.1531
 8905SOL    HW138351   1.267   3.343   8.865 -0.1496  1.4726 -2.7843
 8905SOL    HW238352   1.189   3.232   8.792  0.6751  0.4588  0.5985
 8906SOL     OW38353   0.044   4.238   6.484  0.3124  0.0049  0.3851
 8906SOL    HW138354   0.097   4.276   6.414 -0.2714  1.9853  1.0445
 8906SOL    HW238355   0.055   4.144   6.469 -0.5064  0.2007 -1.4399
 8907SOL     OW38356   0.094   1.087   3.108  0.1755 -0.3190 -0.0510
 8907SOL    HW138357   0.064   1.013   3.055 -0.6331 -0.8594  1.1667
 8907SOL    HW238358   0.085   1.161   3.048  0.8338 -0.7754 -0.7019
 8908SOL     OW38359   0.056   3.225   6.399  0.0212 -0.1551 -0.3183
 8908SOL    HW138360   0.105   3.206   6.319  0.0392  0.4340 -0.4427
 8908SOL    HW238361   0.068   3.320   6.399  1.3500 -0.3244  3.6213
 8909SOL     OW38362   2.780   3.748   9.597  0.0782  0.4940 -0.1354
 8909SOL    HW138363   2.707   3.757   9.536 -1.1643  0.9400  1.4186
 8909SOL    HW238364   2.851   3.776   9.538  0.1065  0.7085 -0.0017
 8910SOL     OW38365   0.709   3.169   7.273  0.1067  0.0043  0.0044
 8910SOL    HW138366   0.715   3.092   7.329 -0.5982  0.5682  0.8548
 8910SOL    HW238367   0.749   3.142   7.191 -0.5061 -0.5348 -0.1153
 8911SOL     OW38368   2.068   3.245   8.579  0.3570  0.9960 -0.1148
 8911SOL    HW138369   2.103   3.234   8.491 -0.3933 -1.8576 -0.0429
 8911SOL    HW238370   2.023   3.162   8.592 -1.3322  1.8465 -0.5586
 8912SOL     OW38371   1.472   0.926  10.375 -0.8417  0.1146  0.0785
 8912SOL    HW138372   1.431   0.872  10.308 -1.6203  3.0203 -1.7514
 8912SOL    HW238373   1.394   0.949  10.424  0.7561 -0.6097  2.9781
 8913SOL     OW38374   3.659   0.608   5.042  0.2218  0.7169 -0.1952
 8913SOL    HW138375   3.639   0.659   4.964  3.5657  0.0346 -1.4846
 8913SOL    HW238376   3.754   0.622   5.046  0.8128 -3.3691  0.5054
 8914SOL     OW38377   1.321   3.174   5.196 -0.2104  0.1482 -0.1164
 8914SOL    HW138378   1.408   3.150   5.165 -0.2391 -0.6722  0.4359
 8914SOL    HW238379   1.348   3.212   5.280  1.8912 -1.2400 -0.1682
 8915SOL     OW38380   4.484   4.010  14.086  0.7276  0.6347  0.2711
 8915SOL    HW138381   4.570   4.045  14.109  0.6885  1.7775 -1.3217
 8915SOL    HW238382   4.457   4.073  14.020 -0.2741  1.0053  1.0262
 8916SOL     OW38383   4.333   2.545  16.615  1.0548  0.0035  0.1160
 8916SOL    HW138384   4.368   2.572  16.700  2.1342 -0.2508 -0.2512
 8916SOL    HW238385   4.335   2.629  16.571 -0.6472  0.6514  1.2692
 8917SOL     OW38386   2.509   2.004   6.843  0.0446 -0.0245  0.3549
 8917SOL    HW138387   2.547   1.917   6.856  0.2234  0.0327  0.2021
 8917SOL    HW238388   2.536   2.018   6.753 -2.5646 -1.7233 -0.7088
 8918SOL     OW38389   1.440   0.049  17.457 -0.0807 -0.0880  0.7589
 8918SOL    HW138390   1.439   0.144  17.466  2.1449 -0.1651  1.7569
 8918SOL    HW238391   1.444   0.019  17.548 -0.3220  0.2790  0.8917
 8919SOL     OW38392   0.213   2.339   8.807  0.1486  0.4834  0.2413
 8919SOL    HW138393   0.173   2.425   8.800 -0.1610  0.4016  0.9399
 8919SOL    HW238394   0.192   2.317   8.898  1.3710 -3.1251 -0.3460
 8920SOL     OW38395   3.724   4.492  11.367  0.4649 -0.1274 -0.2768
 8920SOL    HW138396   3.803   4.518  11.415  0.7753 -2.4813  0.5102
 8920SOL    HW238397   3.759   4.417  11.318 -0.2524 -1.2171  0.8774
 8921SOL     OW38398   3.049   2.496   5.109 -0.7698  0.0081 -0.3630
 8921SOL    HW138399   3.107   2.520   5.181  1.5245  1.0382 -2.5286
 8921SOL    HW238400   3.043   2.401   5.107  0.5642 -0.0976  0.5873
 8922SOL     OW38401   4.561   4.088   8.281  0.6958 -0.1029  0.0390
 8922SOL    HW138402   4.495   4.141   8.237  2.1710  1.5255 -0.1849
 8922SOL    HW238403   4.589   4.022   8.218  1.6518 -1.4372  1.8838
 8923SOL     OW38404   0.160   3.506   5.126 -0.2307  0.6109 -0.1140
 8923SOL    HW138405   0.096   3.484   5.058  0.4282 -0.1327 -0.4869
 8923SOL    HW238406   0.173   3.421   5.168 -0.3027 -0.0177 -1.3572
 8924SOL     OW38407   0.532   4.061   4.606 -0.0190  0.3806 -0.2315
 8924SOL    HW138408   0.622   4.038   4.583  0.0896  1.5126 -0.9573
 8924SOL    HW238409   0.500   4.073   4.517  2.2469 -1.9240 -1.3512
 8925SOL     OW38410   4.008   3.241   9.292 -0.3050 -0.4570  0.1748
 8925SOL    HW138411   4.058   3.262   9.372 -0.7991  0.8070  0.1446
 8925SOL    HW238412   3.979   3.331   9.276 -1.3280 -1.3583 -2.9606
 8926SOL     OW38413   0.272   3.524  15.186 -0.0646 -0.3017  0.1513
 8926SOL    HW138414   0.288   3.560  15.273  0.5148 -1.8136  0.6719
 8926SOL    HW238415   0.210   3.592  15.160 -1.0300 -1.0173  0.5624
 8927SOL     OW38416   4.600   4.212   3.444  0.0731  0.4695 -0.0923
 8927SOL    HW138417   4.631   4.190   3.532 -2.2030  1.4173  0.9524
 8927SOL    HW238418   4.582   4.306   3.447 -0.2825  0.3605  1.1299
 8928SOL     OW38419   3.273   3.403  10.476  0.1792 -0.4657 -0.3482
 8928SOL    HW138420   3.341   3.463  10.447 -1.0913  0.7303 -0.8222
 8928SOL    HW238421   3.314   3.360  10.551 -1.8865  0.3032  1.2340
 8929SOL     OW38422   0.396   3.032   4.874  0.5009  0.0900  0.6846
 8929SOL    HW138423   0.318   3.085   4.890  0.7584  0.7924 -0.3949
 8929SOL    HW238424   0.365   2.947   4.845 -0.1695 -0.0717  1.8979
 8930SOL     OW38425   1.647   2.999   6.188  0.2825 -0.3704 -0.0619
 8930SOL    HW138426   1.573   2.998   6.249  1.3979  1.1997  1.3359
 8930SOL    HW238427   1.726   2.999   6.242 -0.2674 -1.1026  0.7513
 8931SOL     OW38428   3.995   2.437   2.033 -0.2386 -0.4376  0.4435
 8931SOL    HW138429   4.038   2.352   2.023  0.7047  0.1371 -0.3800
 8931SOL    HW238430   4.026   2.471   2.117  0.8214  1.1409 -0.6139
 8932SOL     OW38431   0.628   4.362   3.915 -0.6291 -0.2225 -0.3953
 8932SOL    HW138432   0.594   4.450   3.931 -0.3914 -0.1665 -0.1924
 8932SOL    HW238433   0.610   4.323   4.001 -3.1518  2.0195  0.0636
 8933SOL     OW38434   0.022   3.088   8.387  0.0600 -0.3797 -0.4373
 8933SOL    HW138435   0.054   3.105   8.476 -1.7924  2.4336 -0.3080
 8933SOL    HW238436   4.703   3.013   8.410 -0.1288 -0.8718 -2.5199
 8934SOL     OW38437   2.076   1.742   9.146 -0.2684  0.1113 -0.1373
 8934SOL    HW138438   2.155   1.784   9.112 -0.1014  0.1966  0.3577
 8934SOL    HW238439   2.106   1.684   9.215 -1.3348  0.3682  0.5489
 8935SOL     OW38440   3.218   2.040  16.250 -0.2809 -0.0749 -0.3860
 8935SOL    HW138441   3.276   1.968  16.225  1.5410  1.7489 -1.4635
 8935SOL    HW238442   3.250   2.076  16.333  0.7525 -0.9928 -0.3900
 8936SOL     OW38443   0.693   2.201   4.886 -0.2809  0.3650  0.1434
 8936SOL    HW138444   0.687   2.157   4.971  0.3597 -1.1051 -0.5624
 8936SOL    HW238445   0.775   2.249   4.892 -1.1865  1.6130  2.5603
 8937SOL     OW38446   3.816   0.478  14.789 -0.3608  0.6178 -0.5175
 8937SOL    HW138447   3.863   0.521  14.860  2.6607 -0.1881 -2.0175
 8937SOL    HW238448   3.881   0.408  14.780  0.0490  0.9832 -0.3817
 8938SOL     OW38449   1.778   0.309  14.241 -0.1421  0.1434  0.3408
 8938SOL    HW138450   1.714   0.354  14.297 -0.9170  1.5461 -1.6646
 8938SOL    HW238451   1.839   0.382  14.244  0.8287 -0.6890  1.0273
 8939SOL     OW38452   1.795   3.647   5.710 -0.8699 -0.4238 -0.0981
 8939SOL    HW138453   1.727   3.694   5.661 -0.3385  1.4689  0.9705
 8939SOL    HW238454   1.742   3.597   5.772  0.8791 -0.5916  1.2643
 8940SOL     OW38455   0.986   3.445   3.222  0.2799  0.0910 -0.4118
 8940SOL    HW138456   1.041   3.367   3.219 -0.2573 -0.2699 -0.8063
 8940SOL    HW238457   1.043   3.483   3.288  0.1738 -1.8324  0.8089
 8941SOL     OW38458   3.660   1.932  13.353  0.0779  0.4397 -0.0687
 8941SOL    HW138459   3.612   1.999  13.400  0.0815  0.2649  0.1831
 8941SOL    HW238460   3.729   1.980  13.306 -0.0983 -1.6260 -2.4656
 8942SOL     OW38461   3.442   0.816  12.345 -0.1205 -0.5120 -0.6632
 8942SOL    HW138462   3.423   0.906  12.319 -1.6982  0.1297  2.7756
 8942SOL    HW238463   3.518   0.829  12.402 -1.0188 -0.5419  0.5305
 8943SOL     OW38464   3.943   1.776   6.560  0.2763  0.2313  0.0474
 8943SOL    HW138465   3.992   1.821   6.629 -1.9622  0.7795  1.2760
 8943SOL    HW238466   3.993   1.695   6.564  0.9199  0.5387 -1.8989
 8944SOL     OW38467   1.721   2.072  16.748 -0.0263  0.6544  0.3569
 8944SOL    HW138468   1.696   2.045  16.837  2.6516 -0.2610  0.8314
 8944SOL    HW238469   1.693   1.994  16.699  0.5645 -0.7028  2.1702
 8945SOL     OW38470   2.907   2.445   7.196 -0.9534 -0.2106  0.3345
 8945SOL    HW138471   2.968   2.438   7.271 -0.2584 -0.2838 -0.2353
 8945SOL    HW238472   2.970   2.443   7.124 -0.1762  1.5111  0.9637
 8946SOL     OW38473   1.155   3.371   4.111  0.2439  0.3859 -0.1005
 8946SOL    HW138474   1.177   3.285   4.146 -1.9044 -1.2967 -2.9566
 8946SOL    HW238475   1.237   3.383   4.063  0.3302 -1.7530 -0.4542
 8947SOL     OW38476   0.179   2.845   5.943 -0.1437 -0.3249 -0.0535
 8947SOL    HW138477   0.145   2.802   6.022  2.5255 -0.2232  1.1470
 8947SOL    HW238478   0.096   2.872   5.902 -1.2506 -2.1800  0.9379
 8948SOL     OW38479   2.377   3.132   8.337  0.3252  0.3157 -0.2747
 8948SOL    HW138480   2.292   3.167   8.309  1.9812  3.2879 -1.5561
 8948SOL    HW238481   2.334   3.074   8.399 -0.0513 -0.3627 -1.1594
 8949SOL     OW38482   3.216   1.353  15.578 -0.1116 -0.0464 -0.3277
 8949SOL    HW138483   3.279   1.389  15.640  0.8221 -0.0762 -1.2529
 8949SOL    HW238484   3.195   1.268  15.616 -1.5800 -0.0278 -1.1183
 8950SOL     OW38485   0.629   2.054   2.471  0.0655  0.8294 -0.2866
 8950SOL    HW138486   0.578   1.974   2.484  0.5045  0.5699 -0.1354
 8950SOL    HW238487   0.596   2.095   2.391 -0.6081  1.1249  0.1402
 8951SOL     OW38488   2.625   2.235  15.820 -0.3091  0.0834 -0.1954
 8951SOL    HW138489   2.677   2.313  15.801 -0.6566  0.8124  1.8152
 8951SOL    HW238490   2.597   2.215  15.731  3.8538 -0.2803 -1.4534
 8952SOL     OW38491   4.630   1.114   7.551 -0.2396  0.0090  0.1424
 8952SOL    HW138492   4.682   1.180   7.506  0.5649  1.2827  2.9053
 8952SOL    HW238493   4.543   1.149   7.534 -0.6576 -1.9210 -1.7479
 8953SOL     OW38494   0.624   0.950  10.122  0.2277 -0.4355 -0.4055
 8953SOL    HW138495   0.714   0.952  10.090  0.4093 -1.0526  0.0817
 8953SOL    HW238496   0.618   0.856  10.138 -1.4697 -0.3558 -0.5567
 8954SOL     OW38497   4.693   0.622   5.478 -0.8152  0.0141 -0.0240
 8954SOL    HW138498   0.024   0.563   5.444 -0.1337  0.3284  0.8023
 8954SOL    HW238499   4.620   0.603   5.419  0.8496  0.6119 -2.2768
 8955SOL     OW38500   1.571   4.507   9.224 -0.4173  0.6491 -0.0446
 8955SOL    HW138501   1.655   4.537   9.190 -0.0653  1.8717  1.8981
 8955SOL    HW238502   1.506   4.565   9.183 -3.2516 -2.1039  0.5923
 8956SOL     OW38503   0.232   2.314   1.858  0.5049 -0.1492 -0.2079
 8956SOL    HW138504   0.165   2.300   1.790 -0.1633 -1.7187  0.7695
 8956SOL    HW238505   0.177   2.321   1.937 -1.5119 -0.4960 -1.5689
 8957SOL     OW38506   4.168   0.237  15.291 -0.6478  0.1330 -0.3993
 8957SOL    HW138507   4.084   0.192  15.289  0.6967 -2.3767 -0.4926
 8957SOL    HW238508   4.147   0.309  15.351 -1.2746 -2.2622  2.2968
 8958SOL     OW38509   2.890   4.736   5.623  0.1313 -0.2505 -0.2027
 8958SOL    HW138510   2.978   0.034   5.616 -0.0522  0.4474  1.0634
 8958SOL    HW238511   2.913   4.651   5.661  1.1559  0.6018  1.0514
 8959SOL     OW38512   4.334   4.578   8.965 -0.1221 -0.8038 -0.4577
 8959SOL    HW138513   4.293   4.654   8.924  1.0251  0.2421  0.3496
 8959SOL    HW238514   4.320   4.510   8.899 -0.5192 -1.6635  0.5130
 8960SOL     OW38515   0.273   0.879   0.184 -0.8952 -0.2525  0.5399
 8960SOL    HW138516   0.191   0.895   0.231 -0.1869  1.9116  1.0665
 8960SOL    HW238517   0.321   0.960   0.201 -1.8792  0.5348 -0.3774
 8961SOL     OW38518   1.919   2.209   1.348  0.3392  0.3267 -0.1832
 8961SOL    HW138519   1.995   2.251   1.309  1.2364 -1.0894  0.0447
 8961SOL    HW238520   1.845   2.257   1.311 -0.0652 -0.7389 -0.7339
 8962SOL     OW38521   3.834   4.303  11.210  0.1725 -0.7131  0.3484
 8962SOL    HW138522   3.868   4.305  11.121 -0.1415 -0.7747  0.2293
 8962SOL    HW238523   3.792   4.218  11.219  3.6261 -2.2481  1.8171
 8963SOL     OW38524   4.185   3.023   6.086  0.3951  0.6568  0.1099
 8963SOL    HW138525   4.172   3.092   6.151  0.4144  1.5701 -0.8571
 8963SOL    HW238526   4.205   2.946   6.140 -3.2672 -0.7346 -0.4945
 8964SOL     OW38527   2.589   2.652  11.030 -0.0381  0.0481 -0.5089
 8964SOL    HW138528   2.631   2.713  10.970  2.2297  0.6545  1.7126
 8964SOL    HW238529   2.568   2.699  11.110  2.5483  0.2318  0.0490
 8965SOL     OW38530   1.025   0.417   2.761 -0.7808  0.3171 -0.0184
 8965SOL    HW138531   0.968   0.390   2.689  0.5154  1.4975 -1.4916
 8965SOL    HW238532   0.990   0.506   2.768 -1.7369  0.1436 -2.4541
 8966SOL     OW38533   0.225   0.979   3.737 -0.0395 -0.1232 -0.2900
 8966SOL    HW138534   0.310   0.998   3.699  0.7410 -2.7965  0.0949
 8966SOL    HW238535   0.164   1.036   3.690 -3.7231 -0.4087  4.1249
 8967SOL     OW38536   0.645   4.525  11.462  0.2284  0.1085  0.4123
 8967SOL    HW138537   0.613   4.440  11.429 -0.1305 -0.3606  1.9439
 8967SOL    HW238538   0.639   4.506  11.556 -0.8935  1.1187  0.5387
 8968SOL     OW38539   1.250   0.989   8.773 -0.0771  0.6365  0.3281
 8968SOL    HW138540   1.306   0.911   8.779 -0.4044  0.3249 -0.6003
 8968SOL    HW238541   1.169   0.956   8.734 -0.7968  2.1957  0.5134
 8969SOL     OW38542   3.350   1.247   8.732 -0.0101  0.8558  0.2507
 8969SOL    HW138543   3.435   1.287   8.714  0.6072 -0.7952 -0.5290
 8969SOL    HW238544   3.356   1.261   8.827 -2.0641  1.5731  0.2802
 8970SOL     OW38545   2.572   4.610   1.867  0.2298  0.5669 -0.0100
 8970SOL    HW138546   2.611   4.690   1.830  0.2491  0.0389 -1.1536
 8970SOL    HW238547   2.576   4.630   1.960  0.0166  0.2107  0.0758
 8971SOL     OW38548   0.945   1.313   0.870  0.3970  0.0514 -0.0506
 8971SOL    HW138549   0.905   1.230   0.898  0.4606 -0.1070 -0.4397
 8971SOL    HW238550   1.006   1.272   0.809 -0.1041  0.9464 -1.1432
 8972SOL     OW38551   3.752   0.450   6.463  0.5877 -0.0746 -0.2850
 8972SOL    HW138552   3.818   0.513   6.492 -0.2642  0.8154 -0.3083
 8972SOL    HW238553   3.804   0.373   6.437  0.0051  0.1513 -2.0537
 8973SOL     OW38554   0.845   1.964   0.765 -0.4370 -0.1237 -0.0779
 8973SOL    HW138555   0.830   2.058   0.752 -0.5199 -0.2297 -0.7542
 8973SOL    HW238556   0.930   1.962   0.810  0.6601  0.1949 -2.1329
 8974SOL     OW38557   1.676   3.848   0.776 -0.1290 -0.0664 -0.5949
 8974SOL    HW138558   1.626   3.775   0.739  0.6893 -1.2858  0.7223
 8974SOL    HW238559   1.611   3.890   0.832  0.0134  1.0598 -1.2777
 8975SOL     OW38560   3.579   2.446   7.767 -0.2064  0.1532  0.2553
 8975SOL    HW138561   3.664   2.408   7.790 -0.0071 -0.9474 -2.4058
 8975SOL    HW238562   3.534   2.369   7.734  1.1899 -0.2642 -0.6684
 8976SOL     OW38563   4.174   0.739   1.880 -0.8564  0.7687 -0.1288
 8976SOL    HW138564   4.174   0.646   1.905  2.3374  0.2603 -2.0432
 8976SOL    HW238565   4.261   0.769   1.903 -1.1384  2.2096 -0.9561
 8977SOL     OW38566   3.963   2.802   2.992 -0.3093  0.2121  1.0926
 8977SOL    HW138567   3.959   2.716   2.950 -1.8959  1.2756 -0.9242
 8977SOL    HW238568   3.869   2.820   2.993 -0.5698 -1.2001  1.6745
 8978SOL     OW38569   4.429   0.008   8.631 -0.8607 -0.0061 -0.5568
 8978SOL    HW138570   4.469   4.673   8.582 -2.8027 -2.3253  1.2440
 8978SOL    HW238571   4.342   4.711   8.654 -1.2019  0.5466 -1.0246
 8979SOL     OW38572   2.201   2.413   6.367  0.3552  0.3052  0.2769
 8979SOL    HW138573   2.225   2.496   6.326 -1.9667  2.4373  3.1822
 8979SOL    HW238574   2.143   2.380   6.299  2.6599 -1.7596 -0.7018
 8980SOL     OW38575   2.039   0.449   7.719  0.4330  0.3014 -0.4088
 8980SOL    HW138576   1.958   0.410   7.753 -0.2529  2.7148  0.6831
 8980SOL    HW238577   2.012   0.537   7.694 -1.1482 -0.3097 -0.8989
 8981SOL     OW38578   3.626   2.003   4.360  0.3439 -0.3011  0.1662
 8981SOL    HW138579   3.649   2.043   4.443 -2.6002  0.5031  0.5990
 8981SOL    HW238580   3.710   2.012   4.314 -1.1118 -0.5073 -2.5196
 8982SOL     OW38581   2.340   0.434   5.230  0.2605  0.0885 -0.8292
 8982SOL    HW138582   2.266   0.378   5.207 -0.4696 -0.0763  1.9250
 8982SOL    HW238583   2.379   0.439   5.142 -0.8216  0.5730 -1.2877
 8983SOL     OW38584   0.110   1.516   8.382 -0.2516 -0.4820 -0.1022
 8983SOL    HW138585   0.127   1.610   8.390 -2.9869 -0.0575  0.7921
 8983SOL    HW238586   0.123   1.491   8.291  1.2825 -0.4059  0.0942
 8984SOL     OW38587   3.659   0.887   3.204 -0.1818 -0.1975 -0.0437
 8984SOL    HW138588   3.602   0.927   3.139 -3.3548 -2.7720  1.1389
 8984SOL    HW238589   3.747   0.915   3.179 -1.3301  1.8916 -1.7610
 8985SOL     OW38590   2.588   4.328   4.616 -0.0553  0.2167 -0.0980
 8985SOL    HW138591   2.507   4.320   4.565 -0.1786  2.5708 -0.2864
 8985SOL    HW238592   2.647   4.314   4.542  2.2107  1.2630  1.5494
 8986SOL     OW38593   0.728   2.902   3.372  0.7779 -0.0373 -0.5281
 8986SOL    HW138594   0.659   2.848   3.334  0.8131 -0.3335 -0.1764
 8986SOL    HW238595   0.736   2.864   3.460 -3.4276 -1.1300 -0.5879
 8987SOL     OW38596   4.375   3.531   3.297  0.1061 -0.1391 -0.3142
 8987SOL    HW138597   4.326   3.552   3.218 -0.6044 -2.8292 -0.5813
 8987SOL    HW238598   4.320   3.557   3.371 -0.8630  0.3358 -1.2062
 8988SOL     OW38599   1.806   2.242   3.415  0.3640 -0.2562 -0.4771
 8988SOL    HW138600   1.759   2.209   3.491 -1.1979  1.4873 -0.6798
 8988SOL    HW238601   1.876   2.177   3.408  1.5843  1.1176 -1.4020
 8989SOL     OW38602   2.584   3.143   5.722 -0.7126  0.5793  0.5429
 8989SOL    HW138603   2.654   3.082   5.698 -0.9145  0.0497  1.2986
 8989SOL    HW238604   2.612   3.183   5.805  3.1652  0.7604 -0.8105
 8990SOL     OW38605   1.538   4.700   2.559 -0.6111 -0.2201 -0.4084
 8990SOL    HW138606   1.446   4.678   2.572 -1.0956  1.2854 -1.3430
 8990SOL    HW238607   1.554   4.633   2.493 -1.0042 -0.2502 -0.4712
 8991SOL     OW38608   0.017   0.200   3.966  0.2291 -0.2500  0.2824
 8991SOL    HW138609   4.714   0.273   4.014 -0.0551  1.1452 -2.0681
 8991SOL    HW238610   0.076   0.157   4.028 -1.7281 -0.0408  2.2956
 8992SOL     OW38611   1.180   0.182   1.694  0.6305 -0.6373 -0.0392
 8992SOL    HW138612   1.113   0.121   1.665 -1.1798  1.0737  0.5139
 8992SOL    HW238613   1.183   0.243   1.620  1.8259 -0.6655 -0.0103
 8993SOL     OW38614   1.335   1.546   5.586 -0.0554 -0.2059  0.6504
 8993SOL    HW138615   1.307   1.629   5.625 -1.2881 -1.0670  1.6059
 8993SOL    HW238616   1.421   1.571   5.551  0.2176 -0.9345  0.8073
 8994SOL     OW38617   3.478   1.997  14.974 -0.9281 -0.0558 -0.1018
 8994SOL    HW138618   3.525   1.921  14.937  0.6631  1.2725 -0.8337
 8994SOL    HW238619   3.465   1.955  15.059  0.3510  1.6044  0.9049
 8995SOL     OW38620   1.589   2.979   0.430 -0.2612  0.3758  0.3372
 8995SOL    HW138621   1.679   3.006   0.412 -0.4562  0.3178 -0.7213
 8995SOL    HW238622   1.576   2.914   0.361  0.3325  0.0050  0.5737
 8996SOL     OW38623   3.559   3.490   3.995  0.2177  0.7273 -0.2730
 8996SOL    HW138624   3.470   3.515   4.018  0.3065 -0.4270  1.2957
 8996SOL    HW238625   3.550   3.414   3.938 -2.8697  2.3243 -1.9519
 8997SOL     OW38626   4.517   3.214   3.543  0.0592  0.6192  0.5286
 8997SOL    HW138627   4.433   3.256   3.523 -0.3448  0.5064  2.0185
 8997SOL    HW238628   4.579   3.285   3.526  0.6739  0.1509  0.8424
 8998SOL     OW38629   1.904   4.390   3.620 -0.3368  0.0583  0.0868
 8998SOL    HW138630   1.816   4.372   3.651 -0.2141  0.1742  0.4933
 8998SOL    HW238631   1.920   4.307   3.575 -2.6171 -0.2461 -0.1345
 8999SOL     OW38632   3.478   2.817   3.713  0.4305  0.4129  0.0478
 8999SOL    HW138633   3.458   2.899   3.759 -1.0563  0.3526 -0.4757
 8999SOL    HW238634   3.416   2.818   3.640 -0.2628  0.5374  0.6405
 9000SOL     OW38635   0.437   0.289   7.014 -0.2313 -0.4915  0.3434
 9000SOL    HW138636   0.454   0.262   7.105  2.1595  1.3131  0.4444
 9000SOL    HW238637   0.472   0.377   7.000  2.4807 -1.2166  2.6644
 9001SOL     OW38638   0.075   2.437   3.988 -0.4407 -0.2016 -0.4650
 9001SOL    HW138639   0.167   2.461   4.002 -0.6017  1.3644 -2.0402
 9001SOL    HW238640   0.062   2.459   3.896  2.6675 -0.8409 -1.0776
 9002SOL     OW38641   1.345   2.296   3.560  0.3790  0.4054  0.3713
 9002SOL    HW138642   1.439   2.305   3.573  0.4215 -1.2212  1.2315
 9002SOL    HW238643   1.323   2.364   3.496 -0.2843 -1.6044 -1.5612
 9003SOL     OW38644   2.306   0.706  14.267  0.0058  0.2282 -0.2175
 9003SOL    HW138645   2.348   0.732  14.348 -0.0924  0.4392 -0.2341
 9003SOL    HW238646   2.383   0.720  14.212 -0.7193 -2.8716 -2.0850
 9004SOL     OW38647   0.060   1.331   6.218 -0.2776 -0.2964 -0.1095
 9004SOL    HW138648   0.048   1.425   6.235 -0.7571 -0.1824 -1.0769
 9004SOL    HW238649   0.099   1.325   6.131 -0.3838 -1.6977 -0.0587
 9005SOL     OW38650   4.276   3.826   2.483 -0.4598 -0.2598 -0.3653
 9005SOL    HW138651   4.194   3.811   2.529 -0.0972  0.3426  0.4571
 9005SOL    HW238652   4.343   3.785   2.538 -0.6558 -0.7911 -0.5139
 9006SOL     OW38653   0.720   0.430   1.821  0.3424  0.7625 -0.1820
 9006SOL    HW138654   0.784   0.446   1.890  0.7837 -1.8373  0.0036
 9006SOL    HW238655   0.689   0.519   1.803  1.7353  1.3962  0.5702
 9007SOL     OW38656   1.003   1.342  13.173  0.0961 -0.1410 -0.6641
 9007SOL    HW138657   0.953   1.274  13.127 -0.8084  1.5578 -2.1731
 9007SOL    HW238658   1.057   1.299  13.240 -1.0667 -2.2072 -1.0248
 9008SOL     OW38659   0.891   3.942   6.283  0.4973  0.9920  0.3690
 9008SOL    HW138660   0.909   3.999   6.357  1.6246  0.0562  0.8153
 9008SOL    HW238661   0.799   3.965   6.267  0.4886  0.8402  0.1974
 9009SOL     OW38662   0.026   0.480   9.154  1.1333 -0.6397  0.3163
 9009SOL    HW138663   4.718   0.406   9.194  1.1233 -0.7272  0.1406
 9009SOL    HW238664   4.712   0.549   9.197  1.3371 -1.2513  1.5372
 9010SOL     OW38665   2.043   0.892   5.531 -0.3047  0.1106  0.1621
 9010SOL    HW138666   2.067   0.815   5.479 -1.1498 -1.3556  1.8976
 9010SOL    HW238667   1.947   0.895   5.527 -0.2907 -2.8844 -2.1842
 9011SOL     OW38668   0.792   4.432   8.894  0.5719 -0.2541 -0.1761
 9011SOL    HW138669   0.713   4.485   8.887 -0.3962 -1.7174 -0.2791
 9011SOL    HW238670   0.857   4.481   8.844  1.5576  0.1668  1.5095
 9012SOL     OW38671   0.067   4.290   8.722 -0.2448  0.5316 -0.5904
 9012SOL    HW138672   0.090   4.265   8.633  0.4729 -1.6451  0.1983
 9012SOL    HW238673   0.151   4.325   8.753  0.0082 -0.5272 -0.0789
 9013SOL     OW38674   1.576   0.227  14.054  0.2112 -0.3680 -0.7660
 9013SOL    HW138675   1.645   0.244  14.119 -0.8881 -1.7958  0.7611
 9013SOL    HW238676   1.543   0.138  14.065 -1.6473  0.5784  1.0694
 9014SOL     OW38677   2.353   4.350   5.875  0.1588  0.0285  0.4316
 9014SOL    HW138678   2.372   4.395   5.957 -1.2538 -0.2782  0.9280
 9014SOL    HW238679   2.331   4.427   5.822 -0.5783  1.5265  2.9076
 9015SOL     OW38680   3.672   1.792  13.593 -0.3571 -0.2178  0.1939
 9015SOL    HW138681   3.766   1.787  13.612 -0.5224 -1.5123  0.6415
 9015SOL    HW238682   3.675   1.800  13.498  3.8693 -0.1918  0.3288
 9016SOL     OW38683   0.033   3.947   1.601  0.6194 -0.2603  0.0228
 9016SOL    HW138684   4.687   3.943   1.650  0.0377 -3.6163 -1.2641
 9016SOL    HW238685   0.018   4.029   1.553 -2.3684  0.7920  2.6849
 9017SOL     OW38686   3.331   0.186   9.977 -0.0653  0.5328  0.2346
 9017SOL    HW138687   3.252   0.172  10.030 -0.6404  2.1587 -0.2093
 9017SOL    HW238688   3.358   0.096   9.956  1.0856  1.1067 -0.7153
 9018SOL     OW38689   0.180   1.605  13.344  0.0625 -0.5166  0.2820
 9018SOL    HW138690   0.130   1.632  13.267 -1.2739 -0.1314  1.2834
 9018SOL    HW238691   0.153   1.670  13.408  0.1613 -0.6920  0.5033
 9019SOL     OW38692   2.606   1.354   8.157  0.3968  0.0645 -0.1697
 9019SOL    HW138693   2.618   1.303   8.076  1.5899  0.1720 -0.0626
 9019SOL    HW238694   2.518   1.381   8.132  0.1878 -2.4191 -2.1091
 9020SOL     OW38695   1.227   4.379   3.159 -0.1075  0.3595 -0.4342
 9020SOL    HW138696   1.208   4.457   3.108  3.4440  0.2380 -1.9555
 9020SOL    HW238697   1.211   4.312   3.093 -0.5035  0.4058 -0.3858
 9021SOL     OW38698   1.366   4.571   1.962  0.0821  0.0282  0.5261
 9021SOL    HW138699   1.292   4.544   2.016 -0.9532  1.2875 -0.2521
 9021SOL    HW238700   1.335   4.661   1.948 -1.6180 -0.7838 -1.0127
 9022SOL     OW38701   2.931   0.661  17.669 -0.1140 -0.0257  0.1854
 9022SOL    HW138702   2.898   0.740  17.626 -0.7743 -0.7069 -0.5522
 9022SOL    HW238703   2.847   0.632  17.706  1.1199 -1.1084  2.1256
 9023SOL     OW38704   0.889   1.446   2.911 -0.2618 -0.3924 -0.1508
 9023SOL    HW138705   0.964   1.495   2.877 -1.7113  0.3196 -2.3048
 9023SOL    HW238706   0.824   1.516   2.917  0.9571  1.0700 -3.9415
 9024SOL     OW38707   0.991   0.984   5.485  0.1985 -0.0191 -0.1299
 9024SOL    HW138708   1.077   1.025   5.487  0.2554 -0.0280 -2.7609
 9024SOL    HW238709   0.946   1.050   5.432 -2.0028 -0.9879  0.5078
 9025SOL     OW38710   2.426   2.261   5.474 -0.5124  0.6503 -0.0134
 9025SOL    HW138711   2.421   2.276   5.380  0.1439  1.8186  0.1418
 9025SOL    HW238712   2.387   2.339   5.513 -0.6773 -0.5293  2.2078
 9026SOL     OW38713   1.186   3.910  15.623  0.2192 -0.6095  0.0844
 9026SOL    HW138714   1.184   3.916  15.527 -0.5929  3.2163  0.3449
 9026SOL    HW238715   1.169   4.000  15.649  2.2060 -0.1091 -0.3956
 9027SOL     OW38716   2.255   0.827   3.895 -1.1445  0.0228 -0.4197
 9027SOL    HW138717   2.233   0.839   3.803 -0.3536  2.2324 -0.3034
 9027SOL    HW238718   2.212   0.903   3.933  0.5445  0.5791  0.3835
 9028SOL     OW38719   0.558   0.259   5.644  0.2141  0.0960 -0.0607
 9028SOL    HW138720   0.579   0.268   5.737 -1.1043  1.5108  0.0921
 9028SOL    HW238721   0.541   0.166   5.629  0.6796  0.0874 -0.5215
 9029SOL     OW38722   2.198   4.543  15.932  0.4809  0.4220  0.2355
 9029SOL    HW138723   2.288   4.510  15.938 -0.1164 -1.2946 -0.1899
 9029SOL    HW238724   2.153   4.483  15.873  1.2388  0.6877 -0.5989
 9030SOL     OW38725   1.957   2.026  14.836 -0.2853 -0.3454  0.2301
 9030SOL    HW138726   2.024   2.017  14.904  1.1896 -0.0391 -1.1909
 9030SOL    HW238727   1.873   2.017  14.882 -0.5005 -1.2446 -0.3406
 9031SOL     OW38728   0.152   3.094  14.973 -0.3580 -0.1108 -0.2317
 9031SOL    HW138729   0.082   3.061  15.030 -1.2966  0.3247 -1.1411
 9031SOL    HW238730   0.189   3.164  15.026  0.7627 -0.7871 -0.1281
 9032SOL     OW38731   2.666   4.208   3.796  0.5801 -1.0725 -0.0940
 9032SOL    HW138732   2.753   4.205   3.837 -0.3337 -2.9451  1.7073
 9032SOL    HW238733   2.646   4.117   3.778 -2.9413 -0.7283  2.1409
 9033SOL     OW38734   3.774   0.573   0.473  0.2827  0.1478 -0.1086
 9033SOL    HW138735   3.864   0.600   0.490 -0.2710  1.8182  0.1630
 9033SOL    HW238736   3.750   0.629   0.398 -1.6496 -1.3642 -0.6318
 9034SOL     OW38737   1.134   0.971  10.430  0.3856  0.9191 -0.1641
 9034SOL    HW138738   1.128   1.064  10.408 -3.5225  0.7533  0.2605
 9034SOL    HW238739   1.050   0.937  10.400  0.0578  0.9141  0.7669
 9035SOL     OW38740   3.052   1.114  14.348 -0.1366 -0.2701  0.2366
 9035SOL    HW138741   3.128   1.095  14.293 -0.8514  1.2938 -1.3023
 9035SOL    HW238742   3.007   1.186  14.304  2.3771  1.1742  0.0563
 9036SOL     OW38743   2.801   0.187  11.774  0.0028  0.3302 -0.2531
 9036SOL    HW138744   2.736   0.225  11.833  0.6021  1.3493 -0.2576
 9036SOL    HW238745   2.872   0.249  11.789 -0.8774  1.1117  0.6777
 9037SOL     OW38746   1.346   0.390  16.668 -0.1268  0.0885  0.1215
 9037SOL    HW138747   1.263   0.344  16.655 -0.2191  0.0490  0.8569
 9037SOL    HW238748   1.340   0.478  16.633 -0.0173  0.2936  0.6167
 9038SOL     OW38749   4.461   1.180   5.560  0.2447 -0.0333 -0.4400
 9038SOL    HW138750   4.430   1.098   5.598 -1.1361  0.7382  0.1209
 9038SOL    HW238751   4.382   1.234   5.572 -0.7627 -1.7814  0.7721
 9039SOL     OW38752   4.659   0.091   7.710 -0.1601 -0.2301  1.0724
 9039SOL    HW138753   4.660   0.174   7.757 -0.5235 -0.9433  2.3625
 9039SOL    HW238754   0.012   0.062   7.730  0.2316  0.9549  0.9996
 9040SOL     OW38755   3.904   2.579  11.491 -0.0067 -0.0992  0.2827
 9040SOL    HW138756   3.984   2.615  11.453  0.5174  0.3067  1.7556
 9040SOL    HW238757   3.925   2.582  11.585 -2.6434 -1.0248  0.9078
 9041SOL     OW38758   3.323   1.628  14.071  0.4198  0.0886  0.2671
 9041SOL    HW138759   3.257   1.560  14.079  0.7308 -0.5986 -2.9337
 9041SOL    HW238760   3.312   1.685  14.146  3.6330 -1.5915  2.0180
 9042SOL     OW38761   3.264   1.210  14.791  0.0518 -0.1892 -0.1064
 9042SOL    HW138762   3.328   1.274  14.761  1.0395 -0.2761  1.8484
 9042SOL    HW238763   3.288   1.204  14.883  0.3515  0.1419 -0.1624
 9043SOL     OW38764   1.077   0.658   8.936  0.1577 -0.5120 -0.0850
 9043SOL    HW138765   1.050   0.583   8.883 -1.7323 -0.7805  1.2522
 9043SOL    HW238766   1.008   0.719   8.909  0.1950  0.1271  1.2737
 9044SOL     OW38767   1.351   2.178   8.895 -0.3246  0.2553 -0.8328
 9044SOL    HW138768   1.401   2.224   8.828 -1.2163 -0.0898 -1.7290
 9044SOL    HW238769   1.401   2.197   8.974 -1.2984  0.0418 -0.1576
 9045SOL     OW38770   1.180   3.407   2.277 -0.0541  0.3997  0.1641
 9045SOL    HW138771   1.239   3.440   2.209  0.0356 -0.5291 -0.2121
 9045SOL    HW238772   1.106   3.378   2.224 -0.4117  0.4649  0.6303
 9046SOL     OW38773   1.517   1.550   3.921 -0.0189 -0.0279 -0.5401
 9046SOL    HW138774   1.508   1.640   3.953 -2.6014 -0.5355  0.1728
 9046SOL    HW238775   1.608   1.549   3.890  0.0378 -0.5260 -0.3466
 9047SOL     OW38776   0.423   2.680   7.915  0.2978  0.0098 -0.7683
 9047SOL    HW138777   0.473   2.620   7.861  1.0866 -0.1127  0.1091
 9047SOL    HW238778   0.487   2.709   7.980  0.4253 -0.5934 -0.6249
 9048SOL     OW38779   1.365   4.276   6.659  0.0343  0.6252 -0.1126
 9048SOL    HW138780   1.346   4.340   6.727 -0.9330  0.5993 -0.3579
 9048SOL    HW238781   1.290   4.275   6.599 -0.4741 -3.1066  0.5984
 9049SOL     OW38782   4.605   2.922   8.150 -0.3029 -0.0991 -0.0721
 9049SOL    HW138783   4.568   2.924   8.238 -0.3594  0.9116 -0.1197
 9049SOL    HW238784   4.531   2.874   8.112  0.9451  0.1519 -2.8306
 9050SOL     OW38785   2.157   4.451   1.644 -0.3290  0.1678  0.0384
 9050SOL    HW138786   2.106   4.531   1.656  4.0738  2.7689  1.4342
 9050SOL    HW238787   2.146   4.405   1.727  1.8456  0.6734  0.6116
 9051SOL     OW38788   3.565   3.275   9.639 -0.4108  0.3669  0.2660
 9051SOL    HW138789   3.503   3.251   9.707  0.7120 -0.0497  1.1360
 9051SOL    HW238790   3.640   3.308   9.688 -0.3495  0.3680  0.1720
 9052SOL     OW38791   4.084   3.264   6.573 -0.4012  0.1416  0.7085
 9052SOL    HW138792   4.018   3.299   6.634 -0.3642  0.8930  0.3171
 9052SOL    HW238793   4.164   3.303   6.607  1.0978 -2.0882 -0.2579
 9053SOL     OW38794   1.441   0.540  10.268  0.4264  0.1808  0.0961
 9053SOL    HW138795   1.418   0.623  10.227  0.7385  0.1900 -0.0597
 9053SOL    HW238796   1.479   0.568  10.351 -1.8413  3.4443  0.0492
 9054SOL     OW38797   1.809   3.359   7.769  0.6035  0.4357 -0.0387
 9054SOL    HW138798   1.831   3.279   7.817  1.1864  0.6062 -0.0226
 9054SOL    HW238799   1.798   3.314   7.685 -0.0381 -0.0373  0.2914
 9055SOL     OW38800   3.350   2.194  17.600 -0.5330 -0.8449  0.0951
 9055SOL    HW138801   3.396   2.266  17.644  1.3419 -1.6015 -0.6390
 9055SOL    HW238802   3.289   2.166  17.668 -1.7029  0.1051 -0.5659
 9056SOL     OW38803   1.305   1.836   9.414  0.1804 -0.0723  0.0291
 9056SOL    HW138804   1.284   1.929   9.426 -0.9492 -0.0690 -2.0088
 9056SOL    HW238805   1.243   1.815   9.345 -0.3741 -1.9289  1.0970
 9057SOL     OW38806   0.618   3.525   8.991  0.4346 -0.7624 -0.0148
 9057SOL    HW138807   0.682   3.511   9.061  0.1943  0.2915  0.4092
 9057SOL    HW238808   0.667   3.488   8.917  0.1982 -0.0785 -0.5201
 9058SOL     OW38809   2.901   0.734   7.894  0.4137  0.5746 -0.2931
 9058SOL    HW138810   2.993   0.712   7.876  1.3614  2.5600  2.2209
 9058SOL    HW238811   2.858   0.679   7.828  1.1361 -1.3515  0.8414
 9059SOL     OW38812   0.588   2.681   3.711 -0.0455  0.4342 -0.0036
 9059SOL    HW138813   0.622   2.629   3.638 -1.7972 -0.8493  0.1006
 9059SOL    HW238814   0.609   2.768   3.675  0.2746 -0.5960 -2.3409
 9060SOL     OW38815   1.399   3.838   5.109 -0.5701  0.7535 -0.1267
 9060SOL    HW138816   1.322   3.895   5.096 -0.6287  0.6456 -0.2565
 9060SOL    HW238817   1.452   3.858   5.032 -1.4047  1.6185 -0.4766
 9061SOL     OW38818   2.478   4.245   3.191  0.6047  0.4116  0.5424
 9061SOL    HW138819   2.467   4.307   3.118  0.2302 -0.0192  0.2321
 9061SOL    HW238820   2.461   4.159   3.152 -3.0459  2.2558 -2.0015
 9062SOL     OW38821   1.230   1.335   7.351  0.8874 -0.2148 -0.4701
 9062SOL    HW138822   1.172   1.330   7.427  2.7466  0.1517  0.9881
 9062SOL    HW238823   1.177   1.288   7.287 -0.8156 -1.6875  2.0281
 9063SOL     OW38824   0.456   0.264   8.835 -0.1761  0.4735  0.0884
 9063SOL    HW138825   0.550   0.252   8.820  0.0192  0.6604  1.1387
 9063SOL    HW238826   0.444   0.327   8.906 -1.7449 -0.1025  0.3383
 9064SOL     OW38827   0.963   0.243  11.058  0.7345 -0.4168  0.2404
 9064SOL    HW138828   0.996   0.153  11.050 -1.0087 -1.0018 -0.3034
 9064SOL    HW238829   0.961   0.239  11.154 -1.3692 -0.8626  0.1729
 9065SOL     OW38830   1.149   3.046   3.418 -0.6389  0.0233 -0.2237
 9065SOL    HW138831   1.091   3.051   3.494  0.9889  0.7568  0.9717
 9065SOL    HW238832   1.164   2.953   3.428  1.5666  0.6265  1.8976
 9066SOL     OW38833   3.902   0.220   7.439 -0.5314  0.0953  0.0987
 9066SOL    HW138834   3.976   0.204   7.380 -0.0024  0.7621  0.5702
 9066SOL    HW238835   3.943   0.293   7.487 -1.8611 -0.7423  2.5437
 9067SOL     OW38836   3.697   2.519   5.176  0.1269  0.4531 -0.5013
 9067SOL    HW138837   3.619   2.498   5.124  0.7008 -0.6867 -0.9077
 9067SOL    HW238838   3.767   2.514   5.111  1.6175  2.0760  0.9924
 9068SOL     OW38839   0.725   0.205   1.647 -0.0680 -0.1796 -0.0010
 9068SOL    HW138840   0.731   0.292   1.685  1.4588 -0.8091  1.2122
 9068SOL    HW238841   0.650   0.206   1.588  0.5779 -0.3591 -0.8190
 9069SOL     OW38842   3.005   0.904   8.777  0.4355 -0.0408 -0.1598
 9069SOL    HW138843   2.940   0.974   8.777  1.6997  1.1344  0.7812
 9069SOL    HW238844   3.029   0.884   8.868 -1.0214  0.3014  0.2974
 9070SOL     OW38845   2.186   2.055   5.892  0.1252 -0.5798  0.1815
 9070SOL    HW138846   2.181   2.138   5.844  0.6840 -0.7007 -0.0762
 9070SOL    HW238847   2.105   2.055   5.944  0.0748 -0.5974  0.1033
 9071SOL     OW38848   4.030   1.428  10.175 -0.1582 -0.3680 -0.6190
 9071SOL    HW138849   4.118   1.460  10.197 -0.6832  0.3809  0.3904
 9071SOL    HW238850   3.977   1.494  10.219  0.7935 -0.1023  0.1416
 9072SOL     OW38851   0.216   3.606   7.468 -0.1713 -1.0468 -0.1253
 9072SOL    HW138852   0.234   3.570   7.555  0.7285 -0.2141  0.0497
 9072SOL    HW238853   0.125   3.581   7.455  0.4834 -1.2184 -4.3680
 9073SOL     OW38854   0.015   2.041   4.063 -0.6529  0.5984  0.0874
 9073SOL    HW138855   0.014   2.133   4.090  1.6245  1.3037 -2.1933
 9073SOL    HW238856   4.684   2.051   3.995 -0.9435 -1.2168  0.1222
 9074SOL     OW38857   0.906   2.227   7.941  0.5637 -0.1860 -0.5202
 9074SOL    HW138858   0.976   2.164   7.957 -2.4386 -3.1324  0.8475
 9074SOL    HW238859   0.907   2.284   8.018  0.1759 -2.2233  0.9926
 9075SOL     OW38860   4.420   2.903   7.348 -0.2263 -0.1483  0.4862
 9075SOL    HW138861   4.361   2.923   7.420  0.0653 -0.9865  0.9542
 9075SOL    HW238862   4.462   2.985   7.320  3.5036 -2.5892 -1.1539
 9076SOL     OW38863   0.548   3.972   4.098  0.5967 -0.3160  0.4599
 9076SOL    HW138864   0.628   3.941   4.056 -0.2632 -0.4762 -1.0839
 9076SOL    HW238865   0.550   3.932   4.185  0.5502 -1.9777 -0.3056
 9077SOL     OW38866   2.697   0.977   1.574  0.1068  0.4991 -0.1334
 9077SOL    HW138867   2.729   0.906   1.630  0.9427  2.1760  1.5508
 9077SOL    HW238868   2.748   1.046   1.618  0.9850  1.3934 -2.5807
 9078SOL     OW38869   1.573   3.838   5.413  0.4071 -0.1559  0.4031
 9078SOL    HW138870   1.555   3.865   5.504 -1.5808  3.2372 -0.9956
 9078SOL    HW238871   1.655   3.880   5.389  0.9040 -1.9374 -0.9669
 9079SOL     OW38872   0.304   0.816  16.391  0.0658  0.0930  0.0171
 9079SOL    HW138873   0.350   0.899  16.406  2.4379 -1.2406  0.1929
 9079SOL    HW238874   0.372   0.755  16.363  1.8516 -0.2047  5.1306
 9080SOL     OW38875   3.638   0.331  12.562  0.1040 -0.0982 -0.3236
 9080SOL    HW138876   3.605   0.412  12.600 -0.9497  0.2112 -1.8992
 9080SOL    HW238877   3.722   0.330  12.608  1.7405 -0.1755 -3.2983
 9081SOL     OW38878   1.124   0.227   3.921  0.0830  0.0637  0.0417
 9081SOL    HW138879   1.201   0.269   3.883 -0.4259 -0.0924 -1.1733
 9081SOL    HW238880   1.136   0.248   4.013 -0.8552  1.7494 -0.2276
 9082SOL     OW38881   2.829   2.585   9.731  0.0917 -0.6909 -0.3078
 9082SOL    HW138882   2.792   2.667   9.763  0.3506 -0.4409 -0.6448
 9082SOL    HW238883   2.854   2.613   9.643  1.3619  1.1401  0.6359
 9083SOL     OW38884   1.248   4.018   3.839 -0.1202 -0.2624  0.2089
 9083SOL    HW138885   1.229   4.027   3.746  0.5438  2.9106  0.3631
 9083SOL    HW238886   1.170   3.965   3.856 -1.1925  1.5601  1.0363
 9084SOL     OW38887   0.516   3.723   7.430  0.1544  0.4637 -0.1028
 9084SOL    HW138888   0.426   3.715   7.462 -0.1554  2.6027 -0.4050
 9084SOL    HW238889   0.529   3.643   7.379  2.3911  1.2728 -0.7680
 9085SOL     OW38890   2.773   4.335   2.201 -0.2024 -0.1215  0.2400
 9085SOL    HW138891   2.693   4.367   2.244 -1.8516 -1.9137 -1.4901
 9085SOL    HW238892   2.815   4.295   2.278  0.8830  0.2884 -0.1494
 9086SOL     OW38893   1.793   0.288   8.701  0.2329 -0.3776  0.0318
 9086SOL    HW138894   1.865   0.228   8.719 -1.0306 -2.3507 -1.5064
 9086SOL    HW238895   1.715   0.235   8.696  0.1051 -0.1517 -0.3915
 9087SOL     OW38896   3.365   4.399   4.457 -0.1344 -0.0734 -0.1004
 9087SOL    HW138897   3.369   4.405   4.361 -2.2685  1.1998 -0.1119
 9087SOL    HW238898   3.439   4.340   4.473  2.2874  3.1210  0.3205
 9088SOL     OW38899   3.344   3.193   6.978 -0.0756  0.2821  0.2720
 9088SOL    HW138900   3.335   3.242   7.060  3.0615  1.6639 -0.2030
 9088SOL    HW238901   3.410   3.250   6.939 -0.4311  0.6903  0.2745
 9089SOL     OW38902   4.346   0.147   4.014  0.3700  0.0213  0.3547
 9089SOL    HW138903   4.387   0.213   4.071  0.0079 -0.7438  1.4939
 9089SOL    HW238904   4.418   0.084   4.016  0.1077 -0.2893 -0.0240
 9090SOL     OW38905   1.174   1.529   6.688 -0.5382 -0.1808 -0.3131
 9090SOL    HW138906   1.171   1.572   6.774  1.3630  0.2165 -0.4316
 9090SOL    HW238907   1.240   1.571   6.632  2.3738 -0.0464  3.1777
 9091SOL     OW38908   1.673   3.087   6.471  0.0635  0.8504  0.5200
 9091SOL    HW138909   1.640   3.095   6.561  0.4415 -3.1812  1.0190
 9091SOL    HW238910   1.713   3.000   6.477  0.2343  0.9262  0.4778
 9092SOL     OW38911   4.727   3.741   6.148 -0.0139 -0.2269  0.5626
 9092SOL    HW138912   0.050   3.676   6.185  0.7642 -0.7413 -1.5973
 9092SOL    HW238913   0.038   3.779   6.074  0.0585  1.4985  1.4921
 9093SOL     OW38914   3.351   4.290   3.661  0.1930 -0.4146 -0.0077
 9093SOL    HW138915   3.287   4.317   3.727  1.3266 -0.2103  0.9951
 9093SOL    HW238916   3.354   4.196   3.677 -2.0677 -0.4946 -0.0302
 9094SOL     OW38917   2.937   3.233  12.386 -0.0583 -0.0434  0.2329
 9094SOL    HW138918   2.932   3.307  12.447 -1.1596  0.8384 -0.9237
 9094SOL    HW238919   2.967   3.157  12.435 -2.3875 -1.8539 -1.1680
 9095SOL     OW38920   3.353   0.591   8.232  0.1217 -0.2361 -1.2173
 9095SOL    HW138921   3.401   0.520   8.191  0.2361 -0.5786 -0.4897
 9095SOL    HW238922   3.411   0.667   8.226 -0.0884 -0.0477 -0.8818
 9096SOL     OW38923   1.426   3.017   3.625  0.3002  0.5462 -0.0432
 9096SOL    HW138924   1.403   2.985   3.538  2.1426  0.8981 -0.6680
 9096SOL    HW238925   1.380   3.100   3.617 -2.2986 -0.5981  2.9532
 9097SOL     OW38926   4.127   1.998   3.379  0.4301  0.0115  0.4014
 9097SOL    HW138927   4.175   2.079   3.397 -1.7825  1.4888 -0.4416
 9097SOL    HW238928   4.060   2.003   3.447  1.9129  3.3436  1.5953
 9098SOL     OW38929   0.842   0.778   0.904 -0.6585 -0.3829  0.2831
 9098SOL    HW138930   0.865   0.688   0.927  2.8432  0.7804  1.3563
 9098SOL    HW238931   0.757   0.770   0.861 -0.6975  2.0659 -0.0857
 9099SOL     OW38932   2.594   2.450  10.859  0.1170 -0.2586 -0.2414
 9099SOL    HW138933   2.687   2.426  10.858  0.1628 -0.1995  1.7676
 9099SOL    HW238934   2.596   2.522  10.922 -0.6024  0.0876 -0.6194
 9100SOL     OW38935   2.858   1.395  17.717  0.3795  0.2504  0.0608
 9100SOL    HW138936   2.857   1.300  17.706 -3.5002  0.3727 -0.6893
 9100SOL    HW238937   2.874   1.425  17.627 -1.1933  1.6975  0.2643
 9101SOL     OW38938   1.628   0.766   1.880 -0.3643 -0.5165 -0.4754
 9101SOL    HW138939   1.719   0.756   1.850 -0.4043  2.0617 -1.4981
 9101SOL    HW238940   1.614   0.861   1.872  0.4628 -0.2366  1.5447
 9102SOL     OW38941   1.683   2.000   6.456 -0.1176 -0.4697  0.2076
 9102SOL    HW138942   1.745   2.012   6.528  0.8162  0.7051 -0.7905
 9102SOL    HW238943   1.641   1.918   6.480 -2.3130 -0.0196 -2.1611
 9103SOL     OW38944   1.430   1.825   3.918  0.0432  0.1693  0.0109
 9103SOL    HW138945   1.354   1.802   3.864 -0.0313 -2.7570  1.3674
 9103SOL    HW238946   1.391   1.872   3.992  0.8829 -0.9530  1.1355
 9104SOL     OW38947   3.906   3.595   4.404 -0.0906  0.2997  0.6197
 9104SOL    HW138948   3.860   3.678   4.410 -1.7436 -0.6678  1.4702
 9104SOL    HW238949   3.883   3.560   4.318 -0.0346 -2.3845  1.6748
 9105SOL     OW38950   2.635   0.147   7.282  0.5412  0.2431  0.5445
 9105SOL    HW138951   2.670   0.078   7.338 -2.4340 -0.8822  0.9772
 9105SOL    HW238952   2.720   0.188   7.262  0.1795 -0.1157 -1.7613
 9106SOL     OW38953   1.866   4.472   6.206 -0.0986 -0.3197  0.0844
 9106SOL    HW138954   1.793   4.527   6.233  0.2346  1.2004 -2.0909
 9106SOL    HW238955   1.826   4.385   6.211 -1.2446  0.3202  1.8445
 9107SOL     OW38956   3.491   2.427  17.646 -0.4761 -1.0097 -0.1549
 9107SOL    HW138957   3.433   2.456  17.576  0.2755  0.7776 -0.0231
 9107SOL    HW238958   3.535   2.506  17.675 -1.5082 -0.5186  0.0905
 9108SOL     OW38959   1.447   2.524  10.337  0.3987 -0.3132  0.1769
 9108SOL    HW138960   1.366   2.499  10.380 -1.0420  1.3165 -1.6054
 9108SOL    HW238961   1.424   2.613  10.312  1.8375  0.0772  0.2478
 9109SOL     OW38962   3.470   0.477   9.813 -0.1817 -0.9386 -0.4777
 9109SOL    HW138963   3.474   0.429   9.895 -0.6199  2.0364  1.2537
 9109SOL    HW238964   3.532   0.431   9.755  1.8704 -0.5994  1.4713
 9110SOL     OW38965   4.343   0.444   8.622 -0.0957  0.1001 -0.2435
 9110SOL    HW138966   4.422   0.450   8.567 -1.0592 -0.5441 -1.7020
 9110SOL    HW238967   4.302   0.528   8.599 -0.9650 -0.6454 -1.4296
 9111SOL     OW38968   3.372   4.252   5.632 -0.1074  0.5272 -0.1113
 9111SOL    HW138969   3.303   4.303   5.589 -1.5174 -0.8253  0.5671
 9111SOL    HW238970   3.365   4.266   5.726 -2.2691  3.0277 -0.6362
 9112SOL     OW38971   3.726   0.781   1.116  0.0577  0.1024 -0.5298
 9112SOL    HW138972   3.795   0.723   1.146 -0.1976 -0.8714 -1.8139
 9112SOL    HW238973   3.663   0.716   1.083 -1.0890  0.5397  0.7811
 9113SOL     OW38974   1.063   2.968  13.467 -0.3147  0.4221  0.3045
 9113SOL    HW138975   1.110   3.033  13.414 -0.8248 -0.0092 -0.6712
 9113SOL    HW238976   1.034   2.914  13.394 -3.7485  1.0787  1.1538
 9114SOL     OW38977   0.346   2.196   5.308 -0.4090  0.0591  0.4003
 9114SOL    HW138978   0.401   2.222   5.382  0.8663 -1.6890  0.0770
 9114SOL    HW238979   0.266   2.173   5.357  0.2805  0.0689  1.5269
 9115SOL     OW38980   4.584   1.876  13.161  0.1074 -0.1867  0.4806
 9115SOL    HW138981   4.548   1.957  13.196  0.2458 -0.5456  1.4549
 9115SOL    HW238982   4.520   1.856  13.093  0.1500 -0.9944  0.6825
 9116SOL     OW38983   3.214   3.548   3.612  0.3084  0.3380 -0.0653
 9116SOL    HW138984   3.257   3.590   3.686 -1.1870  0.8910  0.5067
 9116SOL    HW238985   3.120   3.552   3.633  0.1824  0.6206 -0.6804
 9117SOL     OW38986   2.013   4.372   8.277  0.1968  0.2216 -0.2992
 9117SOL    HW138987   2.050   4.300   8.226 -4.1208 -0.9635 -1.7605
 9117SOL    HW238988   2.003   4.439   8.210  2.2533  0.5695 -0.2709
 9118SOL     OW38989   3.428   4.215   5.306 -0.4260 -0.3372 -0.7859
 9118SOL    HW138990   3.495   4.164   5.262  0.1457 -0.1247 -0.1664
 9118SOL    HW238991   3.438   4.206   5.401 -2.6119 -2.3247 -0.7295
 9119SOL     OW38992   4.342   2.108   8.761  0.1984  0.6921  0.3276
 9119SOL    HW138993   4.291   2.136   8.685  1.5025  0.1153 -0.7594
 9119SOL    HW238994   4.279   2.128   8.831 -0.2514  2.2072 -0.5296
 9120SOL     OW38995   2.561   1.538  12.990  0.1792 -0.4730  0.3089
 9120SOL    HW138996   2.537   1.599  12.920  0.6176  0.1147  0.6814
 9120SOL    HW238997   2.517   1.584  13.062  0.0816  0.8202 -0.5847
 9121SOL     OW38998   2.231   0.457  13.369  0.1544  0.3827 -0.3144
 9121SOL    HW138999   2.313   0.433  13.413  0.2306  1.3746  0.0801
 9121SOL    HW239000   2.185   0.376  13.391  2.2571  0.1850  3.4514
 9122SOL     OW39001   0.968   0.849   4.492  0.2254 -0.4498  0.1177
 9122SOL    HW139002   0.899   0.870   4.556  0.3243 -2.1530  0.7848
 9122SOL    HW239003   0.916   0.787   4.441  2.2776 -0.2283 -2.2460
 9123SOL     OW39004   3.620   3.005   8.882 -0.4822  0.0820 -0.7161
 9123SOL    HW139005   3.665   3.077   8.928 -3.3305  0.1100  2.0037
 9123SOL    HW239006   3.558   3.054   8.827 -1.6884 -1.4948 -0.7464
 9124SOL     OW39007   1.665   4.327   3.729  0.1152  0.7322 -0.0060
 9124SOL    HW139008   1.664   4.241   3.686 -1.2164  0.6792  0.1152
 9124SOL    HW239009   1.570   4.336   3.721  0.2031  0.7544 -1.1391
 9125SOL     OW39010   1.940   4.640  11.408  0.1718 -0.1403 -0.1099
 9125SOL    HW139011   1.914   4.557  11.369 -0.8794 -0.1382  0.5932
 9125SOL    HW239012   2.011   4.612  11.465  1.3074  0.4532 -1.2076
 9126SOL     OW39013   3.351   4.630   8.687 -0.1510 -0.0153 -0.1562
 9126SOL    HW139014   3.300   4.669   8.616 -0.8082  2.1185  1.4955
 9126SOL    HW239015   3.304   4.664   8.763  1.5539  0.8293  0.5321
 9127SOL     OW39016   1.198   3.997   8.718  0.7498 -0.3920 -0.0185
 9127SOL    HW139017   1.185   3.948   8.637 -0.1721  1.0894 -0.7649
 9127SOL    HW239018   1.292   3.986   8.729  0.5453  0.4026  2.3853
 9128SOL     OW39019   1.189   0.693   4.474  0.3157 -0.4156 -0.4329
 9128SOL    HW139020   1.113   0.737   4.511  0.2602  0.5234 -1.6704
 9128SOL    HW239021   1.190   0.746   4.395 -2.7973  0.0945 -0.1154
 9129SOL     OW39022   0.607   0.622   8.892  0.5290 -0.1793  0.2083
 9129SOL    HW139023   0.633   0.661   8.975  0.3359  2.9422 -1.1927
 9129SOL    HW239024   0.597   0.529   8.915  2.0271 -0.0449  1.3252
 9130SOL     OW39025   3.928   0.401   3.002  0.4228  0.1708  0.1949
 9130SOL    HW139026   3.889   0.393   2.915 -0.7249 -1.8842  0.9027
 9130SOL    HW239027   3.989   0.472   2.981 -1.6563  1.0746 -2.7820
 9131SOL     OW39028   3.797   4.055   5.895  0.7174 -0.2385  0.2880
 9131SOL    HW139029   3.755   4.104   5.966  1.1854  1.3946 -0.5701
 9131SOL    HW239030   3.754   3.970   5.903  0.7928 -0.1866  1.2535
 9132SOL     OW39031   3.401   1.553   4.568  0.0573  0.4248 -0.1636
 9132SOL    HW139032   3.325   1.546   4.510 -0.2032 -0.6427  0.3120
 9132SOL    HW239033   3.470   1.592   4.515  0.1955  0.9322  0.3982
 9133SOL     OW39034   2.512   4.082  10.418 -0.3424  0.6646 -0.4987
 9133SOL    HW139035   2.558   4.162  10.444  1.0005  0.4172 -2.0921
 9133SOL    HW239036   2.507   4.083  10.322 -1.7469  0.8430 -0.4152
 9134SOL     OW39037   2.813   2.977   5.705  0.2971 -0.4203  0.6104
 9134SOL    HW139038   2.822   2.905   5.767  0.4441 -0.7396  0.2135
 9134SOL    HW239039   2.879   2.959   5.639 -2.2396 -0.1653 -2.0335
 9135SOL     OW39040   4.242   2.913   4.431  0.4824 -0.3467 -0.3817
 9135SOL    HW139041   4.321   2.951   4.391 -0.0995  0.7229 -0.5070
 9135SOL    HW239042   4.198   2.886   4.350  0.6811  0.8884 -0.8999
 9136SOL     OW39043   2.267   1.473   7.750 -0.2938 -0.3997 -0.7718
 9136SOL    HW139044   2.203   1.408   7.778 -0.3368 -0.7273 -1.6452
 9136SOL    HW239045   2.239   1.555   7.791  2.6832 -0.7954  2.0560
 9137SOL     OW39046   1.072   2.241  10.402  0.0052 -0.3343 -0.1827
 9137SOL    HW139047   0.989   2.230  10.355 -0.5213 -0.2324  0.7375
 9137SOL    HW239048   1.039   2.291  10.477 -1.0025  0.0015 -0.8529
 9138SOL     OW39049   0.985   2.471  14.866 -0.2525  0.4434 -0.3178
 9138SOL    HW139050   0.959   2.449  14.777 -0.4902 -0.4516 -0.0318
 9138SOL    HW239051   1.078   2.488  14.852 -0.0190 -0.1184  0.4956
 9139SOL     OW39052   3.323   0.498   8.748 -0.0753 -0.1370  0.2742
 9139SOL    HW139053   3.244   0.452   8.776 -2.0208  3.2349  0.4346
 9139SOL    HW239054   3.306   0.506   8.654 -0.4400  5.1523  0.7900
 9140SOL     OW39055   3.195   2.598   6.422 -0.4971 -0.6734 -0.1954
 9140SOL    HW139056   3.226   2.604   6.512 -2.3942 -3.5209  0.6049
 9140SOL    HW239057   3.269   2.555   6.379 -1.3802 -1.4380 -0.9720
 9141SOL     OW39058   3.468   2.607   2.510 -0.2515  0.2732 -0.0020
 9141SOL    HW139059   3.413   2.679   2.477 -1.1848 -0.8963 -0.9871
 9141SOL    HW239060   3.541   2.606   2.448 -0.6788 -2.4090 -0.4543
 9142SOL     OW39061   3.754   1.013   5.900  0.1766  0.0575  0.5244
 9142SOL    HW139062   3.762   1.082   5.834 -0.3267 -1.4035 -1.0522
 9142SOL    HW239063   3.726   1.078   5.965 -0.2473  0.9742 -0.5859
 9143SOL     OW39064   1.662   1.067   6.605  0.2338 -0.2332 -0.3655
 9143SOL    HW139065   1.747   1.106   6.587  0.1922  0.4214  0.8768
 9143SOL    HW239066   1.690   0.976   6.616 -3.6555 -1.3872  0.1697
 9144SOL     OW39067   0.583   2.869   8.106  0.3729  0.3942 -0.2806
 9144SOL    HW139068   0.616   2.958   8.096  2.5586 -0.2688  1.0971
 9144SOL    HW239069   0.503   2.875   8.158  1.6993  1.3515  1.6662
 9145SOL     OW39070   2.052   2.323   5.019 -0.0978  0.2311 -0.2909
 9145SOL    HW139071   1.971   2.364   5.051 -0.0376  1.0501 -1.1759
 9145SOL    HW239072   2.102   2.404   5.028 -0.6761  0.6824 -1.0373
 9146SOL     OW39073   1.651   0.209   4.335 -0.1517  0.2957  0.2898
 9146SOL    HW139074   1.637   0.247   4.248 -0.5112 -0.2427  0.1097
 9146SOL    HW239075   1.565   0.232   4.370 -1.0648 -0.6087 -1.3487
 9147SOL     OW39076   3.665   4.277   2.546 -0.3219  0.2843  0.3209
 9147SOL    HW139077   3.701   4.210   2.488  0.5086  0.7123  0.3474
 9147SOL    HW239078   3.731   4.345   2.534 -1.4416  0.9708 -1.8658
 9148SOL     OW39079   1.410   4.083   1.804 -1.1202  0.1973 -0.8137
 9148SOL    HW139080   1.398   4.104   1.711 -0.0949  1.6890 -0.6121
 9148SOL    HW239081   1.446   4.167   1.833 -1.0960  0.0026 -0.2910
 9149SOL     OW39082   2.834   2.314   0.247 -0.0096 -0.0332 -0.1178
 9149SOL    HW139083   2.806   2.223   0.249 -1.2850  0.3564 -0.1176
 9149SOL    HW239084   2.918   2.304   0.201 -0.1608  0.6018 -0.5289
 9150SOL     OW39085   4.518   3.631   4.230  0.3569  0.1389  0.0209
 9150SOL    HW139086   4.438   3.658   4.184  1.4902  2.6239 -0.4746
 9150SOL    HW239087   4.514   3.688   4.307 -0.6996  0.0494  0.0282
 9151SOL     OW39088   0.808   2.993   7.091 -0.0551 -0.3192  0.1598
 9151SOL    HW139089   0.878   2.968   7.030  0.3639 -0.6166  0.7624
 9151SOL    HW239090   0.803   2.916   7.148 -0.3253  1.3116  2.3463
 9152SOL     OW39091   0.969   3.881  14.757  0.6319  0.2581 -0.3773
 9152SOL    HW139092   1.037   3.854  14.695  0.3233 -0.0158 -0.5985
 9152SOL    HW239093   0.900   3.819  14.734 -1.0783  1.7903  0.6367
 9153SOL     OW39094   0.272   0.359   5.673 -0.0401  0.1835  0.0292
 9153SOL    HW139095   0.344   0.325   5.726 -1.3053 -2.6179 -0.0375
 9153SOL    HW239096   0.293   0.331   5.584  0.5689  1.1433 -0.1212
 9154SOL     OW39097   2.798   4.663   4.317  0.3715  0.2055 -0.1750
 9154SOL    HW139098   2.732   4.594   4.330  0.0827  0.7029  0.9770
 9154SOL    HW239099   2.886   4.629   4.299  0.6739  0.4576  0.8580
 9155SOL     OW39100   3.703   0.556  17.248 -0.2715 -0.5471 -0.0242
 9155SOL    HW139101   3.785   0.601  17.230  0.0865 -0.9551  0.5788
 9155SOL    HW239102   3.699   0.498  17.172  0.5362  0.0112 -0.4834
 9156SOL     OW39103   3.598   0.347   0.581 -0.2579  0.1986 -0.3044
 9156SOL    HW139104   3.663   0.406   0.542  0.3340  0.1239  0.5761
 9156SOL    HW239105   3.530   0.406   0.611 -1.6302 -0.8412 -1.3500
 9157SOL     OW39106   4.214   3.727   2.204  0.4620 -0.1895  0.3117
 9157SOL    HW139107   4.217   3.634   2.225 -0.6304  0.4878  3.6219
 9157SOL    HW239108   4.251   3.757   2.288 -0.7540  1.7515  0.1596
 9158SOL     OW39109   0.904   3.218  14.238  0.2389 -0.4810  0.4539
 9158SOL    HW139110   0.878   3.137  14.282 -2.1715 -1.1066 -2.0919
 9158SOL    HW239111   0.995   3.205  14.261  0.2577 -1.0868  0.0424
 9159SOL     OW39112   3.534   2.378   4.366 -0.1148 -0.7899 -0.3168
 9159SOL    HW139113   3.588   2.457   4.357 -1.9359  0.2231 -2.4389
 9159SOL    HW239114   3.556   2.339   4.450  1.0441 -0.8184 -0.6398
 9160SOL     OW39115   3.081   2.159  17.390 -0.1821 -0.3946 -0.2875
 9160SOL    HW139116   3.101   2.244  17.427 -0.9390 -0.0217 -0.7390
 9160SOL    HW239117   3.103   2.106  17.467 -1.8661 -0.2950  0.2760
 9161SOL     OW39118   0.008   1.109   6.379  0.1699 -0.1853  0.2748
 9161SOL    HW139119   0.032   1.181   6.321  3.9925 -1.5780  0.1271
 9161SOL    HW239120   4.706   1.152   6.456  1.8025 -1.0327  1.5770
 9162SOL     OW39121   0.350   1.413   2.021  0.2934 -0.0182  0.2417
 9162SOL    HW139122   0.260   1.381   2.018  0.6874 -0.9032 -2.0733
 9162SOL    HW239123   0.361   1.458   2.105  0.5294 -1.6795  1.1067
 9163SOL     OW39124   1.142   4.503   8.154  0.2417  0.2788  0.1264
 9163SOL    HW139125   1.091   4.484   8.233 -1.0587  1.4945 -0.4269
 9163SOL    HW239126   1.187   4.421   8.131 -0.6232  0.5841 -2.6172
 9164SOL     OW39127   2.077   1.460   0.860 -0.5613  0.1852  0.1122
 9164SOL    HW139128   2.057   1.450   0.953  0.2967 -0.2923  0.2507
 9164SOL    HW239129   2.164   1.419   0.858 -0.6377  0.0677 -0.7931
 9165SOL     OW39130   4.086   4.600   7.548  0.4676  0.1123 -0.5052
 9165SOL    HW139131   4.122   4.680   7.509 -0.6140 -0.0835 -1.9043
 9165SOL    HW239132   4.016   4.633   7.604  0.8516  0.0202  0.0226
 9166SOL     OW39133   2.884   1.398   2.867  0.2114  0.0335  0.6768
 9166SOL    HW139134   2.848   1.342   2.936  2.4331 -0.1756  1.6934
 9166SOL    HW239135   2.822   1.383   2.796 -0.3954  2.7429  0.6346
 9167SOL     OW39136   3.150   0.547  14.944 -0.5018  0.5523 -0.2361
 9167SOL    HW139137   3.210   0.474  14.931  0.8214  1.3554  1.2420
 9167SOL    HW239138   3.087   0.526  14.875  0.6863 -0.9847 -0.8507
 9168SOL     OW39139   1.850   2.920   1.901  0.3276  0.2879  0.1033
 9168SOL    HW139140   1.830   2.996   1.847 -3.1630 -0.6712  0.0767
 9168SOL    HW239141   1.793   2.937   1.976  1.5047  0.6127  0.9321
 9169SOL     OW39142   3.581   1.684   2.216  0.4150 -0.3144  0.5123
 9169SOL    HW139143   3.670   1.720   2.223 -0.3443  1.4975  0.8914
 9169SOL    HW239144   3.524   1.760   2.224  0.0367 -0.5973  0.4913
 9170SOL     OW39145   4.066   3.523  10.120 -0.2952 -0.3982  0.3501
 9170SOL    HW139146   4.151   3.547  10.155 -0.3595  1.2201 -0.6284
 9170SOL    HW239147   4.026   3.494  10.202 -3.6370  1.0927 -0.7585
 9171SOL     OW39148   0.432   3.483   1.861  0.1380  0.2043 -0.2538
 9171SOL    HW139149   0.408   3.399   1.820 -0.4087  0.8065 -1.1607
 9171SOL    HW239150   0.350   3.532   1.861 -1.1284 -1.8660 -2.4348
 9172SOL     OW39151   3.342   0.618   5.878  0.0812 -0.4033 -0.1248
 9172SOL    HW139152   3.418   0.584   5.926 -0.2937 -0.4627  0.4296
 9172SOL    HW239153   3.390   0.658   5.806  1.3580 -0.6093  0.6077
 9173SOL     OW39154   3.344   1.155   5.533 -0.6233 -0.0947 -0.5385
 9173SOL    HW139155   3.270   1.164   5.593 -1.4433 -0.0371 -1.5670
 9173SOL    HW239156   3.404   1.225   5.558 -3.0380  1.7444  0.1489
 9174SOL     OW39157   4.582   0.583  15.523  0.1518 -0.1788  0.4805
 9174SOL    HW139158   4.533   0.636  15.586  0.9970  3.2067 -1.7564
 9174SOL    HW239159   4.509   0.549  15.471  0.0267  0.3041  0.3428
 9175SOL     OW39160   1.339   0.254   5.964 -0.6880 -0.1510 -0.2878
 9175SOL    HW139161   1.291   0.291   5.890  0.2879 -1.1253 -1.4172
 9175SOL    HW239162   1.272   0.203   6.009  0.7837 -0.4344  1.5846
 9176SOL     OW39163   4.188   0.687   7.698 -0.0823 -0.5265 -0.3469
 9176SOL    HW139164   4.207   0.654   7.786  2.1372 -1.8305 -1.3184
 9176SOL    HW239165   4.249   0.762   7.691 -2.9418  1.9920  1.7376
 9177SOL     OW39166   2.329   2.291  16.311 -0.2837 -0.0167 -0.5106
 9177SOL    HW139167   2.308   2.348  16.237 -0.4099  0.1689 -0.3288
 9177SOL    HW239168   2.356   2.214  16.261 -3.7513 -2.0546  0.7390
 9178SOL     OW39169   1.255   3.521   8.894 -0.4221 -0.2828  0.3557
 9178SOL    HW139170   1.224   3.583   8.960 -0.6435 -1.0976  1.0142
 9178SOL    HW239171   1.334   3.572   8.873  0.4742 -1.7465  0.1801
 9179SOL     OW39172   2.606   3.223   3.448 -0.3882  0.9204 -0.0925
 9179SOL    HW139173   2.624   3.179   3.531 -2.6077  3.0468  1.5234
 9179SOL    HW239174   2.511   3.224   3.465 -0.1258 -0.9818  1.4134
 9180SOL     OW39175   3.718   3.373  10.628 -0.5235 -0.6091 -0.9341
 9180SOL    HW139176   3.640   3.322  10.649  1.1602 -2.9485 -0.4116
 9180SOL    HW239177   3.747   3.401  10.715  2.6539 -1.4837 -1.7262
 9181SOL     OW39178   3.224   2.449  14.305  0.1591  0.0909 -0.8393
 9181SOL    HW139179   3.193   2.359  14.299 -1.3013  0.5719 -0.5018
 9181SOL    HW239180   3.172   2.490  14.235  0.8369  1.1410 -0.7360
 9182SOL     OW39181   3.069   1.578  10.728  0.1599  0.0592 -0.0865
 9182SOL    HW139182   2.996   1.518  10.712 -0.0246  0.6454 -1.3864
 9182SOL    HW239183   3.129   1.506  10.750 -1.6050 -0.8082  1.8741
 9183SOL     OW39184   2.474   4.159  10.159 -0.4966 -1.1720 -0.2771
 9183SOL    HW139185   2.405   4.195  10.215  0.2545 -0.0273 -0.0683
 9183SOL    HW239186   2.464   4.065  10.145  2.2196 -1.1867 -2.1428
 9184SOL     OW39187   3.503   3.113   4.912  0.7560 -0.2342  0.4154
 9184SOL    HW139188   3.477   3.148   4.997 -0.0766 -1.0808  0.5146
 9184SOL    HW239189   3.491   3.018   4.914 -3.6591  0.2935  0.1488
 9185SOL     OW39190   2.803   1.619   3.667 -0.4173 -0.2097 -0.2763
 9185SOL    HW139191   2.779   1.535   3.628 -1.8965  0.3258 -0.5389
 9185SOL    HW239192   2.739   1.627   3.738 -1.0413 -0.4345 -0.8092
 9186SOL     OW39193   0.130   3.491   9.173 -0.0908  0.6757  0.0821
 9186SOL    HW139194   0.127   3.440   9.092 -0.6133  1.6851 -0.5337
 9186SOL    HW239195   0.224   3.512   9.177  0.6152 -2.6259  1.1158
 9187SOL     OW39196   1.160   3.827   6.226  0.5931  0.8520  0.1759
 9187SOL    HW139197   1.097   3.835   6.155 -0.5149 -2.0748  0.8319
 9187SOL    HW239198   1.099   3.823   6.300  2.9377  2.6232  2.2113
 9188SOL     OW39199   3.227   2.575   8.585 -1.0011  0.2669  0.2121
 9188SOL    HW139200   3.144   2.532   8.567 -0.2710 -1.3858  0.8180
 9188SOL    HW239201   3.237   2.545   8.675 -1.1028 -1.3246 -0.3096
 9189SOL     OW39202   4.239   4.103   5.498 -0.0999  0.0817 -0.2876
 9189SOL    HW139203   4.286   4.097   5.415  0.2566  3.0008 -0.2997
 9189SOL    HW239204   4.189   4.022   5.490  0.0266 -0.2006  1.8520
 9190SOL     OW39205   2.275   1.257   1.181  0.0550 -0.0194 -0.0065
 9190SOL    HW139206   2.355   1.211   1.207  1.5966  2.1624 -0.7745
 9190SOL    HW239207   2.318   1.341   1.161 -1.8638  1.5490  2.4189
 9191SOL     OW39208   3.147   2.393   9.256  0.3026 -0.0142 -0.6921
 9191SOL    HW139209   3.197   2.405   9.175  0.3600  0.4533 -0.5884
 9191SOL    HW239210   3.068   2.354   9.218  0.3629  0.9627 -1.8044
 9192SOL     OW39211   1.925   4.076  11.112 -0.0458 -0.3231 -0.6056
 9192SOL    HW139212   1.863   4.148  11.110 -0.6052 -0.7935 -0.0458
 9192SOL    HW239213   1.968   4.074  11.198 -0.9732  0.8440 -0.1178
 9193SOL     OW39214   2.002   0.994   3.662  0.2658 -0.3073 -0.3907
 9193SOL    HW139215   2.038   1.079   3.686  0.2499  0.0300 -1.5653
 9193SOL    HW239216   2.077   0.935   3.663  1.8763  1.7498 -0.0301
 9194SOL     OW39217   1.441   1.395   5.975  0.1123 -0.0585  0.6897
 9194SOL    HW139218   1.486   1.315   6.000  0.3447 -0.1614 -0.0711
 9194SOL    HW239219   1.511   1.442   5.929  1.1434 -0.6123  1.7013
 9195SOL     OW39220   0.048   1.215  17.686 -0.4169 -0.2150 -0.7187
 9195SOL    HW139221   0.118   1.150  17.687  0.0560  0.2758 -1.4558
 9195SOL    HW239222   4.707   1.167  17.655 -0.0145 -1.3085 -0.0580
 9196SOL     OW39223   2.673   3.098   3.931 -0.0214 -0.1486 -0.0841
 9196SOL    HW139224   2.671   3.003   3.926 -0.2545 -0.2722  2.1738
 9196SOL    HW239225   2.587   3.118   3.967 -0.2251  1.5768 -1.5197
 9197SOL     OW39226   4.145   2.862   2.819  0.0446 -0.4787  0.1802
 9197SOL    HW139227   4.087   2.861   2.894 -2.2039 -0.0074 -1.5712
 9197SOL    HW239228   4.094   2.877   2.740  0.2607  0.7140  0.2618
 9198SOL     OW39229   0.108   4.237   7.485 -0.0791  0.0425  0.5502
 9198SOL    HW139230   0.124   4.142   7.483 -0.2011  0.0207  0.6030
 9198SOL    HW239231   0.093   4.257   7.577  0.7257  0.4675  0.5922
 9199SOL     OW39232   1.256   4.254  10.490 -0.4997 -0.5419 -0.2016
 9199SOL    HW139233   1.327   4.309  10.456  0.4321 -0.8500  1.2714
 9199SOL    HW239234   1.253   4.183  10.427  0.9175 -1.7697  1.1262
 9200SOL     OW39235   2.849   1.460  11.003  0.4347  0.2217 -0.1062
 9200SOL    HW139236   2.875   1.388  10.945 -0.0956  0.4141 -0.5857
 9200SOL    HW239237   2.761   1.477  10.970  1.0547  0.1468 -1.7774
 9201SOL     OW39238   3.115   2.257   2.959 -0.0873 -0.1027  0.0047
 9201SOL    HW139239   3.186   2.316   2.985 -0.7634  0.3159  0.9306
 9201SOL    HW239240   3.059   2.322   2.916  2.5751  0.0536 -3.1576
 9202SOL     OW39241   2.904   2.258  16.770 -0.5273  0.1046 -0.3073
 9202SOL    HW139242   2.906   2.337  16.824 -2.2846  0.5939 -0.9348
 9202SOL    HW239243   2.894   2.193  16.840  1.7785  0.0901 -0.0076
 9203SOL     OW39244   1.111   3.709   7.865  0.6699 -0.2924  0.2689
 9203SOL    HW139245   1.169   3.635   7.884  1.0749  0.1708  0.8314
 9203SOL    HW239246   1.047   3.670   7.804  1.0681  0.8540 -0.8938
 9204SOL     OW39247   2.608   4.330   1.814  0.0526 -0.1054  0.3578
 9204SOL    HW139248   2.551   4.326   1.738  0.1244  3.6561  0.1163
 9204SOL    HW239249   2.578   4.414   1.849 -3.9320 -0.9441 -1.0534
 9205SOL     OW39250   1.620   0.551   3.323 -0.0069  0.4802  0.0087
 9205SOL    HW139251   1.529   0.582   3.323 -0.3717 -0.6126  0.0819
 9205SOL    HW239252   1.634   0.548   3.229  2.0857 -0.7568  0.3655
 9206SOL     OW39253   2.847   2.645   3.821  0.3348 -0.3522  0.2716
 9206SOL    HW139254   2.890   2.594   3.889  1.2729 -0.4074 -0.3585
 9206SOL    HW239255   2.884   2.732   3.839  0.5363 -0.1078 -1.2734
 9207SOL     OW39256   0.007   1.325   8.118  0.2026  0.3718 -0.0305
 9207SOL    HW139257   0.034   1.247   8.069 -0.8587 -0.4405  0.6516
 9207SOL    HW239258   0.005   1.291   8.208 -1.9700  1.3484  0.2892
 9208SOL     OW39259   2.565   2.340   8.194  0.3449 -0.2275 -0.7715
 9208SOL    HW139260   2.546   2.425   8.156  1.5309 -0.7765 -2.6036
 9208SOL    HW239261   2.484   2.290   8.198  0.9850 -1.4415 -3.0063
 9209SOL     OW39262   0.442   2.324   9.092  0.0509  0.3584  0.6964
 9209SOL    HW139263   0.353   2.327   9.056  0.3214  2.6423  0.1666
 9209SOL    HW239264   0.461   2.417   9.107  0.1536  0.9372 -2.9912
 9210SOL     OW39265   3.897   3.781   4.829 -0.4204  0.3356  0.1629
 9210SOL    HW139266   3.947   3.859   4.805  0.4085 -0.3449 -0.3181
 9210SOL    HW239267   3.812   3.789   4.784 -1.1785 -3.6120  0.8878
 9211SOL     OW39268   2.861   2.257   5.072 -0.5034  0.5148  0.0074
 9211SOL    HW139269   2.841   2.177   5.121  1.4546  0.7598  1.2043
 9211SOL    HW239270   2.930   2.217   5.020 -1.7385 -0.1989 -1.0616
 9212SOL     OW39271   2.787   2.341   8.019 -0.2572 -0.1045 -0.7074
 9212SOL    HW139272   2.733   2.343   8.098 -2.0135 -0.0754 -1.8826
 9212SOL    HW239273   2.871   2.379   8.044 -0.3295  0.3093 -1.0852
 9213SOL     OW39274   4.352   3.745   1.436 -0.2699 -0.1019 -0.0135
 9213SOL    HW139275   4.345   3.664   1.384 -4.1586 -0.4549  1.1275
 9213SOL    HW239276   4.268   3.765   1.475 -1.1053 -0.5536 -1.5628
 9214SOL     OW39277   4.503   0.754   1.621  0.1046  0.5987 -0.0644
 9214SOL    HW139278   4.496   0.821   1.689 -1.8044 -0.3223  0.6601
 9214SOL    HW239279   4.423   0.770   1.571 -0.8332 -0.3123  1.1275
 9215SOL     OW39280   1.760   4.458   3.939  0.1281  0.3769  0.0376
 9215SOL    HW139281   1.673   4.490   3.962 -0.5039  0.1795 -2.0593
 9215SOL    HW239282   1.736   4.416   3.856  0.6154 -0.3811  0.2804
 9216SOL     OW39283   3.405   2.431   0.460  0.2715  0.2205  0.0533
 9216SOL    HW139284   3.369   2.390   0.539  1.3578 -1.6497 -0.4295
 9216SOL    HW239285   3.489   2.462   0.495  2.0850 -1.5931 -2.6532
 9217SOL     OW39286   4.636   3.496   1.228  0.1529 -0.0188 -0.6002
 9217SOL    HW139287   4.730   3.489   1.211  0.4271 -0.9551  1.2236
 9217SOL    HW239288   4.612   3.580   1.190 -2.3963 -0.4750 -0.0329
 9218SOL     OW39289   3.009   1.654   4.675  0.1673 -0.5530  0.1690
 9218SOL    HW139290   2.965   1.676   4.757 -0.5112 -2.3852  0.2863
 9218SOL    HW239291   3.092   1.626   4.712 -0.2504 -1.9459  0.0617
 9219SOL     OW39292   2.939   4.291  14.867  0.2875 -0.0680 -0.3104
 9219SOL    HW139293   2.963   4.334  14.785  2.4174  1.9125  1.3292
 9219SOL    HW239294   3.025   4.304  14.907 -0.6460 -1.1272  2.0645
 9220SOL     OW39295   2.831   2.858   2.467 -0.0271 -0.9490  0.0523
 9220SOL    HW139296   2.813   2.940   2.514  1.4687  0.2034 -1.3500
 9220SOL    HW239297   2.772   2.796   2.508  0.2120 -0.7812  0.6518
 9221SOL     OW39298   2.662   3.843   1.428 -0.4096  0.3416  0.6731
 9221SOL    HW139299   2.619   3.762   1.456 -0.0366  0.1738  0.7638
 9221SOL    HW239300   2.754   3.831   1.453 -0.3289  1.1814  0.7746
 9222SOL     OW39301   4.271   2.853   7.858 -0.2305  0.1482 -0.4005
 9222SOL    HW139302   4.281   2.945   7.881  1.5833 -0.1953  0.1657
 9222SOL    HW239303   4.289   2.809   7.941 -0.8542  2.3488  0.8789
 9223SOL     OW39304   1.700   3.740   6.230 -0.8097  0.1842 -0.4196
 9223SOL    HW139305   1.752   3.678   6.178 -0.8050 -1.2595  1.2703
 9223SOL    HW239306   1.615   3.750   6.188 -0.3643  0.1825 -1.3175
 9224SOL     OW39307   4.036   2.225   2.386  0.6478  0.5631 -0.0811
 9224SOL    HW139308   3.994   2.189   2.308 -0.0201  4.7831 -1.6577
 9224SOL    HW239309   4.068   2.307   2.348 -0.3080  1.5000  1.1066
 9225SOL     OW39310   3.765   0.579   3.508  0.1702 -0.4065 -0.0057
 9225SOL    HW139311   3.739   0.624   3.589 -3.0571 -0.7745 -0.8264
 9225SOL    HW239312   3.703   0.505   3.510 -1.0632  0.6405  0.4824
 9226SOL     OW39313   0.621   2.887   1.182  0.6140 -0.3063  0.2084
 9226SOL    HW139314   0.700   2.867   1.233  1.0679  0.0495 -0.3455
 9226SOL    HW239315   0.627   2.829   1.106 -1.2210  2.5284 -2.0782
 9227SOL     OW39316   0.705   0.233   7.662 -0.0352  0.0149 -0.5735
 9227SOL    HW139317   0.612   0.211   7.662  0.1887 -0.9769  3.1429
 9227SOL    HW239318   0.704   0.260   7.754 -1.7401 -2.2620  0.0946
 9228SOL     OW39319   4.587   1.275   5.320 -0.0948  0.2321  0.2166
 9228SOL    HW139320   4.580   1.349   5.380 -2.6037  0.4571 -0.3255
 9228SOL    HW239321   4.555   1.202   5.373  0.7022 -1.1963 -1.2797
 9229SOL     OW39322   1.623   0.775   1.361  0.4606 -0.2500 -0.2331
 9229SOL    HW139323   1.557   0.839   1.387  0.7658 -0.0702  0.0983
 9229SOL    HW239324   1.590   0.746   1.276  0.1872  2.3889 -1.0551
 9230SOL     OW39325   2.077   3.491   8.111  0.1953  0.1571  0.0514
 9230SOL    HW139326   2.112   3.578   8.090 -0.8827  0.2723 -1.2867
 9230SOL    HW239327   1.991   3.530   8.131  0.7362  1.5442 -0.2922
 9231SOL     OW39328   0.124   2.502   6.916 -0.4145 -0.0458 -0.2743
 9231SOL    HW139329   0.064   2.574   6.897  0.3372  0.7122  0.2340
 9231SOL    HW239330   0.127   2.493   7.011  0.1286  3.3370  0.0362
 9232SOL     OW39331   2.509   3.915   4.946 -0.0262  0.0240  0.2528
 9232SOL    HW139332   2.569   3.844   4.923 -1.3697 -1.2034  0.5384
 9232SOL    HW239333   2.438   3.907   4.882 -1.5122 -0.1920  1.9325
 9233SOL     OW39334   0.137   3.220   3.742 -0.2176  0.0043 -0.0961
 9233SOL    HW139335   0.143   3.208   3.648  0.6420 -0.3458  0.0108
 9233SOL    HW239336   0.043   3.235   3.756 -0.2793 -2.1945  1.8258
 9234SOL     OW39337   4.193   0.621   9.013 -0.0499  0.5771  0.0444
 9234SOL    HW139338   4.272   0.675   9.002 -0.1677  0.8120  0.3685
 9234SOL    HW239339   4.144   0.647   8.935 -0.3186 -0.4669 -0.1413
 9235SOL     OW39340   3.234   2.611   3.925 -0.2543 -0.6717 -0.4085
 9235SOL    HW139341   3.307   2.596   3.985  0.0390 -0.3610 -0.6918
 9235SOL    HW239342   3.264   2.684   3.872 -1.6934 -0.7717 -1.3671
 9236SOL     OW39343   1.648   3.268   6.059  0.5213 -0.8415  0.1898
 9236SOL    HW139344   1.736   3.256   6.095  1.0172 -1.2026 -1.1372
 9236SOL    HW239345   1.602   3.187   6.084 -1.1258 -0.5772 -2.0060
 9237SOL     OW39346   0.599   1.607   1.044 -0.5847 -0.3469  0.0774
 9237SOL    HW139347   0.686   1.570   1.026  0.1751  0.5064  1.9829
 9237SOL    HW239348   0.597   1.674   0.976  3.0323  0.0804  0.4099
 9238SOL     OW39349   3.042   0.588   2.605  0.0009 -0.3989 -0.2862
 9238SOL    HW139350   2.972   0.548   2.553  0.5547 -0.2346 -1.1525
 9238SOL    HW239351   3.058   0.521   2.672 -2.7714 -0.5067  0.2891
 9239SOL     OW39352   2.771   4.063  14.843 -0.1875  0.4254 -0.6435
 9239SOL    HW139353   2.717   4.117  14.901  0.2130 -0.3799  0.4683
 9239SOL    HW239354   2.835   4.133  14.825  0.5867  0.3248  1.7052
 9240SOL     OW39355   4.548   2.551   2.392  0.1463 -0.7085 -0.2337
 9240SOL    HW139356   4.612   2.615   2.425 -0.5881 -0.5729  0.9433
 9240SOL    HW239357   4.472   2.601   2.362 -0.1668  0.1624  1.9941
 9241SOL     OW39358   1.345   0.586  11.319  0.2254  0.3096  0.4370
 9241SOL    HW139359   1.425   0.591  11.267  0.0005  0.1830  0.0747
 9241SOL    HW239360   1.379   0.529  11.388 -0.7740  0.8069  1.3470
 9242SOL     OW39361   1.017   1.708  14.579 -0.1338 -0.2668 -0.0102
 9242SOL    HW139362   1.097   1.758  14.598  1.4238 -1.2843 -3.7856
 9242SOL    HW239363   0.947   1.773  14.584  1.0673  1.0636 -0.4168
 9243SOL     OW39364   1.395   4.275   6.307 -0.3800 -0.1148 -0.5849
 9243SOL    HW139365   1.453   4.230   6.368 -0.8448 -1.8517 -1.4280
 9243SOL    HW239366   1.314   4.266   6.359 -0.3642  1.2720 -0.3301
 9244SOL     OW39367   2.545   3.549   2.903  0.4568  0.1129  0.4580
 9244SOL    HW139368   2.606   3.596   2.959 -0.5242 -0.5607  2.0801
 9244SOL    HW239369   2.579   3.557   2.813 -2.1709  0.9111 -0.4669
 9245SOL     OW39370   3.985   2.101  11.197  0.2345  0.0477 -0.5377
 9245SOL    HW139371   4.011   2.059  11.278 -0.3780  1.8501  0.6037
 9245SOL    HW239372   3.953   2.185  11.231  1.8763  0.4521 -0.0006
 9246SOL     OW39373   1.457   0.206  12.574  0.0175 -0.0263  0.1130
 9246SOL    HW139374   1.370   0.171  12.556 -1.1407  1.8016  2.1609
 9246SOL    HW239375   1.449   0.299  12.597  2.1865  0.0414  0.5582
 9247SOL     OW39376   1.665   3.498   9.416  0.1585 -0.4634 -0.1366
 9247SOL    HW139377   1.602   3.468   9.351  0.2246 -0.1118 -0.3625
 9247SOL    HW239378   1.736   3.433   9.419  0.7660  0.1335 -1.3376
 9248SOL     OW39379   4.283   4.113   3.674  0.0528  0.0385  0.2671
 9248SOL    HW139380   4.261   4.196   3.633  0.0740 -0.2808 -0.3909
 9248SOL    HW239381   4.378   4.113   3.661  0.0911 -0.2810  0.5455
 9249SOL     OW39382   2.119   1.561   0.596  0.2636 -0.0298  0.2044
 9249SOL    HW139383   2.121   1.652   0.626 -1.2277  0.4225 -1.0729
 9249SOL    HW239384   2.127   1.512   0.678  0.2647  0.3906  0.4573
 9250SOL     OW39385   0.494   0.736   4.667  0.1475  0.5375 -0.0975
 9250SOL    HW139386   0.536   0.820   4.646 -1.6814  1.4543 -0.0447
 9250SOL    HW239387   0.406   0.766   4.647  0.3529  0.7034 -0.7593
 9251SOL     OW39388   1.993   0.869  10.914  0.4980 -0.0560  0.1482
 9251SOL    HW139389   1.955   0.954  10.935  2.0736  0.1455  2.1873
 9251SOL    HW239390   2.087   0.887  10.917  0.7947 -1.2752 -1.8754
 9252SOL     OW39391   0.337   0.408  15.584  0.1554  0.1012  0.8993
 9252SOL    HW139392   0.322   0.450  15.499  2.7037  0.5843  0.6821
 9252SOL    HW239393   0.340   0.487  15.639  1.6265  1.2094 -0.7561
 9253SOL     OW39394   0.205   1.612   8.097  0.2613  0.1169  0.0717
 9253SOL    HW139395   0.203   1.636   8.005 -3.8147  1.0377  0.3825
 9253SOL    HW239396   0.120   1.637   8.134  0.1565  0.2038 -0.2278
 9254SOL     OW39397   3.308   3.374  16.255 -0.0583 -0.2205 -0.3879
 9254SOL    HW139398   3.297   3.340  16.166  0.9088  0.4477 -0.7693
 9254SOL    HW239399   3.286   3.465  16.237  2.9460  0.6476  0.2879
 9255SOL     OW39400   1.813   3.939   0.213 -0.0928  0.3972  0.1486
 9255SOL    HW139401   1.761   3.891   0.148  3.2657  0.5738 -2.6956
 9255SOL    HW239402   1.756   3.948   0.289 -3.1293  0.7697 -2.2060
 9256SOL     OW39403   4.415   1.884   8.327  0.2685  0.1727  0.6173
 9256SOL    HW139404   4.455   1.953   8.274  2.6114 -2.3564 -0.8859
 9256SOL    HW239405   4.439   1.906   8.417  2.4331 -0.7973  0.2528
 9257SOL     OW39406   0.212   0.074   4.132  0.1073 -0.7215  0.5311
 9257SOL    HW139407   0.251   0.158   4.110 -0.6354 -0.2511  1.0153
 9257SOL    HW239408   0.272   0.052   4.203  1.7702  0.5611 -0.5010
 9258SOL     OW39409   2.943   1.884   9.331  0.0247  0.2138  0.6912
 9258SOL    HW139410   2.992   1.962   9.358  0.9320  0.1543 -0.8095
 9258SOL    HW239411   2.978   1.833   9.403  0.1827 -1.6477 -0.7217
 9259SOL     OW39412   3.705   1.552   2.686  0.0152  0.2777 -0.2951
 9259SOL    HW139413   3.687   1.459   2.701  0.3980  0.4361  1.1069
 9259SOL    HW239414   3.766   1.575   2.755  0.3174 -1.4872  0.0249
 9260SOL     OW39415   3.205   1.973   6.451 -0.8306 -0.2077  0.2138
 9260SOL    HW139416   3.156   1.892   6.459  2.5226 -2.5064 -2.1257
 9260SOL    HW239417   3.184   2.003   6.539 -0.3830  1.5064 -0.2614
 9261SOL     OW39418   0.947   4.076   1.983  0.2896  0.1740 -0.0266
 9261SOL    HW139419   1.031   4.083   1.937 -0.0898  0.6996 -0.6404
 9261SOL    HW239420   0.920   4.167   1.991 -1.2910 -0.2087 -0.9291
 9262SOL     OW39421   3.024   3.809   4.452 -0.2542  0.2499 -1.1183
 9262SOL    HW139422   3.069   3.748   4.509 -0.6702 -0.1988 -1.2758
 9262SOL    HW239423   3.067   3.887   4.488  0.1790  0.0345 -1.1699
 9263SOL     OW39424   1.541   2.848   2.309  0.0825 -0.2586 -0.4036
 9263SOL    HW139425   1.550   2.756   2.332  0.9066 -0.0502  0.1468
 9263SOL    HW239426   1.448   2.855   2.287 -0.1012 -0.8992  0.1710
 9264SOL     OW39427   3.731   3.174   8.279  0.4484  0.4763 -0.5054
 9264SOL    HW139428   3.727   3.209   8.368 -0.0539  1.3408 -0.8651
 9264SOL    HW239429   3.679   3.094   8.278  1.3128 -0.0643 -1.7447
 9265SOL     OW39430   3.208   0.077  12.766  0.2325 -0.1061  0.4413
 9265SOL    HW139431   3.255   4.734  12.789  1.6876  1.2261  2.0246
 9265SOL    HW239432   3.150   0.051  12.694  2.4773 -2.6443 -0.4483
 9266SOL     OW39433   4.391   4.180   1.332 -0.3130 -0.5968 -0.4527
 9266SOL    HW139434   4.454   4.168   1.261  1.0021 -1.7267  0.8919
 9266SOL    HW239435   4.315   4.135   1.295  0.4914 -0.5257 -2.1779
 9267SOL     OW39436   3.887   2.883  12.340 -0.5157 -0.2143 -0.4077
 9267SOL    HW139437   3.823   2.888  12.270 -1.6627 -1.7935  0.5084
 9267SOL    HW239438   3.947   2.820  12.301  2.6918  3.1707 -0.8494
 9268SOL     OW39439   3.618   2.813   4.054  0.3778 -0.3108 -0.2361
 9268SOL    HW139440   3.708   2.843   4.061  0.2176  0.1343 -0.0883
 9268SOL    HW239441   3.574   2.885   4.099  1.8705  1.6179 -1.8711
 9269SOL     OW39442   1.151   0.623   1.079  0.1108  0.1906  0.2795
 9269SOL    HW139443   1.164   0.612   0.985 -2.2977  0.6700 -0.0955
 9269SOL    HW239444   1.097   0.550   1.110  0.6961 -0.0107  0.8321
 9270SOL     OW39445   2.683   0.840  17.002  0.3647  0.4783  0.0843
 9270SOL    HW139446   2.760   0.872  17.051  2.4154  0.0215 -2.8608
 9270SOL    HW239447   2.675   0.758  17.050  1.1587  0.7771  0.7317
 9271SOL     OW39448   1.228   3.785  11.219 -0.9476  0.1722 -0.0292
 9271SOL    HW139449   1.244   3.753  11.308 -1.4071  0.6707  0.2355
 9271SOL    HW239450   1.150   3.837  11.236 -1.2430 -0.1320 -0.4570
 9272SOL     OW39451   4.728   3.887   6.944 -0.2936  0.2761 -0.1402
 9272SOL    HW139452   0.086   3.881   6.961 -0.9091 -1.2288  2.7447
 9272SOL    HW239453   4.720   3.863   6.851  0.7509  1.9539 -0.6773
 9273SOL     OW39454   2.415   3.516   2.392 -0.5611 -0.1434  0.2863
 9273SOL    HW139455   2.422   3.459   2.316 -2.4332  0.3281 -0.2347
 9273SOL    HW239456   2.422   3.606   2.360  0.1371 -0.6447 -0.9701
 9274SOL     OW39457   4.572   1.070  17.588 -0.9081 -0.4709  0.1809
 9274SOL    HW139458   4.478   1.054  17.577 -0.8558 -0.2079 -0.6314
 9274SOL    HW239459   4.608   1.059  17.501 -2.2451 -0.9946 -0.3099
 9275SOL     OW39460   3.671   1.379   6.714 -0.0522 -0.3005  0.3954
 9275SOL    HW139461   3.697   1.403   6.625  2.0146  0.1309  1.1100
 9275SOL    HW239462   3.662   1.460   6.765 -2.0267 -1.7006  2.2593
 9276SOL     OW39463   2.358   2.403   3.852  0.2202  0.1349 -0.3890
 9276SOL    HW139464   2.337   2.475   3.911  1.0505 -0.0965  0.1978
 9276SOL    HW239465   2.451   2.382   3.867 -0.4815 -1.6251  1.5830
 9277SOL     OW39466   3.594   1.875  10.971 -0.3759  0.7293  0.1129
 9277SOL    HW139467   3.509   1.838  10.949  0.6238 -1.2332 -0.4683
 9277SOL    HW239468   3.562   1.947  11.026 -0.6048  0.5047  0.2721
 9278SOL     OW39469   2.916   3.615  11.965  0.7751  0.3225 -0.0319
 9278SOL    HW139470   2.964   3.547  11.917 -1.5922 -0.8119 -0.7622
 9278SOL    HW239471   2.968   3.611  12.045 -0.6582 -1.9982  0.7927
 9279SOL     OW39472   3.063   0.187   6.143 -0.1845 -0.1789 -0.5565
 9279SOL    HW139473   2.986   0.235   6.171  0.9316  0.9761  0.4937
 9279SOL    HW239474   3.106   0.248   6.083 -0.0434  0.7480  0.4927
 9280SOL     OW39475   1.657   1.049   3.867  0.0122 -0.5055  0.0781
 9280SOL    HW139476   1.662   1.110   3.940 -0.2977  0.5537 -0.7856
 9280SOL    HW239477   1.699   0.971   3.903 -0.1273 -0.2380  0.8121
 9281SOL     OW39478   4.340   2.794   8.119  0.2258 -0.1211 -0.3566
 9281SOL    HW139479   4.324   2.845   8.198  1.8793  0.1174 -0.1638
 9281SOL    HW239480   4.324   2.708   8.160 -1.9759  0.4230 -0.1013
 9282SOL     OW39481   3.054   0.487   2.031 -0.4925 -0.5889  0.2747
 9282SOL    HW139482   3.110   0.528   2.096 -0.1006  0.5191 -0.7780
 9282SOL    HW239483   3.056   0.563   1.974  1.1041  0.4678  1.7763
 9283SOL     OW39484   3.266   1.386   8.321  0.0401  0.0303 -0.1691
 9283SOL    HW139485   3.245   1.471   8.282 -1.4293  0.4390  1.5186
 9283SOL    HW239486   3.181   1.347   8.301  0.9966 -1.5516 -1.1456
 9284SOL     OW39487   3.678   1.045   8.858 -0.1556 -0.0021 -0.1751
 9284SOL    HW139488   3.674   1.138   8.878 -1.2882 -0.6043  2.3855
 9284SOL    HW239489   3.592   1.020   8.891  1.9089 -2.2488  3.5284
 9285SOL     OW39490   3.828   2.400   3.686  0.1114 -0.3232 -0.8548
 9285SOL    HW139491   3.764   2.331   3.701 -0.2341 -0.0572 -1.1043
 9285SOL    HW239492   3.770   2.469   3.719 -1.7677 -2.1940 -0.1982
 9286SOL     OW39493   2.174   2.455   2.280  1.0104  0.0686 -0.3613
 9286SOL    HW139494   2.256   2.413   2.255  0.5433 -0.2344 -1.3921
 9286SOL    HW239495   2.199   2.531   2.333 -1.1317 -0.1876  1.0207
 9287SOL     OW39496   3.848   1.940   1.724 -0.2089  0.7190  0.1980
 9287SOL    HW139497   3.771   1.974   1.678  1.1687  2.0156 -1.1576
 9287SOL    HW239498   3.910   2.005   1.691 -0.8087  0.5219 -1.3408
 9288SOL     OW39499   1.650   4.299   4.570  0.1512 -0.7097  0.5216
 9288SOL    HW139500   1.569   4.351   4.573  0.5330 -0.2099  2.0005
 9288SOL    HW239501   1.714   4.369   4.576 -0.5587 -0.1857  1.9392
 9289SOL     OW39502   3.305   3.200   9.231  0.0812 -0.0731 -0.4079
 9289SOL    HW139503   3.274   3.125   9.181  0.9572 -1.1649  0.6738
 9289SOL    HW239504   3.324   3.164   9.318  1.1808  0.0811 -0.5785
 9290SOL     OW39505   2.422   1.946   5.791 -0.4784 -0.6777 -0.5859
 9290SOL    HW139506   2.335   1.926   5.827 -1.1609 -0.0981 -1.9156
 9290SOL    HW239507   2.394   1.958   5.700 -0.0056 -2.4688 -0.9761
 9291SOL     OW39508   2.989   1.184   3.791  0.0989 -0.2293  0.3157
 9291SOL    HW139509   2.936   1.228   3.857 -2.3614 -2.3301 -0.2590
 9291SOL    HW239510   3.031   1.108   3.832  2.3386  0.2665 -1.0000
 9292SOL     OW39511   1.046   2.323   4.984  0.2457 -0.0662  0.3958
 9292SOL    HW139512   1.079   2.265   4.915 -1.7343  2.3618 -2.5755
 9292SOL    HW239513   1.087   2.406   4.958 -0.6201  0.7194  1.5252
 9293SOL     OW39514   4.640   2.700   7.678  0.7501 -0.1996 -0.0264
 9293SOL    HW139515   4.688   2.685   7.760  1.3041 -1.6672 -0.6058
 9293SOL    HW239516   4.685   2.641   7.617  1.4018 -0.3157  0.5507
 9294SOL     OW39517   3.549   1.414   7.080  0.3784 -0.1352  0.0045
 9294SOL    HW139518   3.579   1.505   7.072 -2.2705  0.7798  0.4888
 9294SOL    HW239519   3.627   1.364   7.103 -0.5485 -2.1826 -1.2821
 9295SOL     OW39520   3.241   2.917   3.972 -0.1678  0.1805 -0.0241
 9295SOL    HW139521   3.185   2.956   4.039 -1.8414 -3.5098  0.7551
 9295SOL    HW239522   3.303   2.861   4.018 -1.4945  1.1494  2.9347
 9296SOL     OW39523   3.845   2.360   9.420 -0.3671  0.4184 -0.3680
 9296SOL    HW139524   3.889   2.275   9.416  1.3732  1.2401  1.2303
 9296SOL    HW239525   3.909   2.421   9.457 -2.3805  2.8504 -0.9228
 9297SOL     OW39526   0.731   3.656   5.311 -0.0105 -0.1798 -0.0160
 9297SOL    HW139527   0.767   3.584   5.363 -0.7136 -1.3708 -1.1627
 9297SOL    HW239528   0.639   3.630   5.300  0.4666 -2.6791  1.8335
 9298SOL     OW39529   1.840   3.575   4.996 -0.4170 -0.4048 -0.3995
 9298SOL    HW139530   1.828   3.662   5.032 -3.6986 -0.9562 -0.1709
 9298SOL    HW239531   1.935   3.583   4.982 -0.1173  0.3026  1.9933
 9299SOL     OW39532   4.499   2.140  13.055 -0.5056  0.1643 -0.4294
 9299SOL    HW139533   4.531   2.209  12.998  0.1626 -0.6090 -0.9992
 9299SOL    HW239534   4.443   2.089  12.997 -1.1708 -1.0436  1.2595
 9300SOL     OW39535   2.999   3.906   8.321 -0.2520 -0.1287  0.6946
 9300SOL    HW139536   3.090   3.908   8.349 -0.9784  1.7927  2.9512
 9300SOL    HW239537   2.990   3.815   8.292  0.9427 -0.0540  0.1294
 9301SOL     OW39538   4.611   3.037   3.347  0.4371 -0.3142 -0.7133
 9301SOL    HW139539   4.560   3.084   3.413 -1.9332 -1.2873 -1.8331
 9301SOL    HW239540   4.594   3.086   3.266  1.9399 -2.4777 -2.3506
 9302SOL     OW39541   2.261   4.361   8.770  0.0642 -0.4258 -0.0395
 9302SOL    HW139542   2.314   4.387   8.845  0.9354 -0.0794 -0.7770
 9302SOL    HW239543   2.312   4.298   8.719  0.7856 -0.4371  0.6951
 9303SOL     OW39544   1.421   4.605   5.971 -0.2800  0.1586 -0.3997
 9303SOL    HW139545   1.371   4.642   6.044 -0.2816 -4.1094  1.7235
 9303SOL    HW239546   1.403   4.666   5.899 -0.8198  0.4961  0.0205
 9304SOL     OW39547   3.398   4.061   7.173 -0.6163  0.4030  0.4490
 9304SOL    HW139548   3.490   4.066   7.149 -1.4448 -1.0095 -2.9869
 9304SOL    HW239549   3.375   4.154   7.184 -1.5332  0.0415  1.5760
 9305SOL     OW39550   0.568   1.698   9.790  0.1417  0.3829  0.3151
 9305SOL    HW139551   0.599   1.616   9.829  0.1408  0.3630  0.2745
 9305SOL    HW239552   0.480   1.680   9.758  0.6929  0.4534 -1.2963
 9306SOL     OW39553   3.031   2.369   6.461  0.2441 -1.0597  0.7041
 9306SOL    HW139554   2.982   2.410   6.390  0.7352  0.3391  1.1833
 9306SOL    HW239555   3.108   2.426   6.465 -0.2286 -0.2475 -1.6936
 9307SOL     OW39556   2.613   2.831   3.948 -0.2859  0.0379  0.0259
 9307SOL    HW139557   2.614   2.840   4.043 -1.8699 -1.7775  0.2277
 9307SOL    HW239558   2.525   2.794   3.936  0.0230 -1.8098  3.6064
 9308SOL     OW39559   2.480   0.407   6.050  0.0264 -0.5004 -0.1893
 9308SOL    HW139560   2.420   0.357   6.105 -1.5266  0.5592 -0.8981
 9308SOL    HW239561   2.484   0.357   5.968  2.3787  1.8713 -1.5332
 9309SOL     OW39562   2.897   1.278   6.736 -0.5435 -0.4770 -0.0823
 9309SOL    HW139563   2.802   1.283   6.753 -0.2901 -1.6464  1.6734
 9309SOL    HW239564   2.937   1.283   6.823 -0.4381 -0.0341 -0.1607
 9310SOL     OW39565   4.571   1.176   1.410 -1.3213 -0.4033  0.4659
 9310SOL    HW139566   4.622   1.188   1.490 -0.7199  2.9049 -0.3990
 9310SOL    HW239567   4.514   1.252   1.406  3.0927  2.9325  0.8996
 9311SOL     OW39568   0.886   3.710  14.305 -0.3283  0.0638  0.6492
 9311SOL    HW139569   0.865   3.627  14.262 -0.0232 -0.6185  1.8007
 9311SOL    HW239570   0.833   3.777  14.263 -0.5520  0.2044  1.1633
 9312SOL     OW39571   2.331   3.989   6.456  0.1967  0.4903 -0.3792
 9312SOL    HW139572   2.247   4.034   6.449 -0.4320 -0.3387  1.7085
 9312SOL    HW239573   2.386   4.052   6.503 -2.6357  0.9205  2.3045
 9313SOL     OW39574   4.114   0.333   4.017  0.5605  0.3172  0.4347
 9313SOL    HW139575   4.118   0.397   3.946 -2.8736  1.7922  1.6041
 9313SOL    HW239576   4.187   0.276   3.994 -0.4103 -0.3421 -1.0341
 9314SOL     OW39577   0.129   1.073   4.548 -0.1393  0.2655 -0.0277
 9314SOL    HW139578   0.132   0.995   4.603 -2.1019 -2.0396 -3.2358
 9314SOL    HW239579   0.177   1.044   4.471  0.9261 -0.4720  0.9151
 9315SOL     OW39580   1.306   3.056   2.030  0.3099 -0.5116  0.5981
 9315SOL    HW139581   1.272   3.122   1.970 -1.4471 -1.4685  0.5518
 9315SOL    HW239582   1.340   3.119   2.094 -0.6054  1.4877 -0.8822
 9316SOL     OW39583   3.916   0.895  13.322  0.0926 -0.3765 -0.0922
 9316SOL    HW139584   3.834   0.918  13.278  0.6130  1.1691 -0.2313
 9316SOL    HW239585   3.966   0.975  13.307  0.4013  0.0796  3.5636
 9317SOL     OW39586   2.211   4.435  11.023  0.1675 -0.2805  0.2777
 9317SOL    HW139587   2.259   4.491  10.961  0.4232  1.7213  2.2730
 9317SOL    HW239588   2.162   4.508  11.062 -0.3870 -0.0146 -0.8997
 9318SOL     OW39589   2.090   1.359   9.241  0.0425  0.2166  0.4567
 9318SOL    HW139590   1.994   1.360   9.233  0.1704  2.9481 -0.6874
 9318SOL    HW239591   2.102   1.446   9.279 -3.3415  0.5808  0.7343
 9319SOL     OW39592   1.042   2.233   4.224 -0.3950 -0.0135 -0.3148
 9319SOL    HW139593   0.976   2.199   4.163  1.0331 -2.4671 -0.4889
 9319SOL    HW239594   1.080   2.153   4.260 -2.0547 -1.3731 -1.5706
 9320SOL     OW39595   0.406   1.476   9.418 -0.0831  0.1246 -0.1953
 9320SOL    HW139596   0.331   1.521   9.379 -2.1500 -3.1724 -0.0607
 9320SOL    HW239597   0.388   1.476   9.512 -1.1583 -1.8158 -0.4019
 9321SOL     OW39598   1.923   3.960   7.195 -0.5377  0.2294  0.2398
 9321SOL    HW139599   1.965   3.892   7.248 -0.3817  1.1729  1.3444
 9321SOL    HW239600   1.884   4.016   7.263 -1.6065 -1.1673  0.7888
 9322SOL     OW39601   1.290   3.098   9.163  0.6489  0.2749 -0.5684
 9322SOL    HW139602   1.309   3.007   9.140 -0.0548  0.7027 -2.7689
 9322SOL    HW239603   1.376   3.138   9.176 -0.1149  1.2411  1.4479
 9323SOL     OW39604   1.033   1.093   0.664  0.4048  0.6513  0.0300
 9323SOL    HW139605   1.007   1.026   0.600  3.7537  1.2033 -1.8951
 9323SOL    HW239606   1.102   1.138   0.615  1.1985  0.0680  0.6303
 9324SOL     OW39607   2.188   0.212   5.988  0.1902 -0.2215  0.0421
 9324SOL    HW139608   2.105   0.168   6.007  0.9088 -0.7917  1.9754
 9324SOL    HW239609   2.162   0.282   5.929  0.0798 -0.1541  0.1698
 9325SOL     OW39610   2.705   3.335   5.331  0.0658 -0.5811 -0.5856
 9325SOL    HW139611   2.749   3.250   5.335 -1.0191 -1.1618 -1.1281
 9325SOL    HW239612   2.616   3.300   5.322 -1.2407  3.0652 -1.6204
 9326SOL     OW39613   2.005   0.540   8.208  0.0184  0.3762  0.2150
 9326SOL    HW139614   2.008   0.634   8.191  0.2910  0.2172 -0.6010
 9326SOL    HW239615   2.035   0.541   8.299 -0.6217  1.9087  0.4101
 9327SOL     OW39616   4.354   2.042   3.620 -0.4336  0.2137  0.3878
 9327SOL    HW139617   4.280   2.102   3.626 -0.0044  0.8474 -0.6830
 9327SOL    HW239618   4.306   1.962   3.640  0.3231 -0.2171  0.5128
 9328SOL     OW39619   4.351   3.513   1.285  0.2799  0.3196 -0.3742
 9328SOL    HW139620   4.432   3.490   1.241  0.7703 -1.4080  1.4331
 9328SOL    HW239621   4.293   3.461   1.229  0.3796 -1.1826  0.9179
 9329SOL     OW39622   1.901   2.757   3.783  0.7267  0.2434 -0.1185
 9329SOL    HW139623   1.966   2.781   3.717 -2.1398  0.1136 -2.9418
 9329SOL    HW239624   1.822   2.798   3.749  0.9870  0.4910 -0.4195
 9330SOL     OW39625   1.400   0.627   7.920  0.0731  0.4917 -0.0342
 9330SOL    HW139626   1.321   0.579   7.942 -0.4034  1.0266 -0.5884
 9330SOL    HW239627   1.442   0.646   8.004 -1.0088 -1.0035  0.8234
 9331SOL     OW39628   3.621   3.643   5.541 -0.2827 -0.6601 -0.0368
 9331SOL    HW139629   3.673   3.571   5.504 -0.9715 -0.3518 -1.5718
 9331SOL    HW239630   3.535   3.605   5.559 -0.3668 -0.4754 -0.0571
 9332SOL     OW39631   1.956   2.657   6.418 -0.4602 -0.1858 -0.1058
 9332SOL    HW139632   2.010   2.608   6.479  0.5446  0.5916 -0.3628
 9332SOL    HW239633   1.877   2.668   6.471  0.8055 -0.7512  1.9018
 9333SOL     OW39634   3.391   2.215   3.320  0.6441  0.0838 -0.1167
 9333SOL    HW139635   3.431   2.284   3.373 -0.6477 -0.5076  1.6237
 9333SOL    HW239636   3.352   2.169   3.394  0.7698 -0.2927 -0.2871
 9334SOL     OW39637   2.415   0.855  16.812  0.4453 -0.6252  0.5547
 9334SOL    HW139638   2.347   0.922  16.805  1.8349  0.6442 -0.4399
 9334SOL    HW239639   2.495   0.907  16.815 -0.9387  1.5339  0.4916
 9335SOL     OW39640   2.049   2.082   3.412  0.3253 -0.2592 -0.7360
 9335SOL    HW139641   2.090   2.059   3.495 -1.4908  0.9124  0.4940
 9335SOL    HW239642   2.129   2.099   3.362  0.8637  0.8756  0.5260
 9336SOL     OW39643   3.414   3.582   8.604  0.3254 -0.7200 -0.7998
 9336SOL    HW139644   3.456   3.616   8.683 -0.6344 -0.2227 -0.5045
 9336SOL    HW239645   3.488   3.541   8.559  0.4780 -0.7073 -0.5584
 9337SOL     OW39646   3.613   4.219  17.532  0.6075  0.1730  0.0496
 9337SOL    HW139647   3.555   4.294  17.542 -0.9536 -1.3110  1.9927
 9337SOL    HW239648   3.680   4.262  17.477  0.4815 -1.8977 -1.7263
 9338SOL     OW39649   4.003   0.381  14.053  0.4776 -0.7963  0.6453
 9338SOL    HW139650   4.096   0.386  14.035  0.5176  0.1420  1.1214
 9338SOL    HW239651   3.987   0.291  14.081 -0.5568 -1.2127 -1.2933
 9339SOL     OW39652   4.201   4.466   4.886 -0.0754 -0.3726 -0.7034
 9339SOL    HW139653   4.184   4.372   4.888 -1.9777 -0.0258 -0.7565
 9339SOL    HW239654   4.278   4.475   4.829  0.1139  0.1796 -0.3612
 9340SOL     OW39655   2.093   4.064   3.603  0.2561 -0.6345 -0.7237
 9340SOL    HW139656   2.113   4.099   3.690  0.0429 -0.0247 -0.9202
 9340SOL    HW239657   2.105   3.974   3.633 -0.6880 -0.1255  1.1682
 9341SOL     OW39658   1.071   0.966   1.504  0.5676 -0.2631  0.5497
 9341SOL    HW139659   1.008   0.942   1.436 -1.2785  1.0694  1.7946
 9341SOL    HW239660   1.152   0.917   1.491  1.3005  1.0840  0.0536
 9342SOL     OW39661   0.712   0.156   1.964  0.3292  0.2193 -0.4614
 9342SOL    HW139662   0.682   0.247   1.971 -0.4378 -0.0890  0.3399
 9342SOL    HW239663   0.651   0.116   1.902 -1.0358  1.5560  0.0387
 9343SOL     OW39664   3.269   4.023   9.520 -0.4783  0.2780  0.6590
 9343SOL    HW139665   3.272   3.973   9.438 -0.3531  0.3960  0.5916
 9343SOL    HW239666   3.177   4.048   9.526 -0.4017  0.3048  1.6050
 9344SOL     OW39667   1.012   4.723  15.584  0.2311 -0.2012 -0.1870
 9344SOL    HW139668   1.017   4.632  15.554 -1.5047  0.7575 -3.4801
 9344SOL    HW239669   0.999   0.025  15.497  2.1681 -1.6015 -1.1126
 9345SOL     OW39670   0.517   3.177   2.014 -0.6114  0.2276 -0.7159
 9345SOL    HW139671   0.471   3.239   1.957 -1.4436  0.9810  0.7690
 9345SOL    HW239672   0.493   3.206   2.102  1.2183 -0.0365 -0.1361
 9346SOL     OW39673   4.030   3.017   4.596  0.1314  0.4270  0.0489
 9346SOL    HW139674   4.091   3.091   4.591 -0.3458  0.7093 -1.3645
 9346SOL    HW239675   4.087   2.950   4.559 -0.0246 -1.0445  2.4883
 9347SOL     OW39676   3.813   3.156   3.337  0.0955 -0.2313 -0.5179
 9347SOL    HW139677   3.877   3.097   3.296  0.4661 -1.2335  1.4949
 9347SOL    HW239678   3.878   3.223   3.358 -0.4284  0.2089 -0.3285
 9348SOL     OW39679   3.076   3.744   6.165  0.0294  0.0907  0.1999
 9348SOL    HW139680   3.052   3.671   6.109 -0.1852 -0.8064  1.4443
 9348SOL    HW239681   3.102   3.701   6.247 -1.5207 -0.9987  0.1287
 9349SOL     OW39682   3.914   4.369  12.614  0.4205  0.6646  0.1013
 9349SOL    HW139683   3.916   4.402  12.525  3.2303 -1.9398 -0.7774
 9349SOL    HW239684   3.830   4.399  12.650 -0.0223 -1.9683  1.2735
 9350SOL     OW39685   2.879   1.091  14.820  0.6284 -0.3524  0.0597
 9350SOL    HW139686   2.876   1.184  14.797  0.0912 -0.1566  0.9067
 9350SOL    HW239687   2.833   1.045  14.749  0.4871 -0.9294  0.5231
 9351SOL     OW39688   4.147   4.420   6.729  0.2151 -0.1966  0.3549
 9351SOL    HW139689   4.085   4.479   6.686  1.1443  1.1790  0.8895
 9351SOL    HW239690   4.101   4.393   6.809 -0.7948 -2.3665 -0.9565
 9352SOL     OW39691   3.524   1.575  11.802 -0.0136 -0.5651 -0.1364
 9352SOL    HW139692   3.555   1.651  11.753 -0.8211  0.5656  1.0884
 9352SOL    HW239693   3.494   1.611  11.886  1.1728  0.2786 -0.0741
 9353SOL     OW39694   4.458   0.499   3.844 -0.3048  0.4563 -0.3179
 9353SOL    HW139695   4.530   0.560   3.856 -0.9903  0.9061  1.6342
 9353SOL    HW239696   4.504   0.424   3.807 -0.9069  0.5521 -1.2632
 9354SOL     OW39697   2.175   1.604   4.634 -0.2225  0.8130 -0.3666
 9354SOL    HW139698   2.140   1.521   4.668  0.5491  0.7024  0.1550
 9354SOL    HW239699   2.205   1.581   4.546 -0.3921 -2.1004  0.3267
 9355SOL     OW39700   1.895   2.913   1.377 -0.6354 -0.0120 -0.4809
 9355SOL    HW139701   1.886   3.008   1.380 -1.4223 -0.1181  0.5706
 9355SOL    HW239702   1.981   2.899   1.338 -0.7085 -0.2003 -0.5727
 9356SOL     OW39703   2.499   3.048   2.745 -0.2835  0.1628 -0.7965
 9356SOL    HW139704   2.591   3.025   2.737  0.2306  1.9128  0.1063
 9356SOL    HW239705   2.501   3.126   2.690  0.1369 -1.1458 -2.6451
 9357SOL     OW39706   2.511   2.544   5.401  0.8807  0.7005 -0.6656
 9357SOL    HW139707   2.572   2.505   5.337 -0.3651 -0.0817 -1.3807
 9357SOL    HW239708   2.426   2.508   5.377  0.4183  3.2696 -2.9504
 9358SOL     OW39709   4.618   0.591  14.140  0.1473 -0.2970 -0.3079
 9358SOL    HW139710   4.713   0.605  14.144 -0.2834  2.3107  0.8502
 9358SOL    HW239711   4.590   0.674  14.099 -1.3734 -0.6009  0.1290
 9359SOL     OW39712   2.929   4.281  13.196 -0.3018  0.2819 -0.5793
 9359SOL    HW139713   2.852   4.272  13.252 -0.4275 -0.0621 -0.8130
 9359SOL    HW239714   2.980   4.338  13.254 -1.6155  0.5600  0.3063
 9360SOL     OW39715   4.330   4.642  15.250  0.1775  0.5525 -0.1625
 9360SOL    HW139716   4.292   4.586  15.182 -0.5255 -1.1212  1.5813
 9360SOL    HW239717   4.371   4.703  15.189  1.1870  2.1705  2.1776
 9361SOL     OW39718   1.994   4.566   6.445  0.0872  0.1582  0.4538
 9361SOL    HW139719   1.961   4.522   6.366  0.0898 -1.5040  1.3947
 9361SOL    HW239720   1.926   4.538   6.506 -0.0568 -2.6320 -1.0029
 9362SOL     OW39721   1.764   4.049   5.305 -0.4648 -0.1362  0.3034
 9362SOL    HW139722   1.844   4.064   5.355 -1.3595  3.1921  0.7304
 9362SOL    HW239723   1.800   4.078   5.221  0.1857  0.7349  0.8772
 9363SOL     OW39724   0.540   0.314   5.030 -0.0215 -0.3633 -0.4707
 9363SOL    HW139725   0.584   0.374   4.971  1.7356 -2.4577 -1.2970
 9363SOL    HW239726   0.552   0.228   4.988  0.6157  0.2286 -1.4874
 9364SOL     OW39727   3.191   4.392   9.578 -0.3497 -0.1456 -0.0200
 9364SOL    HW139728   3.141   4.463   9.619 -1.9826 -1.5062  0.3758
 9364SOL    HW239729   3.249   4.448   9.526  0.0855  1.1495  1.8557
 9365SOL     OW39730   2.384   1.009   2.726 -0.2761  0.2204 -0.2772
 9365SOL    HW139731   2.302   0.965   2.749 -1.3179  2.9300  1.2474
 9365SOL    HW239732   2.385   1.089   2.779  1.6414 -0.2844  0.4749
 9366SOL     OW39733   2.788   0.694   9.080  0.2398 -0.2040  0.3367
 9366SOL    HW139734   2.882   0.714   9.077  0.2221 -0.2988 -0.7594
 9366SOL    HW239735   2.765   0.756   9.149 -0.4658 -0.9120  0.7449
 9367SOL     OW39736   3.344   0.508   7.211 -0.0561 -0.3981  0.4691
 9367SOL    HW139737   3.398   0.547   7.279  0.3384  2.8181 -1.7205
 9367SOL    HW239738   3.404   0.526   7.139  0.5588 -1.7470  0.6444
 9368SOL     OW39739   1.509   1.246   7.001 -0.6354 -0.4763  0.1800
 9368SOL    HW139740   1.520   1.195   7.081 -0.7410 -1.3096 -0.3372
 9368SOL    HW239741   1.488   1.332   7.038 -1.2148 -1.0133  1.0869
 9369SOL     OW39742   2.971   3.330   6.544 -0.0241 -0.8551 -0.4290
 9369SOL    HW139743   2.983   3.403   6.483  1.9258 -0.1703  0.7588
 9369SOL    HW239744   2.930   3.378   6.616 -0.5598 -1.5884 -0.2432
 9370SOL     OW39745   0.538   2.768   2.220  0.4335  0.0181 -1.0243
 9370SOL    HW139746   0.589   2.808   2.291 -0.2625  0.6951 -0.8957
 9370SOL    HW239747   0.557   2.825   2.146  1.5950  0.6763 -0.2134
 9371SOL     OW39748   0.867   4.544   5.633 -0.2573  0.1494 -0.2294
 9371SOL    HW139749   0.927   4.490   5.582  0.0745  1.3075 -1.0472
 9371SOL    HW239750   0.786   4.507   5.598 -1.2484  2.1940 -0.0609
 9372SOL     OW39751   3.942   2.036   5.699  0.0424 -0.5787 -0.1813
 9372SOL    HW139752   4.006   2.010   5.766 -0.4245 -0.5826  0.2637
 9372SOL    HW239753   4.000   2.011   5.627 -1.2008  0.9315 -1.7174
 9373SOL     OW39754   0.769   0.035   5.264 -0.2774  0.4393  0.4230
 9373SOL    HW139755   0.686   0.078   5.244 -0.9113 -0.4973  1.0528
 9373SOL    HW239756   0.783   0.084   5.346  2.3054 -0.9475  0.8209
 9374SOL     OW39757   3.960   2.085   8.672 -0.0208 -0.5409 -0.5401
 9374SOL    HW139758   3.961   2.178   8.694  0.0717 -1.2350  2.3579
 9374SOL    HW239759   3.918   2.102   8.588  2.3981 -0.4210 -1.7222
 9375SOL     OW39760   3.858   0.630   3.813  0.4437 -0.4330  0.0691
 9375SOL    HW139761   3.838   0.719   3.840  1.7481  0.5402 -2.2024
 9375SOL    HW239762   3.945   0.643   3.774  0.5418 -0.1611  0.3810
 9376SOL     OW39763   4.442   3.579   1.826 -0.3272 -1.2534  0.1520
 9376SOL    HW139764   4.409   3.521   1.895 -1.4656  0.7791  1.3143
 9376SOL    HW239765   4.388   3.654   1.848  0.0638 -1.0467  0.4070
 9377SOL     OW39766   3.825   1.807   2.272 -0.2192 -0.0566  0.0640
 9377SOL    HW139767   3.872   1.885   2.246  0.7716 -0.4531  0.6526
 9377SOL    HW239768   3.823   1.823   2.366 -2.1835 -0.7177  0.1399
 9378SOL     OW39769   0.666   2.314   5.835  0.7920 -0.9459  0.0617
 9378SOL    HW139770   0.596   2.379   5.827  0.0052 -1.8152 -0.1160
 9378SOL    HW239771   0.628   2.236   5.794 -0.2215 -0.6091  0.3496
 9379SOL     OW39772   0.209   2.177  14.609 -0.1710  0.0759  0.2167
 9379SOL    HW139773   0.138   2.122  14.644  1.5888 -2.1746  0.2439
 9379SOL    HW239774   0.276   2.109  14.597 -1.6766 -1.6696  1.6859
 9380SOL     OW39775   4.024   1.266   8.945 -0.4708 -0.0986  0.2550
 9380SOL    HW139776   3.931   1.251   8.932 -0.3993 -0.4129  0.1009
 9380SOL    HW239777   4.046   1.185   8.990 -2.1307  0.9197  2.8234
 9381SOL     OW39778   2.350   3.883  11.442  0.0708  0.3894 -0.1550
 9381SOL    HW139779   2.324   3.969  11.474  1.8434  0.3970  1.2685
 9381SOL    HW239780   2.271   3.838  11.472  0.3427 -0.4391 -0.6691
 9382SOL     OW39781   1.091   0.287  16.672  0.8893  0.0205 -0.0499
 9382SOL    HW139782   1.010   0.272  16.623  1.4390  0.7468 -1.1639
 9382SOL    HW239783   1.062   0.269  16.762 -0.1079  0.5727 -0.2586
 9383SOL     OW39784   1.817   2.129   7.816  0.0230 -0.1540 -0.0714
 9383SOL    HW139785   1.792   2.208   7.864 -0.6823  0.9119 -2.2136
 9383SOL    HW239786   1.773   2.058   7.862  0.7423 -0.8549 -0.4648
 9384SOL     OW39787   2.053   0.595  13.188  0.4665  0.3628  0.3553
 9384SOL    HW139788   1.975   0.540  13.187  0.9527 -0.3228  0.1040
 9384SOL    HW239789   2.114   0.534  13.229 -0.1509 -0.3225  0.2495
 9385SOL     OW39790   2.708   4.091   8.932  0.0553 -0.0495 -0.1722
 9385SOL    HW139791   2.785   4.071   8.985  1.6195 -1.4660 -2.9224
 9385SOL    HW239792   2.698   4.181   8.960 -1.1692  0.3393 -1.8504
 9386SOL     OW39793   3.984   3.138  13.403  0.0023 -0.0460  0.2359
 9386SOL    HW139794   3.889   3.153  13.406  0.1614  0.6388  1.8746
 9386SOL    HW239795   4.006   3.217  13.354 -0.7804  0.7028  1.0877
 9387SOL     OW39796   0.226   1.949  10.071  0.2210 -0.4126 -0.4877
 9387SOL    HW139797   0.210   1.921  10.161  0.6562  0.1002 -0.2523
 9387SOL    HW239798   0.160   1.900  10.021 -2.2899  3.4361 -0.9255
 9388SOL     OW39799   2.132   4.194   7.305 -0.0732  0.4163  0.2693
 9388SOL    HW139800   2.076   4.272   7.311  1.2428  1.2488  1.8349
 9388SOL    HW239801   2.103   4.134   7.237 -0.8276 -2.6768  3.3437
 9389SOL     OW39802   4.637   0.993   0.128 -0.0275  0.3839 -0.2841
 9389SOL    HW139803   4.696   1.020   0.198 -0.6399 -1.8968  1.1410
 9389SOL    HW239804   4.660   1.045   0.051  1.1068 -1.2558 -1.0562
 9390SOL     OW39805   4.382   3.550   6.466 -0.2040 -0.0860 -0.1893
 9390SOL    HW139806   4.292   3.574   6.485  0.6588  1.2587  2.2534
 9390SOL    HW239807   4.431   3.580   6.543 -2.8274 -0.4259  1.5911
 9391SOL     OW39808   0.364   0.663   9.110 -0.1273 -0.2864  0.1077
 9391SOL    HW139809   0.426   0.595   9.081 -0.5436 -0.6996  0.1953
 9391SOL    HW239810   0.345   0.716   9.032  0.7084 -0.5122 -0.2499
 9392SOL     OW39811   3.502   1.505   5.216 -0.0078 -0.3694 -0.0516
 9392SOL    HW139812   3.503   1.531   5.308  1.3163 -1.6346  0.2877
 9392SOL    HW239813   3.588   1.533   5.184 -0.9259  3.3575  0.7039
 9393SOL     OW39814   3.650   1.144   6.834 -0.5069 -0.4168  0.3430
 9393SOL    HW139815   3.651   1.214   6.769 -2.5150  0.0588  0.8194
 9393SOL    HW239816   3.569   1.096   6.814  0.3851 -1.1526 -1.5995
 9394SOL     OW39817   1.565   0.777   4.369 -0.7899  0.2495  0.1348
 9394SOL    HW139818   1.616   0.820   4.300  2.4835 -0.0611  2.3956
 9394SOL    HW239819   1.486   0.755   4.318 -0.4272 -0.1987 -0.2346
 9395SOL     OW39820   0.160   4.590   6.490  0.1043  0.0677  0.4760
 9395SOL    HW139821   0.134   4.511   6.441  1.8638  0.3964 -1.0266
 9395SOL    HW239822   0.253   4.594   6.468  0.2835 -0.8949  1.0637
 9396SOL     OW39823   3.748   0.852  13.566  0.1636 -0.2070 -0.1436
 9396SOL    HW139824   3.788   0.936  13.590 -0.1965 -0.3881  1.0635
 9396SOL    HW239825   3.789   0.851  13.479 -1.8787 -2.2839 -1.0801
 9397SOL     OW39826   3.988   2.575   7.127 -0.0776  0.3356 -0.1370
 9397SOL    HW139827   3.978   2.655   7.178  1.5044  0.6108 -0.2813
 9397SOL    HW239828   3.979   2.506   7.194 -0.9699  1.0316  0.4580
 9398SOL     OW39829   2.702   0.900  13.804 -0.1132 -0.3267  0.2538
 9398SOL    HW139830   2.785   0.862  13.774  0.6479  0.2493  1.6300
 9398SOL    HW239831   2.735   0.976  13.852  0.9349 -1.3234  1.0998
 9399SOL     OW39832   4.614   4.680   2.051 -0.9274  0.5929 -0.4668
 9399SOL    HW139833   4.658   4.649   2.130 -2.0612  1.5171  0.5233
 9399SOL    HW239834   4.689   4.683   1.991 -1.2222  2.1360 -0.7549
 9400SOL     OW39835   3.968   2.341  10.930 -0.0780  0.2905 -0.5664
 9400SOL    HW139836   3.960   2.425  10.884 -1.3825  0.0216 -0.8284
 9400SOL    HW239837   3.881   2.333  10.969  0.6109  1.7072  1.3129
 9401SOL     OW39838   3.305   0.798   5.396 -0.6576  0.5504  0.6642
 9401SOL    HW139839   3.338   0.804   5.486 -1.2733 -0.3602  0.9536
 9401SOL    HW239840   3.385   0.784   5.345 -1.7636  0.8951 -1.1612
 9402SOL     OW39841   0.889   3.939  12.502  0.2057  0.3061  1.2598
 9402SOL    HW139842   0.817   4.002  12.510  0.6412  0.9458  0.0410
 9402SOL    HW239843   0.903   3.898  12.588  1.8765  0.6200  1.1281
 9403SOL     OW39844   2.450   2.341   2.754 -0.4127  0.1093  0.5567
 9403SOL    HW139845   2.359   2.313   2.759 -0.6991  1.0192  0.4149
 9403SOL    HW239846   2.488   2.261   2.790 -1.0823  1.0996  3.4145
 9404SOL     OW39847   3.313   4.200   6.872 -0.2457  0.1995  0.3256
 9404SOL    HW139848   3.305   4.250   6.954  0.6668 -1.8721  1.6665
 9404SOL    HW239849   3.271   4.119   6.901 -1.8375  0.9008 -0.0238
 9405SOL     OW39850   3.962   2.039  14.890  0.2932 -0.1867 -0.2058
 9405SOL    HW139851   3.935   2.130  14.881  1.0333  0.2448  1.8348
 9405SOL    HW239852   3.927   1.998  14.811  0.1065 -1.0223  0.3132
 9406SOL     OW39853   0.495   1.707   3.233 -0.8797  0.2552  0.3088
 9406SOL    HW139854   0.452   1.651   3.298 -1.7248 -0.3298 -0.7556
 9406SOL    HW239855   0.528   1.632   3.182  0.2701  2.0647 -1.6165
 9407SOL     OW39856   1.076   4.552   9.153  0.0755 -0.4852  0.2274
 9407SOL    HW139857   1.115   4.478   9.201  1.9810  0.9524  0.9073
 9407SOL    HW239858   1.077   4.621   9.218 -1.2171 -0.8748  0.6658
 9408SOL     OW39859   3.964   0.238   6.712  0.0074 -0.1149  0.0822
 9408SOL    HW139860   4.002   0.325   6.728  1.5892 -0.3456 -2.4924
 9408SOL    HW239861   4.035   0.191   6.669  0.0207 -1.0740  1.1457
 9409SOL     OW39862   2.716   4.258  15.779  0.2420  0.2661  0.0243
 9409SOL    HW139863   2.625   4.240  15.802  0.9506 -1.5524  1.3780
 9409SOL    HW239864   2.703   4.244  15.685  1.2002  1.9518 -0.3743
 9410SOL     OW39865   4.532   3.796  10.727  0.3970 -0.0860 -0.1225
 9410SOL    HW139866   4.462   3.840  10.774 -0.4680  0.4177 -1.8764
 9410SOL    HW239867   4.607   3.839  10.768 -2.0270  2.6880  1.4369
 9411SOL     OW39868   1.322   2.894  12.804  0.4085  0.3085 -0.7394
 9411SOL    HW139869   1.227   2.893  12.802  0.4025 -0.6394 -0.1766
 9411SOL    HW239870   1.348   2.888  12.712  2.5522  1.8967 -0.2348
 9412SOL     OW39871   0.479   4.674   8.414 -0.4550  1.2094 -0.1643
 9412SOL    HW139872   0.404   4.617   8.433 -0.1211  1.3130  1.5369
 9412SOL    HW239873   0.511   4.632   8.335 -1.8989 -1.8608  0.8741
 9413SOL     OW39874   0.926   4.385   8.348 -0.4499 -0.1909 -0.3383
 9413SOL    HW139875   0.940   4.306   8.400 -1.2755 -0.4420 -0.4861
 9413SOL    HW239876   0.900   4.447   8.416 -0.0027  0.3648 -0.6770
 9414SOL     OW39877   4.402   2.386   9.063  0.7665  0.1463  0.4674
 9414SOL    HW139878   4.443   2.317   9.010 -1.1983  0.5586 -1.6234
 9414SOL    HW239879   4.310   2.383   9.037  1.2861  0.3614 -1.4063
 9415SOL     OW39880   4.399   4.255   2.552  0.2604  0.4032  0.2040
 9415SOL    HW139881   4.440   4.297   2.628 -0.8499  0.1339  0.9633
 9415SOL    HW239882   4.306   4.275   2.567  0.5323  1.3234  0.6454
 9416SOL     OW39883   1.508   2.119   7.647  0.1325  1.1253 -0.2625
 9416SOL    HW139884   1.534   2.187   7.709  1.0715 -0.6671  1.3315
 9416SOL    HW239885   1.485   2.171   7.570  1.7164  2.7693  0.3669
 9417SOL     OW39886   2.453   0.109   7.927 -0.0554 -0.5960  0.1181
 9417SOL    HW139887   2.402   0.189   7.912  0.8194  0.6768  4.0072
 9417SOL    HW239888   2.528   0.135   7.875  0.8845  1.0782  2.3288
 9418SOL     OW39889   2.683   0.794   1.158  0.2079  0.6412 -0.1611
 9418SOL    HW139890   2.685   0.701   1.181  0.2101  0.5151 -0.6777
 9418SOL    HW239891   2.731   0.837   1.229  1.3919 -0.0200 -0.5758
 9419SOL     OW39892   3.989   3.856  11.049 -0.6500 -0.3425 -0.0405
 9419SOL    HW139893   3.898   3.827  11.048  0.3977 -3.6128  1.2141
 9419SOL    HW239894   4.043   3.777  11.042 -1.1126 -0.6174 -0.4776
 9420SOL     OW39895   4.190   1.430   7.642 -0.3186  0.1797  0.1066
 9420SOL    HW139896   4.144   1.501   7.596 -0.6166 -0.9533 -1.3484
 9420SOL    HW239897   4.135   1.355   7.622 -0.4809  0.5505 -0.8869
 9421SOL     OW39898   1.515   0.794  11.851  0.4999 -0.1027  0.1546
 9421SOL    HW139899   1.428   0.821  11.878  0.6568  2.4492 -1.8467
 9421SOL    HW239900   1.504   0.732  11.779 -0.3360  0.4558 -0.1986
 9422SOL     OW39901   0.737   3.799   2.767 -0.0584  0.0864  0.1496
 9422SOL    HW139902   0.716   3.769   2.855  1.7801  0.0965  0.6074
 9422SOL    HW239903   0.682   3.738   2.718 -1.9940  1.3122  0.8071
 9423SOL     OW39904   3.563   2.619   8.626  0.6431  0.0845 -0.0775
 9423SOL    HW139905   3.611   2.594   8.705 -3.0063  2.7797  2.9850
 9423SOL    HW239906   3.604   2.681   8.566  1.1428 -0.6343 -0.4735
 9424SOL     OW39907   3.038   4.195   9.549  0.4123 -0.0440  0.1018
 9424SOL    HW139908   2.997   4.216   9.464  0.7942  0.9196  0.1610
 9424SOL    HW239909   3.097   4.270   9.549  0.1837  0.1230  3.2908
 9425SOL     OW39910   3.682   1.197   4.894  0.6351 -0.2928  0.8845
 9425SOL    HW139911   3.587   1.189   4.898  0.5869  0.2154  0.6681
 9425SOL    HW239912   3.680   1.255   4.818 -0.1586  0.5196  1.5371
 9426SOL     OW39913   0.538   2.519  14.122  0.2905 -0.2794  0.0853
 9426SOL    HW139914   0.588   2.438  14.107 -0.5692 -0.8142  0.1057
 9426SOL    HW239915   0.604   2.586  14.108  1.9511 -2.0056 -0.4350
 9427SOL     OW39916   0.977   2.013   4.735 -0.2732 -0.4456 -0.0955
 9427SOL    HW139917   0.901   2.031   4.680  1.9291  1.2525 -2.5329
 9427SOL    HW239918   1.020   2.098   4.733 -0.8606 -0.1809 -1.1347
 9428SOL     OW39919   2.418   0.938   0.733  0.0673 -0.3242  0.1236
 9428SOL    HW139920   2.393   1.002   0.667 -1.3481 -0.5936  0.3891
 9428SOL    HW239921   2.369   0.969   0.809 -1.6810  0.0368 -1.1219
 9429SOL     OW39922   1.172   2.102  11.751 -0.5066  0.6939 -0.6143
 9429SOL    HW139923   1.175   2.017  11.707  0.5962  0.0032  0.7843
 9429SOL    HW239924   1.188   2.074  11.842  0.0007  0.0464 -0.9003
 9430SOL     OW39925   2.638   4.193   9.811  0.1587  0.1507  0.0885
 9430SOL    HW139926   2.686   4.198   9.893  2.0474 -0.4148 -0.9731
 9430SOL    HW239927   2.723   4.196   9.768  0.0018  0.6956 -0.1848
 9431SOL     OW39928   1.025   2.643  10.306  0.3944 -0.3679  0.4251
 9431SOL    HW139929   0.930   2.632  10.308  0.4469 -1.0212 -0.8811
 9431SOL    HW239930   1.028   2.689  10.222  1.4713  3.7364  2.7022
 9432SOL     OW39931   3.994   0.235  13.187 -0.1453  0.3110 -0.1568
 9432SOL    HW139932   3.972   0.297  13.256  1.0667  0.7098 -0.1306
 9432SOL    HW239933   4.046   0.180  13.245 -0.6837  0.1412  0.1616
 9433SOL     OW39934   1.547   4.569  10.550  0.2252 -0.1256 -0.1687
 9433SOL    HW139935   1.613   4.636  10.532  0.9236 -1.0956 -1.2223
 9433SOL    HW239936   1.548   4.554  10.645  2.8445  1.4182  0.0198
 9434SOL     OW39937   3.605   4.725   8.642 -0.1668 -0.0062 -0.2303
 9434SOL    HW139938   3.569   0.076   8.628 -0.1035 -0.1337 -1.1748
 9434SOL    HW239939   3.526   4.678   8.668  1.0198 -1.2479  1.1039
 9435SOL     OW39940   1.794   0.167   0.585 -0.0421 -0.1878 -0.3634
 9435SOL    HW139941   1.885   0.139   0.586  0.6186  1.9907 -0.4854
 9435SOL    HW239942   1.797   0.244   0.529 -2.0639 -0.7054 -1.2041
 9436SOL     OW39943   2.246   2.824   4.256  0.7401 -0.1998  0.7419
 9436SOL    HW139944   2.199   2.908   4.257  3.3851  1.2761  2.6023
 9436SOL    HW239945   2.291   2.835   4.340  0.1972 -1.6581  1.2253
 9437SOL     OW39946   3.048   1.756   8.389  0.1148 -0.0930  0.1691
 9437SOL    HW139947   3.080   1.838   8.350  0.5034  0.4962  1.7576
 9437SOL    HW239948   3.097   1.694   8.334 -0.7210  0.8701 -1.6864
 9438SOL     OW39949   2.998   3.488  16.184  0.3304  0.2077 -0.3237
 9438SOL    HW139950   3.020   3.480  16.277 -1.5380  3.0180  0.3565
 9438SOL    HW239951   3.078   3.530  16.153  1.2480 -1.2621  0.0224
 9439SOL     OW39952   3.079   2.839  12.733  0.0182 -0.1185  0.2340
 9439SOL    HW139953   3.017   2.780  12.777 -0.0383  0.7554  1.3203
 9439SOL    HW239954   3.143   2.772  12.707  2.0489  2.5544 -1.5532
 9440SOL     OW39955   1.860   3.946   2.393  0.1464 -0.3718 -0.3244
 9440SOL    HW139956   1.915   3.994   2.331  1.1012  2.4098  2.7436
 9440SOL    HW239957   1.777   3.942   2.346  0.5435  1.7117 -1.2085
 9441SOL     OW39958   1.558   2.403   5.122 -0.7877 -0.0011  0.2447
 9441SOL    HW139959   1.551   2.475   5.059  1.2833 -2.1191 -2.3955
 9441SOL    HW239960   1.641   2.363   5.097 -0.9128 -0.3519  0.3967
 9442SOL     OW39961   2.011   0.227  13.403 -0.3849  0.4032 -0.3434
 9442SOL    HW139962   2.070   0.152  13.395 -0.5387  0.4232 -1.5351
 9442SOL    HW239963   1.968   0.198  13.483  1.3651  0.3197  0.5855
 9443SOL     OW39964   1.426   0.711   2.513 -0.0443 -0.0458 -0.1195
 9443SOL    HW139965   1.370   0.643   2.549  0.0227  0.5780  1.1812
 9443SOL    HW239966   1.455   0.673   2.430 -0.8087 -3.1791  1.0784
 9444SOL     OW39967   1.354   1.828   7.923 -0.2368  1.2685 -0.2165
 9444SOL    HW139968   1.301   1.848   8.001 -1.6802 -0.0713 -0.8728
 9444SOL    HW239969   1.295   1.860   7.855 -1.0815 -1.3309 -0.6873
 9445SOL     OW39970   1.919   1.978   7.596 -0.1848 -0.6903 -0.6612
 9445SOL    HW139971   1.987   2.046   7.593 -1.0635  0.0473 -4.1959
 9445SOL    HW239972   1.869   2.020   7.666 -2.2607  0.1512 -2.6481
 9446SOL     OW39973   1.264   1.458   2.687 -0.6569 -0.3132  0.2229
 9446SOL    HW139974   1.292   1.443   2.778 -0.3810 -0.9310  0.0375
 9446SOL    HW239975   1.324   1.399   2.642 -0.2400 -0.2065  0.6361
 9447SOL     OW39976   0.643   3.214   2.832 -0.2536 -0.0949  0.5657
 9447SOL    HW139977   0.612   3.172   2.752  3.5015  0.1317 -1.0051
 9447SOL    HW239978   0.605   3.300   2.817  0.4463  0.4268  1.7889
 9448SOL     OW39979   2.095   1.928   2.337  0.0571  0.1200  0.0128
 9448SOL    HW139980   2.092   2.023   2.350  0.5937  0.2562 -0.8628
 9448SOL    HW239981   2.177   1.909   2.381 -1.2252  1.1033  2.8354
 9449SOL     OW39982   3.546   0.412   6.245  0.0932  0.0650  0.1231
 9449SOL    HW139983   3.479   0.450   6.302 -0.0278  1.0173 -0.6509
 9449SOL    HW239984   3.621   0.416   6.305 -0.0792  1.8528  0.2207
 9450SOL     OW39985   1.426   1.146   3.372  0.2844  0.0535 -0.6136
 9450SOL    HW139986   1.419   1.188   3.458  0.6010  2.2830 -1.6618
 9450SOL    HW239987   1.520   1.162   3.360  0.0884  1.6537  0.0406
 9451SOL     OW39988   4.702   2.056   9.109  0.1625  0.3470 -0.4812
 9451SOL    HW139989   4.676   1.975   9.065  0.9140  0.9403 -2.0245
 9451SOL    HW239990   4.660   2.115   9.047  0.2836 -0.5551 -1.4155
 9452SOL     OW39991   0.338   3.160   1.388  0.0045  0.6635  0.4485
 9452SOL    HW139992   0.343   3.248   1.424 -0.4905  0.7240  0.3687
 9452SOL    HW239993   0.401   3.160   1.315 -2.9642 -1.8232 -2.1197
 9453SOL     OW39994   3.264   1.739   5.614 -0.5171 -0.2539 -0.1134
 9453SOL    HW139995   3.260   1.794   5.692 -2.0980  0.5979 -0.7923
 9453SOL    HW239996   3.337   1.771   5.560 -2.9335  1.1162 -2.5835
 9454SOL     OW39997   2.903   0.225   7.274 -0.3165 -0.7798 -0.4263
 9454SOL    HW139998   2.976   0.273   7.234  0.6404 -0.6137  1.5333
 9454SOL    HW239999   2.944   0.185   7.351 -1.5077  1.6290  1.4618
 9455SOL     OW40000   1.760   3.352  14.802  0.4768  0.8382  1.4471
 9455SOL    HW140001   1.757   3.284  14.869  1.2335 -0.2592  0.3830
 9455SOL    HW240002   1.778   3.432  14.850 -0.7776  1.8127  0.3018
 9456SOL     OW40003   2.059   3.508   6.374  0.4691 -0.4796 -0.0210
 9456SOL    HW140004   2.154   3.517   6.380  0.3410 -0.2363  1.6366
 9456SOL    HW240005   2.034   3.577   6.312 -3.0154 -0.3692  1.5355
 9457SOL     OW40006   3.193   4.434   2.936  0.1775  0.2107  0.2437
 9457SOL    HW140007   3.167   4.345   2.959  2.2744 -0.2185  0.9861
 9457SOL    HW240008   3.181   4.423   2.841 -1.9871 -0.0334  0.5562
 9458SOL     OW40009   1.679   1.629   4.180 -0.0123  0.9580 -0.6578
 9458SOL    HW140010   1.693   1.705   4.237 -0.1737  1.8333 -1.8016
 9458SOL    HW240011   1.644   1.562   4.238 -0.9328 -0.0361 -2.3743
 9459SOL     OW40012   2.592   0.813  12.453 -0.3120 -0.4968 -0.3181
 9459SOL    HW140013   2.621   0.833  12.542 -1.7622 -1.5229  0.4020
 9459SOL    HW240014   2.506   0.772  12.466 -1.3484  1.3353 -1.3122
 9460SOL     OW40015   2.018   1.333   1.106  0.1825 -0.0126 -0.3656
 9460SOL    HW140016   1.986   1.246   1.128  1.6211 -0.6225 -0.6811
 9460SOL    HW240017   2.109   1.324   1.136  1.0219  0.6095 -2.7622
 9461SOL     OW40018   3.314   0.210   3.307  0.0508 -0.3867 -0.6222
 9461SOL    HW140019   3.405   0.238   3.313 -0.1669 -0.0340  1.2820
 9461SOL    HW240020   3.322   0.118   3.284 -0.3303 -0.7587  0.7115
 9462SOL     OW40021   0.646   3.947   0.532 -0.0378 -0.4067 -0.6832
 9462SOL    HW140022   0.574   3.952   0.469  1.1780  1.2945 -1.9422
 9462SOL    HW240023   0.643   3.858   0.566  1.8015  0.3794  1.5525
 9463SOL     OW40024   3.722   3.084   3.923 -0.1496  0.1701 -0.2377
 9463SOL    HW140025   3.771   3.010   3.959 -1.0039 -1.2734 -2.0321
 9463SOL    HW240026   3.708   3.055   3.833 -0.3726  0.9355 -0.4551
 9464SOL     OW40027   3.123   3.966   4.160 -0.1822  0.5632  0.3044
 9464SOL    HW140028   3.047   3.918   4.129  1.7878 -2.1454 -0.2620
 9464SOL    HW240029   3.089   4.054   4.180 -2.0282 -0.0457 -0.1835
 9465SOL     OW40030   4.156   1.186   2.259  0.5762 -0.0613  0.3993
 9465SOL    HW140031   4.136   1.134   2.181  0.5544 -0.1110  0.4382
 9465SOL    HW240032   4.081   1.244   2.278 -1.5378 -3.2985  1.8792
 9466SOL     OW40033   3.582   1.370   8.664  0.2517  0.2595  0.4757
 9466SOL    HW140034   3.546   1.411   8.585  0.3849 -1.3306 -0.4080
 9466SOL    HW240035   3.668   1.412   8.669  2.1763 -3.5443 -0.6871
 9467SOL     OW40036   4.096   2.116  10.963 -0.2748 -0.0882 -0.0011
 9467SOL    HW140037   4.041   2.187  10.931 -0.4070 -1.3138 -2.5378
 9467SOL    HW240038   4.059   2.114  11.051 -0.8247  0.2821 -0.2290
 9468SOL     OW40039   2.217   1.417   7.485  0.2642  0.4554  0.4405
 9468SOL    HW140040   2.206   1.500   7.438 -0.2102  1.9612  3.1942
 9468SOL    HW240041   2.224   1.446   7.577  1.1413  0.4680  0.3729
 9469SOL     OW40042   4.724   3.370  15.432 -0.0674  0.0160  0.4162
 9469SOL    HW140043   0.043   3.336  15.362  1.3172  0.6245  1.2226
 9469SOL    HW240044   0.003   3.464  15.432 -1.5386  0.2567 -0.5348
 9470SOL     OW40045   3.066   3.198   8.070 -0.0407  0.0478 -0.7227
 9470SOL    HW140046   3.110   3.198   8.155 -1.9757  1.7663  0.2790
 9470SOL    HW240047   2.984   3.152   8.089 -0.7307  1.7977  0.5489
 9471SOL     OW40048   3.683   0.532   8.658 -0.5521 -0.4664 -0.0029
 9471SOL    HW140049   3.760   0.477   8.675 -1.0007 -1.3145 -0.7235
 9471SOL    HW240050   3.612   0.468   8.663 -2.0031  1.2744  1.8966
 9472SOL     OW40051   0.074   4.366  12.088  0.3079 -0.3627 -0.4840
 9472SOL    HW140052   0.042   4.326  12.169 -0.5558 -0.9294 -1.0996
 9472SOL    HW240053   0.007   4.362  12.020  1.1028  0.2029 -1.2963
 9473SOL     OW40054   1.870   2.949   4.968  0.2805 -0.9819  0.0368
 9473SOL    HW140055   1.841   2.977   5.055 -0.4987 -0.3298 -0.4268
 9473SOL    HW240056   1.904   3.031   4.934  0.2071 -1.1713 -0.4882
 9474SOL     OW40057   2.472   2.577   8.091  1.1379  0.1633 -0.4068
 9474SOL    HW140058   2.550   2.594   8.038  2.4140 -1.9818  0.7815
 9474SOL    HW240059   2.423   2.658   8.077 -0.5301 -1.1882 -2.3602
 9475SOL     OW40060   2.415   1.415   7.217  0.1780 -0.1514  0.6195
 9475SOL    HW140061   2.435   1.498   7.259  1.1063 -0.0220 -0.0585
 9475SOL    HW240062   2.477   1.429   7.146  2.0592 -3.3496  1.6173
 9476SOL     OW40063   4.598   1.500  16.410  0.4503 -0.2310 -0.1812
 9476SOL    HW140064   4.672   1.443  16.388  1.1792  0.5140  0.3625
 9476SOL    HW240065   4.574   1.473  16.499  3.3140 -1.9974  0.0373
 9477SOL     OW40066   0.280   2.847  15.757  0.0421  0.4998  0.1849
 9477SOL    HW140067   0.246   2.759  15.771  0.4762  0.1754 -0.7891
 9477SOL    HW240068   0.291   2.882  15.845 -0.2102 -0.7989  0.7217
 9478SOL     OW40069   1.922   4.264  15.411 -0.3122  0.3262 -0.4544
 9478SOL    HW140070   1.924   4.305  15.324 -1.2911  0.7425 -0.2815
 9478SOL    HW240071   1.937   4.344  15.461 -2.9966  0.1482  0.6113
 9479SOL     OW40072   0.754   4.373   2.098 -1.0614 -0.2435 -0.0778
 9479SOL    HW140073   0.691   4.312   2.136 -2.4882  1.0596 -0.3481
 9479SOL    HW240074   0.755   4.343   2.008 -0.7352  1.0102 -0.4927
 9480SOL     OW40075   4.014   3.627  10.734 -0.0458  0.0968  0.1174
 9480SOL    HW140076   3.978   3.612  10.821 -0.3228  0.3225  0.0417
 9480SOL    HW240077   4.062   3.709  10.746 -0.3104 -0.0054  1.8251
 9481SOL     OW40078   4.286   1.555   9.625 -0.2143 -0.3084 -0.0138
 9481SOL    HW140079   4.258   1.585   9.711 -1.2417  1.0773 -0.8352
 9481SOL    HW240080   4.287   1.460   9.636 -0.3486 -0.5513 -1.9971
 9482SOL     OW40081   0.697   0.994   4.908 -0.4789 -0.4435  0.2890
 9482SOL    HW140082   0.723   0.902   4.915  0.5909 -0.0467  1.3845
 9482SOL    HW240083   0.776   1.037   4.875  0.2878 -0.3003  2.2997
 9483SOL     OW40084   1.948   4.098   4.614 -0.0164  0.0331  0.0481
 9483SOL    HW140085   2.043   4.093   4.623  0.1023 -1.0640 -1.7745
 9483SOL    HW240086   1.926   4.187   4.642  0.9529  0.7304 -1.4213
 9484SOL     OW40087   2.686   0.620   5.347  0.1887 -0.1912 -0.5996
 9484SOL    HW140088   2.670   0.530   5.320  3.3350 -1.1549  0.7789
 9484SOL    HW240089   2.781   0.611   5.344  0.1043 -0.9104 -1.1467
 9485SOL     OW40090   4.019   1.658   9.045  0.8620 -0.0838 -0.1361
 9485SOL    HW140091   4.090   1.624   9.100  0.1096  0.0603  0.9043
 9485SOL    HW240092   3.986   1.736   9.089 -0.5220 -0.5812 -0.3028
 9486SOL     OW40093   0.076   3.660   5.712  0.2989  0.1496 -0.0809
 9486SOL    HW140094   0.105   3.735   5.660 -0.0387 -0.9765 -1.8566
 9486SOL    HW240095   0.128   3.679   5.791 -0.1147 -0.2192  0.2820
 9487SOL     OW40096   3.508   2.631   3.362 -0.4062  0.0091  0.1599
 9487SOL    HW140097   3.490   2.561   3.425 -0.7665  0.3975  0.4853
 9487SOL    HW240098   3.592   2.664   3.391 -0.2977 -1.9452  2.0811
 9488SOL     OW40099   0.706   1.683  13.418 -0.4344  0.1807  0.1872
 9488SOL    HW140100   0.759   1.653  13.343 -0.3703  1.8526 -0.4227
 9488SOL    HW240101   0.620   1.661  13.382  0.6658  1.3918 -3.1961
 9489SOL     OW40102   1.404   2.169   4.957 -0.4901  0.0661  0.4304
 9489SOL    HW140103   1.491   2.206   4.974 -0.3886 -0.3556  0.8245
 9489SOL    HW240104   1.391   2.135   5.045 -0.6419 -0.9401  0.0199
 9490SOL     OW40105   3.170   1.000   0.319 -0.2377 -0.3423 -0.0526
 9490SOL    HW140106   3.262   0.995   0.294  0.4415 -0.0416  2.3592
 9490SOL    HW240107   3.133   0.927   0.269 -0.2309  0.6981 -1.5534
 9491SOL     OW40108   4.348   2.311   3.324 -0.3354  0.3395  0.1613
 9491SOL    HW140109   4.399   2.231   3.338  0.9469  0.6080 -2.8609
 9491SOL    HW240110   4.398   2.355   3.255 -0.0311 -1.4857 -0.7840
 9492SOL     OW40111   3.838   0.192   4.060  0.0426  0.5609  0.4187
 9492SOL    HW140112   3.927   0.222   4.079  0.6233 -0.9791  0.0968
 9492SOL    HW240113   3.814   0.251   3.988  3.2802 -1.0266 -2.0187
 9493SOL     OW40114   2.490   2.345   6.363 -0.3791  0.3151 -0.4811
 9493SOL    HW140115   2.398   2.324   6.348 -0.8504  0.3167  2.4616
 9493SOL    HW240116   2.488   2.371   6.455  1.2726  2.6558 -1.0988
 9494SOL     OW40117   1.932   3.013   8.565  0.3991  0.3769 -0.2404
 9494SOL    HW140118   1.869   2.997   8.636 -0.0982  0.8436 -0.5758
 9494SOL    HW240119   1.960   2.924   8.545 -0.1964 -0.0030  0.6032
 9495SOL     OW40120   2.178   2.629   2.477  0.6610 -0.2083  0.4472
 9495SOL    HW140121   2.222   2.712   2.460 -1.1517  0.5796 -0.4197
 9495SOL    HW240122   2.238   2.585   2.537  3.1838 -0.2176 -2.0889
 9496SOL     OW40123   4.572   0.346  13.290 -0.0955  0.1033 -0.4181
 9496SOL    HW140124   4.576   0.257  13.257  0.5776 -1.3739  3.6680
 9496SOL    HW240125   4.526   0.384  13.215  1.0292  0.5418 -0.8855
 9497SOL     OW40126   1.516   2.882   8.075  0.4605  0.0443  0.6188
 9497SOL    HW140127   1.567   2.860   7.997 -1.2787  0.3068 -0.5914
 9497SOL    HW240128   1.506   2.794   8.112 -0.4422 -0.7132 -1.4251
 9498SOL     OW40129   0.633   1.359   2.051  0.5450  0.5657 -0.2066
 9498SOL    HW140130   0.540   1.381   2.054  0.4905  0.5108 -1.4684
 9498SOL    HW240131   0.659   1.435   1.998  1.0818  0.3117 -0.3075
 9499SOL     OW40132   3.843   3.902  10.763  0.2783 -0.4321  1.0608
 9499SOL    HW140133   3.934   3.906  10.794  0.8277 -2.2843 -0.3080
 9499SOL    HW240134   3.835   3.973  10.701  0.2459 -0.4548  1.0394
 9500SOL     OW40135   0.490   0.307  10.910 -0.5354  0.3397  0.3123
 9500SOL    HW140136   0.568   0.302  10.854 -0.8560  0.0004 -0.1001
 9500SOL    HW240137   0.526   0.351  10.987 -0.0773 -0.1575  0.3781
 9501SOL     OW40138   0.302   4.616   4.512  0.1638 -0.7115  0.1578
 9501SOL    HW140139   0.222   4.571   4.537  0.4573 -2.0655 -1.3124
 9501SOL    HW240140   0.344   4.617   4.597 -2.5320 -0.2673  1.4856
 9502SOL     OW40141   2.602   2.090  16.399  0.4634 -0.2919 -0.4873
 9502SOL    HW140142   2.578   2.001  16.423  2.6138 -1.0293 -1.0999
 9502SOL    HW240143   2.601   2.077  16.304 -0.4032  1.4831 -0.7196
 9503SOL     OW40144   3.677   1.846   4.778  0.0437 -0.3713  0.0180
 9503SOL    HW140145   3.728   1.799   4.712 -1.8343  0.6363 -2.1766
 9503SOL    HW240146   3.720   1.929   4.799 -0.4115  0.4340 -2.2125
 9504SOL     OW40147   4.319   2.499   4.710  0.0161  0.1956  0.1364
 9504SOL    HW140148   4.230   2.494   4.675  0.5899 -0.0537 -1.3078
 9504SOL    HW240149   4.340   2.589   4.684  0.1383  0.3365  0.7447
 9505SOL     OW40150   0.246   2.079   5.827 -0.5321  1.0934 -0.6760
 9505SOL    HW140151   0.307   2.152   5.817 -0.7900  1.4532  0.3864
 9505SOL    HW240152   0.273   2.029   5.749 -0.2289 -0.9638  0.7549
 9506SOL     OW40153   2.562   0.502   3.010  0.9044 -0.1928  0.9721
 9506SOL    HW140154   2.547   0.574   2.950  0.9815 -0.5622  0.5109
 9506SOL    HW240155   2.643   0.529   3.054  0.8782  1.7897 -0.1952
 9507SOL     OW40156   0.185   2.467   8.443  0.0822 -0.1517 -0.7966
 9507SOL    HW140157   0.193   2.379   8.478 -2.0798  1.0281  2.6154
 9507SOL    HW240158   0.249   2.508   8.501  0.9636 -0.6088 -1.4484
 9508SOL     OW40159   3.636   1.800   8.314  0.6874  0.1036 -0.4571
 9508SOL    HW140160   3.730   1.782   8.318  0.5038 -0.5326  0.7608
 9508SOL    HW240161   3.608   1.822   8.403 -1.6230 -0.8582 -0.9335
 9509SOL     OW40162   3.048   3.543   6.422 -0.0642  0.1142  0.0050
 9509SOL    HW140163   2.990   3.612   6.453  0.9449 -0.6791  3.7709
 9509SOL    HW240164   3.132   3.566   6.461  1.2925  0.3459 -3.1018
 9510SOL     OW40165   2.163   4.384   6.959 -0.3649 -0.8113  0.0237
 9510SOL    HW140166   2.110   4.412   6.884  2.6600  0.8252 -1.4716
 9510SOL    HW240167   2.111   4.433   7.023  0.2366  1.3277 -1.1449
 9511SOL     OW40168   0.997   3.026  13.928 -0.0705 -0.7032  0.3064
 9511SOL    HW140169   0.949   2.991  14.003 -0.9409  0.9863  0.5452
 9511SOL    HW240170   0.984   3.120  13.937 -0.1378 -0.6475 -0.3762
 9512SOL     OW40171   4.103   1.048   4.043 -0.1524 -0.1365 -0.3264
 9512SOL    HW140172   4.077   1.005   4.124  0.1865  1.0513  0.4061
 9512SOL    HW240173   4.162   0.987   3.999 -0.9983 -0.4646 -1.0096
 9513SOL     OW40174   3.778   4.385   3.219  0.3909 -0.0628  0.5005
 9513SOL    HW140175   3.837   4.417   3.150  2.0195  1.7605  2.7412
 9513SOL    HW240176   3.744   4.299   3.195  0.9604  0.1730 -1.1786
 9514SOL     OW40177   4.460   1.844   3.132 -1.0101 -0.2884 -0.6300
 9514SOL    HW140178   4.545   1.806   3.153 -2.2516 -1.9085  1.4775
 9514SOL    HW240179   4.436   1.812   3.045 -1.6327 -1.3805 -0.0576
 9515SOL     OW40180   1.045   0.935   5.112 -0.1840  0.0231 -0.0173
 9515SOL    HW140181   1.112   0.955   5.046 -0.6824 -0.8760 -0.7970
 9515SOL    HW240182   1.019   1.024   5.135  0.7032  0.4526 -0.6570
 9516SOL     OW40183   0.107   0.247  10.019  0.3676  0.2307 -0.1841
 9516SOL    HW140184   0.128   0.208  10.104  0.3728  0.2592 -0.1723
 9516SOL    HW240185   0.037   0.309  10.041  1.0344  1.1215 -0.5731
 9517SOL     OW40186   1.725   3.090   9.034  0.3507 -0.0966 -0.0798
 9517SOL    HW140187   1.803   3.146   9.029 -0.8228  1.6702  1.5617
 9517SOL    HW240188   1.761   3.018   8.982  0.4567 -0.8728  1.0706
 9518SOL     OW40189   2.299   2.180   9.451  0.1742  0.3084  0.2443
 9518SOL    HW140190   2.289   2.257   9.395  2.1278  0.5198  0.1961
 9518SOL    HW240191   2.294   2.211   9.541 -1.3819  1.0133 -0.0725
 9519SOL     OW40192   1.263   3.314  15.906 -0.2715  0.1184  0.1135
 9519SOL    HW140193   1.224   3.385  15.854 -2.4104 -0.9613  0.2170
 9519SOL    HW240194   1.178   3.294  15.947 -0.6615 -1.2911 -1.3604
 9520SOL     OW40195   4.300   4.269   2.049  0.9708  0.2784  0.5961
 9520SOL    HW140196   4.326   4.349   2.095 -0.0375  0.8963  0.0748
 9520SOL    HW240197   4.363   4.273   1.977  0.2613  0.9057  0.0234
 9521SOL     OW40198   1.822   3.098   5.490  0.2839  0.1235  0.0809
 9521SOL    HW140199   1.800   3.190   5.479 -0.1062  0.3166  2.4783
 9521SOL    HW240200   1.885   3.106   5.562 -0.0054 -0.9931  0.4647
 9522SOL     OW40201   0.692   2.195  13.211  0.4096  0.3309  0.8693
 9522SOL    HW140202   0.647   2.276  13.186  1.3742  0.1306 -1.5470
 9522SOL    HW240203   0.630   2.129  13.182  0.6397  0.6963 -0.4518
 9523SOL     OW40204   2.048   4.570   8.733 -0.1034  0.4162  0.6241
 9523SOL    HW140205   2.139   4.540   8.726 -0.1254  0.5379 -0.1277
 9523SOL    HW240206   2.023   4.520   8.811 -0.8024  0.9335  0.7345
 9524SOL     OW40207   2.489   2.043   7.150  0.1015 -0.3042 -0.5596
 9524SOL    HW140208   2.564   1.987   7.168 -0.5836 -0.6858  1.0673
 9524SOL    HW240209   2.421   1.977   7.137  1.4845 -1.2840 -2.8200
 9525SOL     OW40210   1.662   1.370   6.345  0.2663 -0.2247  0.2213
 9525SOL    HW140211   1.628   1.293   6.299 -0.0912  1.2650 -2.0446
 9525SOL    HW240212   1.730   1.406   6.287  1.7602  1.7360  3.1894
 9526SOL     OW40213   1.596   1.378   3.617  0.3357 -0.5933  0.1963
 9526SOL    HW140214   1.534   1.367   3.689 -0.2301 -1.1983 -0.3877
 9526SOL    HW240215   1.588   1.292   3.576 -0.1031 -0.0470 -0.8512
 9527SOL     OW40216   3.131   1.356   8.595 -0.5006 -0.2506  0.0808
 9527SOL    HW140217   3.181   1.278   8.621  1.3906  1.0252  0.2362
 9527SOL    HW240218   3.050   1.319   8.560  0.2965 -1.1669 -0.8084
 9528SOL     OW40219   0.475   3.114   7.783  0.3443 -0.8882 -0.1088
 9528SOL    HW140220   0.470   3.209   7.775 -1.4933 -1.0089 -0.5968
 9528SOL    HW240221   0.392   3.096   7.828  0.3471 -2.2683 -0.6686
 9529SOL     OW40222   1.214   0.655  14.887  0.0077  0.5050  0.3231
 9529SOL    HW140223   1.284   0.591  14.870  0.2261 -0.0104  3.2185
 9529SOL    HW240224   1.150   0.595  14.926  1.0568 -1.0080 -0.2931
 9530SOL     OW40225   1.032   0.102   6.399 -0.7083 -0.0782 -0.2899
 9530SOL    HW140226   0.946   0.107   6.358 -0.7294  1.6184 -0.0183
 9530SOL    HW240227   1.029   0.154   6.479 -0.0911 -0.5267  0.0265
 9531SOL     OW40228   1.223   4.647   6.971  0.2172  0.2025 -0.6324
 9531SOL    HW140229   1.267   4.708   7.030  0.2033 -0.2519 -0.1526
 9531SOL    HW240230   1.229   4.703   6.894  0.5618  1.9240  0.6468
 9532SOL     OW40231   1.739   4.249   6.278 -0.2641 -0.1681 -0.3669
 9532SOL    HW140232   1.775   4.165   6.307 -1.8606 -0.9050 -0.5301
 9532SOL    HW240233   1.691   4.268   6.359 -1.4478  0.0179 -1.1140
 9533SOL     OW40234   0.020   4.622   2.312 -0.2505  0.1733 -0.1940
 9533SOL    HW140235   0.082   4.622   2.385 -2.0855 -2.5321  1.3433
 9533SOL    HW240236   4.682   4.573   2.347  0.7793 -1.1295  0.1681
 9534SOL     OW40237   3.735   3.151  14.112 -0.1806  0.1341 -0.0653
 9534SOL    HW140238   3.758   3.086  14.179 -0.5112 -1.1395 -1.2009
 9534SOL    HW240239   3.733   3.100  14.032 -1.3844 -2.2216  1.4576
 9535SOL     OW40240   1.677   2.723   6.546  0.4362  0.9516 -0.0159
 9535SOL    HW140241   1.707   2.694   6.632 -0.1008 -1.4044 -0.6408
 9535SOL    HW240242   1.739   2.795   6.534 -0.7100  2.2172  1.4983
 9536SOL     OW40243   1.057   3.946  12.265  0.6004 -0.5587  0.1577
 9536SOL    HW140244   1.007   3.964  12.345  1.7204 -2.2034  1.2358
 9536SOL    HW240245   0.981   3.959  12.209 -0.3703  0.1989  1.6485
 9537SOL     OW40246   2.242   0.193   3.263 -0.7012  0.2567  0.0984
 9537SOL    HW140247   2.333   0.199   3.292 -0.9726 -2.6497  1.6105
 9537SOL    HW240248   2.203   0.218   3.346 -0.8760 -2.6645  0.9235
 9538SOL     OW40249   0.607   2.512   2.228 -0.1940  0.0764  0.3139
 9538SOL    HW140250   0.645   2.520   2.140  0.5476  0.2083  0.6471
 9538SOL    HW240251   0.575   2.601   2.223 -2.5621 -0.6116  3.3831
 9539SOL     OW40252   2.985   3.181  16.157  0.6351 -0.4341 -0.3480
 9539SOL    HW140253   3.061   3.140  16.115  1.1314 -0.7365  0.8487
 9539SOL    HW240254   3.014   3.190  16.248  2.0438 -0.2326 -0.8090
 9540SOL     OW40255   3.720   3.129   6.023  0.2876 -0.0726 -0.0762
 9540SOL    HW140256   3.698   3.114   6.115 -1.7038  3.3056  0.0288
 9540SOL    HW240257   3.656   3.198   6.004 -1.8132 -1.8197  0.5905
 9541SOL     OW40258   0.759   0.254   9.196 -0.2039  0.2540  0.2983
 9541SOL    HW140259   0.780   0.194   9.268  0.8969  2.3431  1.6991
 9541SOL    HW240260   0.788   0.193   9.128 -0.5191 -0.5318  0.8718
 9542SOL     OW40261   1.779   0.128   9.436 -0.3606  0.3532 -0.1504
 9542SOL    HW140262   1.805   0.061   9.499  3.7615  1.0406 -1.0733
 9542SOL    HW240263   1.828   0.201   9.474 -0.4324  0.3665 -0.0849
 9543SOL     OW40264   1.876   1.322   6.085  0.0822 -0.0676 -0.3374
 9543SOL    HW140265   1.932   1.270   6.028 -0.8688  0.5059 -1.7851
 9543SOL    HW240266   1.847   1.388   6.022 -0.6518 -2.0214 -2.0490
 9544SOL     OW40267   3.808   2.253  12.324  0.9634 -0.3761  0.0913
 9544SOL    HW140268   3.788   2.285  12.412  0.2372 -1.2260  0.2322
 9544SOL    HW240269   3.815   2.333  12.271  0.1184 -0.7341 -0.5615
 9545SOL     OW40270   1.022   2.309   3.800  0.3745  0.1348 -0.6630
 9545SOL    HW140271   0.972   2.386   3.827 -2.1526 -1.1379 -1.7392
 9545SOL    HW240272   0.973   2.276   3.725  1.0837 -1.3715 -0.4715
 9546SOL     OW40273   3.343   1.900   4.543  0.1790 -0.2082 -0.5262
 9546SOL    HW140274   3.420   1.859   4.505  1.7244  1.5064  0.7803
 9546SOL    HW240275   3.348   1.985   4.500  2.3741  0.1007  0.3246
 9547SOL     OW40276   0.240   4.592   2.514  0.4085  0.4232  0.1944
 9547SOL    HW140277   0.244   4.513   2.569  0.6960 -1.9648 -3.2410
 9547SOL    HW240278   0.330   4.591   2.482  0.4214  0.5121  0.2280
 9548SOL     OW40279   2.524   4.198   6.297 -0.1086 -0.1523  0.5683
 9548SOL    HW140280   2.432   4.226   6.300 -0.1162  0.2631 -2.9771
 9548SOL    HW240281   2.543   4.210   6.204 -0.9306  1.0143  0.5532
 9549SOL     OW40282   0.117   1.968   8.853  0.0296 -0.2730  0.3423
 9549SOL    HW140283   0.196   2.019   8.869 -1.4376  1.7522  1.2103
 9549SOL    HW240284   0.128   1.904   8.924  0.6371 -1.3491 -0.7355
 9550SOL     OW40285   1.125   2.037   8.052  0.1052 -0.0866 -0.0758
 9550SOL    HW140286   1.198   2.089   8.018 -0.4086 -0.1745 -1.3381
 9550SOL    HW240287   1.165   1.975   8.112  2.2656  2.5987  1.2527
 9551SOL     OW40288   4.310   1.759  13.223 -0.0505  0.5863  0.0843
 9551SOL    HW140289   4.386   1.734  13.276 -1.3473 -4.2798 -0.3765
 9551SOL    HW240290   4.266   1.675  13.216 -1.7069  1.4755 -0.3104
 9552SOL     OW40291   1.129   2.323   7.851  0.1746  0.0967 -0.1741
 9552SOL    HW140292   1.176   2.298   7.930  0.4986  3.7813  0.7862
 9552SOL    HW240293   1.037   2.307   7.869  0.3948 -1.8310 -0.7525
 9553SOL     OW40294   4.445   3.548   6.906 -0.2982  0.2242 -0.3577
 9553SOL    HW140295   4.533   3.547   6.870 -0.3721 -2.2334 -0.5244
 9553SOL    HW240296   4.458   3.496   6.986  0.6204 -0.1093 -0.7322
 9554SOL     OW40297   0.199   1.298   1.099 -0.4656  0.5011 -0.0385
 9554SOL    HW140298   0.189   1.261   1.187 -1.3828  1.9763  0.4809
 9554SOL    HW240299   0.115   1.280   1.056 -0.0425  0.6932 -0.9361
 9555SOL     OW40300   1.501   1.840   8.808  0.5968  0.0073  0.8026
 9555SOL    HW140301   1.471   1.931   8.803 -0.0193 -0.3722 -2.4067
 9555SOL    HW240302   1.441   1.809   8.876  0.5196 -0.8531  0.3436
 9556SOL     OW40303   2.327   1.304   3.270 -0.4387 -0.2626 -0.0709
 9556SOL    HW140304   2.238   1.274   3.247 -0.3819 -1.4180  1.2553
 9556SOL    HW240305   2.383   1.255   3.210  1.1989  3.8005 -1.8551
 9557SOL     OW40306   4.431   2.621  16.878 -0.1935 -0.1214 -0.0316
 9557SOL    HW140307   4.394   2.664  16.955 -0.6928 -1.5334  0.5136
 9557SOL    HW240308   4.514   2.589  16.914  2.1206  1.5596 -3.8584
 9558SOL     OW40309   4.226   1.580   2.155  0.5547 -0.6288  0.6533
 9558SOL    HW140310   4.165   1.535   2.097 -0.9850  0.8896  1.0893
 9558SOL    HW240311   4.239   1.659   2.103 -0.5241  0.3841  1.9254
 9559SOL     OW40312   2.881   1.228   5.971  0.1271  0.7465 -0.2305
 9559SOL    HW140313   2.862   1.177   5.892 -0.1877 -1.2142  1.0995
 9559SOL    HW240314   2.862   1.166   6.042  0.2891 -1.4386 -2.0796
 9560SOL     OW40315   3.975   3.135   8.497 -0.3903  0.1908  0.6148
 9560SOL    HW140316   3.977   3.139   8.592  0.4512 -0.9279  0.6358
 9560SOL    HW240317   3.993   3.227   8.475 -0.6409 -0.0833 -0.7847
 9561SOL     OW40318   0.991   1.555  14.114  0.5022  0.3977  0.2914
 9561SOL    HW140319   1.003   1.566  14.208 -0.6935 -0.6015  0.5523
 9561SOL    HW240320   1.008   1.461  14.108  1.4669  0.5394  0.6651
 9562SOL     OW40321   2.124   4.703  11.013 -0.4275  0.0515  0.1350
 9562SOL    HW140322   2.068   0.041  10.990 -0.3877 -0.4043 -1.4542
 9562SOL    HW240323   2.211   0.005  11.002 -0.3839 -1.1618 -3.9776
 9563SOL     OW40324   3.888   3.685   9.074  0.1349 -0.5437 -0.3072
 9563SOL    HW140325   3.860   3.776   9.082 -1.8625 -0.8639 -4.0333
 9563SOL    HW240326   3.980   3.711   9.066 -0.2283  0.0727 -2.4963
 9564SOL     OW40327   1.654   4.362  10.043 -0.2935  0.3962  0.3096
 9564SOL    HW140328   1.741   4.338  10.076  1.0450  1.2516 -2.6204
 9564SOL    HW240329   1.609   4.356  10.127  3.2449 -0.3158  2.1861
 9565SOL     OW40330   1.481   0.876   4.677 -0.0446  0.1866  0.1353
 9565SOL    HW140331   1.459   0.965   4.650  0.1856  0.4179  0.7134
 9565SOL    HW240332   1.478   0.831   4.593 -2.0763 -1.1066  0.8750
 9566SOL     OW40333   4.341   3.942   4.799  0.6265 -0.2469  0.0479
 9566SOL    HW140334   4.390   3.880   4.853 -2.0311 -1.2125  1.3784
 9566SOL    HW240335   4.307   3.988   4.876 -1.2068  1.5631 -1.8465
 9567SOL     OW40336   3.320   3.573  15.239  0.1302  0.5624  0.3063
 9567SOL    HW140337   3.264   3.646  15.212 -0.2905 -0.6711 -2.1332
 9567SOL    HW240338   3.304   3.502  15.176 -0.7797  0.2461  0.8940
 9568SOL     OW40339   1.191   0.288  14.507  0.2939  0.6640  0.6849
 9568SOL    HW140340   1.286   0.282  14.503  0.1761 -0.3634 -0.6142
 9568SOL    HW240341   1.173   0.274  14.414  1.0545  0.6267  0.5423
 9569SOL     OW40342   3.293   3.114  12.554 -0.2545 -0.5814  0.4041
 9569SOL    HW140343   3.349   3.186  12.585  0.6339 -0.9820 -0.2615
 9569SOL    HW240344   3.213   3.142  12.598 -0.9569 -0.8820 -0.6688
   4.73654   4.73654  17.74465
